<event>
 7    1  0.2688173E-013  0.7246151E+02  0.7816164E-02  0.1226708E+00
        -11   -1    0    0    0    0  0.00000000000E+00  0.00000000000E+00  0.45593999997E+02  0.45594000000E+02  0.51100000000E-03 0.  1.
         11   -1    0    0    0    0 -0.00000000000E+00 -0.00000000000E+00 -0.45593999997E+02  0.45594000000E+02  0.51100000000E-03 0. -1.
    9900012    2    1    2    0    0 -0.16776886472E+02  0.79795782626E+01  0.23545480608E+01  0.72461508457E+02  0.69999919445E+02 0.  0.
        -12    1    1    2    0    0  0.16776886472E+02 -0.79795782626E+01 -0.23545480608E+01  0.18726491543E+02  0.00000000000E+00 0.  1.
         11    1    3    3    0    0 -0.30850352598E+02  0.13675050378E+02 -0.83715513617E+01  0.34768292030E+02  0.51100000000E-03 0. -1.
        -11    1    3    3    0    0 -0.83742387453E+01  0.54808787546E+01 -0.90845053325E+00  0.10049536761E+02  0.51100000000E-03 0.  1.
        -12    1    3    3    0    0  0.22447704871E+02 -0.11176350870E+02  0.11634549956E+02  0.27643679665E+02  0.00000000000E+00 0.  1.
</event>
<event>
 7    1  0.2688173E-013  0.7246164E+02  0.7816164E-02  0.1226708E+00
        -11   -1    0    0    0    0  0.00000000000E+00  0.00000000000E+00  0.45593999997E+02  0.45594000000E+02  0.51100000000E-03 0. -1.
         11   -1    0    0    0    0 -0.00000000000E+00 -0.00000000000E+00 -0.45593999997E+02  0.45594000000E+02  0.51100000000E-03 0.  1.
    9900012    2    1    2    0    0 -0.12983036524E+02  0.61658355458E+01  0.12004157679E+02  0.72461639783E+02  0.70000090522E+02 0.  0.
        -12    1    1    2    0    0  0.12983036524E+02 -0.61658355458E+01 -0.12004157679E+02  0.18726360217E+02  0.00000000000E+00 0.  1.
         11    1    3    3    0    0  0.14139139055E+01  0.18208201942E+01 -0.25580768175E-01  0.23054703096E+01  0.51100000000E-03 0. -1.
        -11    1    3    3    0    0 -0.76205591714E+01  0.27191683843E+02 -0.16716903137E+02  0.32816389854E+02  0.51100000000E-03 0.  1.
         12    1    3    3    0    0 -0.67763912586E+01 -0.22846668491E+02  0.28746641585E+02  0.37339779620E+02  0.00000000000E+00 0. -1.
</event>
<event>
 7    1  0.2688173E-013  0.7246143E+02  0.7816164E-02  0.1226708E+00
        -11   -1    0    0    0    0  0.00000000000E+00  0.00000000000E+00  0.45593999997E+02  0.45594000000E+02  0.51100000000E-03 0.  1.
         11   -1    0    0    0    0 -0.00000000000E+00 -0.00000000000E+00 -0.45593999997E+02  0.45594000000E+02  0.51100000000E-03 0. -1.
    9900012    2    1    2    0    0  0.34615532849E+01  0.10743303247E+02 -0.14942673191E+02  0.72461430696E+02  0.69999818147E+02 0.  0.
        -12    1    1    2    0    0 -0.34615532849E+01 -0.10743303247E+02  0.14942673191E+02  0.18726569304E+02  0.00000000000E+00 0.  1.
         11    1    3    3    0    0 -0.23667801623E+02  0.11158061168E+02  0.26048063650E+00  0.26167441852E+02  0.51100000000E-03 0. -1.
        -11    1    3    3    0    0 -0.16194396461E+01 -0.30512992869E+01  0.83494524691E+01  0.90358380298E+01  0.51100000000E-03 0.  1.
        -12    1    3    3    0    0  0.28748794554E+02  0.26365413664E+01 -0.23552606297E+02  0.37258150814E+02  0.00000000000E+00 0.  1.
</event>
<event>
 7    1  0.2688173E-013  0.7246155E+02  0.7816164E-02  0.1226708E+00
        -11   -1    0    0    0    0  0.00000000000E+00  0.00000000000E+00  0.45593999997E+02  0.45594000000E+02  0.51100000000E-03 0.  1.
         11   -1    0    0    0    0 -0.00000000000E+00 -0.00000000000E+00 -0.45593999997E+02  0.45594000000E+02  0.51100000000E-03 0. -1.
    9900012    2    1    2    0    0  0.14435513099E+02 -0.25731603564E+01 -0.11647942922E+02  0.72461554342E+02  0.69999979219E+02 0.  0.
        -12    1    1    2    0    0 -0.14435513099E+02  0.25731603564E+01  0.11647942922E+02  0.18726445658E+02  0.00000000000E+00 0.  1.
         11    1    3    3    0    0  0.61620824216E+00 -0.18963588108E+02 -0.28038860227E+02  0.33855207423E+02  0.51100000000E-03 0. -1.
        -11    1    3    3    0    0  0.11734868760E+02  0.15491547091E+02 -0.24866215729E+01  0.19592816622E+02  0.51100000000E-03 0.  1.
        -12    1    3    3    0    0  0.20844360973E+01  0.89888066110E+00  0.18877538878E+02  0.19013530297E+02  0.00000000000E+00 0.  1.
</event>
<event>
 7    1  0.2688173E-013  0.7246158E+02  0.7816164E-02  0.1226708E+00
        -11   -1    0    0    0    0  0.00000000000E+00  0.00000000000E+00  0.45593999997E+02  0.45594000000E+02  0.51100000000E-03 0.  1.
         11   -1    0    0    0    0 -0.00000000000E+00 -0.00000000000E+00 -0.45593999997E+02  0.45594000000E+02  0.51100000000E-03 0. -1.
    9900012    2    1    2    0    0 -0.83305776985E+01  0.15905096858E+02 -0.53205532106E+01  0.72461577028E+02  0.70000008772E+02 0.  0.
        -12    1    1    2    0    0  0.83305776985E+01 -0.15905096858E+02  0.53205532106E+01  0.18726422972E+02  0.00000000000E+00 0.  1.
         11    1    3    3    0    0  0.17751807432E+01 -0.18615452432E+01  0.92569534900E+01  0.96076951212E+01  0.51100000000E-03 0. -1.
        -11    1    3    3    0    0 -0.16009797307E+02  0.14222897343E+01  0.19096459944E+02  0.24960194321E+02  0.51100000000E-03 0.  1.
         12    1    3    3    0    0  0.59040388651E+01  0.16344352367E+02 -0.33673966645E+02  0.37893687585E+02  0.00000000000E+00 0. -1.
</event>
<event>
 7    1  0.2688173E-013  0.7246155E+02  0.7816164E-02  0.1226708E+00
        -11   -1    0    0    0    0  0.00000000000E+00  0.00000000000E+00  0.45593999997E+02  0.45594000000E+02  0.51100000000E-03 0.  1.
         11   -1    0    0    0    0 -0.00000000000E+00 -0.00000000000E+00 -0.45593999997E+02  0.45594000000E+02  0.51100000000E-03 0. -1.
    9900012    2    1    2    0    0  0.18360574586E+02 -0.34120547144E+01 -0.13881597327E+01  0.72461553355E+02  0.69999977934E+02 0.  0.
        -12    1    1    2    0    0 -0.18360574586E+02  0.34120547144E+01  0.13881597327E+01  0.18726446645E+02  0.00000000000E+00 0.  1.
         11    1    3    3    0    0  0.45945112335E+01  0.33009264757E+01 -0.32210682616E+01  0.65100637539E+01  0.51100000000E-03 0. -1.
        -11    1    3    3    0    0  0.23010869368E+02  0.82741873573E+01 -0.24277497329E+02  0.34458078332E+02  0.51100000000E-03 0.  1.
         12    1    3    3    0    0 -0.92448060158E+01 -0.14987168547E+02  0.26110405858E+02  0.31493411270E+02  0.00000000000E+00 0. -1.
</event>
<event>
 7    1  0.2688173E-013  0.7246156E+02  0.7816164E-02  0.1226708E+00
        -11   -1    0    0    0    0  0.00000000000E+00  0.00000000000E+00  0.45593999997E+02  0.45594000000E+02  0.51100000000E-03 0. -1.
         11   -1    0    0    0    0 -0.00000000000E+00 -0.00000000000E+00 -0.45593999997E+02  0.45594000000E+02  0.51100000000E-03 0.  1.
    9900012    2    1    2    0    0  0.13935642141E+02 -0.81103552680E+01  0.95236301413E+01  0.72461561056E+02  0.69999987966E+02 0.  0.
        -12    1    1    2    0    0 -0.13935642141E+02  0.81103552680E+01 -0.95236301413E+01  0.18726438944E+02  0.00000000000E+00 0.  1.
         11    1    3    3    0    0  0.18486488326E+02  0.11655749384E+02  0.12259917582E+02  0.25058178779E+02  0.51100000000E-03 0. -1.
        -11    1    3    3    0    0  0.16900446543E+02  0.58479471471E+00 -0.53050324265E+01  0.17723161330E+02  0.51100000000E-03 0.  1.
        -12    1    3    3    0    0 -0.21451292728E+02 -0.20350899366E+02  0.25687449859E+01  0.29680220948E+02  0.00000000000E+00 0.  1.
</event>
<event>
 7    1  0.2688173E-013  0.7246194E+02  0.7816164E-02  0.1226707E+00
        -11   -1    0    0    0    0  0.00000000000E+00  0.00000000000E+00  0.45593999997E+02  0.45594000000E+02  0.51100000000E-03 0.  1.
         11   -1    0    0    0    0 -0.00000000000E+00 -0.00000000000E+00 -0.45593999997E+02  0.45594000000E+02  0.51100000000E-03 0. -1.
    9900012    2    1    2    0    0  0.10030489278E+02 -0.15238926773E+02 -0.42225456031E+01  0.72461935391E+02  0.70000475605E+02 0.  0.
        -12    1    1    2    0    0 -0.10030489278E+02  0.15238926773E+02  0.42225456031E+01  0.18726064609E+02  0.00000000000E+00 0.  1.
         11    1    3    3    0    0 -0.19731172711E+02 -0.13183722878E+02 -0.11540703534E+02  0.26387829843E+02  0.51100000000E-03 0. -1.
        -11    1    3    3    0    0 -0.72825544046E+01 -0.41321066366E+01  0.91135599390E+00  0.84226168096E+01  0.51100000000E-03 0.  1.
        -12    1    3    3    0    0  0.37044216393E+02  0.20769027414E+01  0.64068019371E+01  0.37651488739E+02  0.00000000000E+00 0.  1.
</event>
<event>
 7    1  0.2688173E-013  0.7246158E+02  0.7816164E-02  0.1226708E+00
        -11   -1    0    0    0    0  0.00000000000E+00  0.00000000000E+00  0.45593999997E+02  0.45594000000E+02  0.51100000000E-03 0.  1.
         11   -1    0    0    0    0 -0.00000000000E+00 -0.00000000000E+00 -0.45593999997E+02  0.45594000000E+02  0.51100000000E-03 0. -1.
    9900012    2    1    2    0    0 -0.70273246777E+01 -0.10273399975E+02 -0.13991171112E+02  0.72461577270E+02  0.70000009087E+02 0.  0.
        -12    1    1    2    0    0  0.70273246777E+01  0.10273399975E+02  0.13991171112E+02  0.18726422730E+02  0.00000000000E+00 0.  1.
         11    1    3    3    0    0 -0.25717213975E+02 -0.89341309456E+01 -0.18260135775E+02  0.32781494004E+02  0.51100000000E-03 0. -1.
        -11    1    3    3    0    0  0.22300228380E+01 -0.16380478660E+02 -0.16413368574E+01  0.16612858572E+02  0.51100000000E-03 0.  1.
        -12    1    3    3    0    0  0.16459866459E+02  0.15041209631E+02  0.59103015197E+01  0.23067224694E+02  0.00000000000E+00 0.  1.
</event>
<event>
 7    1  0.2688173E-013  0.7246165E+02  0.7816164E-02  0.1226708E+00
        -11   -1    0    0    0    0  0.00000000000E+00  0.00000000000E+00  0.45593999997E+02  0.45594000000E+02  0.51100000000E-03 0.  1.
         11   -1    0    0    0    0 -0.00000000000E+00 -0.00000000000E+00 -0.45593999997E+02  0.45594000000E+02  0.51100000000E-03 0. -1.
    9900012    2    1    2    0    0  0.16280877096E+02 -0.24684565873E+01 -0.89171748234E+01  0.72461648412E+02  0.70000101763E+02 0.  0.
        -12    1    1    2    0    0 -0.16280877096E+02  0.24684565873E+01  0.89171748234E+01  0.18726351588E+02  0.00000000000E+00 0.  1.
         11    1    3    3    0    0  0.13370752747E+02  0.16255159392E+02  0.12763620578E+01  0.21086401690E+02  0.51100000000E-03 0. -1.
        -11    1    3    3    0    0  0.20000653774E+02 -0.22453057186E+02  0.18679563137E+01  0.30127316333E+02  0.51100000000E-03 0.  1.
         12    1    3    3    0    0 -0.17090529425E+02  0.37294412073E+01 -0.12061493195E+02  0.21247930389E+02  0.00000000000E+00 0. -1.
</event>
<event>
 7    1  0.2688173E-013  0.7246156E+02  0.7816164E-02  0.1226708E+00
        -11   -1    0    0    0    0  0.00000000000E+00  0.00000000000E+00  0.45593999997E+02  0.45594000000E+02  0.51100000000E-03 0. -1.
         11   -1    0    0    0    0 -0.00000000000E+00 -0.00000000000E+00 -0.45593999997E+02  0.45594000000E+02  0.51100000000E-03 0.  1.
    9900012    2    1    2    0    0 -0.18000724231E+02 -0.23491974619E+00  0.51573411371E+01  0.72461563400E+02  0.69999991019E+02 0.  0.
        -12    1    1    2    0    0  0.18000724231E+02  0.23491974619E+00 -0.51573411371E+01  0.18726436600E+02  0.00000000000E+00 0.  1.
         11    1    3    3    0    0 -0.26219795089E+02 -0.80918500432E+00 -0.32532183324E+01  0.26433234094E+02  0.51100000000E-03 0. -1.
        -11    1    3    3    0    0 -0.15343987972E+02 -0.31380727562E+01 -0.74903493198E+01  0.17360610609E+02  0.51100000000E-03 0.  1.
        -12    1    3    3    0    0  0.23563058830E+02  0.37123380144E+01  0.15900908789E+02  0.28667718697E+02  0.00000000000E+00 0.  1.
</event>
<event>
 7    1  0.2688173E-013  0.7246155E+02  0.7816164E-02  0.1226708E+00
        -11   -1    0    0    0    0  0.00000000000E+00  0.00000000000E+00  0.45593999997E+02  0.45594000000E+02  0.51100000000E-03 0.  1.
         11   -1    0    0    0    0 -0.00000000000E+00 -0.00000000000E+00 -0.45593999997E+02  0.45594000000E+02  0.51100000000E-03 0. -1.
    9900012    2    1    2    0    0 -0.35293302508E+01 -0.11508701180E+02 -0.14344812106E+02  0.72461547874E+02  0.69999970793E+02 0.  0.
        -12    1    1    2    0    0  0.35293302508E+01  0.11508701180E+02  0.14344812106E+02  0.18726452126E+02  0.00000000000E+00 0.  1.
         11    1    3    3    0    0 -0.94655889468E+01 -0.23117388624E+02 -0.10705112937E+02  0.27177389024E+02  0.51100000000E-03 0. -1.
        -11    1    3    3    0    0 -0.99716725442E+01 -0.12629346927E+02 -0.23875033708E+00  0.16093217799E+02  0.51100000000E-03 0.  1.
         12    1    3    3    0    0  0.15907931240E+02  0.24238034371E+02 -0.34009488314E+01  0.29190941051E+02  0.00000000000E+00 0. -1.
</event>
<event>
 7    1  0.2688173E-013  0.7246156E+02  0.7816164E-02  0.1226708E+00
        -11   -1    0    0    0    0  0.00000000000E+00  0.00000000000E+00  0.45593999997E+02  0.45594000000E+02  0.51100000000E-03 0.  1.
         11   -1    0    0    0    0 -0.00000000000E+00 -0.00000000000E+00 -0.45593999997E+02  0.45594000000E+02  0.51100000000E-03 0. -1.
    9900012    2    1    2    0    0  0.13803050938E+02 -0.57725484170E+01  0.11262009260E+02  0.72461564594E+02  0.69999992575E+02 0.  0.
        -12    1    1    2    0    0 -0.13803050938E+02  0.57725484170E+01 -0.11262009260E+02  0.18726435406E+02  0.00000000000E+00 0.  1.
         11    1    3    3    0    0  0.46682560777E+01 -0.29917888700E+02  0.14888299001E+02  0.33742171336E+02  0.51100000000E-03 0. -1.
        -11    1    3    3    0    0 -0.10362291061E+02  0.69937967715E+01 -0.12428206789E-01  0.12501616857E+02  0.51100000000E-03 0.  1.
        -12    1    3    3    0    0  0.19497085921E+02  0.17151543512E+02 -0.36138615342E+01  0.26217776402E+02  0.00000000000E+00 0.  1.
</event>
<event>
 7    1  0.2688173E-013  0.7246159E+02  0.7816164E-02  0.1226708E+00
        -11   -1    0    0    0    0  0.00000000000E+00  0.00000000000E+00  0.45593999997E+02  0.45594000000E+02  0.51100000000E-03 0.  1.
         11   -1    0    0    0    0 -0.00000000000E+00 -0.00000000000E+00 -0.45593999997E+02  0.45594000000E+02  0.51100000000E-03 0. -1.
    9900012    2    1    2    0    0 -0.10127337836E+02  0.15570656644E+02  0.23812049183E+01  0.72461589323E+02  0.70000024789E+02 0.  0.
        -12    1    1    2    0    0  0.10127337836E+02 -0.15570656644E+02 -0.23812049183E+01  0.18726410677E+02  0.00000000000E+00 0.  1.
         11    1    3    3    0    0 -0.27039270765E+02 -0.17658775757E+01 -0.36673696514E+01  0.27343922314E+02  0.51100000000E-03 0.  1.
        -11    1    3    3    0    0  0.77926055855E+01  0.10193973697E+02 -0.15820751326E+02  0.20370026371E+02  0.51100000000E-03 0. -1.
        -12    1    3    3    0    0  0.91193273435E+01  0.71425605227E+01  0.21869325896E+02  0.24747640638E+02  0.00000000000E+00 0.  1.
</event>
<event>
 7    1  0.2688173E-013  0.7246157E+02  0.7816164E-02  0.1226708E+00
        -11   -1    0    0    0    0  0.00000000000E+00  0.00000000000E+00  0.45593999997E+02  0.45594000000E+02  0.51100000000E-03 0. -1.
         11   -1    0    0    0    0 -0.00000000000E+00 -0.00000000000E+00 -0.45593999997E+02  0.45594000000E+02  0.51100000000E-03 0.  1.
    9900012    2    1    2    0    0  0.40156452491E+01 -0.66035394870E+01  0.17057174437E+02  0.72461565734E+02  0.69999994060E+02 0.  0.
        -12    1    1    2    0    0 -0.40156452491E+01  0.66035394870E+01 -0.17057174437E+02  0.18726434266E+02  0.00000000000E+00 0.  1.
         11    1    3    3    0    0 -0.45661638192E+01  0.22590601670E+02  0.11182385896E+02  0.25617003932E+02  0.51100000000E-03 0. -1.
        -11    1    3    3    0    0 -0.10930552742E+02 -0.22245948094E+01  0.76232190223E+01  0.13510709598E+02  0.51100000000E-03 0.  1.
        -12    1    3    3    0    0  0.19512361811E+02 -0.26969546348E+02 -0.17484304811E+01  0.33333852205E+02  0.00000000000E+00 0.  1.
</event>
<event>
 7    1  0.2688173E-013  0.7246156E+02  0.7816164E-02  0.1226708E+00
        -11   -1    0    0    0    0  0.00000000000E+00  0.00000000000E+00  0.45593999997E+02  0.45594000000E+02  0.51100000000E-03 0.  1.
         11   -1    0    0    0    0 -0.00000000000E+00 -0.00000000000E+00 -0.45593999997E+02  0.45594000000E+02  0.51100000000E-03 0. -1.
    9900012    2    1    2    0    0  0.39519682419E+01 -0.16932610790E+02  0.69532765495E+01  0.72461563716E+02  0.69999991430E+02 0.  0.
        -12    1    1    2    0    0 -0.39519682419E+01  0.16932610790E+02 -0.69532765495E+01  0.18726436284E+02  0.00000000000E+00 0.  1.
         11    1    3    3    0    0 -0.87127950302E+01  0.12971710713E+02  0.59207446894E+01  0.16710275102E+02  0.51100000000E-03 0. -1.
        -11    1    3    3    0    0 -0.48869733195E+01 -0.15963195296E+02  0.20237218045E+02  0.26234540338E+02  0.51100000000E-03 0.  1.
         12    1    3    3    0    0  0.17551736592E+02 -0.13941126206E+02 -0.19204686185E+02  0.29516748275E+02  0.00000000000E+00 0. -1.
</event>
<event>
 7    1  0.2688173E-013  0.7246157E+02  0.7816164E-02  0.1226708E+00
        -11   -1    0    0    0    0  0.00000000000E+00  0.00000000000E+00  0.45593999997E+02  0.45594000000E+02  0.51100000000E-03 0.  1.
         11   -1    0    0    0    0 -0.00000000000E+00 -0.00000000000E+00 -0.45593999997E+02  0.45594000000E+02  0.51100000000E-03 0. -1.
    9900012    2    1    2    0    0  0.13487806124E+02  0.11896724677E+02  0.52178716764E+01  0.72461570631E+02  0.70000000439E+02 0.  0.
        -12    1    1    2    0    0 -0.13487806124E+02 -0.11896724677E+02 -0.52178716764E+01  0.18726429369E+02  0.00000000000E+00 0.  1.
         11    1    3    3    0    0  0.11216780753E+02  0.14585840551E+02 -0.14157774809E+02  0.23216492044E+02  0.51100000000E-03 0. -1.
        -11    1    3    3    0    0 -0.99518727944E+01  0.17763662241E+02  0.14306591127E+02  0.24885056123E+02  0.51100000000E-03 0.  1.
         12    1    3    3    0    0  0.12222898165E+02 -0.20452778116E+02  0.50690553585E+01  0.24360022464E+02  0.00000000000E+00 0. -1.
</event>
<event>
 7    1  0.2688173E-013  0.7246155E+02  0.7816164E-02  0.1226708E+00
        -11   -1    0    0    0    0  0.00000000000E+00  0.00000000000E+00  0.45593999997E+02  0.45594000000E+02  0.51100000000E-03 0.  1.
         11   -1    0    0    0    0 -0.00000000000E+00 -0.00000000000E+00 -0.45593999997E+02  0.45594000000E+02  0.51100000000E-03 0. -1.
    9900012    2    1    2    0    0  0.43048666507E+01 -0.17680657975E+02  0.44206839934E+01  0.72461548380E+02  0.69999971453E+02 0.  0.
        -12    1    1    2    0    0 -0.43048666507E+01  0.17680657975E+02 -0.44206839934E+01  0.18726451620E+02  0.00000000000E+00 0.  1.
         11    1    3    3    0    0 -0.15647500151E+02 -0.64529513409E+01  0.21510654070E+01  0.17062002363E+02  0.51100000000E-03 0. -1.
        -11    1    3    3    0    0 -0.96059501019E+01  0.11648220300E+02 -0.73686180453E+01  0.16800352546E+02  0.51100000000E-03 0.  1.
        -12    1    3    3    0    0  0.29558316903E+02 -0.22875926934E+02  0.96382366317E+01  0.38599193471E+02  0.00000000000E+00 0.  1.
</event>
<event>
 7    1  0.2688173E-013  0.7246158E+02  0.7816164E-02  0.1226708E+00
        -11   -1    0    0    0    0  0.00000000000E+00  0.00000000000E+00  0.45593999997E+02  0.45594000000E+02  0.51100000000E-03 0. -1.
         11   -1    0    0    0    0 -0.00000000000E+00 -0.00000000000E+00 -0.45593999997E+02  0.45594000000E+02  0.51100000000E-03 0.  1.
    9900012    2    1    2    0    0 -0.16045382321E+02 -0.85640328824E+01  0.44588912689E+01  0.72461583781E+02  0.70000017569E+02 0.  0.
        -12    1    1    2    0    0  0.16045382321E+02  0.85640328824E+01 -0.44588912689E+01  0.18726416219E+02  0.00000000000E+00 0.  1.
         11    1    3    3    0    0  0.46902805029E+01 -0.69756821198E+01 -0.30809733027E+01  0.89527241098E+01  0.51100000000E-03 0. -1.
        -11    1    3    3    0    0 -0.26818759703E+02  0.22340525179E+02 -0.58968789455E+01  0.35399408453E+02  0.51100000000E-03 0.  1.
         12    1    3    3    0    0  0.60830968781E+01 -0.23928875942E+02  0.13436743517E+02  0.28109451218E+02  0.00000000000E+00 0. -1.
</event>
<event>
 7    1  0.2688173E-013  0.7246157E+02  0.7816164E-02  0.1226708E+00
        -11   -1    0    0    0    0  0.00000000000E+00  0.00000000000E+00  0.45593999997E+02  0.45594000000E+02  0.51100000000E-03 0. -1.
         11   -1    0    0    0    0 -0.00000000000E+00 -0.00000000000E+00 -0.45593999997E+02  0.45594000000E+02  0.51100000000E-03 0.  1.
    9900012    2    1    2    0    0 -0.54944558487E+01  0.76225190698E+01  0.16198377983E+02  0.72461567042E+02  0.69999995763E+02 0.  0.
        -12    1    1    2    0    0  0.54944558487E+01 -0.76225190698E+01 -0.16198377983E+02  0.18726432958E+02  0.00000000000E+00 0.  1.
         11    1    3    3    0    0  0.13765576286E+02  0.25269187635E+02  0.13819214689E+02  0.31921679610E+02  0.51100000000E-03 0. -1.
        -11    1    3    3    0    0  0.81549228143E+01 -0.61586227008E+01 -0.22309652661E+01  0.10459856880E+02  0.51100000000E-03 0.  1.
        -12    1    3    3    0    0 -0.27414954949E+02 -0.11488045865E+02  0.46101285605E+01  0.30080030552E+02  0.00000000000E+00 0.  1.
</event>
<event>
 7    1  0.2688173E-013  0.7246156E+02  0.7816164E-02  0.1226708E+00
        -11   -1    0    0    0    0  0.00000000000E+00  0.00000000000E+00  0.45593999997E+02  0.45594000000E+02  0.51100000000E-03 0.  1.
         11   -1    0    0    0    0 -0.00000000000E+00 -0.00000000000E+00 -0.45593999997E+02  0.45594000000E+02  0.51100000000E-03 0. -1.
    9900012    2    1    2    0    0 -0.44977619968E+01 -0.16116033422E+02 -0.84097042381E+01  0.72461560894E+02  0.69999987754E+02 0.  0.
        -12    1    1    2    0    0  0.44977619968E+01  0.16116033422E+02  0.84097042381E+01  0.18726439106E+02  0.00000000000E+00 0.  1.
         11    1    3    3    0    0 -0.73669563628E+01 -0.22731071307E+01 -0.19097725750E+02  0.20595198255E+02  0.51100000000E-03 0. -1.
        -11    1    3    3    0    0 -0.14146461560E+02 -0.26055794731E+02  0.82843325770E+01  0.30784037751E+02  0.51100000000E-03 0.  1.
        -12    1    3    3    0    0  0.17015655926E+02  0.12212868440E+02  0.24036889353E+01  0.21082324887E+02  0.00000000000E+00 0.  1.
</event>
<event>
 7    1  0.2688173E-013  0.7246169E+02  0.7816164E-02  0.1226708E+00
        -11   -1    0    0    0    0  0.00000000000E+00  0.00000000000E+00  0.45593999997E+02  0.45594000000E+02  0.51100000000E-03 0. -1.
         11   -1    0    0    0    0 -0.00000000000E+00 -0.00000000000E+00 -0.45593999997E+02  0.45594000000E+02  0.51100000000E-03 0.  1.
    9900012    2    1    2    0    0  0.17605824662E+02  0.52115422726E+01  0.36809590918E+01  0.72461689773E+02  0.70000155643E+02 0.  0.
        -12    1    1    2    0    0 -0.17605824662E+02 -0.52115422726E+01 -0.36809590918E+01  0.18726310227E+02  0.00000000000E+00 0.  1.
         11    1    3    3    0    0  0.10988485166E+02  0.26664769353E+02 -0.43843805764E+01  0.29171553338E+02  0.51100000000E-03 0. -1.
        -11    1    3    3    0    0  0.21145954568E+02 -0.10879729046E+02  0.47904685044E+00  0.23785486853E+02  0.51100000000E-03 0.  1.
         12    1    3    3    0    0 -0.14528615072E+02 -0.10573498035E+02  0.75862928178E+01  0.19504649582E+02  0.00000000000E+00 0. -1.
</event>
<event>
 7    1  0.2688173E-013  0.7246154E+02  0.7816164E-02  0.1226708E+00
        -11   -1    0    0    0    0  0.00000000000E+00  0.00000000000E+00  0.45593999997E+02  0.45594000000E+02  0.51100000000E-03 0.  1.
         11   -1    0    0    0    0 -0.00000000000E+00 -0.00000000000E+00 -0.45593999997E+02  0.45594000000E+02  0.51100000000E-03 0. -1.
    9900012    2    1    2    0    0 -0.17010381696E+02  0.35070625941E-01 -0.78311003488E+01  0.72461536157E+02  0.69999955530E+02 0.  0.
        -12    1    1    2    0    0  0.17010381696E+02 -0.35070625941E-01  0.78311003488E+01  0.18726463843E+02  0.00000000000E+00 0.  1.
         11    1    3    3    0    0 -0.34933003521E+02  0.82643333934E+01  0.13662360158E+02  0.38409296098E+02  0.51100000000E-03 0. -1.
        -11    1    3    3    0    0  0.31574779976E+01 -0.33153168323E+01  0.26785693072E+01  0.53043120948E+01  0.51100000000E-03 0.  1.
        -12    1    3    3    0    0  0.14765143828E+02 -0.49139459352E+01 -0.24172029814E+02  0.28747927964E+02  0.00000000000E+00 0.  1.
</event>
<event>
 7    1  0.2688173E-013  0.7246153E+02  0.7816164E-02  0.1226708E+00
        -11   -1    0    0    0    0  0.00000000000E+00  0.00000000000E+00  0.45593999997E+02  0.45594000000E+02  0.51100000000E-03 0.  1.
         11   -1    0    0    0    0 -0.00000000000E+00 -0.00000000000E+00 -0.45593999997E+02  0.45594000000E+02  0.51100000000E-03 0. -1.
    9900012    2    1    2    0    0  0.35752747743E+01 -0.16134351604E+02  0.88079898913E+01  0.72461532706E+02  0.69999951034E+02 0.  0.
        -12    1    1    2    0    0 -0.35752747743E+01  0.16134351604E+02 -0.88079898913E+01  0.18726467294E+02  0.00000000000E+00 0.  1.
         11    1    3    3    0    0 -0.21744045632E+02  0.14661646476E+01  0.92922088082E+01  0.23691734931E+02  0.51100000000E-03 0. -1.
        -11    1    3    3    0    0  0.49193129706E+01 -0.24497028372E+02  0.70399997615E+01  0.25958922090E+02  0.51100000000E-03 0.  1.
        -12    1    3    3    0    0  0.20400007436E+02  0.68965121204E+01 -0.75242186783E+01  0.22810875685E+02  0.00000000000E+00 0.  1.
</event>
<event>
 7    1  0.2688173E-013  0.7246202E+02  0.7816164E-02  0.1226707E+00
        -11   -1    0    0    0    0  0.00000000000E+00  0.00000000000E+00  0.45593999997E+02  0.45594000000E+02  0.51100000000E-03 0. -1.
         11   -1    0    0    0    0 -0.00000000000E+00 -0.00000000000E+00 -0.45593999997E+02  0.45594000000E+02  0.51100000000E-03 0.  1.
    9900012    2    1    2    0    0 -0.16208469727E+02  0.92248959129E+01  0.16878948075E+01  0.72462023807E+02  0.70000590782E+02 0.  0.
        -12    1    1    2    0    0  0.16208469727E+02 -0.92248959129E+01 -0.16878948075E+01  0.18725976193E+02  0.00000000000E+00 0.  1.
         11    1    3    3    0    0  0.96410771132E+01 -0.89141415713E+01 -0.13712251550E+01  0.13201990249E+02  0.51100000000E-03 0. -1.
        -11    1    3    3    0    0 -0.10065318984E+02  0.27603465304E+02  0.18935218400E+02  0.34954319320E+02  0.51100000000E-03 0.  1.
         12    1    3    3    0    0 -0.15784227857E+02 -0.94644278195E+01 -0.15876098438E+02  0.24305714237E+02  0.00000000000E+00 0. -1.
</event>
<event>
 7    1  0.2688173E-013  0.7246155E+02  0.7816164E-02  0.1226708E+00
        -11   -1    0    0    0    0  0.00000000000E+00  0.00000000000E+00  0.45593999997E+02  0.45594000000E+02  0.51100000000E-03 0.  1.
         11   -1    0    0    0    0 -0.00000000000E+00 -0.00000000000E+00 -0.45593999997E+02  0.45594000000E+02  0.51100000000E-03 0. -1.
    9900012    2    1    2    0    0 -0.15297655812E+02  0.10377921928E+02 -0.29933975543E+01  0.72461549033E+02  0.69999972304E+02 0.  0.
        -12    1    1    2    0    0  0.15297655812E+02 -0.10377921928E+02  0.29933975543E+01  0.18726450967E+02  0.00000000000E+00 0.  1.
         11    1    3    3    0    0 -0.70370725357E+01 -0.54979554230E+01 -0.34545595534E+01  0.95750658314E+01  0.51100000000E-03 0. -1.
        -11    1    3    3    0    0 -0.16107404357E+02 -0.97183552641E+01  0.21696670136E+02  0.28716552707E+02  0.51100000000E-03 0.  1.
         12    1    3    3    0    0  0.78468210800E+01  0.25594232615E+02 -0.21235508136E+02  0.34169930495E+02  0.00000000000E+00 0. -1.
</event>
<event>
 7    1  0.2688173E-013  0.7246151E+02  0.7816164E-02  0.1226708E+00
        -11   -1    0    0    0    0  0.00000000000E+00  0.00000000000E+00  0.45593999997E+02  0.45594000000E+02  0.51100000000E-03 0.  1.
         11   -1    0    0    0    0 -0.00000000000E+00 -0.00000000000E+00 -0.45593999997E+02  0.45594000000E+02  0.51100000000E-03 0. -1.
    9900012    2    1    2    0    0 -0.60360904932E+01 -0.64250162145E+01 -0.16521687187E+02  0.72461511559E+02  0.69999923487E+02 0.  0.
        -12    1    1    2    0    0  0.60360904932E+01  0.64250162145E+01  0.16521687187E+02  0.18726488441E+02  0.00000000000E+00 0.  1.
         11    1    3    3    0    0  0.29062481772E+01  0.12553103895E+01  0.73343034833E+01  0.79883722051E+01  0.51100000000E-03 0. -1.
        -11    1    3    3    0    0 -0.12032035023E+01  0.82330824353E+01  0.17562010037E+02  0.19433361568E+02  0.51100000000E-03 0.  1.
         12    1    3    3    0    0 -0.77391351681E+01 -0.15913409039E+02 -0.41418000707E+02  0.45039777786E+02  0.00000000000E+00 0. -1.
</event>
<event>
 7    1  0.2688173E-013  0.7246164E+02  0.7816164E-02  0.1226708E+00
        -11   -1    0    0    0    0  0.00000000000E+00  0.00000000000E+00  0.45593999997E+02  0.45594000000E+02  0.51100000000E-03 0. -1.
         11   -1    0    0    0    0 -0.00000000000E+00 -0.00000000000E+00 -0.45593999997E+02  0.45594000000E+02  0.51100000000E-03 0.  1.
    9900012    2    1    2    0    0 -0.11593211280E+02  0.56573000086E+01  0.13574573324E+02  0.72461638045E+02  0.70000088257E+02 0.  0.
        -12    1    1    2    0    0  0.11593211280E+02 -0.56573000086E+01 -0.13574573324E+02  0.18726361955E+02  0.00000000000E+00 0.  1.
         11    1    3    3    0    0  0.12495516225E+02  0.57290594425E+01  0.24662347367E+02  0.28234578548E+02  0.51100000000E-03 0. -1.
        -11    1    3    3    0    0 -0.17168756021E+02  0.10821956013E+02  0.74673451539E+01  0.21625035472E+02  0.51100000000E-03 0.  1.
        -12    1    3    3    0    0 -0.69199714839E+01 -0.10893715447E+02 -0.18555119198E+02  0.22602024025E+02  0.00000000000E+00 0.  1.
</event>
<event>
 7    1  0.2688173E-013  0.7246147E+02  0.7816164E-02  0.1226708E+00
        -11   -1    0    0    0    0  0.00000000000E+00  0.00000000000E+00  0.45593999997E+02  0.45594000000E+02  0.51100000000E-03 0.  1.
         11   -1    0    0    0    0 -0.00000000000E+00 -0.00000000000E+00 -0.45593999997E+02  0.45594000000E+02  0.51100000000E-03 0. -1.
    9900012    2    1    2    0    0 -0.13249887517E+02  0.76718028719E+01 -0.10782702639E+02  0.72461474570E+02  0.69999875301E+02 0.  0.
        -12    1    1    2    0    0  0.13249887517E+02 -0.76718028719E+01  0.10782702639E+02  0.18726525430E+02  0.00000000000E+00 0.  1.
         11    1    3    3    0    0  0.10705214003E+02  0.22625085808E+02 -0.83492247021E+01  0.26385709542E+02  0.51100000000E-03 0. -1.
        -11    1    3    3    0    0 -0.11064300992E+02 -0.12132482553E+02 -0.18859407392E+02  0.25005862049E+02  0.51100000000E-03 0.  1.
        -12    1    3    3    0    0 -0.12890800528E+02 -0.28208003827E+01  0.16425929456E+02  0.21069902979E+02  0.00000000000E+00 0.  1.
</event>
<event>
 7    1  0.2688173E-013  0.7246157E+02  0.7816164E-02  0.1226708E+00
        -11   -1    0    0    0    0  0.00000000000E+00  0.00000000000E+00  0.45593999997E+02  0.45594000000E+02  0.51100000000E-03 0. -1.
         11   -1    0    0    0    0 -0.00000000000E+00 -0.00000000000E+00 -0.45593999997E+02  0.45594000000E+02  0.51100000000E-03 0.  1.
    9900012    2    1    2    0    0 -0.58923353443E+01  0.14194211788E+02  0.10699707423E+02  0.72461574740E+02  0.70000005791E+02 0.  0.
        -12    1    1    2    0    0  0.58923353443E+01 -0.14194211788E+02 -0.10699707423E+02  0.18726425260E+02  0.00000000000E+00 0.  1.
         11    1    3    3    0    0  0.43388462031E+01  0.31697833375E+02  0.13858414551E+02  0.34865941564E+02  0.51100000000E-03 0. -1.
        -11    1    3    3    0    0  0.36427574900E+01 -0.10760333619E+02  0.11607452151E+02  0.16241533408E+02  0.51100000000E-03 0.  1.
        -12    1    3    3    0    0 -0.13873939037E+02 -0.67432879672E+01 -0.14766159280E+02  0.21354099768E+02  0.00000000000E+00 0.  1.
</event>
<event>
 7    1  0.2688173E-013  0.7246149E+02  0.7816164E-02  0.1226708E+00
        -11   -1    0    0    0    0  0.00000000000E+00  0.00000000000E+00  0.45593999997E+02  0.45594000000E+02  0.51100000000E-03 0.  1.
         11   -1    0    0    0    0 -0.00000000000E+00 -0.00000000000E+00 -0.45593999997E+02  0.45594000000E+02  0.51100000000E-03 0. -1.
    9900012    2    1    2    0    0 -0.26834980839E+01 -0.39390589251E+01 -0.18109794885E+02  0.72461494240E+02  0.69999900926E+02 0.  0.
        -12    1    1    2    0    0  0.26834980839E+01  0.39390589251E+01  0.18109794885E+02  0.18726505760E+02  0.00000000000E+00 0.  1.
         11    1    3    3    0    0  0.69449387516E+01 -0.67196986587E+01  0.37705083368E+01  0.10373199010E+02  0.51100000000E-03 0. -1.
        -11    1    3    3    0    0  0.46172743732E+01 -0.23560316448E+02  0.15596905812E+01  0.24059101578E+02  0.51100000000E-03 0.  1.
         12    1    3    3    0    0 -0.14245711209E+02  0.26340956181E+02 -0.23439993803E+02  0.38029193653E+02  0.00000000000E+00 0. -1.
</event>
<event>
 7    1  0.2688173E-013  0.7246159E+02  0.7816164E-02  0.1226708E+00
        -11   -1    0    0    0    0  0.00000000000E+00  0.00000000000E+00  0.45593999997E+02  0.45594000000E+02  0.51100000000E-03 0.  1.
         11   -1    0    0    0    0 -0.00000000000E+00 -0.00000000000E+00 -0.45593999997E+02  0.45594000000E+02  0.51100000000E-03 0. -1.
    9900012    2    1    2    0    0  0.49030998810E+01 -0.95198424959E+01 -0.15362643252E+02  0.72461585574E+02  0.70000019904E+02 0.  0.
        -12    1    1    2    0    0 -0.49030998810E+01  0.95198424959E+01  0.15362643252E+02  0.18726414426E+02  0.00000000000E+00 0.  1.
         11    1    3    3    0    0  0.16660030382E+01 -0.23499034249E+02 -0.66260535717E+01  0.24472122159E+02  0.51100000000E-03 0. -1.
        -11    1    3    3    0    0  0.21592366852E+02  0.89628881228E+01  0.57485302749E+01  0.24075075709E+02  0.51100000000E-03 0.  1.
         12    1    3    3    0    0 -0.18355270009E+02  0.50163036306E+01 -0.14485119955E+02  0.23914387706E+02  0.00000000000E+00 0. -1.
</event>
<event>
 7    1  0.2688173E-013  0.7246124E+02  0.7816164E-02  0.1226709E+00
        -11   -1    0    0    0    0  0.00000000000E+00  0.00000000000E+00  0.45593999997E+02  0.45594000000E+02  0.51100000000E-03 0.  1.
         11   -1    0    0    0    0 -0.00000000000E+00 -0.00000000000E+00 -0.45593999997E+02  0.45594000000E+02  0.51100000000E-03 0. -1.
    9900012    2    1    2    0    0  0.96436304297E+01 -0.16037242236E+02  0.70635882529E+00  0.72461236019E+02  0.69999564543E+02 0.  0.
        -12    1    1    2    0    0 -0.96436304297E+01  0.16037242236E+02 -0.70635882529E+00  0.18726763981E+02  0.00000000000E+00 0.  1.
         11    1    3    3    0    0  0.14604697130E+02  0.31603057045E+01 -0.18130235482E+02  0.23494470611E+02  0.51100000000E-03 0. -1.
        -11    1    3    3    0    0 -0.16376297663E+02  0.19263183866E+01 -0.27042335350E+01  0.16709479554E+02  0.51100000000E-03 0.  1.
        -12    1    3    3    0    0  0.11415230963E+02 -0.21123866327E+02  0.21540827842E+02  0.32257285854E+02  0.00000000000E+00 0.  1.
</event>
<event>
 7    1  0.2688173E-013  0.7246143E+02  0.7816164E-02  0.1226708E+00
        -11   -1    0    0    0    0  0.00000000000E+00  0.00000000000E+00  0.45593999997E+02  0.45594000000E+02  0.51100000000E-03 0.  1.
         11   -1    0    0    0    0 -0.00000000000E+00 -0.00000000000E+00 -0.45593999997E+02  0.45594000000E+02  0.51100000000E-03 0. -1.
    9900012    2    1    2    0    0 -0.65873456220E+01  0.22852612418E+01 -0.17380132240E+02  0.72461426956E+02  0.69999813275E+02 0.  0.
        -12    1    1    2    0    0  0.65873456220E+01 -0.22852612418E+01  0.17380132240E+02  0.18726573044E+02  0.00000000000E+00 0.  1.
         11    1    3    3    0    0  0.20150978182E+02 -0.69675326040E+01  0.10929552512E+02  0.23959623342E+02  0.51100000000E-03 0. -1.
        -11    1    3    3    0    0  0.35767570899E+01  0.52076671927E+01 -0.12654993294E+02  0.14144321985E+02  0.51100000000E-03 0.  1.
        -12    1    3    3    0    0 -0.30315080894E+02  0.40451266531E+01 -0.15654691458E+02  0.34357481629E+02  0.00000000000E+00 0.  1.
</event>
<event>
 7    1  0.2688173E-013  0.7246155E+02  0.7816164E-02  0.1226708E+00
        -11   -1    0    0    0    0  0.00000000000E+00  0.00000000000E+00  0.45593999997E+02  0.45594000000E+02  0.51100000000E-03 0.  1.
         11   -1    0    0    0    0 -0.00000000000E+00 -0.00000000000E+00 -0.45593999997E+02  0.45594000000E+02  0.51100000000E-03 0. -1.
    9900012    2    1    2    0    0  0.37847046250E+01 -0.25189413095E+01 -0.18166199115E+02  0.72461552267E+02  0.69999976516E+02 0.  0.
        -12    1    1    2    0    0 -0.37847046250E+01  0.25189413095E+01  0.18166199115E+02  0.18726447733E+02  0.00000000000E+00 0.  1.
         11    1    3    3    0    0 -0.45976047447E+01  0.19531826205E+01 -0.31468474840E+02  0.31862482652E+02  0.51100000000E-03 0. -1.
        -11    1    3    3    0    0 -0.12822232693E+02 -0.44752074275E+00  0.14019431240E+02  0.19004062161E+02  0.51100000000E-03 0.  1.
        -12    1    3    3    0    0  0.21204542063E+02 -0.40246031872E+01 -0.71715551490E+00  0.21595007454E+02  0.00000000000E+00 0.  1.
</event>
<event>
 7    1  0.2688173E-013  0.7246155E+02  0.7816164E-02  0.1226708E+00
        -11   -1    0    0    0    0  0.00000000000E+00  0.00000000000E+00  0.45593999997E+02  0.45594000000E+02  0.51100000000E-03 0. -1.
         11   -1    0    0    0    0 -0.00000000000E+00 -0.00000000000E+00 -0.45593999997E+02  0.45594000000E+02  0.51100000000E-03 0.  1.
    9900012    2    1    2    0    0 -0.34596616350E+01 -0.13584564897E+02  0.12416536711E+02  0.72461546893E+02  0.69999969516E+02 0.  0.
        -12    1    1    2    0    0  0.34596616350E+01  0.13584564897E+02 -0.12416536711E+02  0.18726453107E+02  0.00000000000E+00 0.  1.
         11    1    3    3    0    0 -0.16979271760E+02 -0.85680987208E+01  0.15280062855E+02  0.24396481433E+02  0.51100000000E-03 0. -1.
        -11    1    3    3    0    0  0.19271206757E+02 -0.17531291445E+02  0.11220384992E+02  0.28365870853E+02  0.51100000000E-03 0.  1.
        -12    1    3    3    0    0 -0.57515966315E+01  0.12514825269E+02 -0.14083911135E+02  0.19699194608E+02  0.00000000000E+00 0.  1.
</event>
<event>
 7    1  0.2688173E-013  0.7246156E+02  0.7816164E-02  0.1226708E+00
        -11   -1    0    0    0    0  0.00000000000E+00  0.00000000000E+00  0.45593999997E+02  0.45594000000E+02  0.51100000000E-03 0. -1.
         11   -1    0    0    0    0 -0.00000000000E+00 -0.00000000000E+00 -0.45593999997E+02  0.45594000000E+02  0.51100000000E-03 0.  1.
    9900012    2    1    2    0    0 -0.77146266243E+00  0.15805262521E+02 -0.10013900327E+02  0.72461556724E+02  0.69999982322E+02 0.  0.
        -12    1    1    2    0    0  0.77146266243E+00 -0.15805262521E+02  0.10013900327E+02  0.18726443276E+02  0.00000000000E+00 0.  1.
         11    1    3    3    0    0  0.20578616278E+02  0.22580030146E+02  0.13963973607E+02  0.33590620245E+02  0.51100000000E-03 0. -1.
        -11    1    3    3    0    0 -0.10117765432E+01 -0.91737890287E+01 -0.33909556713E+01  0.98326332964E+01  0.51100000000E-03 0.  1.
        -12    1    3    3    0    0 -0.20338302397E+02  0.23990214044E+01 -0.20586918263E+02  0.29038303182E+02  0.00000000000E+00 0.  1.
</event>
<event>
 7    1  0.2688173E-013  0.7246155E+02  0.7816164E-02  0.1226708E+00
        -11   -1    0    0    0    0  0.00000000000E+00  0.00000000000E+00  0.45593999997E+02  0.45594000000E+02  0.51100000000E-03 0. -1.
         11   -1    0    0    0    0 -0.00000000000E+00 -0.00000000000E+00 -0.45593999997E+02  0.45594000000E+02  0.51100000000E-03 0.  1.
    9900012    2    1    2    0    0 -0.11705263343E+00 -0.18647969778E+02 -0.17086454102E+01  0.72461549528E+02  0.69999972948E+02 0.  0.
        -12    1    1    2    0    0  0.11705263343E+00  0.18647969778E+02  0.17086454102E+01  0.18726450472E+02  0.00000000000E+00 0.  1.
         11    1    3    3    0    0 -0.30039505511E+01 -0.78050602449E+01  0.12936096259E+02  0.15404066704E+02  0.51100000000E-03 0. -1.
        -11    1    3    3    0    0 -0.13546796766E+02  0.12601588208E+02 -0.20731654709E+02  0.27786997593E+02  0.51100000000E-03 0.  1.
         12    1    3    3    0    0  0.16433694684E+02 -0.23444497741E+02  0.60869130403E+01  0.29270485231E+02  0.00000000000E+00 0. -1.
</event>
<event>
 7    1  0.2688173E-013  0.7246160E+02  0.7816164E-02  0.1226708E+00
        -11   -1    0    0    0    0  0.00000000000E+00  0.00000000000E+00  0.45593999997E+02  0.45594000000E+02  0.51100000000E-03 0.  1.
         11   -1    0    0    0    0 -0.00000000000E+00 -0.00000000000E+00 -0.45593999997E+02  0.45594000000E+02  0.51100000000E-03 0. -1.
    9900012    2    1    2    0    0 -0.12898202026E+02  0.12652837510E+02 -0.49214045074E+01  0.72461597919E+02  0.70000035987E+02 0.  0.
        -12    1    1    2    0    0  0.12898202026E+02 -0.12652837510E+02  0.49214045074E+01  0.18726402081E+02  0.00000000000E+00 0.  1.
         11    1    3    3    0    0  0.61448658193E+01  0.93655040114E+01  0.60404005627E+01  0.12726290919E+02  0.51100000000E-03 0. -1.
        -11    1    3    3    0    0 -0.10278694968E+02  0.50286346025E+01  0.22423726270E+02  0.25174634780E+02  0.51100000000E-03 0.  1.
         12    1    3    3    0    0 -0.87643728774E+01 -0.17413011036E+01 -0.33385531340E+02  0.34560672221E+02  0.00000000000E+00 0. -1.
</event>
<event>
 7    1  0.2688173E-013  0.7246150E+02  0.7816164E-02  0.1226708E+00
        -11   -1    0    0    0    0  0.00000000000E+00  0.00000000000E+00  0.45593999997E+02  0.45594000000E+02  0.51100000000E-03 0. -1.
         11   -1    0    0    0    0 -0.00000000000E+00 -0.00000000000E+00 -0.45593999997E+02  0.45594000000E+02  0.51100000000E-03 0.  1.
    9900012    2    1    2    0    0  0.39851210329E+01  0.14881391949E+02 -0.10646343782E+02  0.72461504014E+02  0.69999913658E+02 0.  0.
        -12    1    1    2    0    0 -0.39851210329E+01 -0.14881391949E+02  0.10646343782E+02  0.18726495986E+02  0.00000000000E+00 0.  1.
         11    1    3    3    0    0 -0.59485154747E+01 -0.19112840937E+02  0.89690066332E+01  0.21934643951E+02  0.51100000000E-03 0. -1.
        -11    1    3    3    0    0 -0.24146785786E+01 -0.33458474188E+01  0.30529930664E+01  0.51328485768E+01  0.51100000000E-03 0.  1.
        -12    1    3    3    0    0  0.12348315086E+02  0.37340080304E+02 -0.22668343481E+02  0.45394011486E+02  0.00000000000E+00 0.  1.
</event>
<event>
 7    1  0.2688173E-013  0.7246150E+02  0.7816164E-02  0.1226708E+00
        -11   -1    0    0    0    0  0.00000000000E+00  0.00000000000E+00  0.45593999997E+02  0.45594000000E+02  0.51100000000E-03 0. -1.
         11   -1    0    0    0    0 -0.00000000000E+00 -0.00000000000E+00 -0.45593999997E+02  0.45594000000E+02  0.51100000000E-03 0.  1.
    9900012    2    1    2    0    0  0.15125221338E+02 -0.88634926434E+01  0.65839241467E+01  0.72461497936E+02  0.69999905740E+02 0.  0.
        -12    1    1    2    0    0 -0.15125221338E+02  0.88634926434E+01 -0.65839241467E+01  0.18726502064E+02  0.00000000000E+00 0.  1.
         11    1    3    3    0    0 -0.69733551749E+01 -0.11071174380E+02  0.11075584866E+02  0.17142554213E+02  0.51100000000E-03 0. -1.
        -11    1    3    3    0    0 -0.15661719754E+02  0.45755369756E+01 -0.61781584277E+01  0.17446909356E+02  0.51100000000E-03 0.  1.
        -12    1    3    3    0    0  0.37760296267E+02 -0.23678552391E+01  0.16864977084E+01  0.37872034368E+02  0.00000000000E+00 0.  1.
</event>
<event>
 7    1  0.2688173E-013  0.7246154E+02  0.7816164E-02  0.1226708E+00
        -11   -1    0    0    0    0  0.00000000000E+00  0.00000000000E+00  0.45593999997E+02  0.45594000000E+02  0.51100000000E-03 0.  1.
         11   -1    0    0    0    0 -0.00000000000E+00 -0.00000000000E+00 -0.45593999997E+02  0.45594000000E+02  0.51100000000E-03 0. -1.
    9900012    2    1    2    0    0 -0.15194839755E+02 -0.93336677400E+01  0.57166085854E+01  0.72461544853E+02  0.69999966857E+02 0.  0.
        -12    1    1    2    0    0  0.15194839755E+02  0.93336677400E+01 -0.57166085854E+01  0.18726455147E+02  0.00000000000E+00 0.  1.
         11    1    3    3    0    0  0.62591980479E+01  0.15008657162E+02 -0.10141166150E+02  0.19164566292E+02  0.51100000000E-03 0. -1.
        -11    1    3    3    0    0 -0.17657913224E+02 -0.17794485034E+02 -0.95192465486E+01  0.26815324949E+02  0.51100000000E-03 0.  1.
        -12    1    3    3    0    0 -0.37961245796E+01 -0.65478398681E+01  0.25377021284E+02  0.26481653612E+02  0.00000000000E+00 0.  1.
</event>
<event>
 7    1  0.2688173E-013  0.7246160E+02  0.7816164E-02  0.1226708E+00
        -11   -1    0    0    0    0  0.00000000000E+00  0.00000000000E+00  0.45593999997E+02  0.45594000000E+02  0.51100000000E-03 0. -1.
         11   -1    0    0    0    0 -0.00000000000E+00 -0.00000000000E+00 -0.45593999997E+02  0.45594000000E+02  0.51100000000E-03 0.  1.
    9900012    2    1    2    0    0 -0.14748905976E+02 -0.59374171418E+01  0.98941940212E+01  0.72461595510E+02  0.70000032848E+02 0.  0.
        -12    1    1    2    0    0  0.14748905976E+02  0.59374171418E+01 -0.98941940212E+01  0.18726404490E+02  0.00000000000E+00 0.  1.
         11    1    3    3    0    0  0.10752356639E+02 -0.11178726019E+02  0.83029988288E+00  0.15532755289E+02  0.51100000000E-03 0. -1.
        -11    1    3    3    0    0 -0.13008436913E+02 -0.20641172691E+02 -0.50422604788E+01  0.24913888335E+02  0.51100000000E-03 0.  1.
        -12    1    3    3    0    0 -0.12492825701E+02  0.25882481569E+02  0.14106154617E+02  0.32014951886E+02  0.00000000000E+00 0.  1.
</event>
<event>
 7    1  0.2688173E-013  0.7246157E+02  0.7816164E-02  0.1226708E+00
        -11   -1    0    0    0    0  0.00000000000E+00  0.00000000000E+00  0.45593999997E+02  0.45594000000E+02  0.51100000000E-03 0. -1.
         11   -1    0    0    0    0 -0.00000000000E+00 -0.00000000000E+00 -0.45593999997E+02  0.45594000000E+02  0.51100000000E-03 0.  1.
    9900012    2    1    2    0    0  0.14340582883E+02  0.11714830411E+02  0.27909561081E+01  0.72461574688E+02  0.70000005723E+02 0.  0.
        -12    1    1    2    0    0 -0.14340582883E+02 -0.11714830411E+02 -0.27909561081E+01  0.18726425312E+02  0.00000000000E+00 0.  1.
         11    1    3    3    0    0  0.26675618415E+01 -0.12756504474E+02 -0.47547523513E+01  0.13872705676E+02  0.51100000000E-03 0. -1.
        -11    1    3    3    0    0  0.11920738916E+02  0.55678495748E+01  0.27877236901E+02  0.30826049093E+02  0.51100000000E-03 0.  1.
        -12    1    3    3    0    0 -0.24771787419E+00  0.18903485311E+02 -0.20331528442E+02  0.27762819919E+02  0.00000000000E+00 0.  1.
</event>
<event>
 7    1  0.2688173E-013  0.7246156E+02  0.7816164E-02  0.1226708E+00
        -11   -1    0    0    0    0  0.00000000000E+00  0.00000000000E+00  0.45593999997E+02  0.45594000000E+02  0.51100000000E-03 0.  1.
         11   -1    0    0    0    0 -0.00000000000E+00 -0.00000000000E+00 -0.45593999997E+02  0.45594000000E+02  0.51100000000E-03 0. -1.
    9900012    2    1    2    0    0  0.25634855014E+01 -0.65138642950E+01 -0.17368870986E+02  0.72461559727E+02  0.69999986234E+02 0.  0.
        -12    1    1    2    0    0 -0.25634855014E+01  0.65138642950E+01  0.17368870986E+02  0.18726440273E+02  0.00000000000E+00 0.  1.
         11    1    3    3    0    0 -0.68015098310E+01 -0.19077814463E+02 -0.18466336603E+02  0.27408559402E+02  0.51100000000E-03 0. -1.
        -11    1    3    3    0    0 -0.15035817328E+02  0.98439847637E+01 -0.68709822894E+01  0.19240328392E+02  0.51100000000E-03 0.  1.
        -12    1    3    3    0    0  0.24400812660E+02  0.27199654046E+01  0.79684479063E+01  0.25812671933E+02  0.00000000000E+00 0.  1.
</event>
<event>
 7    1  0.2688173E-013  0.7246146E+02  0.7816164E-02  0.1226708E+00
        -11   -1    0    0    0    0  0.00000000000E+00  0.00000000000E+00  0.45593999997E+02  0.45594000000E+02  0.51100000000E-03 0. -1.
         11   -1    0    0    0    0 -0.00000000000E+00 -0.00000000000E+00 -0.45593999997E+02  0.45594000000E+02  0.51100000000E-03 0.  1.
    9900012    2    1    2    0    0 -0.48626158896E+01  0.17906777575E+02 -0.25269927037E+01  0.72461457112E+02  0.69999852559E+02 0.  0.
        -12    1    1    2    0    0  0.48626158896E+01 -0.17906777575E+02  0.25269927037E+01  0.18726542888E+02  0.00000000000E+00 0.  1.
         11    1    3    3    0    0 -0.77951058885E+01  0.39034529653E+02  0.96153701161E+00  0.39816864954E+02  0.51100000000E-03 0. -1.
        -11    1    3    3    0    0  0.10838543214E+02 -0.10665900914E+01 -0.93110740407E+00  0.10930626454E+02  0.51100000000E-03 0.  1.
        -12    1    3    3    0    0 -0.79060532152E+01 -0.20061161987E+02 -0.25574223112E+01  0.21713965704E+02  0.00000000000E+00 0.  1.
</event>
<event>
 7    1  0.2688173E-013  0.7246162E+02  0.7816164E-02  0.1226708E+00
        -11   -1    0    0    0    0  0.00000000000E+00  0.00000000000E+00  0.45593999997E+02  0.45594000000E+02  0.51100000000E-03 0.  1.
         11   -1    0    0    0    0 -0.00000000000E+00 -0.00000000000E+00 -0.45593999997E+02  0.45594000000E+02  0.51100000000E-03 0. -1.
    9900012    2    1    2    0    0 -0.16641335683E+02  0.58833260499E+01 -0.62553744648E+01  0.72461620520E+02  0.70000065428E+02 0.  0.
        -12    1    1    2    0    0  0.16641335683E+02 -0.58833260499E+01  0.62553744648E+01  0.18726379480E+02  0.00000000000E+00 0.  1.
         11    1    3    3    0    0  0.25559955933E+01 -0.15740485167E+01 -0.11692636890E+02  0.12071805992E+02  0.51100000000E-03 0. -1.
        -11    1    3    3    0    0 -0.31240465625E+02  0.14516555681E+01 -0.15960917055E+02  0.35111605914E+02  0.51100000000E-03 0.  1.
        -12    1    3    3    0    0  0.12043134348E+02  0.60057189985E+01  0.21398179481E+02  0.25278208614E+02  0.00000000000E+00 0.  1.
</event>
<event>
 7    1  0.2688173E-013  0.7246153E+02  0.7816164E-02  0.1226708E+00
        -11   -1    0    0    0    0  0.00000000000E+00  0.00000000000E+00  0.45593999997E+02  0.45594000000E+02  0.51100000000E-03 0. -1.
         11   -1    0    0    0    0 -0.00000000000E+00 -0.00000000000E+00 -0.45593999997E+02  0.45594000000E+02  0.51100000000E-03 0.  1.
    9900012    2    1    2    0    0  0.17513232100E+02  0.58826501860E+01  0.30597356236E+01  0.72461525321E+02  0.69999941414E+02 0.  0.
        -12    1    1    2    0    0 -0.17513232100E+02 -0.58826501860E+01 -0.30597356236E+01  0.18726474679E+02  0.00000000000E+00 0.  1.
         11    1    3    3    0    0  0.77084722445E+01  0.72880331473E+01  0.56420654201E+01  0.12015359918E+02  0.51100000000E-03 0. -1.
        -11    1    3    3    0    0  0.15897871949E+01  0.23159951121E+02 -0.18811428266E+02  0.29879434280E+02  0.51100000000E-03 0.  1.
        -12    1    3    3    0    0  0.82149726609E+01 -0.24565334082E+02  0.16229098469E+02  0.30566731123E+02  0.00000000000E+00 0.  1.
</event>
<event>
 7    1  0.2688173E-013  0.7246160E+02  0.7816164E-02  0.1226708E+00
        -11   -1    0    0    0    0  0.00000000000E+00  0.00000000000E+00  0.45593999997E+02  0.45594000000E+02  0.51100000000E-03 0.  1.
         11   -1    0    0    0    0 -0.00000000000E+00 -0.00000000000E+00 -0.45593999997E+02  0.45594000000E+02  0.51100000000E-03 0. -1.
    9900012    2    1    2    0    0  0.17087405086E+02  0.51994420357E+01 -0.56271316201E+01  0.72461595638E+02  0.70000033015E+02 0.  0.
        -12    1    1    2    0    0 -0.17087405086E+02 -0.51994420357E+01  0.56271316201E+01  0.18726404362E+02  0.00000000000E+00 0.  1.
         11    1    3    3    0    0 -0.56731579418E+00  0.23000569359E+01 -0.12841651503E+02  0.13058335373E+02  0.51100000000E-03 0. -1.
        -11    1    3    3    0    0 -0.65403873425E+01 -0.39930411609E+01 -0.20552380319E+02  0.21934479281E+02  0.51100000000E-03 0.  1.
         12    1    3    3    0    0  0.24195108223E+02  0.68924262607E+01  0.27766900202E+02  0.37468780985E+02  0.00000000000E+00 0. -1.
</event>
<event>
 7    1  0.2688173E-013  0.7246162E+02  0.7816164E-02  0.1226708E+00
        -11   -1    0    0    0    0  0.00000000000E+00  0.00000000000E+00  0.45593999997E+02  0.45594000000E+02  0.51100000000E-03 0.  1.
         11   -1    0    0    0    0 -0.00000000000E+00 -0.00000000000E+00 -0.45593999997E+02  0.45594000000E+02  0.51100000000E-03 0. -1.
    9900012    2    1    2    0    0 -0.17158862743E+00  0.11169491520E+02 -0.15029648250E+02  0.72461619945E+02  0.70000064679E+02 0.  0.
        -12    1    1    2    0    0  0.17158862743E+00 -0.11169491520E+02  0.15029648250E+02  0.18726380055E+02  0.00000000000E+00 0.  1.
         11    1    3    3    0    0  0.17621900486E+01  0.63130303506E+01 -0.14428992277E+02  0.15847885801E+02  0.51100000000E-03 0. -1.
        -11    1    3    3    0    0  0.24872867101E+02  0.10343265103E+02  0.77059101492E+01  0.28018274435E+02  0.51100000000E-03 0.  1.
         12    1    3    3    0    0 -0.26806645777E+02 -0.54868039330E+01 -0.83065661214E+01  0.28595459709E+02  0.00000000000E+00 0. -1.
</event>
<event>
 7    1  0.2688173E-013  0.7246165E+02  0.7816164E-02  0.1226708E+00
        -11   -1    0    0    0    0  0.00000000000E+00  0.00000000000E+00  0.45593999997E+02  0.45594000000E+02  0.51100000000E-03 0. -1.
         11   -1    0    0    0    0 -0.00000000000E+00 -0.00000000000E+00 -0.45593999997E+02  0.45594000000E+02  0.51100000000E-03 0.  1.
    9900012    2    1    2    0    0 -0.97607000814E+01  0.54966582026E+01  0.15006386256E+02  0.72461651025E+02  0.70000105166E+02 0.  0.
        -12    1    1    2    0    0  0.97607000814E+01 -0.54966582026E+01 -0.15006386256E+02  0.18726348975E+02  0.00000000000E+00 0.  1.
         11    1    3    3    0    0  0.12264296840E+02 -0.99423490975E+01  0.29769390982E+02  0.33696882976E+02  0.51100000000E-03 0. -1.
        -11    1    3    3    0    0 -0.50237691531E+01  0.12935056325E+02  0.28404299846E+01  0.14164108917E+02  0.51100000000E-03 0.  1.
        -12    1    3    3    0    0 -0.17001227768E+02  0.25039509748E+01 -0.17603434711E+02  0.24600659132E+02  0.00000000000E+00 0.  1.
</event>
<event>
 7    1  0.2688173E-013  0.7246124E+02  0.7816164E-02  0.1226709E+00
        -11   -1    0    0    0    0  0.00000000000E+00  0.00000000000E+00  0.45593999997E+02  0.45594000000E+02  0.51100000000E-03 0.  1.
         11   -1    0    0    0    0 -0.00000000000E+00 -0.00000000000E+00 -0.45593999997E+02  0.45594000000E+02  0.51100000000E-03 0. -1.
    9900012    2    1    2    0    0  0.11191900785E+02  0.65208253201E+01 -0.13524491774E+02  0.72461236163E+02  0.69999564731E+02 0.  0.
        -12    1    1    2    0    0 -0.11191900785E+02 -0.65208253201E+01  0.13524491774E+02  0.18726763837E+02  0.00000000000E+00 0.  1.
         11    1    3    3    0    0  0.92236225089E+01 -0.21679261133E+01 -0.34540624020E+02  0.35816613795E+02  0.51100000000E-03 0. -1.
        -11    1    3    3    0    0  0.32361525146E+01 -0.76925613397E+01  0.18135671302E+02  0.19963736046E+02  0.51100000000E-03 0.  1.
        -12    1    3    3    0    0 -0.12678742381E+01  0.16381312773E+02  0.28804609429E+01  0.16680886322E+02  0.00000000000E+00 0.  1.
</event>
<event>
 7    1  0.2688173E-013  0.7246149E+02  0.7816164E-02  0.1226708E+00
        -11   -1    0    0    0    0  0.00000000000E+00  0.00000000000E+00  0.45593999997E+02  0.45594000000E+02  0.51100000000E-03 0.  1.
         11   -1    0    0    0    0 -0.00000000000E+00 -0.00000000000E+00 -0.45593999997E+02  0.45594000000E+02  0.51100000000E-03 0. -1.
    9900012    2    1    2    0    0 -0.32443362344E+01  0.13469807678E+02 -0.12598447161E+02  0.72461486514E+02  0.69999890860E+02 0.  0.
        -12    1    1    2    0    0  0.32443362344E+01 -0.13469807678E+02  0.12598447161E+02  0.18726513486E+02  0.00000000000E+00 0.  1.
         11    1    3    3    0    0 -0.16436994564E+02  0.25299964113E+02 -0.15117943609E+02  0.33746336003E+02  0.51100000000E-03 0. -1.
        -11    1    3    3    0    0  0.40040429878E+01  0.11832852464E+02  0.44415779492E+01  0.13258068208E+02  0.51100000000E-03 0.  1.
        -12    1    3    3    0    0  0.91886153419E+01 -0.23663008899E+02 -0.19220815016E+01  0.25457082303E+02  0.00000000000E+00 0.  1.
</event>
<event>
 7    1  0.2688173E-013  0.7246160E+02  0.7816164E-02  0.1226708E+00
        -11   -1    0    0    0    0  0.00000000000E+00  0.00000000000E+00  0.45593999997E+02  0.45594000000E+02  0.51100000000E-03 0. -1.
         11   -1    0    0    0    0 -0.00000000000E+00 -0.00000000000E+00 -0.45593999997E+02  0.45594000000E+02  0.51100000000E-03 0.  1.
    9900012    2    1    2    0    0 -0.62893149510E+01 -0.20506998864E+00  0.17637474924E+02  0.72461599974E+02  0.70000038663E+02 0.  0.
        -12    1    1    2    0    0  0.62893149510E+01  0.20506998864E+00 -0.17637474924E+02  0.18726400026E+02  0.00000000000E+00 0.  1.
         11    1    3    3    0    0  0.53557456050E+01  0.24316289196E+02 -0.24787034830E+01  0.25022188203E+02  0.51100000000E-03 0. -1.
        -11    1    3    3    0    0  0.44398584400E+00  0.50020367379E+01 -0.48100431397E+01  0.69537047840E+01  0.51100000000E-03 0.  1.
        -12    1    3    3    0    0 -0.12089046400E+02 -0.29523395922E+02  0.24926221547E+02  0.40485706987E+02  0.00000000000E+00 0.  1.
</event>
<event>
 7    1  0.2688173E-013  0.7246100E+02  0.7816164E-02  0.1226710E+00
        -11   -1    0    0    0    0  0.00000000000E+00  0.00000000000E+00  0.45593999997E+02  0.45594000000E+02  0.51100000000E-03 0. -1.
         11   -1    0    0    0    0 -0.00000000000E+00 -0.00000000000E+00 -0.45593999997E+02  0.45594000000E+02  0.51100000000E-03 0.  1.
    9900012    2    1    2    0    0  0.92499869172E+01 -0.10589867928E+02  0.12369028375E+02  0.72461002813E+02  0.69999260746E+02 0.  0.
        -12    1    1    2    0    0 -0.92499869172E+01  0.10589867928E+02 -0.12369028375E+02  0.18726997187E+02  0.00000000000E+00 0.  1.
         11    1    3    3    0    0 -0.14023765249E+02  0.12340231070E+01 -0.88446734694E+01  0.16625794833E+02  0.51100000000E-03 0. -1.
        -11    1    3    3    0    0  0.15345821658E+02 -0.23485624122E+02 -0.25838411402E+01  0.28173480759E+02  0.51100000000E-03 0.  1.
         12    1    3    3    0    0  0.79279305086E+01  0.11661733087E+02  0.23797542985E+02  0.27661727221E+02  0.00000000000E+00 0. -1.
</event>
<event>
 7    1  0.2688173E-013  0.7246155E+02  0.7816164E-02  0.1226708E+00
        -11   -1    0    0    0    0  0.00000000000E+00  0.00000000000E+00  0.45593999997E+02  0.45594000000E+02  0.51100000000E-03 0.  1.
         11   -1    0    0    0    0 -0.00000000000E+00 -0.00000000000E+00 -0.45593999997E+02  0.45594000000E+02  0.51100000000E-03 0. -1.
    9900012    2    1    2    0    0  0.14634960264E+02 -0.11679220952E+02 -0.30613015606E+00  0.72461548663E+02  0.69999971822E+02 0.  0.
        -12    1    1    2    0    0 -0.14634960264E+02  0.11679220952E+02  0.30613015606E+00  0.18726451337E+02  0.00000000000E+00 0.  1.
         11    1    3    3    0    0  0.10400048130E+01 -0.68070821737E+01  0.36973358518E+01  0.78158985660E+01  0.51100000000E-03 0. -1.
        -11    1    3    3    0    0  0.21320037344E+02 -0.50898670520E+01  0.25801475282E+02  0.33855086264E+02  0.51100000000E-03 0.  1.
         12    1    3    3    0    0 -0.77250818931E+01  0.21772827339E+00 -0.29804941290E+02  0.30790563833E+02  0.00000000000E+00 0. -1.
</event>
<event>
 7    1  0.2688173E-013  0.7246151E+02  0.7816164E-02  0.1226708E+00
        -11   -1    0    0    0    0  0.00000000000E+00  0.00000000000E+00  0.45593999997E+02  0.45594000000E+02  0.51100000000E-03 0.  1.
         11   -1    0    0    0    0 -0.00000000000E+00 -0.00000000000E+00 -0.45593999997E+02  0.45594000000E+02  0.51100000000E-03 0. -1.
    9900012    2    1    2    0    0  0.40680062701E+00  0.88612816875E+01 -0.16492226136E+02  0.72461512801E+02  0.69999925104E+02 0.  0.
        -12    1    1    2    0    0 -0.40680062701E+00 -0.88612816875E+01  0.16492226136E+02  0.18726487199E+02  0.00000000000E+00 0.  1.
         11    1    3    3    0    0 -0.21127770479E+02 -0.11373773328E+02 -0.30637978206E+02  0.38915692387E+02  0.51100000000E-03 0. -1.
        -11    1    3    3    0    0  0.51998182827E+01  0.12838497781E+01  0.18344902916E+01  0.56614252019E+01  0.51100000000E-03 0.  1.
        -12    1    3    3    0    0  0.16334752823E+02  0.18951205237E+02  0.12311261778E+02  0.27884395212E+02  0.00000000000E+00 0.  1.
</event>
<event>
 7    1  0.2688173E-013  0.7246159E+02  0.7816164E-02  0.1226708E+00
        -11   -1    0    0    0    0  0.00000000000E+00  0.00000000000E+00  0.45593999997E+02  0.45594000000E+02  0.51100000000E-03 0. -1.
         11   -1    0    0    0    0 -0.00000000000E+00 -0.00000000000E+00 -0.45593999997E+02  0.45594000000E+02  0.51100000000E-03 0.  1.
    9900012    2    1    2    0    0 -0.76253193594E+01 -0.15092333370E+02  0.80470086326E+01  0.72461591647E+02  0.70000027815E+02 0.  0.
        -12    1    1    2    0    0  0.76253193594E+01  0.15092333370E+02 -0.80470086326E+01  0.18726408353E+02  0.00000000000E+00 0.  1.
         11    1    3    3    0    0 -0.64647723185E+01  0.31050058702E+01  0.56897368260E+01  0.91546407900E+01  0.51100000000E-03 0. -1.
        -11    1    3    3    0    0 -0.12970119657E+02 -0.28828660561E+02 -0.18851327083E+02  0.36806089262E+02  0.51100000000E-03 0.  1.
         12    1    3    3    0    0  0.11809572616E+02  0.10631321321E+02  0.21208598890E+02  0.26500861595E+02  0.00000000000E+00 0. -1.
</event>
<event>
 7    1  0.2688173E-013  0.7246158E+02  0.7816164E-02  0.1226708E+00
        -11   -1    0    0    0    0  0.00000000000E+00  0.00000000000E+00  0.45593999997E+02  0.45594000000E+02  0.51100000000E-03 0.  1.
         11   -1    0    0    0    0 -0.00000000000E+00 -0.00000000000E+00 -0.45593999997E+02  0.45594000000E+02  0.51100000000E-03 0. -1.
    9900012    2    1    2    0    0  0.10393705519E+02  0.10488748478E+02 -0.11516759655E+02  0.72461582511E+02  0.70000015914E+02 0.  0.
        -12    1    1    2    0    0 -0.10393705519E+02 -0.10488748478E+02  0.11516759655E+02  0.18726417489E+02  0.00000000000E+00 0.  1.
         11    1    3    3    0    0  0.11501925012E+02  0.36150783519E+01  0.14009330631E+02  0.18483084577E+02  0.51100000000E-03 0. -1.
        -11    1    3    3    0    0  0.35085164780E+01  0.22643507472E+02  0.81984433659E+00  0.22928372457E+02  0.51100000000E-03 0.  1.
         12    1    3    3    0    0 -0.46167359715E+01 -0.15769837347E+02 -0.26345934623E+02  0.31050125477E+02  0.00000000000E+00 0. -1.
</event>
<event>
 7    1  0.2688173E-013  0.7246156E+02  0.7816164E-02  0.1226708E+00
        -11   -1    0    0    0    0  0.00000000000E+00  0.00000000000E+00  0.45593999997E+02  0.45594000000E+02  0.51100000000E-03 0. -1.
         11   -1    0    0    0    0 -0.00000000000E+00 -0.00000000000E+00 -0.45593999997E+02  0.45594000000E+02  0.51100000000E-03 0.  1.
    9900012    2    1    2    0    0  0.20880265577E+01  0.35922604107E+01  0.18259660066E+02  0.72461564795E+02  0.69999992836E+02 0.  0.
        -12    1    1    2    0    0 -0.20880265577E+01 -0.35922604107E+01 -0.18259660066E+02  0.18726435205E+02  0.00000000000E+00 0.  1.
         11    1    3    3    0    0 -0.59787920764E+01  0.12116305144E+02 -0.82008961759E+01  0.15805236581E+02  0.51100000000E-03 0. -1.
        -11    1    3    3    0    0 -0.55557370179E+01 -0.21944962481E+02 -0.16059892711E+01  0.22694201768E+02  0.51100000000E-03 0.  1.
         12    1    3    3    0    0  0.13622555652E+02  0.13420917747E+02  0.28066545513E+02  0.33962126445E+02  0.00000000000E+00 0. -1.
</event>
<event>
 7    1  0.2688173E-013  0.7246161E+02  0.7816164E-02  0.1226708E+00
        -11   -1    0    0    0    0  0.00000000000E+00  0.00000000000E+00  0.45593999997E+02  0.45594000000E+02  0.51100000000E-03 0.  1.
         11   -1    0    0    0    0 -0.00000000000E+00 -0.00000000000E+00 -0.45593999997E+02  0.45594000000E+02  0.51100000000E-03 0. -1.
    9900012    2    1    2    0    0 -0.52484456622E+00 -0.18334807146E+02 -0.37732011420E+01  0.72461610552E+02  0.70000052443E+02 0.  0.
        -12    1    1    2    0    0  0.52484456622E+00  0.18334807146E+02  0.37732011420E+01  0.18726389448E+02  0.00000000000E+00 0.  1.
         11    1    3    3    0    0 -0.10850731195E+02  0.87434716855E+01  0.31127579258E+01  0.14278512764E+02  0.51100000000E-03 0. -1.
        -11    1    3    3    0    0  0.77096553228E+01  0.13661413377E+02  0.34711124983E+01  0.16066163914E+02  0.51100000000E-03 0.  1.
         12    1    3    3    0    0  0.26162313063E+01 -0.40739692209E+02 -0.10357071566E+02  0.42116933874E+02  0.00000000000E+00 0. -1.
</event>
<event>
 7    1  0.2688173E-013  0.7246178E+02  0.7816164E-02  0.1226707E+00
        -11   -1    0    0    0    0  0.00000000000E+00  0.00000000000E+00  0.45593999997E+02  0.45594000000E+02  0.51100000000E-03 0.  1.
         11   -1    0    0    0    0 -0.00000000000E+00 -0.00000000000E+00 -0.45593999997E+02  0.45594000000E+02  0.51100000000E-03 0. -1.
    9900012    2    1    2    0    0 -0.11112538210E+02  0.14542244031E+02  0.39630699019E+01  0.72461780681E+02  0.70000274068E+02 0.  0.
        -12    1    1    2    0    0  0.11112538210E+02 -0.14542244031E+02 -0.39630699019E+01  0.18726219319E+02  0.00000000000E+00 0.  1.
         11    1    3    3    0    0  0.14570738784E+01 -0.11487727784E+01  0.12834429593E+02  0.12967857434E+02  0.51100000000E-03 0. -1.
        -11    1    3    3    0    0 -0.22325839286E+02 -0.10180758740E+02  0.94831169659E+01  0.26306281683E+02  0.51100000000E-03 0.  1.
         12    1    3    3    0    0  0.97562271974E+01  0.25871775550E+02 -0.18354476657E+02  0.33187641564E+02  0.00000000000E+00 0. -1.
</event>
<event>
 7    1  0.2688173E-013  0.7246158E+02  0.7816164E-02  0.1226708E+00
        -11   -1    0    0    0    0  0.00000000000E+00  0.00000000000E+00  0.45593999997E+02  0.45594000000E+02  0.51100000000E-03 0.  1.
         11   -1    0    0    0    0 -0.00000000000E+00 -0.00000000000E+00 -0.45593999997E+02  0.45594000000E+02  0.51100000000E-03 0. -1.
    9900012    2    1    2    0    0  0.79608842396E+01  0.19346050209E+01 -0.16839254348E+02  0.72461578519E+02  0.70000010715E+02 0.  0.
        -12    1    1    2    0    0 -0.79608842396E+01 -0.19346050209E+01  0.16839254348E+02  0.18726421481E+02  0.00000000000E+00 0.  1.
         11    1    3    3    0    0  0.86910218902E+00 -0.55910338993E+01 -0.31591490821E+02  0.32094194043E+02  0.51100000000E-03 0. -1.
        -11    1    3    3    0    0  0.18472715331E+02  0.11477291709E+02  0.56519754456E+00  0.21755203635E+02  0.51100000000E-03 0.  1.
        -12    1    3    3    0    0 -0.11380933281E+02 -0.39516527891E+01  0.14187038929E+02  0.18612180841E+02  0.00000000000E+00 0.  1.
</event>
<event>
 7    1  0.2688173E-013  0.7246150E+02  0.7816164E-02  0.1226708E+00
        -11   -1    0    0    0    0  0.00000000000E+00  0.00000000000E+00  0.45593999997E+02  0.45594000000E+02  0.51100000000E-03 0. -1.
         11   -1    0    0    0    0 -0.00000000000E+00 -0.00000000000E+00 -0.45593999997E+02  0.45594000000E+02  0.51100000000E-03 0.  1.
    9900012    2    1    2    0    0  0.12171124020E+02 -0.33462795688E+01  0.13832862186E+02  0.72461496772E+02  0.69999904224E+02 0.  0.
        -12    1    1    2    0    0 -0.12171124020E+02  0.33462795688E+01 -0.13832862186E+02  0.18726503228E+02  0.00000000000E+00 0.  1.
         11    1    3    3    0    0 -0.31458051896E+01  0.26273037827E+02  0.11466839882E+02  0.28838464316E+02  0.51100000000E-03 0. -1.
        -11    1    3    3    0    0  0.14592818103E+02 -0.67318036710E+01  0.10641534031E+02  0.19274588651E+02  0.51100000000E-03 0.  1.
        -12    1    3    3    0    0  0.72411110679E+00 -0.22887513725E+02 -0.82755117276E+01  0.24348443806E+02  0.00000000000E+00 0.  1.
</event>
<event>
 7    1  0.2688173E-013  0.7246086E+02  0.7816164E-02  0.1226710E+00
        -11   -1    0    0    0    0  0.00000000000E+00  0.00000000000E+00  0.45593999997E+02  0.45594000000E+02  0.51100000000E-03 0.  1.
         11   -1    0    0    0    0 -0.00000000000E+00 -0.00000000000E+00 -0.45593999997E+02  0.45594000000E+02  0.51100000000E-03 0. -1.
    9900012    2    1    2    0    0  0.18680996033E+02 -0.73790402150E+00  0.10870377077E+01  0.72460860173E+02  0.69999074929E+02 0.  0.
        -12    1    1    2    0    0 -0.18680996033E+02  0.73790402150E+00 -0.10870377077E+01  0.18727139827E+02  0.00000000000E+00 0.  1.
         11    1    3    3    0    0  0.93246047914E+01  0.12816078902E+01  0.60616834831E+01  0.11195301703E+02  0.51100000000E-03 0. -1.
        -11    1    3    3    0    0  0.11233635849E+02 -0.19761984973E+02  0.20199789133E+02  0.30409901443E+02  0.51100000000E-03 0.  1.
         12    1    3    3    0    0 -0.18772446070E+01  0.17742473062E+02 -0.25174434909E+02  0.30855657028E+02  0.00000000000E+00 0. -1.
</event>
<event>
 7    1  0.2688173E-013  0.7246154E+02  0.7816164E-02  0.1226708E+00
        -11   -1    0    0    0    0  0.00000000000E+00  0.00000000000E+00  0.45593999997E+02  0.45594000000E+02  0.51100000000E-03 0. -1.
         11   -1    0    0    0    0 -0.00000000000E+00 -0.00000000000E+00 -0.45593999997E+02  0.45594000000E+02  0.51100000000E-03 0.  1.
    9900012    2    1    2    0    0 -0.36860522174E+01 -0.17189110636E+02  0.64519584998E+01  0.72461540807E+02  0.69999961588E+02 0.  0.
        -12    1    1    2    0    0  0.36860522174E+01  0.17189110636E+02 -0.64519584998E+01  0.18726459193E+02  0.00000000000E+00 0.  1.
         11    1    3    3    0    0 -0.11290372966E+02 -0.25480153063E+02  0.30113302054E+02  0.41030740704E+02  0.51100000000E-03 0. -1.
        -11    1    3    3    0    0  0.48254060018E+01 -0.43416155527E+01 -0.32326080643E+01  0.72514773562E+01  0.51100000000E-03 0.  1.
        -12    1    3    3    0    0  0.27789147471E+01  0.12632657980E+02 -0.20428735490E+02  0.24179322747E+02  0.00000000000E+00 0.  1.
</event>
<event>
 7    1  0.2688173E-013  0.7246164E+02  0.7816164E-02  0.1226708E+00
        -11   -1    0    0    0    0  0.00000000000E+00  0.00000000000E+00  0.45593999997E+02  0.45594000000E+02  0.51100000000E-03 0.  1.
         11   -1    0    0    0    0 -0.00000000000E+00 -0.00000000000E+00 -0.45593999997E+02  0.45594000000E+02  0.51100000000E-03 0. -1.
    9900012    2    1    2    0    0  0.86371155889E+00 -0.18530175814E+02  0.25618772249E+01  0.72461638147E+02  0.70000088390E+02 0.  0.
        -12    1    1    2    0    0 -0.86371155889E+00  0.18530175814E+02 -0.25618772249E+01  0.18726361853E+02  0.00000000000E+00 0.  1.
         11    1    3    3    0    0  0.28232445049E+01 -0.25992711271E+02  0.24351023142E+01  0.26258740874E+02  0.51100000000E-03 0. -1.
        -11    1    3    3    0    0  0.14900100077E+02 -0.96736635756E+01  0.98017124038E+01  0.20289561739E+02  0.51100000000E-03 0.  1.
        -12    1    3    3    0    0 -0.16859633023E+02  0.17136199033E+02 -0.96749374931E+01  0.25913335533E+02  0.00000000000E+00 0.  1.
</event>
<event>
 7    1  0.2688173E-013  0.7246158E+02  0.7816164E-02  0.1226708E+00
        -11   -1    0    0    0    0  0.00000000000E+00  0.00000000000E+00  0.45593999997E+02  0.45594000000E+02  0.51100000000E-03 0.  1.
         11   -1    0    0    0    0 -0.00000000000E+00 -0.00000000000E+00 -0.45593999997E+02  0.45594000000E+02  0.51100000000E-03 0. -1.
    9900012    2    1    2    0    0 -0.29149147458E+01  0.37487333056E+01 -0.18114330512E+02  0.72461582850E+02  0.70000016356E+02 0.  0.
        -12    1    1    2    0    0  0.29149147458E+01 -0.37487333056E+01  0.18114330512E+02  0.18726417150E+02  0.00000000000E+00 0.  1.
         11    1    3    3    0    0 -0.22397705130E+01  0.72002617966E+01 -0.11426192040E+02  0.13690076942E+02  0.51100000000E-03 0. -1.
        -11    1    3    3    0    0 -0.69037902422E+01  0.18529047330E+02 -0.23274106662E+02  0.30539678384E+02  0.51100000000E-03 0.  1.
        -12    1    3    3    0    0  0.62286460093E+01 -0.21980575821E+02  0.16585968189E+02  0.28231827523E+02  0.00000000000E+00 0.  1.
</event>
<event>
 7    1  0.2688173E-013  0.7246158E+02  0.7816164E-02  0.1226708E+00
        -11   -1    0    0    0    0  0.00000000000E+00  0.00000000000E+00  0.45593999997E+02  0.45594000000E+02  0.51100000000E-03 0.  1.
         11   -1    0    0    0    0 -0.00000000000E+00 -0.00000000000E+00 -0.45593999997E+02  0.45594000000E+02  0.51100000000E-03 0. -1.
    9900012    2    1    2    0    0 -0.12657754572E+02  0.11754251502E+02 -0.72317182909E+01  0.72461576727E+02  0.70000008379E+02 0.  0.
        -12    1    1    2    0    0  0.12657754572E+02 -0.11754251502E+02  0.72317182909E+01  0.18726423273E+02  0.00000000000E+00 0.  1.
         11    1    3    3    0    0  0.13470623524E+02 -0.46347543405E+01 -0.15597239821E+02  0.21123743423E+02  0.51100000000E-03 0. -1.
        -11    1    3    3    0    0 -0.36252012576E+01 -0.99859938505E+01  0.12519512418E+02  0.16419511223E+02  0.51100000000E-03 0.  1.
        -12    1    3    3    0    0 -0.22503176838E+02  0.26374999693E+02 -0.41539908887E+01  0.34918322081E+02  0.00000000000E+00 0.  1.
</event>
<event>
 7    1  0.2688173E-013  0.7246157E+02  0.7816164E-02  0.1226708E+00
        -11   -1    0    0    0    0  0.00000000000E+00  0.00000000000E+00  0.45593999997E+02  0.45594000000E+02  0.51100000000E-03 0. -1.
         11   -1    0    0    0    0 -0.00000000000E+00 -0.00000000000E+00 -0.45593999997E+02  0.45594000000E+02  0.51100000000E-03 0.  1.
    9900012    2    1    2    0    0 -0.38495746034E+01 -0.51307209953E+01  0.17593629727E+02  0.72461566022E+02  0.69999994434E+02 0.  0.
        -12    1    1    2    0    0  0.38495746034E+01  0.51307209953E+01 -0.17593629727E+02  0.18726433978E+02  0.00000000000E+00 0.  1.
         11    1    3    3    0    0  0.43458249839E+01 -0.51811309901E+01  0.72271253912E+00  0.68009283780E+01  0.51100000000E-03 0. -1.
        -11    1    3    3    0    0  0.10156274872E+02 -0.26850569064E+02  0.16464617139E+02  0.33093603553E+02  0.51100000000E-03 0.  1.
         12    1    3    3    0    0 -0.18351674459E+02  0.26900979058E+02  0.40630004916E+00  0.32567034091E+02  0.00000000000E+00 0. -1.
</event>
<event>
 7    1  0.2688173E-013  0.7246093E+02  0.7816164E-02  0.1226710E+00
        -11   -1    0    0    0    0  0.00000000000E+00  0.00000000000E+00  0.45593999997E+02  0.45594000000E+02  0.51100000000E-03 0.  1.
         11   -1    0    0    0    0 -0.00000000000E+00 -0.00000000000E+00 -0.45593999997E+02  0.45594000000E+02  0.51100000000E-03 0. -1.
    9900012    2    1    2    0    0  0.59551070516E+00 -0.17350566626E+02 -0.70218588043E+01  0.72460926115E+02  0.69999160831E+02 0.  0.
        -12    1    1    2    0    0 -0.59551070516E+00  0.17350566626E+02  0.70218588043E+01  0.18727073885E+02  0.00000000000E+00 0.  1.
         11    1    3    3    0    0  0.15401720956E+02  0.12409597800E+02  0.68231552494E+01  0.20922872025E+02  0.51100000000E-03 0. -1.
        -11    1    3    3    0    0 -0.63401641987E+01 -0.10390504713E+02  0.12708750330E+02  0.17597517026E+02  0.51100000000E-03 0.  1.
         12    1    3    3    0    0 -0.84660460520E+01 -0.19369659714E+02 -0.26553764384E+02  0.33940537063E+02  0.00000000000E+00 0. -1.
</event>
<event>
 7    1  0.2688173E-013  0.7246157E+02  0.7816164E-02  0.1226708E+00
        -11   -1    0    0    0    0  0.00000000000E+00  0.00000000000E+00  0.45593999997E+02  0.45594000000E+02  0.51100000000E-03 0.  1.
         11   -1    0    0    0    0 -0.00000000000E+00 -0.00000000000E+00 -0.45593999997E+02  0.45594000000E+02  0.51100000000E-03 0. -1.
    9900012    2    1    2    0    0  0.10463778679E+02  0.53597620120E+01 -0.14576052230E+02  0.72461574509E+02  0.70000005490E+02 0.  0.
        -12    1    1    2    0    0 -0.10463778679E+02 -0.53597620120E+01  0.14576052230E+02  0.18726425491E+02  0.00000000000E+00 0.  1.
         11    1    3    3    0    0  0.14235339926E+02 -0.96440940335E+01 -0.68897405246E+01  0.18523551962E+02  0.51100000000E-03 0. -1.
        -11    1    3    3    0    0  0.20066202565E+02  0.88213950343E+01  0.95183240847E+01  0.23897028882E+02  0.51100000000E-03 0.  1.
         12    1    3    3    0    0 -0.23837763812E+02  0.61824610112E+01 -0.17204635790E+02  0.30040993665E+02  0.00000000000E+00 0. -1.
</event>
<event>
 7    1  0.2688173E-013  0.7246152E+02  0.7816164E-02  0.1226708E+00
        -11   -1    0    0    0    0  0.00000000000E+00  0.00000000000E+00  0.45593999997E+02  0.45594000000E+02  0.51100000000E-03 0.  1.
         11   -1    0    0    0    0 -0.00000000000E+00 -0.00000000000E+00 -0.45593999997E+02  0.45594000000E+02  0.51100000000E-03 0. -1.
    9900012    2    1    2    0    0 -0.56655399659E+01  0.13924872570E+01 -0.17794484692E+02  0.72461520104E+02  0.69999934617E+02 0.  0.
        -12    1    1    2    0    0  0.56655399659E+01 -0.13924872570E+01  0.17794484692E+02  0.18726479896E+02  0.00000000000E+00 0.  1.
         11    1    3    3    0    0 -0.11381070778E+02  0.24357399766E+01  0.45387486408E+01  0.12492471364E+02  0.51100000000E-03 0. -1.
        -11    1    3    3    0    0 -0.92390195616E+00  0.26905551090E+02 -0.10319171179E+02  0.28831364316E+02  0.51100000000E-03 0.  1.
         12    1    3    3    0    0  0.66394327681E+01 -0.27948803809E+02 -0.12014062154E+02  0.31137684424E+02  0.00000000000E+00 0. -1.
</event>
<event>
 7    1  0.2688173E-013  0.7246156E+02  0.7816164E-02  0.1226708E+00
        -11   -1    0    0    0    0  0.00000000000E+00  0.00000000000E+00  0.45593999997E+02  0.45594000000E+02  0.51100000000E-03 0. -1.
         11   -1    0    0    0    0 -0.00000000000E+00 -0.00000000000E+00 -0.45593999997E+02  0.45594000000E+02  0.51100000000E-03 0.  1.
    9900012    2    1    2    0    0 -0.17356690966E+02  0.42678121672E+01  0.55866417372E+01  0.72461561260E+02  0.69999988231E+02 0.  0.
        -12    1    1    2    0    0  0.17356690966E+02 -0.42678121672E+01 -0.55866417372E+01  0.18726438740E+02  0.00000000000E+00 0.  1.
         11    1    3    3    0    0  0.33814677573E+01  0.57010896195E+01  0.97445674355E+01  0.11785301940E+02  0.51100000000E-03 0. -1.
        -11    1    3    3    0    0  0.15888371092E+02  0.13367065689E+02 -0.41415818418E+01  0.21172422665E+02  0.51100000000E-03 0.  1.
        -12    1    3    3    0    0 -0.36626529815E+02 -0.14800343141E+02 -0.16343856511E-01  0.39503836656E+02  0.00000000000E+00 0.  1.
</event>
<event>
 7    1  0.2688173E-013  0.7246168E+02  0.7816164E-02  0.1226708E+00
        -11   -1    0    0    0    0  0.00000000000E+00  0.00000000000E+00  0.45593999997E+02  0.45594000000E+02  0.51100000000E-03 0.  1.
         11   -1    0    0    0    0 -0.00000000000E+00 -0.00000000000E+00 -0.45593999997E+02  0.45594000000E+02  0.51100000000E-03 0. -1.
    9900012    2    1    2    0    0  0.10428735300E+02 -0.92398657831E+01 -0.12511657996E+02  0.72461675602E+02  0.70000137183E+02 0.  0.
        -12    1    1    2    0    0 -0.10428735300E+02  0.92398657831E+01  0.12511657996E+02  0.18726324398E+02  0.00000000000E+00 0.  1.
         11    1    3    3    0    0 -0.43494847425E+01  0.39393798741E+01 -0.30315911658E+01  0.66050947438E+01  0.51100000000E-03 0. -1.
        -11    1    3    3    0    0 -0.19773627398E+02  0.91783648196E+01 -0.11510182483E+02  0.24652038908E+02  0.51100000000E-03 0.  1.
         12    1    3    3    0    0  0.34551847441E+02 -0.22357610477E+02  0.20301156530E+01  0.41204541951E+02  0.00000000000E+00 0. -1.
</event>
<event>
 7    1  0.2688173E-013  0.7246156E+02  0.7816164E-02  0.1226708E+00
        -11   -1    0    0    0    0  0.00000000000E+00  0.00000000000E+00  0.45593999997E+02  0.45594000000E+02  0.51100000000E-03 0.  1.
         11   -1    0    0    0    0 -0.00000000000E+00 -0.00000000000E+00 -0.45593999997E+02  0.45594000000E+02  0.51100000000E-03 0. -1.
    9900012    2    1    2    0    0 -0.17754577252E+02  0.45298752498E+00 -0.59371168353E+01  0.72461559671E+02  0.69999986161E+02 0.  0.
        -12    1    1    2    0    0  0.17754577252E+02 -0.45298752498E+00  0.59371168353E+01  0.18726440329E+02  0.00000000000E+00 0.  1.
         11    1    3    3    0    0 -0.21423395026E+02  0.23526336131E+02 -0.12453050549E+01  0.31843384417E+02  0.51100000000E-03 0. -1.
        -11    1    3    3    0    0 -0.12083933746E+02 -0.67002873720E+00  0.23763880261E+01  0.12333596945E+02  0.51100000000E-03 0.  1.
        -12    1    3    3    0    0  0.15752751521E+02 -0.22403319869E+02 -0.70681998065E+01  0.28284578309E+02  0.00000000000E+00 0.  1.
</event>
<event>
 7    1  0.2688173E-013  0.7246145E+02  0.7816164E-02  0.1226708E+00
        -11   -1    0    0    0    0  0.00000000000E+00  0.00000000000E+00  0.45593999997E+02  0.45594000000E+02  0.51100000000E-03 0.  1.
         11   -1    0    0    0    0 -0.00000000000E+00 -0.00000000000E+00 -0.45593999997E+02  0.45594000000E+02  0.51100000000E-03 0. -1.
    9900012    2    1    2    0    0 -0.10759713050E+02 -0.65907375155E+01  0.13837431984E+02  0.72461447466E+02  0.69999839993E+02 0.  0.
        -12    1    1    2    0    0  0.10759713050E+02  0.65907375155E+01 -0.13837431984E+02  0.18726552534E+02  0.00000000000E+00 0.  1.
         11    1    3    3    0    0  0.72600331459E+01 -0.15179000144E+02  0.50648290655E+01  0.17571642507E+02  0.51100000000E-03 0.  1.
        -11    1    3    3    0    0  0.17694375450E+02  0.13655566332E+01  0.28235380763E+01  0.17970198524E+02  0.51100000000E-03 0. -1.
         12    1    3    3    0    0 -0.35714121645E+02  0.72227059955E+01  0.59490648419E+01  0.36919606435E+02  0.00000000000E+00 0. -1.
</event>
<event>
 7    1  0.2688173E-013  0.7246148E+02  0.7816164E-02  0.1226708E+00
        -11   -1    0    0    0    0  0.00000000000E+00  0.00000000000E+00  0.45593999997E+02  0.45594000000E+02  0.51100000000E-03 0.  1.
         11   -1    0    0    0    0 -0.00000000000E+00 -0.00000000000E+00 -0.45593999997E+02  0.45594000000E+02  0.51100000000E-03 0. -1.
    9900012    2    1    2    0    0 -0.10606787535E+02  0.65433802109E+01 -0.13977224520E+02  0.72461479456E+02  0.69999881667E+02 0.  0.
        -12    1    1    2    0    0  0.10606787535E+02 -0.65433802109E+01  0.13977224520E+02  0.18726520544E+02  0.00000000000E+00 0.  1.
         11    1    3    3    0    0  0.15149190591E+01 -0.61220490153E+01  0.29499127687E+01  0.69625031063E+01  0.51100000000E-03 0. -1.
        -11    1    3    3    0    0 -0.27708806997E+02  0.76519707921E+01  0.12873129045E+02  0.31496794978E+02  0.51100000000E-03 0.  1.
         12    1    3    3    0    0  0.15587100404E+02  0.50134584342E+01 -0.29800266334E+02  0.34002181372E+02  0.00000000000E+00 0. -1.
</event>
<event>
 7    1  0.2688173E-013  0.7246158E+02  0.7816164E-02  0.1226708E+00
        -11   -1    0    0    0    0  0.00000000000E+00  0.00000000000E+00  0.45593999997E+02  0.45594000000E+02  0.51100000000E-03 0. -1.
         11   -1    0    0    0    0 -0.00000000000E+00 -0.00000000000E+00 -0.45593999997E+02  0.45594000000E+02  0.51100000000E-03 0.  1.
    9900012    2    1    2    0    0  0.15670417393E+02 -0.72319080132E+01  0.72674836219E+01  0.72461580348E+02  0.70000013097E+02 0.  0.
        -12    1    1    2    0    0 -0.15670417393E+02  0.72319080132E+01 -0.72674836219E+01  0.18726419652E+02  0.00000000000E+00 0.  1.
         11    1    3    3    0    0  0.99498285200E+01 -0.38158198493E+01  0.70698679803E+01  0.12788377623E+02  0.51100000000E-03 0. -1.
        -11    1    3    3    0    0  0.29875504057E+02  0.45133877534E+01 -0.10644475737E+02  0.32034688631E+02  0.51100000000E-03 0.  1.
         12    1    3    3    0    0 -0.24154915184E+02 -0.79294759173E+01  0.10842091379E+02  0.27638514094E+02  0.00000000000E+00 0. -1.
</event>
<event>
 7    1  0.2688173E-013  0.7246160E+02  0.7816164E-02  0.1226708E+00
        -11   -1    0    0    0    0  0.00000000000E+00  0.00000000000E+00  0.45593999997E+02  0.45594000000E+02  0.51100000000E-03 0.  1.
         11   -1    0    0    0    0 -0.00000000000E+00 -0.00000000000E+00 -0.45593999997E+02  0.45594000000E+02  0.51100000000E-03 0. -1.
    9900012    2    1    2    0    0 -0.51759691773E+01 -0.14170219871E+02 -0.11094695487E+02  0.72461600024E+02  0.70000038728E+02 0.  0.
        -12    1    1    2    0    0  0.51759691773E+01  0.14170219871E+02  0.11094695487E+02  0.18726399976E+02  0.00000000000E+00 0.  1.
         11    1    3    3    0    0  0.90380792910E+01 -0.42873088000E+01 -0.15810653416E+02  0.18709480370E+02  0.51100000000E-03 0. -1.
        -11    1    3    3    0    0  0.91953492785E+01 -0.23590941869E+02  0.76904814104E+01  0.26461868626E+02  0.51100000000E-03 0.  1.
        -12    1    3    3    0    0 -0.23409397747E+02  0.13708030798E+02 -0.29745234819E+01  0.27290251028E+02  0.00000000000E+00 0.  1.
</event>
<event>
 7    1  0.2688173E-013  0.7246155E+02  0.7816164E-02  0.1226708E+00
        -11   -1    0    0    0    0  0.00000000000E+00  0.00000000000E+00  0.45593999997E+02  0.45594000000E+02  0.51100000000E-03 0. -1.
         11   -1    0    0    0    0 -0.00000000000E+00 -0.00000000000E+00 -0.45593999997E+02  0.45594000000E+02  0.51100000000E-03 0.  1.
    9900012    2    1    2    0    0 -0.13709342150E+02  0.12227565465E+02  0.36359882530E+01  0.72461552661E+02  0.69999977029E+02 0.  0.
        -12    1    1    2    0    0  0.13709342150E+02 -0.12227565465E+02 -0.36359882530E+01  0.18726447339E+02  0.00000000000E+00 0.  1.
         11    1    3    3    0    0 -0.28441248149E+01 -0.20646561640E+02  0.13068961286E+02  0.24600148432E+02  0.51100000000E-03 0. -1.
        -11    1    3    3    0    0 -0.24917513707E+01  0.10278475690E+02  0.11727464705E+02  0.15792064972E+02  0.51100000000E-03 0.  1.
        -12    1    3    3    0    0 -0.83734659640E+01  0.22595651415E+02 -0.21160437738E+02  0.32069339257E+02  0.00000000000E+00 0.  1.
</event>
<event>
 7    1  0.2688173E-013  0.7246157E+02  0.7816164E-02  0.1226708E+00
        -11   -1    0    0    0    0  0.00000000000E+00  0.00000000000E+00  0.45593999997E+02  0.45594000000E+02  0.51100000000E-03 0. -1.
         11   -1    0    0    0    0 -0.00000000000E+00 -0.00000000000E+00 -0.45593999997E+02  0.45594000000E+02  0.51100000000E-03 0.  1.
    9900012    2    1    2    0    0 -0.12938579522E+01  0.15105330035E+02  0.10992459455E+02  0.72461568713E+02  0.69999997940E+02 0.  0.
        -12    1    1    2    0    0  0.12938579522E+01 -0.15105330035E+02 -0.10992459455E+02  0.18726431287E+02  0.00000000000E+00 0.  1.
         11    1    3    3    0    0  0.11438478957E+02  0.11616959269E+02 -0.17784833099E+02  0.24126600095E+02  0.51100000000E-03 0. -1.
        -11    1    3    3    0    0  0.77926681138E+01  0.59587785157E+01 -0.31464096158E+01  0.10302068310E+02  0.51100000000E-03 0.  1.
        -12    1    3    3    0    0 -0.20525005023E+02 -0.24704077500E+01  0.31923702170E+02  0.38032900308E+02  0.00000000000E+00 0.  1.
</event>
<event>
 7    1  0.2688173E-013  0.7246169E+02  0.7816164E-02  0.1226708E+00
        -11   -1    0    0    0    0  0.00000000000E+00  0.00000000000E+00  0.45593999997E+02  0.45594000000E+02  0.51100000000E-03 0.  1.
         11   -1    0    0    0    0 -0.00000000000E+00 -0.00000000000E+00 -0.45593999997E+02  0.45594000000E+02  0.51100000000E-03 0. -1.
    9900012    2    1    2    0    0 -0.10765262726E+02  0.15305683284E+02 -0.72098235696E+00  0.72461691289E+02  0.70000157618E+02 0.  0.
        -12    1    1    2    0    0  0.10765262726E+02 -0.15305683284E+02  0.72098235696E+00  0.18726308711E+02  0.00000000000E+00 0.  1.
         11    1    3    3    0    0 -0.62746602357E+01  0.18923445636E+01 -0.18317132318E+01  0.68049616197E+01  0.51100000000E-03 0. -1.
        -11    1    3    3    0    0 -0.18460129838E+02 -0.16740401813E+02  0.15602879506E+02  0.29401824699E+02  0.51100000000E-03 0.  1.
         12    1    3    3    0    0  0.13969527348E+02  0.30153740534E+02 -0.14492148631E+02  0.36254904971E+02  0.00000000000E+00 0. -1.
</event>
<event>
 7    1  0.2688173E-013  0.7246158E+02  0.7816164E-02  0.1226708E+00
        -11   -1    0    0    0    0  0.00000000000E+00  0.00000000000E+00  0.45593999997E+02  0.45594000000E+02  0.51100000000E-03 0.  1.
         11   -1    0    0    0    0 -0.00000000000E+00 -0.00000000000E+00 -0.45593999997E+02  0.45594000000E+02  0.51100000000E-03 0. -1.
    9900012    2    1    2    0    0 -0.33704090386E+01 -0.72889412691E+01 -0.16917169020E+02  0.72461576702E+02  0.70000008347E+02 0.  0.
        -12    1    1    2    0    0  0.33704090386E+01  0.72889412691E+01  0.16917169020E+02  0.18726423298E+02  0.00000000000E+00 0.  1.
         11    1    3    3    0    0 -0.13452355856E+02 -0.13644833091E+02 -0.37709975246E+01  0.19528639757E+02  0.51100000000E-03 0. -1.
        -11    1    3    3    0    0 -0.17529585100E+02  0.73016066719E+01  0.52975258246E+01  0.19714552845E+02  0.51100000000E-03 0.  1.
         12    1    3    3    0    0  0.27611531917E+02 -0.94571485013E+00 -0.18443697320E+02  0.33218384100E+02  0.00000000000E+00 0. -1.
</event>
<event>
 7    1  0.2688173E-013  0.7246155E+02  0.7816164E-02  0.1226708E+00
        -11   -1    0    0    0    0  0.00000000000E+00  0.00000000000E+00  0.45593999997E+02  0.45594000000E+02  0.51100000000E-03 0. -1.
         11   -1    0    0    0    0 -0.00000000000E+00 -0.00000000000E+00 -0.45593999997E+02  0.45594000000E+02  0.51100000000E-03 0.  1.
    9900012    2    1    2    0    0  0.17132395223E+02  0.15617671752E+00  0.75588688037E+01  0.72461551997E+02  0.69999976164E+02 0.  0.
        -12    1    1    2    0    0 -0.17132395223E+02 -0.15617671752E+00 -0.75588688037E+01  0.18726448003E+02  0.00000000000E+00 0.  1.
         11    1    3    3    0    0 -0.67955470350E+01 -0.92961919732E+00  0.26644802394E+01  0.73581999540E+01  0.51100000000E-03 0. -1.
        -11    1    3    3    0    0  0.29649782873E+01 -0.46866541787E+01 -0.26411465780E+02  0.26987429454E+02  0.51100000000E-03 0.  1.
         12    1    3    3    0    0  0.20962963970E+02  0.57724500936E+01  0.31305854345E+02  0.38115922588E+02  0.00000000000E+00 0. -1.
</event>
<event>
 7    1  0.2688173E-013  0.7246153E+02  0.7816164E-02  0.1226708E+00
        -11   -1    0    0    0    0  0.00000000000E+00  0.00000000000E+00  0.45593999997E+02  0.45594000000E+02  0.51100000000E-03 0. -1.
         11   -1    0    0    0    0 -0.00000000000E+00 -0.00000000000E+00 -0.45593999997E+02  0.45594000000E+02  0.51100000000E-03 0.  1.
    9900012    2    1    2    0    0 -0.53055207192E+01 -0.17761458536E+02  0.26575450917E+01  0.72461534628E+02  0.69999953538E+02 0.  0.
        -12    1    1    2    0    0  0.53055207192E+01  0.17761458536E+02 -0.26575450917E+01  0.18726465372E+02  0.00000000000E+00 0.  1.
         11    1    3    3    0    0 -0.66549678644E+01  0.11005219041E+02 -0.15706769194E+02  0.20300395124E+02  0.51100000000E-03 0. -1.
        -11    1    3    3    0    0 -0.11450635933E+01 -0.22874326946E+02 -0.85876493382E+01  0.24460043444E+02  0.51100000000E-03 0.  1.
         12    1    3    3    0    0  0.24945107385E+01 -0.58923506312E+01  0.26951963624E+02  0.27701096061E+02  0.00000000000E+00 0. -1.
</event>
<event>
 7    1  0.2688173E-013  0.7246166E+02  0.7816164E-02  0.1226708E+00
        -11   -1    0    0    0    0  0.00000000000E+00  0.00000000000E+00  0.45593999997E+02  0.45594000000E+02  0.51100000000E-03 0. -1.
         11   -1    0    0    0    0 -0.00000000000E+00 -0.00000000000E+00 -0.45593999997E+02  0.45594000000E+02  0.51100000000E-03 0.  1.
    9900012    2    1    2    0    0 -0.90176040427E+01 -0.14525446777E+02  0.76400167242E+01  0.72461664473E+02  0.70000122685E+02 0.  0.
        -12    1    1    2    0    0  0.90176040427E+01  0.14525446777E+02 -0.76400167242E+01  0.18726335527E+02  0.00000000000E+00 0.  1.
         11    1    3    3    0    0 -0.19693106624E+02 -0.21512536116E+02 -0.85436117987E+01  0.30390803896E+02  0.51100000000E-03 0. -1.
        -11    1    3    3    0    0 -0.86245826564E+01 -0.90240563990E+01  0.10608736407E+02  0.16381767557E+02  0.51100000000E-03 0.  1.
        -12    1    3    3    0    0  0.19300085238E+02  0.16011145738E+02  0.55748921157E+01  0.25689093019E+02  0.00000000000E+00 0.  1.
</event>
<event>
 7    1  0.2688173E-013  0.7246161E+02  0.7816164E-02  0.1226708E+00
        -11   -1    0    0    0    0  0.00000000000E+00  0.00000000000E+00  0.45593999997E+02  0.45594000000E+02  0.51100000000E-03 0.  1.
         11   -1    0    0    0    0 -0.00000000000E+00 -0.00000000000E+00 -0.45593999997E+02  0.45594000000E+02  0.51100000000E-03 0. -1.
    9900012    2    1    2    0    0 -0.26072910323E+01  0.11713433856E+02 -0.14376198071E+02  0.72461612996E+02  0.70000055627E+02 0.  0.
        -12    1    1    2    0    0  0.26072910323E+01 -0.11713433856E+02  0.14376198071E+02  0.18726387004E+02  0.00000000000E+00 0.  1.
         11    1    3    3    0    0  0.51348772792E+01 -0.12296254069E+02  0.60528206017E+01  0.14635623195E+02  0.51100000000E-03 0. -1.
        -11    1    3    3    0    0  0.97103123808E+01 -0.91840235270E+01  0.28773841095E+01  0.13671715117E+02  0.51100000000E-03 0.  1.
         12    1    3    3    0    0 -0.17452480692E+02  0.33193711452E+02 -0.23306402782E+02  0.44154274685E+02  0.00000000000E+00 0. -1.
</event>
<event>
 7    1  0.2688173E-013  0.7246158E+02  0.7816164E-02  0.1226708E+00
        -11   -1    0    0    0    0  0.00000000000E+00  0.00000000000E+00  0.45593999997E+02  0.45594000000E+02  0.51100000000E-03 0.  1.
         11   -1    0    0    0    0 -0.00000000000E+00 -0.00000000000E+00 -0.45593999997E+02  0.45594000000E+02  0.51100000000E-03 0. -1.
    9900012    2    1    2    0    0 -0.42964261352E+01  0.11774721845E+02 -0.13913133386E+02  0.72461584628E+02  0.70000018672E+02 0.  0.
        -12    1    1    2    0    0  0.42964261352E+01 -0.11774721845E+02  0.13913133386E+02  0.18726415372E+02  0.00000000000E+00 0.  1.
         11    1    3    3    0    0  0.27149710719E+02  0.22293123218E+02 -0.77634291248E+01  0.35977228450E+02  0.51100000000E-03 0.  1.
        -11    1    3    3    0    0 -0.11530787004E+02 -0.52452252264E+01 -0.92028481168E+01  0.15657708975E+02  0.51100000000E-03 0. -1.
        -12    1    3    3    0    0 -0.19915349850E+02 -0.52731761466E+01  0.30531438556E+01  0.20826647203E+02  0.00000000000E+00 0.  1.
</event>
<event>
 7    1  0.2688173E-013  0.7246151E+02  0.7816164E-02  0.1226708E+00
        -11   -1    0    0    0    0  0.00000000000E+00  0.00000000000E+00  0.45593999997E+02  0.45594000000E+02  0.51100000000E-03 0. -1.
         11   -1    0    0    0    0 -0.00000000000E+00 -0.00000000000E+00 -0.45593999997E+02  0.45594000000E+02  0.51100000000E-03 0.  1.
    9900012    2    1    2    0    0  0.30794130872E+01 -0.18469527728E+02  0.27398603970E+00  0.72461513202E+02  0.69999925626E+02 0.  0.
        -12    1    1    2    0    0 -0.30794130872E+01  0.18469527728E+02 -0.27398603970E+00  0.18726486798E+02  0.00000000000E+00 0.  1.
         11    1    3    3    0    0  0.49650152060E+01  0.78702338426E+01 -0.47823108336E+01  0.10462430593E+02  0.51100000000E-03 0. -1.
        -11    1    3    3    0    0 -0.50978852472E+00  0.17080374810E+02 -0.41672591202E+01  0.17588778719E+02  0.51100000000E-03 0.  1.
         12    1    3    3    0    0 -0.13758135941E+01 -0.43420136381E+02  0.92235559935E+01  0.44410303890E+02  0.00000000000E+00 0. -1.
</event>
<event>
 7    1  0.2688173E-013  0.7246152E+02  0.7816164E-02  0.1226708E+00
        -11   -1    0    0    0    0  0.00000000000E+00  0.00000000000E+00  0.45593999997E+02  0.45594000000E+02  0.51100000000E-03 0.  1.
         11   -1    0    0    0    0 -0.00000000000E+00 -0.00000000000E+00 -0.45593999997E+02  0.45594000000E+02  0.51100000000E-03 0. -1.
    9900012    2    1    2    0    0  0.13048173821E+02 -0.10810170092E+02 -0.79728455259E+01  0.72461524537E+02  0.69999940393E+02 0.  0.
        -12    1    1    2    0    0 -0.13048173821E+02  0.10810170092E+02  0.79728455259E+01  0.18726475463E+02  0.00000000000E+00 0.  1.
         11    1    3    3    0    0 -0.11087753239E+02 -0.14393529289E+02 -0.21764015293E+02  0.28351090265E+02  0.51100000000E-03 0. -1.
        -11    1    3    3    0    0  0.21954626735E+01 -0.10809368665E+02 -0.47206443269E+01  0.11997791064E+02  0.51100000000E-03 0.  1.
        -12    1    3    3    0    0  0.21940464387E+02  0.14392727862E+02  0.18511814094E+02  0.32112643209E+02  0.00000000000E+00 0.  1.
</event>
<event>
 7    1  0.2688173E-013  0.7246157E+02  0.7816164E-02  0.1226708E+00
        -11   -1    0    0    0    0  0.00000000000E+00  0.00000000000E+00  0.45593999997E+02  0.45594000000E+02  0.51100000000E-03 0.  1.
         11   -1    0    0    0    0 -0.00000000000E+00 -0.00000000000E+00 -0.45593999997E+02  0.45594000000E+02  0.51100000000E-03 0. -1.
    9900012    2    1    2    0    0  0.13959562375E+02  0.87418943285E+01 -0.89100572810E+01  0.72461568976E+02  0.69999998282E+02 0.  0.
        -12    1    1    2    0    0 -0.13959562375E+02 -0.87418943285E+01  0.89100572810E+01  0.18726431024E+02  0.00000000000E+00 0.  1.
         11    1    3    3    0    0 -0.23907371189E+02  0.70855415975E+00 -0.89747854443E+01  0.25546256481E+02  0.51100000000E-03 0. -1.
        -11    1    3    3    0    0  0.74738939584E+01 -0.77405515106E+00  0.11098983908E+02  0.13403197243E+02  0.51100000000E-03 0.  1.
        -12    1    3    3    0    0  0.30393039606E+02  0.88073953198E+01 -0.11034255745E+02  0.33512115252E+02  0.00000000000E+00 0.  1.
</event>
<event>
 7    1  0.2688173E-013  0.7246152E+02  0.7816164E-02  0.1226708E+00
        -11   -1    0    0    0    0  0.00000000000E+00  0.00000000000E+00  0.45593999997E+02  0.45594000000E+02  0.51100000000E-03 0. -1.
         11   -1    0    0    0    0 -0.00000000000E+00 -0.00000000000E+00 -0.45593999997E+02  0.45594000000E+02  0.51100000000E-03 0.  1.
    9900012    2    1    2    0    0  0.56317081803E+01  0.16357589735E+02  0.71689660499E+01  0.72461522670E+02  0.69999937960E+02 0.  0.
        -12    1    1    2    0    0 -0.56317081803E+01 -0.16357589735E+02 -0.71689660499E+01  0.18726477330E+02  0.00000000000E+00 0.  1.
         11    1    3    3    0    0  0.60085954634E+01 -0.17201019090E+02  0.19052686861E+02  0.26362533150E+02  0.51100000000E-03 0. -1.
        -11    1    3    3    0    0 -0.62794644012E+01 -0.52615924294E+00 -0.95325852187E+01  0.11427103654E+02  0.51100000000E-03 0.  1.
        -12    1    3    3    0    0  0.59025771180E+01  0.34084768068E+02 -0.23511355928E+01  0.34671885866E+02  0.00000000000E+00 0.  1.
</event>
<event>
 7    1  0.2688173E-013  0.7246142E+02  0.7816164E-02  0.1226708E+00
        -11   -1    0    0    0    0  0.00000000000E+00  0.00000000000E+00  0.45593999997E+02  0.45594000000E+02  0.51100000000E-03 0.  1.
         11   -1    0    0    0    0 -0.00000000000E+00 -0.00000000000E+00 -0.45593999997E+02  0.45594000000E+02  0.51100000000E-03 0. -1.
    9900012    2    1    2    0    0  0.10536181195E+02  0.15397094174E+02  0.16134136381E+01  0.72461421916E+02  0.69999806710E+02 0.  0.
        -12    1    1    2    0    0 -0.10536181195E+02 -0.15397094174E+02 -0.16134136381E+01  0.18726578084E+02  0.00000000000E+00 0.  1.
         11    1    3    3    0    0 -0.96595890210E+01  0.11620316278E+02 -0.12116572069E+02  0.19368808157E+02  0.51100000000E-03 0. -1.
        -11    1    3    3    0    0  0.26053420818E+02  0.65443312696E+01 -0.98707053009E+01  0.28618871947E+02  0.51100000000E-03 0.  1.
        -12    1    3    3    0    0 -0.58576506023E+01 -0.27675533743E+01  0.23600691008E+02  0.24473741812E+02  0.00000000000E+00 0.  1.
</event>
<event>
 7    1  0.2688173E-013  0.7246160E+02  0.7816164E-02  0.1226708E+00
        -11   -1    0    0    0    0  0.00000000000E+00  0.00000000000E+00  0.45593999997E+02  0.45594000000E+02  0.51100000000E-03 0.  1.
         11   -1    0    0    0    0 -0.00000000000E+00 -0.00000000000E+00 -0.45593999997E+02  0.45594000000E+02  0.51100000000E-03 0. -1.
    9900012    2    1    2    0    0  0.17128465233E+02  0.66393738375E+01  0.36349145100E+01  0.72461595922E+02  0.70000033384E+02 0.  0.
        -12    1    1    2    0    0 -0.17128465233E+02 -0.66393738375E+01 -0.36349145100E+01  0.18726404078E+02  0.00000000000E+00 0.  1.
         11    1    3    3    0    0 -0.14210952077E+02  0.16468922506E+01 -0.21894870323E+01  0.14472638556E+02  0.51100000000E-03 0. -1.
        -11    1    3    3    0    0  0.54820766364E+00 -0.16206568507E+02 -0.80628077961E+01  0.18109728441E+02  0.51100000000E-03 0.  1.
         12    1    3    3    0    0  0.30791209647E+02  0.21199050094E+02  0.13887209338E+02  0.39879228925E+02  0.00000000000E+00 0. -1.
</event>
<event>
 7    1  0.2688173E-013  0.7246156E+02  0.7816164E-02  0.1226708E+00
        -11   -1    0    0    0    0  0.00000000000E+00  0.00000000000E+00  0.45593999997E+02  0.45594000000E+02  0.51100000000E-03 0.  1.
         11   -1    0    0    0    0 -0.00000000000E+00 -0.00000000000E+00 -0.45593999997E+02  0.45594000000E+02  0.51100000000E-03 0. -1.
    9900012    2    1    2    0    0 -0.13890956218E+02  0.45691444164E+01 -0.11698033378E+02  0.72461555323E+02  0.69999980496E+02 0.  0.
        -12    1    1    2    0    0  0.13890956218E+02 -0.45691444164E+01  0.11698033378E+02  0.18726444677E+02  0.00000000000E+00 0.  1.
         11    1    3    3    0    0  0.19283695806E+02 -0.17579722530E+02 -0.17565659017E+01  0.26153261597E+02  0.51100000000E-03 0. -1.
        -11    1    3    3    0    0 -0.60372549417E+01 -0.12269561396E+01 -0.84535949314E+01  0.10460264630E+02  0.51100000000E-03 0.  1.
        -12    1    3    3    0    0 -0.27137397082E+02  0.23375823086E+02 -0.14878725447E+01  0.35848029095E+02  0.00000000000E+00 0.  1.
</event>
<event>
 7    1  0.2688173E-013  0.7246156E+02  0.7816164E-02  0.1226708E+00
        -11   -1    0    0    0    0  0.00000000000E+00  0.00000000000E+00  0.45593999997E+02  0.45594000000E+02  0.51100000000E-03 0.  1.
         11   -1    0    0    0    0 -0.00000000000E+00 -0.00000000000E+00 -0.45593999997E+02  0.45594000000E+02  0.51100000000E-03 0. -1.
    9900012    2    1    2    0    0 -0.68221932366E+01 -0.16880520704E+02 -0.43801055580E+01  0.72461558146E+02  0.69999984175E+02 0.  0.
        -12    1    1    2    0    0  0.68221932366E+01  0.16880520704E+02  0.43801055580E+01  0.18726441854E+02  0.00000000000E+00 0.  1.
         11    1    3    3    0    0 -0.18239014144E+00  0.19378781128E+01  0.10142073049E+02  0.10327162425E+02  0.51100000000E-03 0. -1.
        -11    1    3    3    0    0  0.24316209744E+01  0.11130525150E+02  0.15186763725E+02  0.18985235405E+02  0.51100000000E-03 0.  1.
         12    1    3    3    0    0 -0.90714240696E+01 -0.29948923968E+02 -0.29708942333E+02  0.43149160316E+02  0.00000000000E+00 0. -1.
</event>
<event>
 7    1  0.2688173E-013  0.7246162E+02  0.7816164E-02  0.1226708E+00
        -11   -1    0    0    0    0  0.00000000000E+00  0.00000000000E+00  0.45593999997E+02  0.45594000000E+02  0.51100000000E-03 0. -1.
         11   -1    0    0    0    0 -0.00000000000E+00 -0.00000000000E+00 -0.45593999997E+02  0.45594000000E+02  0.51100000000E-03 0.  1.
    9900012    2    1    2    0    0 -0.18714939885E+02  0.14048411287E-01  0.65443971282E+00  0.72461615843E+02  0.70000059336E+02 0.  0.
        -12    1    1    2    0    0  0.18714939885E+02 -0.14048411287E-01 -0.65443971282E+00  0.18726384157E+02  0.00000000000E+00 0.  1.
         11    1    3    3    0    0  0.33406499189E+01 -0.15292345289E+02 -0.67932782350E+01  0.17063539954E+02  0.51100000000E-03 0. -1.
        -11    1    3    3    0    0  0.13256470328E+02  0.48380069861E+01  0.11688313365E+02  0.18323672851E+02  0.51100000000E-03 0.  1.
        -12    1    3    3    0    0 -0.35312060132E+02  0.10468386715E+02 -0.42405954175E+01  0.37074403038E+02  0.00000000000E+00 0.  1.
</event>
<event>
 7    1  0.2688173E-013  0.7246157E+02  0.7816164E-02  0.1226708E+00
        -11   -1    0    0    0    0  0.00000000000E+00  0.00000000000E+00  0.45593999997E+02  0.45594000000E+02  0.51100000000E-03 0.  1.
         11   -1    0    0    0    0 -0.00000000000E+00 -0.00000000000E+00 -0.45593999997E+02  0.45594000000E+02  0.51100000000E-03 0. -1.
    9900012    2    1    2    0    0 -0.45525176823E+01  0.16684190699E+02 -0.71827337382E+01  0.72461566797E+02  0.69999995444E+02 0.  0.
        -12    1    1    2    0    0  0.45525176823E+01 -0.16684190699E+02  0.71827337382E+01  0.18726433203E+02  0.00000000000E+00 0.  1.
         11    1    3    3    0    0 -0.28361473561E+02  0.37637101397E+01  0.75512336445E+01  0.29589860195E+02  0.51100000000E-03 0. -1.
        -11    1    3    3    0    0 -0.51987997010E+01 -0.14941228174E+01  0.27438810247E+01  0.60653775368E+01  0.51100000000E-03 0.  1.
        -12    1    3    3    0    0  0.29007755580E+02  0.14414603377E+02 -0.17477848407E+02  0.36806329065E+02  0.00000000000E+00 0.  1.
</event>
<event>
 7    1  0.2688173E-013  0.7246186E+02  0.7816164E-02  0.1226707E+00
        -11   -1    0    0    0    0  0.00000000000E+00  0.00000000000E+00  0.45593999997E+02  0.45594000000E+02  0.51100000000E-03 0.  1.
         11   -1    0    0    0    0 -0.00000000000E+00 -0.00000000000E+00 -0.45593999997E+02  0.45594000000E+02  0.51100000000E-03 0. -1.
    9900012    2    1    2    0    0  0.18538391722E+01 -0.17937842569E+02 -0.50463215078E+01  0.72461861143E+02  0.70000378884E+02 0.  0.
        -12    1    1    2    0    0 -0.18538391722E+01  0.17937842569E+02  0.50463215078E+01  0.18726138857E+02  0.00000000000E+00 0.  1.
         11    1    3    3    0    0  0.48552914039E+01 -0.10143605437E+02 -0.62982674746E+01  0.12889327342E+02  0.51100000000E-03 0. -1.
        -11    1    3    3    0    0 -0.25296636020E+02  0.26727214134E+01 -0.15497984852E+02  0.29786754916E+02  0.51100000000E-03 0.  1.
         12    1    3    3    0    0  0.22295183789E+02 -0.10466958545E+02  0.16749930819E+02  0.29785778885E+02  0.00000000000E+00 0. -1.
</event>
<event>
 7    1  0.2688173E-013  0.7246156E+02  0.7816164E-02  0.1226708E+00
        -11   -1    0    0    0    0  0.00000000000E+00  0.00000000000E+00  0.45593999997E+02  0.45594000000E+02  0.51100000000E-03 0.  1.
         11   -1    0    0    0    0 -0.00000000000E+00 -0.00000000000E+00 -0.45593999997E+02  0.45594000000E+02  0.51100000000E-03 0. -1.
    9900012    2    1    2    0    0 -0.16091387296E+02 -0.44904873877E+01  0.84606361394E+01  0.72461559175E+02  0.69999985515E+02 0.  0.
        -12    1    1    2    0    0  0.16091387296E+02  0.44904873877E+01 -0.84606361394E+01  0.18726440825E+02  0.00000000000E+00 0.  1.
         11    1    3    3    0    0 -0.15083802946E+02  0.78344063450E+01 -0.36541996457E+01  0.17385402193E+02  0.51100000000E-03 0. -1.
        -11    1    3    3    0    0 -0.22026765861E+02  0.43472412112E+01 -0.53288685788E+01  0.23075392977E+02  0.51100000000E-03 0.  1.
        -12    1    3    3    0    0  0.21019181511E+02 -0.16672134944E+02  0.17443704364E+02  0.32000764006E+02  0.00000000000E+00 0.  1.
</event>
<event>
 7    1  0.2688173E-013  0.7246161E+02  0.7816164E-02  0.1226708E+00
        -11   -1    0    0    0    0  0.00000000000E+00  0.00000000000E+00  0.45593999997E+02  0.45594000000E+02  0.51100000000E-03 0.  1.
         11   -1    0    0    0    0 -0.00000000000E+00 -0.00000000000E+00 -0.45593999997E+02  0.45594000000E+02  0.51100000000E-03 0. -1.
    9900012    2    1    2    0    0  0.10958964625E+02  0.15184803142E+02 -0.22548525303E-01  0.72461610584E+02  0.70000052485E+02 0.  0.
        -12    1    1    2    0    0 -0.10958964625E+02 -0.15184803142E+02  0.22548525303E-01  0.18726389416E+02  0.00000000000E+00 0.  1.
         11    1    3    3    0    0 -0.22481026302E+02  0.40800333632E+01 -0.71564683107E+01  0.23942812173E+02  0.51100000000E-03 0. -1.
        -11    1    3    3    0    0  0.62702181874E+01  0.14868567734E+02  0.12694699415E+02  0.20531569255E+02  0.51100000000E-03 0.  1.
        -12    1    3    3    0    0  0.27169772739E+02 -0.37637979552E+01 -0.55607796292E+01  0.27987229156E+02  0.00000000000E+00 0.  1.
</event>
<event>
 7    1  0.2688173E-013  0.7246157E+02  0.7816164E-02  0.1226708E+00
        -11   -1    0    0    0    0  0.00000000000E+00  0.00000000000E+00  0.45593999997E+02  0.45594000000E+02  0.51100000000E-03 0.  1.
         11   -1    0    0    0    0 -0.00000000000E+00 -0.00000000000E+00 -0.45593999997E+02  0.45594000000E+02  0.51100000000E-03 0. -1.
    9900012    2    1    2    0    0  0.16272205713E+02  0.70186262566E+01  0.60525444120E+01  0.72461572493E+02  0.70000002865E+02 0.  0.
        -12    1    1    2    0    0 -0.16272205713E+02 -0.70186262566E+01 -0.60525444120E+01  0.18726427507E+02  0.00000000000E+00 0.  1.
         11    1    3    3    0    0  0.91716843253E+01  0.16753059485E+01 -0.15609392480E+01  0.94531991929E+01  0.51100000000E-03 0. -1.
        -11    1    3    3    0    0 -0.22801428199E+02  0.18452576884E+02  0.78247598399E+01  0.30358352861E+02  0.51100000000E-03 0.  1.
         12    1    3    3    0    0  0.29901949587E+02 -0.13109256576E+02 -0.21127617997E+00  0.32650020440E+02  0.00000000000E+00 0. -1.
</event>
<event>
 7    1  0.2688173E-013  0.7246146E+02  0.7816164E-02  0.1226708E+00
        -11   -1    0    0    0    0  0.00000000000E+00  0.00000000000E+00  0.45593999997E+02  0.45594000000E+02  0.51100000000E-03 0. -1.
         11   -1    0    0    0    0 -0.00000000000E+00 -0.00000000000E+00 -0.45593999997E+02  0.45594000000E+02  0.51100000000E-03 0.  1.
    9900012    2    1    2    0    0 -0.62780760045E+01 -0.16972427809E+02  0.48172398619E+01  0.72461458837E+02  0.69999854806E+02 0.  0.
        -12    1    1    2    0    0  0.62780760045E+01  0.16972427809E+02 -0.48172398619E+01  0.18726541163E+02  0.00000000000E+00 0.  1.
         11    1    3    3    0    0  0.80485931169E+01 -0.23162463578E+01 -0.55542075684E+01  0.10049580604E+02  0.51100000000E-03 0.  1.
        -11    1    3    3    0    0  0.44308809510E+01  0.12502397345E+02  0.23423422866E+02  0.26918383762E+02  0.51100000000E-03 0. -1.
         12    1    3    3    0    0 -0.18757550072E+02 -0.27158578796E+02 -0.13051975435E+02  0.35493494470E+02  0.00000000000E+00 0. -1.
</event>
<event>
 7    1  0.2688173E-013  0.7246157E+02  0.7816164E-02  0.1226708E+00
        -11   -1    0    0    0    0  0.00000000000E+00  0.00000000000E+00  0.45593999997E+02  0.45594000000E+02  0.51100000000E-03 0. -1.
         11   -1    0    0    0    0 -0.00000000000E+00 -0.00000000000E+00 -0.45593999997E+02  0.45594000000E+02  0.51100000000E-03 0.  1.
    9900012    2    1    2    0    0 -0.94621856707E+01 -0.44098123342E+01  0.15546696398E+02  0.72461570245E+02  0.69999999936E+02 0.  0.
        -12    1    1    2    0    0  0.94621856707E+01  0.44098123342E+01 -0.15546696398E+02  0.18726429755E+02  0.00000000000E+00 0.  1.
         11    1    3    3    0    0  0.22482026973E+00 -0.10014607446E+02  0.19431042086E+02  0.21861113952E+02  0.51100000000E-03 0. -1.
        -11    1    3    3    0    0  0.13202684610E+02 -0.13030967652E+02 -0.90418279479E+01  0.20636657960E+02  0.51100000000E-03 0.  1.
        -12    1    3    3    0    0 -0.22889690550E+02  0.18635762764E+02  0.51574822601E+01  0.29963798333E+02  0.00000000000E+00 0.  1.
</event>
<event>
 7    1  0.2688173E-013  0.7246154E+02  0.7816164E-02  0.1226708E+00
        -11   -1    0    0    0    0  0.00000000000E+00  0.00000000000E+00  0.45593999997E+02  0.45594000000E+02  0.51100000000E-03 0.  1.
         11   -1    0    0    0    0 -0.00000000000E+00 -0.00000000000E+00 -0.45593999997E+02  0.45594000000E+02  0.51100000000E-03 0. -1.
    9900012    2    1    2    0    0 -0.48263694145E+00  0.15554317132E+02 -0.10416833157E+02  0.72461544572E+02  0.69999966492E+02 0.  0.
        -12    1    1    2    0    0  0.48263694145E+00 -0.15554317132E+02  0.10416833157E+02  0.18726455428E+02  0.00000000000E+00 0.  1.
         11    1    3    3    0    0  0.18439507125E+01  0.51541313148E+00  0.95821105354E+01  0.97715222714E+01  0.51100000000E-03 0. -1.
        -11    1    3    3    0    0  0.81212330616E+01 -0.64833795773E+01  0.16231660009E+02  0.19273178879E+02  0.51100000000E-03 0.  1.
         12    1    3    3    0    0 -0.10447820716E+02  0.21522283578E+02 -0.36230603702E+02  0.43416843422E+02  0.00000000000E+00 0. -1.
</event>
<event>
 7    1  0.2688173E-013  0.7246155E+02  0.7816164E-02  0.1226708E+00
        -11   -1    0    0    0    0  0.00000000000E+00  0.00000000000E+00  0.45593999997E+02  0.45594000000E+02  0.51100000000E-03 0. -1.
         11   -1    0    0    0    0 -0.00000000000E+00 -0.00000000000E+00 -0.45593999997E+02  0.45594000000E+02  0.51100000000E-03 0.  1.
    9900012    2    1    2    0    0 -0.77245774571E+00  0.45378600129E+01  0.18151884975E+02  0.72461553657E+02  0.69999978327E+02 0.  0.
        -12    1    1    2    0    0  0.77245774571E+00 -0.45378600129E+01 -0.18151884975E+02  0.18726446343E+02  0.00000000000E+00 0.  1.
         11    1    3    3    0    0  0.14102707867E+02 -0.57087526686E+01  0.14259726197E+02  0.20852242510E+02  0.51100000000E-03 0. -1.
        -11    1    3    3    0    0  0.11524926798E+01  0.18459020732E+02  0.20147228274E+02  0.27349122346E+02  0.51100000000E-03 0.  1.
        -12    1    3    3    0    0 -0.16027658293E+02 -0.82124080501E+01 -0.16255069496E+02  0.24260188801E+02  0.00000000000E+00 0.  1.
</event>
<event>
 7    1  0.2688173E-013  0.7246171E+02  0.7816164E-02  0.1226708E+00
        -11   -1    0    0    0    0  0.00000000000E+00  0.00000000000E+00  0.45593999997E+02  0.45594000000E+02  0.51100000000E-03 0.  1.
         11   -1    0    0    0    0 -0.00000000000E+00 -0.00000000000E+00 -0.45593999997E+02  0.45594000000E+02  0.51100000000E-03 0. -1.
    9900012    2    1    2    0    0  0.12853445694E+02  0.10741156575E+02  0.83719981916E+01  0.72461711941E+02  0.70000184520E+02 0.  0.
        -12    1    1    2    0    0 -0.12853445694E+02 -0.10741156575E+02 -0.83719981916E+01  0.18726288059E+02  0.00000000000E+00 0.  1.
         11    1    3    3    0    0  0.19058012263E+01 -0.10437610692E+02 -0.10564636166E+02  0.14972886591E+02  0.51100000000E-03 0. -1.
        -11    1    3    3    0    0  0.41256606160E+01 -0.69327637188E+01 -0.12430667722E+02  0.14819102151E+02  0.51100000000E-03 0.  1.
        -12    1    3    3    0    0  0.68219838515E+01  0.28111530986E+02  0.31367302080E+02  0.42669723198E+02  0.00000000000E+00 0.  1.
</event>
<event>
 7    1  0.2688173E-013  0.7246147E+02  0.7816164E-02  0.1226708E+00
        -11   -1    0    0    0    0  0.00000000000E+00  0.00000000000E+00  0.45593999997E+02  0.45594000000E+02  0.51100000000E-03 0. -1.
         11   -1    0    0    0    0 -0.00000000000E+00 -0.00000000000E+00 -0.45593999997E+02  0.45594000000E+02  0.51100000000E-03 0.  1.
    9900012    2    1    2    0    0  0.57111262716E+01 -0.12898113690E+02  0.12316845040E+02  0.72461468774E+02  0.69999867750E+02 0.  0.
        -12    1    1    2    0    0 -0.57111262716E+01  0.12898113690E+02 -0.12316845040E+02  0.18726531226E+02  0.00000000000E+00 0.  1.
         11    1    3    3    0    0  0.30727690643E+01  0.37537520973E+01 -0.25315319495E+01  0.54718569794E+01  0.51100000000E-03 0. -1.
        -11    1    3    3    0    0 -0.21638766265E+02  0.31688676221E+01 -0.12676592073E+02  0.25277933348E+02  0.51100000000E-03 0.  1.
         12    1    3    3    0    0  0.24277123473E+02 -0.19820733409E+02  0.27524969062E+02  0.41711678447E+02  0.00000000000E+00 0. -1.
</event>
<event>
 7    1  0.2688173E-013  0.7246158E+02  0.7816164E-02  0.1226708E+00
        -11   -1    0    0    0    0  0.00000000000E+00  0.00000000000E+00  0.45593999997E+02  0.45594000000E+02  0.51100000000E-03 0. -1.
         11   -1    0    0    0    0 -0.00000000000E+00 -0.00000000000E+00 -0.45593999997E+02  0.45594000000E+02  0.51100000000E-03 0.  1.
    9900012    2    1    2    0    0  0.96922670000E+00 -0.11159122115E+02  0.15007109780E+02  0.72461581476E+02  0.70000014567E+02 0.  0.
        -12    1    1    2    0    0 -0.96922670000E+00  0.11159122115E+02 -0.15007109780E+02  0.18726418524E+02  0.00000000000E+00 0.  1.
         11    1    3    3    0    0  0.96157739905E+01 -0.27970139677E+01  0.96663689697E+01  0.13918515937E+02  0.51100000000E-03 0. -1.
        -11    1    3    3    0    0 -0.29649483266E+02  0.76241287468E+01  0.89672920942E+01  0.31900337379E+02  0.51100000000E-03 0.  1.
         12    1    3    3    0    0  0.21002935976E+02 -0.15986236894E+02 -0.36265512837E+01  0.26642728161E+02  0.00000000000E+00 0. -1.
</event>
<event>
 7    1  0.2688173E-013  0.7246160E+02  0.7816164E-02  0.1226708E+00
        -11   -1    0    0    0    0  0.00000000000E+00  0.00000000000E+00  0.45593999997E+02  0.45594000000E+02  0.51100000000E-03 0.  1.
         11   -1    0    0    0    0 -0.00000000000E+00 -0.00000000000E+00 -0.45593999997E+02  0.45594000000E+02  0.51100000000E-03 0. -1.
    9900012    2    1    2    0    0  0.10405460597E+01 -0.16270259695E+01  0.18626546146E+02  0.72461596957E+02  0.70000034733E+02 0.  0.
        -12    1    1    2    0    0 -0.10405460597E+01  0.16270259695E+01 -0.18626546146E+02  0.18726403043E+02  0.00000000000E+00 0.  1.
         11    1    3    3    0    0 -0.81835989812E+01 -0.47846281644E+01 -0.18516491975E+02  0.20802029571E+02  0.51100000000E-03 0. -1.
        -11    1    3    3    0    0  0.14429286266E+02  0.91571603550E+01  0.39644804030E+01  0.17543517123E+02  0.51100000000E-03 0.  1.
        -12    1    3    3    0    0 -0.52051412251E+01 -0.59995581602E+01  0.33178557718E+02  0.34116050263E+02  0.00000000000E+00 0.  1.
</event>
<event>
 7    1  0.2688173E-013  0.7246155E+02  0.7816164E-02  0.1226708E+00
        -11   -1    0    0    0    0  0.00000000000E+00  0.00000000000E+00  0.45593999997E+02  0.45594000000E+02  0.51100000000E-03 0.  1.
         11   -1    0    0    0    0 -0.00000000000E+00 -0.00000000000E+00 -0.45593999997E+02  0.45594000000E+02  0.51100000000E-03 0. -1.
    9900012    2    1    2    0    0 -0.25859308867E+00 -0.46287201721E+00 -0.18718942807E+02  0.72461549704E+02  0.69999973177E+02 0.  0.
        -12    1    1    2    0    0  0.25859308867E+00  0.46287201721E+00  0.18718942807E+02  0.18726450296E+02  0.00000000000E+00 0.  1.
         11    1    3    3    0    0 -0.96254602996E+01  0.52147947652E+01 -0.80739519579E+01  0.13602656759E+02  0.51100000000E-03 0. -1.
        -11    1    3    3    0    0 -0.23821520317E+02 -0.64791018148E+01 -0.48512879845E+01  0.25159065680E+02  0.51100000000E-03 0.  1.
        -12    1    3    3    0    0  0.33188387527E+02  0.80143503238E+00 -0.57937028646E+01  0.33699827265E+02  0.00000000000E+00 0.  1.
</event>
<event>
 7    1  0.2688173E-013  0.7246120E+02  0.7816164E-02  0.1226709E+00
        -11   -1    0    0    0    0  0.00000000000E+00  0.00000000000E+00  0.45593999997E+02  0.45594000000E+02  0.51100000000E-03 0. -1.
         11   -1    0    0    0    0 -0.00000000000E+00 -0.00000000000E+00 -0.45593999997E+02  0.45594000000E+02  0.51100000000E-03 0.  1.
    9900012    2    1    2    0    0  0.11299695185E+02 -0.12282940944E+02  0.84934770343E+01  0.72461203647E+02  0.69999522372E+02 0.  0.
        -12    1    1    2    0    0 -0.11299695185E+02  0.12282940944E+02 -0.84934770343E+01  0.18726796353E+02  0.00000000000E+00 0.  1.
         11    1    3    3    0    0  0.67381208449E+00  0.29370789686E+01 -0.85937968606E+01  0.91067996759E+01  0.51100000000E-03 0. -1.
        -11    1    3    3    0    0  0.33887622953E+02 -0.25524185901E+01  0.54272877996E+01  0.34414259881E+02  0.51100000000E-03 0.  1.
         12    1    3    3    0    0 -0.23261739852E+02 -0.12667601323E+02  0.11659986095E+02  0.28940144090E+02  0.00000000000E+00 0. -1.
</event>
<event>
 7    1  0.2688173E-013  0.7246161E+02  0.7816164E-02  0.1226708E+00
        -11   -1    0    0    0    0  0.00000000000E+00  0.00000000000E+00  0.45593999997E+02  0.45594000000E+02  0.51100000000E-03 0. -1.
         11   -1    0    0    0    0 -0.00000000000E+00 -0.00000000000E+00 -0.45593999997E+02  0.45594000000E+02  0.51100000000E-03 0.  1.
    9900012    2    1    2    0    0 -0.11369323976E+02  0.47789304383E+01 -0.14091774607E+02  0.72461606450E+02  0.70000047100E+02 0.  0.
        -12    1    1    2    0    0  0.11369323976E+02 -0.47789304383E+01  0.14091774607E+02  0.18726393550E+02  0.00000000000E+00 0.  1.
         11    1    3    3    0    0  0.64999679599E+01 -0.15123552497E+02 -0.81302104900E+01  0.18359513787E+02  0.51100000000E-03 0. -1.
        -11    1    3    3    0    0 -0.83017537099E+00 -0.14789211618E+02 -0.42662725195E+01  0.15414637618E+02  0.51100000000E-03 0.  1.
        -12    1    3    3    0    0 -0.17039116565E+02  0.34691694553E+02 -0.16952915977E+01  0.38687455045E+02  0.00000000000E+00 0.  1.
</event>
<event>
 7    1  0.2688173E-013  0.7246162E+02  0.7816164E-02  0.1226708E+00
        -11   -1    0    0    0    0  0.00000000000E+00  0.00000000000E+00  0.45593999997E+02  0.45594000000E+02  0.51100000000E-03 0.  1.
         11   -1    0    0    0    0 -0.00000000000E+00 -0.00000000000E+00 -0.45593999997E+02  0.45594000000E+02  0.51100000000E-03 0. -1.
    9900012    2    1    2    0    0 -0.59394347032E+01 -0.10368246946E+02 -0.14418733261E+02  0.72461620260E+02  0.70000065089E+02 0.  0.
        -12    1    1    2    0    0  0.59394347032E+01  0.10368246946E+02  0.14418733261E+02  0.18726379740E+02  0.00000000000E+00 0.  1.
         11    1    3    3    0    0  0.11316765359E+01 -0.14250013234E+01  0.43794450825E+01  0.47424529566E+01  0.51100000000E-03 0. -1.
        -11    1    3    3    0    0 -0.27728199857E+02 -0.10828812235E+02  0.10722101569E+02  0.31639843616E+02  0.51100000000E-03 0.  1.
         12    1    3    3    0    0  0.20657088618E+02  0.18855666122E+01 -0.29520279912E+02  0.36079323687E+02  0.00000000000E+00 0. -1.
</event>
<event>
 7    1  0.2688173E-013  0.7246157E+02  0.7816164E-02  0.1226708E+00
        -11   -1    0    0    0    0  0.00000000000E+00  0.00000000000E+00  0.45593999997E+02  0.45594000000E+02  0.51100000000E-03 0.  1.
         11   -1    0    0    0    0 -0.00000000000E+00 -0.00000000000E+00 -0.45593999997E+02  0.45594000000E+02  0.51100000000E-03 0. -1.
    9900012    2    1    2    0    0 -0.49108664308E+01 -0.67040584588E+01 -0.16781478981E+02  0.72461573600E+02  0.70000004306E+02 0.  0.
        -12    1    1    2    0    0  0.49108664308E+01  0.67040584588E+01  0.16781478981E+02  0.18726426400E+02  0.00000000000E+00 0.  1.
         11    1    3    3    0    0  0.16274003872E+01 -0.17947207511E+01  0.12922818744E+01  0.27458054008E+01  0.51100000000E-03 0. -1.
        -11    1    3    3    0    0  0.23935527804E+02 -0.20824521369E+02 -0.20700401585E+01  0.31793949865E+02  0.51100000000E-03 0.  1.
         12    1    3    3    0    0 -0.30473794622E+02  0.15915183662E+02 -0.16003720697E+02  0.37921818334E+02  0.00000000000E+00 0. -1.
</event>
<event>
 7    1  0.2688173E-013  0.7246156E+02  0.7816164E-02  0.1226708E+00
        -11   -1    0    0    0    0  0.00000000000E+00  0.00000000000E+00  0.45593999997E+02  0.45594000000E+02  0.51100000000E-03 0.  1.
         11   -1    0    0    0    0 -0.00000000000E+00 -0.00000000000E+00 -0.45593999997E+02  0.45594000000E+02  0.51100000000E-03 0. -1.
    9900012    2    1    2    0    0 -0.84522648991E+01 -0.20857959258E+01 -0.16579750230E+02  0.72461562959E+02  0.69999990444E+02 0.  0.
        -12    1    1    2    0    0  0.84522648991E+01  0.20857959258E+01  0.16579750230E+02  0.18726437041E+02  0.00000000000E+00 0.  1.
         11    1    3    3    0    0  0.81397915015E+00  0.18241380969E+01  0.52625328347E+01  0.56288803461E+01  0.51100000000E-03 0. -1.
        -11    1    3    3    0    0 -0.14140366906E+02 -0.10718596933E+01  0.20052377702E+02  0.24560063339E+02  0.51100000000E-03 0.  1.
         12    1    3    3    0    0  0.48741228566E+01 -0.28380743294E+01 -0.41894660767E+02  0.42272619274E+02  0.00000000000E+00 0. -1.
</event>
<event>
 7    1  0.2688173E-013  0.7246166E+02  0.7816164E-02  0.1226708E+00
        -11   -1    0    0    0    0  0.00000000000E+00  0.00000000000E+00  0.45593999997E+02  0.45594000000E+02  0.51100000000E-03 0. -1.
         11   -1    0    0    0    0 -0.00000000000E+00 -0.00000000000E+00 -0.45593999997E+02  0.45594000000E+02  0.51100000000E-03 0.  1.
    9900012    2    1    2    0    0 -0.15672997210E+02  0.93763013149E+01 -0.41373692714E+01  0.72461663135E+02  0.70000120942E+02 0.  0.
        -12    1    1    2    0    0  0.15672997210E+02 -0.93763013149E+01  0.41373692714E+01  0.18726336865E+02  0.00000000000E+00 0.  1.
         11    1    3    3    0    0  0.20849162468E+02  0.11881181233E+02  0.49865969077E+01  0.24509512277E+02  0.51100000000E-03 0. -1.
        -11    1    3    3    0    0 -0.53801097027E+01  0.56472420548E+01 -0.13373160392E+02  0.15481548448E+02  0.51100000000E-03 0.  1.
         12    1    3    3    0    0 -0.31142049976E+02 -0.81521219727E+01  0.42491942125E+01  0.32470602409E+02  0.00000000000E+00 0. -1.
</event>
<event>
 7    1  0.2688173E-013  0.7246158E+02  0.7816164E-02  0.1226708E+00
        -11   -1    0    0    0    0  0.00000000000E+00  0.00000000000E+00  0.45593999997E+02  0.45594000000E+02  0.51100000000E-03 0.  1.
         11   -1    0    0    0    0 -0.00000000000E+00 -0.00000000000E+00 -0.45593999997E+02  0.45594000000E+02  0.51100000000E-03 0. -1.
    9900012    2    1    2    0    0 -0.17195543219E+02  0.73929409586E+01 -0.58014120591E+00  0.72461578921E+02  0.70000011238E+02 0.  0.
        -12    1    1    2    0    0  0.17195543219E+02 -0.73929409586E+01  0.58014120591E+00  0.18726421079E+02  0.00000000000E+00 0.  1.
         11    1    3    3    0    0  0.80686869769E+01  0.13092940115E+02 -0.39788269869E+01  0.15885838185E+02  0.51100000000E-03 0. -1.
        -11    1    3    3    0    0 -0.74383061809E+01 -0.19381181137E+02 -0.16533231027E+02  0.26538769933E+02  0.51100000000E-03 0.  1.
         12    1    3    3    0    0 -0.17825924015E+02  0.13681181980E+02  0.19931916808E+02  0.30036970803E+02  0.00000000000E+00 0. -1.
</event>
<event>
 7    1  0.2688173E-013  0.7246150E+02  0.7816164E-02  0.1226708E+00
        -11   -1    0    0    0    0  0.00000000000E+00  0.00000000000E+00  0.45593999997E+02  0.45594000000E+02  0.51100000000E-03 0.  1.
         11   -1    0    0    0    0 -0.00000000000E+00 -0.00000000000E+00 -0.45593999997E+02  0.45594000000E+02  0.51100000000E-03 0. -1.
    9900012    2    1    2    0    0  0.13245219230E+02  0.21848963989E+01 -0.13056502480E+02  0.72461498412E+02  0.69999906359E+02 0.  0.
        -12    1    1    2    0    0 -0.13245219230E+02 -0.21848963989E+01  0.13056502480E+02  0.18726501588E+02  0.00000000000E+00 0.  1.
         11    1    3    3    0    0 -0.50702020618E+01 -0.31331481932E+01  0.67559884951E+00  0.59983331530E+01  0.51100000000E-03 0. -1.
        -11    1    3    3    0    0  0.15227953035E+02 -0.24233168686E+02  0.79230301037E+01  0.29696993526E+02  0.51100000000E-03 0.  1.
         12    1    3    3    0    0  0.30874682568E+01  0.29551213278E+02 -0.21655131434E+02  0.36766171733E+02  0.00000000000E+00 0. -1.
</event>
<event>
 7    1  0.2688173E-013  0.7246158E+02  0.7816164E-02  0.1226708E+00
        -11   -1    0    0    0    0  0.00000000000E+00  0.00000000000E+00  0.45593999997E+02  0.45594000000E+02  0.51100000000E-03 0.  1.
         11   -1    0    0    0    0 -0.00000000000E+00 -0.00000000000E+00 -0.45593999997E+02  0.45594000000E+02  0.51100000000E-03 0. -1.
    9900012    2    1    2    0    0 -0.15450522112E+02 -0.21313395940E+01 -0.10364248319E+02  0.72461577885E+02  0.70000009889E+02 0.  0.
        -12    1    1    2    0    0  0.15450522112E+02  0.21313395940E+01  0.10364248319E+02  0.18726422115E+02  0.00000000000E+00 0.  1.
         11    1    3    3    0    0 -0.30692496165E+02  0.23256679640E+02 -0.93093103342E+01  0.39617745113E+02  0.51100000000E-03 0. -1.
        -11    1    3    3    0    0 -0.10640194738E-01 -0.52560901316E+00  0.33094622016E+01  0.33509578292E+01  0.51100000000E-03 0.  1.
        -12    1    3    3    0    0  0.15252614247E+02 -0.24862410221E+02 -0.43644001866E+01  0.29492874943E+02  0.00000000000E+00 0.  1.
</event>
<event>
 7    1  0.2688173E-013  0.7246164E+02  0.7816164E-02  0.1226708E+00
        -11   -1    0    0    0    0  0.00000000000E+00  0.00000000000E+00  0.45593999997E+02  0.45594000000E+02  0.51100000000E-03 0. -1.
         11   -1    0    0    0    0 -0.00000000000E+00 -0.00000000000E+00 -0.45593999997E+02  0.45594000000E+02  0.51100000000E-03 0.  1.
    9900012    2    1    2    0    0  0.90220205630E+00  0.16309130604E+01  0.18633380124E+02  0.72461636210E+02  0.70000085867E+02 0.  0.
        -12    1    1    2    0    0 -0.90220205630E+00 -0.16309130604E+01 -0.18633380124E+02  0.18726363790E+02  0.00000000000E+00 0.  1.
         11    1    3    3    0    0  0.17083081516E+02 -0.84058841972E+01 -0.46963460472E+01  0.19609850323E+02  0.51100000000E-03 0. -1.
        -11    1    3    3    0    0  0.27414907069E-02 -0.31668871742E+01 -0.11670854148E+02  0.12092891247E+02  0.51100000000E-03 0.  1.
         12    1    3    3    0    0 -0.16183620950E+02  0.13203684432E+02  0.35000580319E+02  0.40758894641E+02  0.00000000000E+00 0. -1.
</event>
<event>
 7    1  0.2688173E-013  0.7246153E+02  0.7816164E-02  0.1226708E+00
        -11   -1    0    0    0    0  0.00000000000E+00  0.00000000000E+00  0.45593999997E+02  0.45594000000E+02  0.51100000000E-03 0.  1.
         11   -1    0    0    0    0 -0.00000000000E+00 -0.00000000000E+00 -0.45593999997E+02  0.45594000000E+02  0.51100000000E-03 0. -1.
    9900012    2    1    2    0    0  0.11038983763E+02  0.10789434250E+02 -0.10602341409E+02  0.72461529502E+02  0.69999946861E+02 0.  0.
        -12    1    1    2    0    0 -0.11038983763E+02 -0.10789434250E+02  0.10602341409E+02  0.18726470498E+02  0.00000000000E+00 0.  1.
         11    1    3    3    0    0 -0.66186359897E+01  0.25314824611E+02 -0.14866070416E+02  0.30093965131E+02  0.51100000000E-03 0. -1.
        -11    1    3    3    0    0  0.24681360215E+02  0.99934168698E+00 -0.38702740492E+00  0.24704615284E+02  0.51100000000E-03 0.  1.
        -12    1    3    3    0    0 -0.70237404624E+01 -0.15524732048E+02  0.46507564119E+01  0.17662949087E+02  0.00000000000E+00 0.  1.
</event>
<event>
 7    1  0.2688173E-013  0.7246157E+02  0.7816164E-02  0.1226708E+00
        -11   -1    0    0    0    0  0.00000000000E+00  0.00000000000E+00  0.45593999997E+02  0.45594000000E+02  0.51100000000E-03 0.  1.
         11   -1    0    0    0    0 -0.00000000000E+00 -0.00000000000E+00 -0.45593999997E+02  0.45594000000E+02  0.51100000000E-03 0. -1.
    9900012    2    1    2    0    0 -0.67121817495E+01  0.86901315422E+01 -0.15169292607E+02  0.72461569260E+02  0.69999998652E+02 0.  0.
        -12    1    1    2    0    0  0.67121817495E+01 -0.86901315422E+01  0.15169292607E+02  0.18726430740E+02  0.00000000000E+00 0.  1.
         11    1    3    3    0    0  0.65212261925E+01 -0.10002171197E+02 -0.42206566302E+01  0.12664271095E+02  0.51100000000E-03 0. -1.
        -11    1    3    3    0    0 -0.29001725456E+01 -0.20270298061E+01 -0.29757492715E+02  0.29967119040E+02  0.51100000000E-03 0.  1.
         12    1    3    3    0    0 -0.10333235396E+02  0.20719332545E+02  0.18808856737E+02  0.29830179125E+02  0.00000000000E+00 0. -1.
</event>
<event>
 7    1  0.2688173E-013  0.7246157E+02  0.7816164E-02  0.1226708E+00
        -11   -1    0    0    0    0  0.00000000000E+00  0.00000000000E+00  0.45593999997E+02  0.45594000000E+02  0.51100000000E-03 0.  1.
         11   -1    0    0    0    0 -0.00000000000E+00 -0.00000000000E+00 -0.45593999997E+02  0.45594000000E+02  0.51100000000E-03 0. -1.
    9900012    2    1    2    0    0  0.18301393915E+02 -0.14609056359E+01 -0.36883402182E+01  0.72461571668E+02  0.70000001789E+02 0.  0.
        -12    1    1    2    0    0 -0.18301393915E+02  0.14609056359E+01  0.36883402182E+01  0.18726428332E+02  0.00000000000E+00 0.  1.
         11    1    3    3    0    0  0.36395791175E+02 -0.14239872936E+02 -0.10023669548E+01  0.39095170242E+02  0.51100000000E-03 0. -1.
        -11    1    3    3    0    0  0.12784533509E+01 -0.41155688865E+01 -0.60653550465E+01  0.74404893879E+01  0.51100000000E-03 0.  1.
        -12    1    3    3    0    0 -0.19372850611E+02  0.16894536187E+02  0.33793817831E+01  0.25925912038E+02  0.00000000000E+00 0.  1.
</event>
<event>
 7    1  0.2688173E-013  0.7246163E+02  0.7816164E-02  0.1226708E+00
        -11   -1    0    0    0    0  0.00000000000E+00  0.00000000000E+00  0.45593999997E+02  0.45594000000E+02  0.51100000000E-03 0. -1.
         11   -1    0    0    0    0 -0.00000000000E+00 -0.00000000000E+00 -0.45593999997E+02  0.45594000000E+02  0.51100000000E-03 0.  1.
    9900012    2    1    2    0    0 -0.25050959723E+01 -0.26661452282E+01  0.18365537919E+02  0.72461633047E+02  0.70000081746E+02 0.  0.
        -12    1    1    2    0    0  0.25050959723E+01  0.26661452282E+01 -0.18365537919E+02  0.18726366953E+02  0.00000000000E+00 0.  1.
         11    1    3    3    0    0 -0.65624410152E+01 -0.19933348991E+02 -0.59431200376E+01  0.21811114371E+02  0.51100000000E-03 0.  1.
        -11    1    3    3    0    0 -0.16419490893E+02  0.12194399748E+02  0.30100354022E+01  0.20672769040E+02  0.51100000000E-03 0. -1.
        -12    1    3    3    0    0  0.20476835935E+02  0.50728040140E+01  0.21298622555E+02  0.29977749636E+02  0.00000000000E+00 0.  1.
</event>
<event>
 7    1  0.2688173E-013  0.7246175E+02  0.7816164E-02  0.1226708E+00
        -11   -1    0    0    0    0  0.00000000000E+00  0.00000000000E+00  0.45593999997E+02  0.45594000000E+02  0.51100000000E-03 0. -1.
         11   -1    0    0    0    0 -0.00000000000E+00 -0.00000000000E+00 -0.45593999997E+02  0.45594000000E+02  0.51100000000E-03 0.  1.
    9900012    2    1    2    0    0  0.18512718832E+02 -0.24799133405E+01  0.13423085629E+01  0.72461747812E+02  0.70000231250E+02 0.  0.
        -12    1    1    2    0    0 -0.18512718832E+02  0.24799133405E+01 -0.13423085629E+01  0.18726252188E+02  0.00000000000E+00 0.  1.
         11    1    3    3    0    0  0.12033755208E+02 -0.16134341881E+02 -0.70204760182E+01  0.21317019870E+02  0.51100000000E-03 0. -1.
        -11    1    3    3    0    0  0.86489102433E+01 -0.15417847254E+02 -0.59698865943E+01  0.18658864075E+02  0.51100000000E-03 0.  1.
         12    1    3    3    0    0 -0.21699466197E+01  0.29072275795E+02  0.14332671175E+02  0.32485863868E+02  0.00000000000E+00 0. -1.
</event>
<event>
 7    1  0.2688173E-013  0.7246158E+02  0.7816164E-02  0.1226708E+00
        -11   -1    0    0    0    0  0.00000000000E+00  0.00000000000E+00  0.45593999997E+02  0.45594000000E+02  0.51100000000E-03 0. -1.
         11   -1    0    0    0    0 -0.00000000000E+00 -0.00000000000E+00 -0.45593999997E+02  0.45594000000E+02  0.51100000000E-03 0.  1.
    9900012    2    1    2    0    0 -0.36031716662E+01 -0.10234223233E+02  0.15262922680E+02  0.72461575355E+02  0.70000006592E+02 0.  0.
        -12    1    1    2    0    0  0.36031716662E+01  0.10234223233E+02 -0.15262922680E+02  0.18726424645E+02  0.00000000000E+00 0.  1.
         11    1    3    3    0    0 -0.17164293738E+02  0.21243573004E+02  0.16707737443E+02  0.32016415543E+02  0.51100000000E-03 0. -1.
        -11    1    3    3    0    0  0.28544967170E+01 -0.85175378010E+00  0.64064093053E+01  0.70651055518E+01  0.51100000000E-03 0.  1.
        -12    1    3    3    0    0  0.10706625354E+02 -0.30626042457E+02 -0.78512240682E+01  0.33380054260E+02  0.00000000000E+00 0.  1.
</event>
<event>
 7    1  0.2688173E-013  0.7246156E+02  0.7816164E-02  0.1226708E+00
        -11   -1    0    0    0    0  0.00000000000E+00  0.00000000000E+00  0.45593999997E+02  0.45594000000E+02  0.51100000000E-03 0. -1.
         11   -1    0    0    0    0 -0.00000000000E+00 -0.00000000000E+00 -0.45593999997E+02  0.45594000000E+02  0.51100000000E-03 0.  1.
    9900012    2    1    2    0    0 -0.10892458545E+02 -0.51112948128E+01  0.14349509992E+02  0.72461563478E+02  0.69999991121E+02 0.  0.
        -12    1    1    2    0    0  0.10892458545E+02  0.51112948128E+01 -0.14349509992E+02  0.18726436522E+02  0.00000000000E+00 0.  1.
         11    1    3    3    0    0 -0.50812576715E+01 -0.24659919255E+02 -0.30546847286E+01  0.25362608230E+02  0.51100000000E-03 0. -1.
        -11    1    3    3    0    0 -0.15607510472E+02  0.28315434950E+01 -0.57814302283E+01  0.16883037566E+02  0.51100000000E-03 0.  1.
         12    1    3    3    0    0  0.97963095988E+01  0.16717080947E+02  0.23185624948E+02  0.30215917682E+02  0.00000000000E+00 0. -1.
</event>
<event>
 7    1  0.2688173E-013  0.7246158E+02  0.7816164E-02  0.1226708E+00
        -11   -1    0    0    0    0  0.00000000000E+00  0.00000000000E+00  0.45593999997E+02  0.45594000000E+02  0.51100000000E-03 0.  1.
         11   -1    0    0    0    0 -0.00000000000E+00 -0.00000000000E+00 -0.45593999997E+02  0.45594000000E+02  0.51100000000E-03 0. -1.
    9900012    2    1    2    0    0 -0.87470762879E+01 -0.25420833415E+01 -0.16361699566E+02  0.72461581656E+02  0.70000014801E+02 0.  0.
        -12    1    1    2    0    0  0.87470762879E+01  0.25420833415E+01  0.16361699566E+02  0.18726418344E+02  0.00000000000E+00 0.  1.
         11    1    3    3    0    0 -0.81875263888E+01 -0.16539408563E+02 -0.31728086707E+01  0.18725766716E+02  0.51100000000E-03 0. -1.
        -11    1    3    3    0    0  0.14544208580E+02 -0.13699036990E+02 -0.89947345093E+01  0.21911249778E+02  0.51100000000E-03 0.  1.
         12    1    3    3    0    0 -0.15103758479E+02  0.27696362212E+02 -0.41941563855E+01  0.31824565162E+02  0.00000000000E+00 0. -1.
</event>
<event>
 7    1  0.2688173E-013  0.7246154E+02  0.7816164E-02  0.1226708E+00
        -11   -1    0    0    0    0  0.00000000000E+00  0.00000000000E+00  0.45593999997E+02  0.45594000000E+02  0.51100000000E-03 0. -1.
         11   -1    0    0    0    0 -0.00000000000E+00 -0.00000000000E+00 -0.45593999997E+02  0.45594000000E+02  0.51100000000E-03 0.  1.
    9900012    2    1    2    0    0 -0.70196799367E+01  0.10344241009E+02  0.13942771927E+02  0.72461544984E+02  0.69999967028E+02 0.  0.
        -12    1    1    2    0    0  0.70196799367E+01 -0.10344241009E+02 -0.13942771927E+02  0.18726455016E+02  0.00000000000E+00 0.  1.
         11    1    3    3    0    0  0.14285681990E+01 -0.28050115848E+01 -0.33246238797E+01  0.45784300030E+01  0.51100000000E-03 0. -1.
        -11    1    3    3    0    0 -0.11451304735E+02 -0.12116165902E+02 -0.17910221934E+02  0.24468549330E+02  0.51100000000E-03 0.  1.
         12    1    3    3    0    0  0.30030565996E+01  0.25265418495E+02  0.35177617742E+02  0.43414565651E+02  0.00000000000E+00 0. -1.
</event>
<event>
 7    1  0.2688173E-013  0.7246191E+02  0.7816164E-02  0.1226707E+00
        -11   -1    0    0    0    0  0.00000000000E+00  0.00000000000E+00  0.45593999997E+02  0.45594000000E+02  0.51100000000E-03 0.  1.
         11   -1    0    0    0    0 -0.00000000000E+00 -0.00000000000E+00 -0.45593999997E+02  0.45594000000E+02  0.51100000000E-03 0. -1.
    9900012    2    1    2    0    0 -0.63687289748E+01  0.15924262538E+02 -0.75182251546E+01  0.72461907092E+02  0.70000438740E+02 0.  0.
        -12    1    1    2    0    0  0.63687289748E+01 -0.15924262538E+02  0.75182251546E+01  0.18726092908E+02  0.00000000000E+00 0.  1.
         11    1    3    3    0    0  0.40407214473E+01 -0.11338494408E+02 -0.16125219945E+02  0.20122415456E+02  0.51100000000E-03 0. -1.
        -11    1    3    3    0    0 -0.23864723046E+01 -0.92543742741E+01 -0.69776973656E+01  0.11833298528E+02  0.51100000000E-03 0.  1.
         12    1    3    3    0    0 -0.80229781175E+01  0.36517131220E+02  0.15584692156E+02  0.40506193107E+02  0.00000000000E+00 0. -1.
</event>
<event>
 7    1  0.2688173E-013  0.7246162E+02  0.7816164E-02  0.1226708E+00
        -11   -1    0    0    0    0  0.00000000000E+00  0.00000000000E+00  0.45593999997E+02  0.45594000000E+02  0.51100000000E-03 0. -1.
         11   -1    0    0    0    0 -0.00000000000E+00 -0.00000000000E+00 -0.45593999997E+02  0.45594000000E+02  0.51100000000E-03 0.  1.
    9900012    2    1    2    0    0  0.12714493030E+02 -0.72215623622E+01 -0.11699055689E+02  0.72461622882E+02  0.70000068505E+02 0.  0.
        -12    1    1    2    0    0 -0.12714493030E+02  0.72215623622E+01  0.11699055689E+02  0.18726377118E+02  0.00000000000E+00 0.  1.
         11    1    3    3    0    0  0.31794653944E+01 -0.28376252193E+01 -0.26075254162E+02  0.26421203548E+02  0.51100000000E-03 0.  1.
        -11    1    3    3    0    0  0.11256741785E+02 -0.22574988160E+02  0.59461787542E+01  0.25917202165E+02  0.51100000000E-03 0. -1.
         12    1    3    3    0    0 -0.17217141488E+01  0.18191051017E+02  0.84300197190E+01  0.20123217168E+02  0.00000000000E+00 0. -1.
</event>
<event>
 7    1  0.2688173E-013  0.7246175E+02  0.7816164E-02  0.1226708E+00
        -11   -1    0    0    0    0  0.00000000000E+00  0.00000000000E+00  0.45593999997E+02  0.45594000000E+02  0.51100000000E-03 0. -1.
         11   -1    0    0    0    0 -0.00000000000E+00 -0.00000000000E+00 -0.45593999997E+02  0.45594000000E+02  0.51100000000E-03 0.  1.
    9900012    2    1    2    0    0 -0.17768192332E+02  0.35546038852E-01  0.59129239388E+01  0.72461745922E+02  0.70000228788E+02 0.  0.
        -12    1    1    2    0    0  0.17768192332E+02 -0.35546038852E-01 -0.59129239388E+01  0.18726254078E+02  0.00000000000E+00 0.  1.
         11    1    3    3    0    0 -0.15190520309E+02  0.22396337621E+02 -0.58300516987E+01  0.27682798796E+02  0.51100000000E-03 0. -1.
        -11    1    3    3    0    0  0.79292502790E+01  0.77231707162E+01  0.84551773182E+00  0.11101138518E+02  0.51100000000E-03 0.  1.
        -12    1    3    3    0    0 -0.10506922302E+02 -0.30083962299E+02  0.10897457906E+02  0.33677808608E+02  0.00000000000E+00 0.  1.
</event>
<event>
 7    1  0.2688173E-013  0.7246128E+02  0.7816164E-02  0.1226709E+00
        -11   -1    0    0    0    0  0.00000000000E+00  0.00000000000E+00  0.45593999997E+02  0.45594000000E+02  0.51100000000E-03 0. -1.
         11   -1    0    0    0    0 -0.00000000000E+00 -0.00000000000E+00 -0.45593999997E+02  0.45594000000E+02  0.51100000000E-03 0.  1.
    9900012    2    1    2    0    0  0.18487528121E+02 -0.19114834536E+01 -0.22907564721E+01  0.72461280313E+02  0.69999622245E+02 0.  0.
        -12    1    1    2    0    0 -0.18487528121E+02  0.19114834536E+01  0.22907564721E+01  0.18726719687E+02  0.00000000000E+00 0.  1.
         11    1    3    3    0    0  0.15724187926E+02  0.35784104991E+01  0.88616026156E+01  0.18400627946E+02  0.51100000000E-03 0. -1.
        -11    1    3    3    0    0  0.20165098542E+02  0.11317906363E+02  0.66060546025E+01  0.24049244506E+02  0.51100000000E-03 0.  1.
        -12    1    3    3    0    0 -0.17401758347E+02 -0.16807800315E+02 -0.17758413690E+02  0.30011407861E+02  0.00000000000E+00 0.  1.
</event>
<event>
 7    1  0.2688173E-013  0.7246159E+02  0.7816164E-02  0.1226708E+00
        -11   -1    0    0    0    0  0.00000000000E+00  0.00000000000E+00  0.45593999997E+02  0.45594000000E+02  0.51100000000E-03 0.  1.
         11   -1    0    0    0    0 -0.00000000000E+00 -0.00000000000E+00 -0.45593999997E+02  0.45594000000E+02  0.51100000000E-03 0. -1.
    9900012    2    1    2    0    0 -0.14477648593E+02  0.72214135162E+01 -0.94301260252E+01  0.72461590872E+02  0.70000026807E+02 0.  0.
        -12    1    1    2    0    0  0.14477648593E+02 -0.72214135162E+01  0.94301260252E+01  0.18726409128E+02  0.00000000000E+00 0.  1.
         11    1    3    3    0    0 -0.19774513640E+02 -0.10205132656E+02  0.28650934492E+01  0.22436240393E+02  0.51100000000E-03 0. -1.
        -11    1    3    3    0    0 -0.13188594902E+02 -0.86912842097E+01 -0.13655637425E+00  0.15795445692E+02  0.51100000000E-03 0.  1.
         12    1    3    3    0    0  0.18485459949E+02  0.26117830382E+02 -0.12158663100E+02  0.34229904788E+02  0.00000000000E+00 0. -1.
</event>
<event>
 7    1  0.2688173E-013  0.7246152E+02  0.7816164E-02  0.1226708E+00
        -11   -1    0    0    0    0  0.00000000000E+00  0.00000000000E+00  0.45593999997E+02  0.45594000000E+02  0.51100000000E-03 0.  1.
         11   -1    0    0    0    0 -0.00000000000E+00 -0.00000000000E+00 -0.45593999997E+02  0.45594000000E+02  0.51100000000E-03 0. -1.
    9900012    2    1    2    0    0  0.14852786528E+02 -0.11013362906E+02  0.29633710216E+01  0.72461521475E+02  0.69999936404E+02 0.  0.
        -12    1    1    2    0    0 -0.14852786528E+02  0.11013362906E+02 -0.29633710216E+01  0.18726478525E+02  0.00000000000E+00 0.  1.
         11    1    3    3    0    0 -0.20204273204E+02 -0.13986026143E+01  0.71399979614E+00  0.20265205179E+02  0.51100000000E-03 0. -1.
        -11    1    3    3    0    0  0.86115476162E+01 -0.17156410435E+02  0.12433551605E+02  0.22871256571E+02  0.51100000000E-03 0.  1.
         12    1    3    3    0    0  0.26445512115E+02  0.75416501431E+01 -0.10184180379E+02  0.29325059726E+02  0.00000000000E+00 0. -1.
</event>
<event>
 7    1  0.2688173E-013  0.7246152E+02  0.7816164E-02  0.1226708E+00
        -11   -1    0    0    0    0  0.00000000000E+00  0.00000000000E+00  0.45593999997E+02  0.45594000000E+02  0.51100000000E-03 0. -1.
         11   -1    0    0    0    0 -0.00000000000E+00 -0.00000000000E+00 -0.45593999997E+02  0.45594000000E+02  0.51100000000E-03 0.  1.
    9900012    2    1    2    0    0  0.43078111953E+00  0.11610048724E+02  0.14686803217E+02  0.72461521621E+02  0.69999936594E+02 0.  0.
        -12    1    1    2    0    0 -0.43078111953E+00 -0.11610048724E+02 -0.14686803217E+02  0.18726478379E+02  0.00000000000E+00 0.  1.
         11    1    3    3    0    0  0.14069674054E+02  0.24948169211E+02  0.82154214068E+01  0.29796980117E+02  0.51100000000E-03 0. -1.
        -11    1    3    3    0    0 -0.23200559606E+01  0.81156195505E+01  0.14783422962E+02  0.17023382010E+02  0.51100000000E-03 0.  1.
        -12    1    3    3    0    0 -0.11318836974E+02 -0.21453740037E+02 -0.83120411515E+01  0.25641159493E+02  0.00000000000E+00 0.  1.
</event>
<event>
 7    1  0.2688173E-013  0.7246156E+02  0.7816164E-02  0.1226708E+00
        -11   -1    0    0    0    0  0.00000000000E+00  0.00000000000E+00  0.45593999997E+02  0.45594000000E+02  0.51100000000E-03 0. -1.
         11   -1    0    0    0    0 -0.00000000000E+00 -0.00000000000E+00 -0.45593999997E+02  0.45594000000E+02  0.51100000000E-03 0.  1.
    9900012    2    1    2    0    0 -0.16497063030E+02  0.10224679246E+01  0.88023291710E+01  0.72461560720E+02  0.69999987528E+02 0.  0.
        -12    1    1    2    0    0  0.16497063030E+02 -0.10224679246E+01 -0.88023291710E+01  0.18726439280E+02  0.00000000000E+00 0.  1.
         11    1    3    3    0    0  0.63149351729E+00 -0.22039731987E+01 -0.61218097953E+01  0.65370358232E+01  0.51100000000E-03 0. -1.
        -11    1    3    3    0    0  0.22890056099E+02 -0.23496160435E+01  0.48061136820E+00  0.23015350341E+02  0.51100000000E-03 0.  1.
         12    1    3    3    0    0 -0.40018612646E+02  0.55760571667E+01  0.14443527598E+02  0.42909174556E+02  0.00000000000E+00 0. -1.
</event>
<event>
 7    1  0.2688173E-013  0.7246154E+02  0.7816164E-02  0.1226708E+00
        -11   -1    0    0    0    0  0.00000000000E+00  0.00000000000E+00  0.45593999997E+02  0.45594000000E+02  0.51100000000E-03 0.  1.
         11   -1    0    0    0    0 -0.00000000000E+00 -0.00000000000E+00 -0.45593999997E+02  0.45594000000E+02  0.51100000000E-03 0. -1.
    9900012    2    1    2    0    0 -0.96734571806E+01  0.11118018451E+02 -0.11553962821E+02  0.72461543716E+02  0.69999965376E+02 0.  0.
        -12    1    1    2    0    0  0.96734571806E+01 -0.11118018451E+02  0.11553962821E+02  0.18726456284E+02  0.00000000000E+00 0.  1.
         11    1    3    3    0    0  0.41258654897E+00 -0.89000408311E+00  0.43996378118E+01  0.45076765705E+01  0.51100000000E-03 0. -1.
        -11    1    3    3    0    0  0.10857678478E+02 -0.12713417781E+02  0.15499130426E+02  0.22797877485E+02  0.51100000000E-03 0.  1.
         12    1    3    3    0    0 -0.20943722208E+02  0.24721440315E+02 -0.31452731058E+02  0.45155989660E+02  0.00000000000E+00 0. -1.
</event>
<event>
 7    1  0.2688173E-013  0.7246169E+02  0.7816164E-02  0.1226708E+00
        -11   -1    0    0    0    0  0.00000000000E+00  0.00000000000E+00  0.45593999997E+02  0.45594000000E+02  0.51100000000E-03 0. -1.
         11   -1    0    0    0    0 -0.00000000000E+00 -0.00000000000E+00 -0.45593999997E+02  0.45594000000E+02  0.51100000000E-03 0.  1.
    9900012    2    1    2    0    0 -0.14057516508E+02 -0.94591032495E+00  0.12335560145E+02  0.72461693348E+02  0.70000160300E+02 0.  0.
        -12    1    1    2    0    0  0.14057516508E+02  0.94591032495E+00 -0.12335560145E+02  0.18726306652E+02  0.00000000000E+00 0.  1.
         11    1    3    3    0    0 -0.10451375998E+02  0.14026801822E+02  0.17827172191E+02  0.24975798249E+02  0.51100000000E-03 0. -1.
        -11    1    3    3    0    0  0.10491954098E+02  0.79105908442E+01  0.99556700401E+01  0.16485566855E+02  0.51100000000E-03 0.  1.
        -12    1    3    3    0    0 -0.14098094609E+02 -0.22883302991E+02 -0.15447282086E+02  0.31000328244E+02  0.00000000000E+00 0.  1.
</event>
<event>
 7    1  0.2688173E-013  0.7246157E+02  0.7816164E-02  0.1226708E+00
        -11   -1    0    0    0    0  0.00000000000E+00  0.00000000000E+00  0.45593999997E+02  0.45594000000E+02  0.51100000000E-03 0. -1.
         11   -1    0    0    0    0 -0.00000000000E+00 -0.00000000000E+00 -0.45593999997E+02  0.45594000000E+02  0.51100000000E-03 0.  1.
    9900012    2    1    2    0    0 -0.11338285964E+02 -0.14165270311E+02  0.46333180363E+01  0.72461568210E+02  0.69999997284E+02 0.  0.
        -12    1    1    2    0    0  0.11338285964E+02  0.14165270311E+02 -0.46333180363E+01  0.18726431790E+02  0.00000000000E+00 0.  1.
         11    1    3    3    0    0 -0.13159651915E+01 -0.58384863603E+01 -0.92787120050E+01  0.11041475630E+02  0.51100000000E-03 0. -1.
        -11    1    3    3    0    0  0.23614376253E+02 -0.10285890820E+02  0.26462545259E+01  0.25892875063E+02  0.51100000000E-03 0.  1.
         12    1    3    3    0    0 -0.33636697025E+02  0.19591068695E+01  0.11265775515E+02  0.35527217516E+02  0.00000000000E+00 0. -1.
</event>
<event>
 7    1  0.2688173E-013  0.7246157E+02  0.7816164E-02  0.1226708E+00
        -11   -1    0    0    0    0  0.00000000000E+00  0.00000000000E+00  0.45593999997E+02  0.45594000000E+02  0.51100000000E-03 0.  1.
         11   -1    0    0    0    0 -0.00000000000E+00 -0.00000000000E+00 -0.45593999997E+02  0.45594000000E+02  0.51100000000E-03 0. -1.
    9900012    2    1    2    0    0 -0.73991886892E+01 -0.27164221444E+01 -0.16986829154E+02  0.72461566617E+02  0.69999995210E+02 0.  0.
        -12    1    1    2    0    0  0.73991886892E+01  0.27164221444E+01  0.16986829154E+02  0.18726433383E+02  0.00000000000E+00 0.  1.
         11    1    3    3    0    0  0.56214530101E+01  0.67841728568E+01  0.65680398647E+01  0.10989307677E+02  0.51100000000E-03 0. -1.
        -11    1    3    3    0    0  0.21049153848E+02 -0.52773398802E+01 -0.43405635968E+01  0.22130469640E+02  0.51100000000E-03 0.  1.
         12    1    3    3    0    0 -0.34069795547E+02 -0.42232551210E+01 -0.19214305422E+02  0.39341789299E+02  0.00000000000E+00 0. -1.
</event>
<event>
 7    1  0.2688173E-013  0.7246158E+02  0.7816164E-02  0.1226708E+00
        -11   -1    0    0    0    0  0.00000000000E+00  0.00000000000E+00  0.45593999997E+02  0.45594000000E+02  0.51100000000E-03 0. -1.
         11   -1    0    0    0    0 -0.00000000000E+00 -0.00000000000E+00 -0.45593999997E+02  0.45594000000E+02  0.51100000000E-03 0.  1.
    9900012    2    1    2    0    0  0.25256383302E+01  0.86128929825E+01  0.16435266179E+02  0.72461581526E+02  0.70000014631E+02 0.  0.
        -12    1    1    2    0    0 -0.25256383302E+01 -0.86128929825E+01 -0.16435266179E+02  0.18726418474E+02  0.00000000000E+00 0.  1.
         11    1    3    3    0    0  0.23992030440E+02 -0.12103686639E+02  0.54407832280E+01  0.27417492177E+02  0.51100000000E-03 0. -1.
        -11    1    3    3    0    0  0.50879518753E+01 -0.24810772362E+01 -0.37875891079E+01  0.68109345943E+01  0.51100000000E-03 0.  1.
        -12    1    3    3    0    0 -0.26554343985E+02  0.23197656858E+02  0.14782072059E+02  0.38233154755E+02  0.00000000000E+00 0.  1.
</event>
<event>
 7    1  0.2688173E-013  0.7246158E+02  0.7816164E-02  0.1226708E+00
        -11   -1    0    0    0    0  0.00000000000E+00  0.00000000000E+00  0.45593999997E+02  0.45594000000E+02  0.51100000000E-03 0.  1.
         11   -1    0    0    0    0 -0.00000000000E+00 -0.00000000000E+00 -0.45593999997E+02  0.45594000000E+02  0.51100000000E-03 0. -1.
    9900012    2    1    2    0    0 -0.17104735882E+02  0.42718157688E+01 -0.63133643660E+01  0.72461575644E+02  0.70000006968E+02 0.  0.
        -12    1    1    2    0    0  0.17104735882E+02 -0.42718157688E+01  0.63133643660E+01  0.18726424356E+02  0.00000000000E+00 0.  1.
         11    1    3    3    0    0  0.23532825264E+01 -0.59339342743E+01 -0.10834213732E+02  0.12574963303E+02  0.51100000000E-03 0. -1.
        -11    1    3    3    0    0  0.17598962540E+02  0.26250259257E+01 -0.87149715796E+01  0.19813252471E+02  0.51100000000E-03 0.  1.
        -12    1    3    3    0    0 -0.37056980948E+02  0.75807241174E+01  0.13235820946E+02  0.40073359870E+02  0.00000000000E+00 0.  1.
</event>
<event>
 7    1  0.2688173E-013  0.7246169E+02  0.7816164E-02  0.1226708E+00
        -11   -1    0    0    0    0  0.00000000000E+00  0.00000000000E+00  0.45593999997E+02  0.45594000000E+02  0.51100000000E-03 0. -1.
         11   -1    0    0    0    0 -0.00000000000E+00 -0.00000000000E+00 -0.45593999997E+02  0.45594000000E+02  0.51100000000E-03 0.  1.
    9900012    2    1    2    0    0  0.12073260210E+02 -0.62038669862E+01 -0.12900506146E+02  0.72461691327E+02  0.70000157668E+02 0.  0.
        -12    1    1    2    0    0 -0.12073260210E+02  0.62038669862E+01  0.12900506146E+02  0.18726308673E+02  0.00000000000E+00 0.  1.
         11    1    3    3    0    0 -0.52742060484E+01 -0.21954482464E+02  0.25199060806E+01  0.22719297450E+02  0.51100000000E-03 0. -1.
        -11    1    3    3    0    0  0.40240992538E+01  0.74709365554E+01  0.14017483394E+02  0.16385911900E+02  0.51100000000E-03 0.  1.
        -12    1    3    3    0    0  0.13323367005E+02  0.82796789223E+01 -0.29437895620E+02  0.33356481978E+02  0.00000000000E+00 0.  1.
</event>
<event>
 7    1  0.2688173E-013  0.7246153E+02  0.7816164E-02  0.1226708E+00
        -11   -1    0    0    0    0  0.00000000000E+00  0.00000000000E+00  0.45593999997E+02  0.45594000000E+02  0.51100000000E-03 0.  1.
         11   -1    0    0    0    0 -0.00000000000E+00 -0.00000000000E+00 -0.45593999997E+02  0.45594000000E+02  0.51100000000E-03 0. -1.
    9900012    2    1    2    0    0  0.45146947729E+01  0.13663349882E+02 -0.11983776411E+02  0.72461534878E+02  0.69999953864E+02 0.  0.
        -12    1    1    2    0    0 -0.45146947729E+01 -0.13663349882E+02  0.11983776411E+02  0.18726465122E+02  0.00000000000E+00 0.  1.
         11    1    3    3    0    0  0.47992596259E+01  0.11322935816E+02  0.19074509781E+01  0.12445084891E+02  0.51100000000E-03 0. -1.
        -11    1    3    3    0    0  0.22756725745E+01  0.20013985458E+02  0.15642460337E+02  0.25503428500E+02  0.51100000000E-03 0.  1.
         12    1    3    3    0    0 -0.25602374275E+01 -0.17673571392E+02 -0.29533687727E+02  0.34513021487E+02  0.00000000000E+00 0. -1.
</event>
<event>
 7    1  0.2688173E-013  0.7246160E+02  0.7816164E-02  0.1226708E+00
        -11   -1    0    0    0    0  0.00000000000E+00  0.00000000000E+00  0.45593999997E+02  0.45594000000E+02  0.51100000000E-03 0. -1.
         11   -1    0    0    0    0 -0.00000000000E+00 -0.00000000000E+00 -0.45593999997E+02  0.45594000000E+02  0.51100000000E-03 0.  1.
    9900012    2    1    2    0    0 -0.42298564431E+01  0.17218277097E+02  0.60263945951E+01  0.72461596620E+02  0.70000034294E+02 0.  0.
        -12    1    1    2    0    0  0.42298564431E+01 -0.17218277097E+02 -0.60263945951E+01  0.18726403380E+02  0.00000000000E+00 0.  1.
         11    1    3    3    0    0  0.10247305383E+02 -0.10643753817E+02  0.10907988809E+02  0.18365211217E+02  0.51100000000E-03 0. -1.
        -11    1    3    3    0    0  0.13624973772E+02  0.20736095623E+02 -0.36487131637E+01  0.25078649884E+02  0.51100000000E-03 0.  1.
         12    1    3    3    0    0 -0.28102135598E+02  0.71259352906E+01 -0.12328810505E+01  0.29017735519E+02  0.00000000000E+00 0. -1.
</event>
<event>
 7    1  0.2688173E-013  0.7246145E+02  0.7816164E-02  0.1226708E+00
        -11   -1    0    0    0    0  0.00000000000E+00  0.00000000000E+00  0.45593999997E+02  0.45594000000E+02  0.51100000000E-03 0. -1.
         11   -1    0    0    0    0 -0.00000000000E+00 -0.00000000000E+00 -0.45593999997E+02  0.45594000000E+02  0.51100000000E-03 0.  1.
    9900012    2    1    2    0    0 -0.14298794310E+02  0.10017126431E+02  0.67738807126E+01  0.72461446645E+02  0.69999838923E+02 0.  0.
        -12    1    1    2    0    0  0.14298794310E+02 -0.10017126431E+02 -0.67738807126E+01  0.18726553355E+02  0.00000000000E+00 0.  1.
         11    1    3    3    0    0 -0.23680287236E+02 -0.20440329241E+02  0.75653684086E+01  0.32183813672E+02  0.51100000000E-03 0. -1.
        -11    1    3    3    0    0 -0.83883453057E+01  0.98292018680E+01 -0.17150442219E+01  0.13035295289E+02  0.51100000000E-03 0.  1.
        -12    1    3    3    0    0  0.17769838232E+02  0.20628253804E+02  0.92355652596E+00  0.27242337683E+02  0.00000000000E+00 0.  1.
</event>
<event>
 7    1  0.2688173E-013  0.7246161E+02  0.7816164E-02  0.1226708E+00
        -11   -1    0    0    0    0  0.00000000000E+00  0.00000000000E+00  0.45593999997E+02  0.45594000000E+02  0.51100000000E-03 0.  1.
         11   -1    0    0    0    0 -0.00000000000E+00 -0.00000000000E+00 -0.45593999997E+02  0.45594000000E+02  0.51100000000E-03 0. -1.
    9900012    2    1    2    0    0  0.10094809705E+02 -0.15127500606E+02  0.44644425509E+01  0.72461609401E+02  0.70000050944E+02 0.  0.
        -12    1    1    2    0    0 -0.10094809705E+02  0.15127500606E+02 -0.44644425509E+01  0.18726390599E+02  0.00000000000E+00 0.  1.
         11    1    3    3    0    0  0.42433604678E+01 -0.92444348860E+01 -0.13980205887E+02  0.17289067104E+02  0.51100000000E-03 0. -1.
        -11    1    3    3    0    0 -0.85589282615E+01 -0.22634203139E+02 -0.29964987547E+01  0.24383219840E+02  0.51100000000E-03 0.  1.
        -12    1    3    3    0    0  0.14410377498E+02  0.16751137418E+02  0.21441147192E+02  0.30789322457E+02  0.00000000000E+00 0.  1.
</event>
<event>
 7    1  0.2688173E-013  0.7246153E+02  0.7816164E-02  0.1226708E+00
        -11   -1    0    0    0    0  0.00000000000E+00  0.00000000000E+00  0.45593999997E+02  0.45594000000E+02  0.51100000000E-03 0.  1.
         11   -1    0    0    0    0 -0.00000000000E+00 -0.00000000000E+00 -0.45593999997E+02  0.45594000000E+02  0.51100000000E-03 0. -1.
    9900012    2    1    2    0    0 -0.51556484049E+01  0.17957759244E+02 -0.12723406015E+01  0.72461530013E+02  0.69999947527E+02 0.  0.
        -12    1    1    2    0    0  0.51556484049E+01 -0.17957759244E+02  0.12723406015E+01  0.18726469987E+02  0.00000000000E+00 0.  1.
         11    1    3    3    0    0  0.10927228547E+02  0.15241669733E+02 -0.21834513030E+02  0.28782959880E+02  0.51100000000E-03 0. -1.
        -11    1    3    3    0    0 -0.17245096020E+02  0.16915045559E+02  0.14670603272E+02  0.28261965672E+02  0.51100000000E-03 0.  1.
         12    1    3    3    0    0  0.11622190684E+01 -0.14198956048E+02  0.58915691562E+01  0.15416604462E+02  0.00000000000E+00 0. -1.
</event>
<event>
 7    1  0.2688173E-013  0.7246157E+02  0.7816164E-02  0.1226708E+00
        -11   -1    0    0    0    0  0.00000000000E+00  0.00000000000E+00  0.45593999997E+02  0.45594000000E+02  0.51100000000E-03 0.  1.
         11   -1    0    0    0    0 -0.00000000000E+00 -0.00000000000E+00 -0.45593999997E+02  0.45594000000E+02  0.51100000000E-03 0. -1.
    9900012    2    1    2    0    0 -0.40680330260E+01 -0.16052133813E+02  0.87441104426E+01  0.72461565206E+02  0.69999993371E+02 0.  0.
        -12    1    1    2    0    0  0.40680330260E+01  0.16052133813E+02 -0.87441104426E+01  0.18726434794E+02  0.00000000000E+00 0.  1.
         11    1    3    3    0    0 -0.15243654136E+02  0.36117146141E+00 -0.11710011681E+02  0.19225602983E+02  0.51100000000E-03 0. -1.
        -11    1    3    3    0    0 -0.10712964290E+02  0.25075111919E+01  0.21642611319E+02  0.24278752876E+02  0.51100000000E-03 0.  1.
         12    1    3    3    0    0  0.21888585400E+02 -0.18920816467E+02 -0.11884891952E+01  0.28957209347E+02  0.00000000000E+00 0. -1.
</event>
<event>
 7    1  0.2688173E-013  0.7246155E+02  0.7816164E-02  0.1226708E+00
        -11   -1    0    0    0    0  0.00000000000E+00  0.00000000000E+00  0.45593999997E+02  0.45594000000E+02  0.51100000000E-03 0.  1.
         11   -1    0    0    0    0 -0.00000000000E+00 -0.00000000000E+00 -0.45593999997E+02  0.45594000000E+02  0.51100000000E-03 0. -1.
    9900012    2    1    2    0    0 -0.59671967294E+01  0.14887580726E+02 -0.96660456551E+01  0.72461549848E+02  0.69999973365E+02 0.  0.
        -12    1    1    2    0    0  0.59671967294E+01 -0.14887580726E+02  0.96660456551E+01  0.18726450152E+02  0.00000000000E+00 0.  1.
         11    1    3    3    0    0 -0.29255187527E+02 -0.22184217112E+01 -0.14411735922E+02  0.32687696840E+02  0.51100000000E-03 0. -1.
        -11    1    3    3    0    0  0.39449445343E+00 -0.65279436920E+01  0.77422540123E-01  0.65403110959E+01  0.51100000000E-03 0.  1.
        -12    1    3    3    0    0  0.22893496344E+02  0.23633946129E+02  0.46682677273E+01  0.33233541913E+02  0.00000000000E+00 0.  1.
</event>
<event>
 7    1  0.2688173E-013  0.7246158E+02  0.7816164E-02  0.1226708E+00
        -11   -1    0    0    0    0  0.00000000000E+00  0.00000000000E+00  0.45593999997E+02  0.45594000000E+02  0.51100000000E-03 0. -1.
         11   -1    0    0    0    0 -0.00000000000E+00 -0.00000000000E+00 -0.45593999997E+02  0.45594000000E+02  0.51100000000E-03 0.  1.
    9900012    2    1    2    0    0 -0.76509899748E+01  0.16612166322E+02  0.40220819427E+01  0.72461578541E+02  0.70000010743E+02 0.  0.
        -12    1    1    2    0    0  0.76509899748E+01 -0.16612166322E+02 -0.40220819427E+01  0.18726421459E+02  0.00000000000E+00 0.  1.
         11    1    3    3    0    0 -0.11723125568E+02 -0.18499781793E+02  0.60138030168E+01  0.22712098680E+02  0.51100000000E-03 0. -1.
        -11    1    3    3    0    0  0.58468934496E+01 -0.57806459358E+01  0.24469157109E+01  0.85784280147E+01  0.51100000000E-03 0.  1.
        -12    1    3    3    0    0 -0.17747578569E+01  0.40892594051E+02 -0.44386367849E+01  0.41171051847E+02  0.00000000000E+00 0.  1.
</event>
<event>
 7    1  0.2688173E-013  0.7246155E+02  0.7816164E-02  0.1226708E+00
        -11   -1    0    0    0    0  0.00000000000E+00  0.00000000000E+00  0.45593999997E+02  0.45594000000E+02  0.51100000000E-03 0. -1.
         11   -1    0    0    0    0 -0.00000000000E+00 -0.00000000000E+00 -0.45593999997E+02  0.45594000000E+02  0.51100000000E-03 0.  1.
    9900012    2    1    2    0    0  0.92773843698E+01  0.24343722947E+01  0.16083651027E+02  0.72461551870E+02  0.69999975999E+02 0.  0.
        -12    1    1    2    0    0 -0.92773843698E+01 -0.24343722947E+01 -0.16083651027E+02  0.18726448130E+02  0.00000000000E+00 0.  1.
         11    1    3    3    0    0  0.59589527324E+01  0.16954667710E+02  0.15000071272E+02  0.23408802046E+02  0.51100000000E-03 0. -1.
        -11    1    3    3    0    0 -0.53802137386E+01 -0.13108328786E+02  0.22106329047E+02  0.26257661122E+02  0.51100000000E-03 0.  1.
        -12    1    3    3    0    0  0.86986453760E+01 -0.14119666290E+01 -0.21022749292E+02  0.22795088702E+02  0.00000000000E+00 0.  1.
</event>
<event>
 7    1  0.2688173E-013  0.7246158E+02  0.7816164E-02  0.1226708E+00
        -11   -1    0    0    0    0  0.00000000000E+00  0.00000000000E+00  0.45593999997E+02  0.45594000000E+02  0.51100000000E-03 0. -1.
         11   -1    0    0    0    0 -0.00000000000E+00 -0.00000000000E+00 -0.45593999997E+02  0.45594000000E+02  0.51100000000E-03 0.  1.
    9900012    2    1    2    0    0 -0.88766828478E+01 -0.13029718302E+02  0.10104941537E+02  0.72461577467E+02  0.70000009344E+02 0.  0.
        -12    1    1    2    0    0  0.88766828478E+01  0.13029718302E+02 -0.10104941537E+02  0.18726422533E+02  0.00000000000E+00 0.  1.
         11    1    3    3    0    0 -0.10531141784E+02 -0.37917164735E+01  0.99584704910E+01  0.14981762108E+02  0.51100000000E-03 0. -1.
        -11    1    3    3    0    0 -0.21017854763E+02 -0.30046529919E+01  0.18096917036E+02  0.27897608588E+02  0.51100000000E-03 0.  1.
        -12    1    3    3    0    0  0.22672313699E+02 -0.62333488363E+01 -0.17950445990E+02  0.29582206771E+02  0.00000000000E+00 0.  1.
</event>
<event>
 7    1  0.2688173E-013  0.7246157E+02  0.7816164E-02  0.1226708E+00
        -11   -1    0    0    0    0  0.00000000000E+00  0.00000000000E+00  0.45593999997E+02  0.45594000000E+02  0.51100000000E-03 0. -1.
         11   -1    0    0    0    0 -0.00000000000E+00 -0.00000000000E+00 -0.45593999997E+02  0.45594000000E+02  0.51100000000E-03 0.  1.
    9900012    2    1    2    0    0 -0.59064034154E+01 -0.16491951182E+02  0.66188485960E+01  0.72461569164E+02  0.69999998528E+02 0.  0.
        -12    1    1    2    0    0  0.59064034154E+01  0.16491951182E+02 -0.66188485960E+01  0.18726430836E+02  0.00000000000E+00 0.  1.
         11    1    3    3    0    0 -0.41196269589E+01 -0.27599988914E+02  0.24637621130E+02  0.37225570372E+02  0.51100000000E-03 0. -1.
        -11    1    3    3    0    0  0.51365206152E+01  0.59261336992E+01  0.58922250959E+01  0.98092416370E+01  0.51100000000E-03 0.  1.
        -12    1    3    3    0    0 -0.69232970717E+01  0.51819040325E+01 -0.23910997630E+02  0.25426757155E+02  0.00000000000E+00 0.  1.
</event>
<event>
 7    1  0.2688173E-013  0.7246164E+02  0.7816164E-02  0.1226708E+00
        -11   -1    0    0    0    0  0.00000000000E+00  0.00000000000E+00  0.45593999997E+02  0.45594000000E+02  0.51100000000E-03 0. -1.
         11   -1    0    0    0    0 -0.00000000000E+00 -0.00000000000E+00 -0.45593999997E+02  0.45594000000E+02  0.51100000000E-03 0.  1.
    9900012    2    1    2    0    0  0.80813954018E+01  0.15533896760E+02  0.66382076267E+01  0.72461636213E+02  0.70000085872E+02 0.  0.
        -12    1    1    2    0    0 -0.80813954018E+01 -0.15533896760E+02 -0.66382076267E+01  0.18726363787E+02  0.00000000000E+00 0.  1.
         11    1    3    3    0    0  0.11576249228E+02  0.30343824949E+02  0.23566639254E+02  0.40126596475E+02  0.51100000000E-03 0. -1.
        -11    1    3    3    0    0  0.67038806418E+01 -0.12803892127E+02 -0.26813793738E+01  0.14699369540E+02  0.51100000000E-03 0.  1.
        -12    1    3    3    0    0 -0.10198734468E+02 -0.20060360620E+01 -0.14247052253E+02  0.17635670198E+02  0.00000000000E+00 0.  1.
</event>
<event>
 7    1  0.2688173E-013  0.7246157E+02  0.7816164E-02  0.1226708E+00
        -11   -1    0    0    0    0  0.00000000000E+00  0.00000000000E+00  0.45593999997E+02  0.45594000000E+02  0.51100000000E-03 0. -1.
         11   -1    0    0    0    0 -0.00000000000E+00 -0.00000000000E+00 -0.45593999997E+02  0.45594000000E+02  0.51100000000E-03 0.  1.
    9900012    2    1    2    0    0  0.76253450382E+01  0.16160477855E+02 -0.56010774326E+01  0.72461574825E+02  0.70000005902E+02 0.  0.
        -12    1    1    2    0    0 -0.76253450382E+01 -0.16160477855E+02  0.56010774326E+01  0.18726425175E+02  0.00000000000E+00 0.  1.
         11    1    3    3    0    0  0.15640105042E+02 -0.15330665521E+02  0.68410761015E+01  0.22944335107E+02  0.51100000000E-03 0. -1.
        -11    1    3    3    0    0  0.43213674734E+01 -0.19290863488E+00  0.85331940476E+01  0.95669656369E+01  0.51100000000E-03 0.  1.
        -12    1    3    3    0    0 -0.12336127477E+02  0.31684052010E+02 -0.20975347582E+02  0.39950274080E+02  0.00000000000E+00 0.  1.
</event>
<event>
 7    1  0.2688173E-013  0.7246157E+02  0.7816164E-02  0.1226708E+00
        -11   -1    0    0    0    0  0.00000000000E+00  0.00000000000E+00  0.45593999997E+02  0.45594000000E+02  0.51100000000E-03 0. -1.
         11   -1    0    0    0    0 -0.00000000000E+00 -0.00000000000E+00 -0.45593999997E+02  0.45594000000E+02  0.51100000000E-03 0.  1.
    9900012    2    1    2    0    0 -0.90515842164E+01  0.33090304847E+01  0.16056093895E+02  0.72461574534E+02  0.70000005523E+02 0.  0.
        -12    1    1    2    0    0  0.90515842164E+01 -0.33090304847E+01 -0.16056093895E+02  0.18726425466E+02  0.00000000000E+00 0.  1.
         11    1    3    3    0    0  0.20548301047E+01  0.23056628724E+02  0.29453406507E+02  0.37461094619E+02  0.51100000000E-03 0. -1.
        -11    1    3    3    0    0 -0.91351134769E+01 -0.14927291144E+02  0.30356685944E+01  0.17762027001E+02  0.51100000000E-03 0.  1.
        -12    1    3    3    0    0 -0.19713008442E+01 -0.48203070962E+01 -0.16432981207E+02  0.17238452914E+02  0.00000000000E+00 0.  1.
</event>
<event>
 7    1  0.2688173E-013  0.7246157E+02  0.7816164E-02  0.1226708E+00
        -11   -1    0    0    0    0  0.00000000000E+00  0.00000000000E+00  0.45593999997E+02  0.45594000000E+02  0.51100000000E-03 0.  1.
         11   -1    0    0    0    0 -0.00000000000E+00 -0.00000000000E+00 -0.45593999997E+02  0.45594000000E+02  0.51100000000E-03 0. -1.
    9900012    2    1    2    0    0 -0.22447842732E+01  0.18522332257E+02 -0.16010096537E+01  0.72461572669E+02  0.70000003094E+02 0.  0.
        -12    1    1    2    0    0  0.22447842732E+01 -0.18522332257E+02  0.16010096537E+01  0.18726427331E+02  0.00000000000E+00 0.  1.
         11    1    3    3    0    0 -0.14354421295E+02  0.15721874564E+02 -0.13210643111E+02  0.25054896571E+02  0.51100000000E-03 0. -1.
        -11    1    3    3    0    0  0.16674194707E+02  0.11456742622E+02  0.24147264978E+02  0.31502001949E+02  0.51100000000E-03 0.  1.
         12    1    3    3    0    0 -0.45645576849E+01 -0.86562849289E+01 -0.12537631521E+02  0.15904674149E+02  0.00000000000E+00 0. -1.
</event>
<event>
 7    1  0.2688173E-013  0.7246160E+02  0.7816164E-02  0.1226708E+00
        -11   -1    0    0    0    0  0.00000000000E+00  0.00000000000E+00  0.45593999997E+02  0.45594000000E+02  0.51100000000E-03 0. -1.
         11   -1    0    0    0    0 -0.00000000000E+00 -0.00000000000E+00 -0.45593999997E+02  0.45594000000E+02  0.51100000000E-03 0.  1.
    9900012    2    1    2    0    0  0.94874571052E+01  0.15590293133E+02  0.41963130684E+01  0.72461598166E+02  0.70000036308E+02 0.  0.
        -12    1    1    2    0    0 -0.94874571052E+01 -0.15590293133E+02 -0.41963130684E+01  0.18726401834E+02  0.00000000000E+00 0.  1.
         11    1    3    3    0    0 -0.70793381712E+01  0.24724341381E+02  0.13863773096E+02  0.29216678291E+02  0.51100000000E-03 0. -1.
        -11    1    3    3    0    0 -0.70369601313E+01 -0.18416941861E+01  0.95082674574E+01  0.11971541073E+02  0.51100000000E-03 0.  1.
        -12    1    3    3    0    0  0.23603755408E+02 -0.72923540620E+01 -0.19175727485E+02  0.31273378802E+02  0.00000000000E+00 0.  1.
</event>
<event>
 7    1  0.2688173E-013  0.7246159E+02  0.7816164E-02  0.1226708E+00
        -11   -1    0    0    0    0  0.00000000000E+00  0.00000000000E+00  0.45593999997E+02  0.45594000000E+02  0.51100000000E-03 0.  1.
         11   -1    0    0    0    0 -0.00000000000E+00 -0.00000000000E+00 -0.45593999997E+02  0.45594000000E+02  0.51100000000E-03 0. -1.
    9900012    2    1    2    0    0 -0.70714200560E+01 -0.13134590099E+02 -0.11320600902E+02  0.72461589681E+02  0.70000025255E+02 0.  0.
        -12    1    1    2    0    0  0.70714200560E+01  0.13134590099E+02  0.11320600902E+02  0.18726410319E+02  0.00000000000E+00 0.  1.
         11    1    3    3    0    0  0.41368052977E+01 -0.17201964494E+01 -0.30018288827E+02  0.30350780851E+02  0.51100000000E-03 0. -1.
        -11    1    3    3    0    0  0.71422230651E+01 -0.10920248600E+02 -0.33004590464E+01  0.13459428293E+02  0.51100000000E-03 0.  1.
        -12    1    3    3    0    0 -0.18350448419E+02 -0.49414504897E+00  0.21998146972E+02  0.28651380537E+02  0.00000000000E+00 0.  1.
</event>
<event>
 7    1  0.2688173E-013  0.7246160E+02  0.7816164E-02  0.1226708E+00
        -11   -1    0    0    0    0  0.00000000000E+00  0.00000000000E+00  0.45593999997E+02  0.45594000000E+02  0.51100000000E-03 0.  1.
         11   -1    0    0    0    0 -0.00000000000E+00 -0.00000000000E+00 -0.45593999997E+02  0.45594000000E+02  0.51100000000E-03 0. -1.
    9900012    2    1    2    0    0 -0.47870280938E+01  0.17587713239E+02  0.42935524144E+01  0.72461604530E+02  0.70000044598E+02 0.  0.
        -12    1    1    2    0    0  0.47870280938E+01 -0.17587713239E+02 -0.42935524144E+01  0.18726395470E+02  0.00000000000E+00 0.  1.
         11    1    3    3    0    0  0.17242405393E+02  0.13557299125E+02  0.26770177050E+02  0.34608427916E+02  0.51100000000E-03 0.  1.
        -11    1    3    3    0    0 -0.90993979157E+01  0.81271727202E+01 -0.20897207846E+02  0.24198001465E+02  0.51100000000E-03 0. -1.
        -12    1    3    3    0    0 -0.12930035571E+02 -0.40967586058E+01 -0.15794167890E+01  0.13655175149E+02  0.00000000000E+00 0.  1.
</event>
<event>
 7    1  0.2688173E-013  0.7246153E+02  0.7816164E-02  0.1226708E+00
        -11   -1    0    0    0    0  0.00000000000E+00  0.00000000000E+00  0.45593999997E+02  0.45594000000E+02  0.51100000000E-03 0.  1.
         11   -1    0    0    0    0 -0.00000000000E+00 -0.00000000000E+00 -0.45593999997E+02  0.45594000000E+02  0.51100000000E-03 0. -1.
    9900012    2    1    2    0    0  0.55851310032E+01 -0.13100426768E+02  0.12160012057E+02  0.72461527747E+02  0.69999944574E+02 0.  0.
        -12    1    1    2    0    0 -0.55851310032E+01  0.13100426768E+02 -0.12160012057E+02  0.18726472253E+02  0.00000000000E+00 0.  1.
         11    1    3    3    0    0  0.21942945767E+02 -0.18845413796E+02  0.69221746036E+01  0.29741536470E+02  0.51100000000E-03 0. -1.
        -11    1    3    3    0    0 -0.61878422896E+01 -0.14671711507E+02 -0.63417270091E+01  0.17139603626E+02  0.51100000000E-03 0.  1.
        -12    1    3    3    0    0 -0.10169972474E+02  0.20416698535E+02  0.11579564462E+02  0.25580387650E+02  0.00000000000E+00 0.  1.
</event>
<event>
 7    1  0.2688173E-013  0.7246156E+02  0.7816164E-02  0.1226708E+00
        -11   -1    0    0    0    0  0.00000000000E+00  0.00000000000E+00  0.45593999997E+02  0.45594000000E+02  0.51100000000E-03 0. -1.
         11   -1    0    0    0    0 -0.00000000000E+00 -0.00000000000E+00 -0.45593999997E+02  0.45594000000E+02  0.51100000000E-03 0.  1.
    9900012    2    1    2    0    0 -0.85015750363E-02 -0.16132985223E+02  0.95082175889E+01  0.72461561839E+02  0.69999988986E+02 0.  0.
        -12    1    1    2    0    0  0.85015750363E-02  0.16132985223E+02 -0.95082175889E+01  0.18726438161E+02  0.00000000000E+00 0.  1.
         11    1    3    3    0    0  0.94407140229E+01  0.71670419543E+01 -0.64279549912E+00  0.11870415239E+02  0.51100000000E-03 0. -1.
        -11    1    3    3    0    0 -0.56553610188E+01  0.13404349902E+02 -0.10835957225E+02  0.18140498168E+02  0.51100000000E-03 0.  1.
         12    1    3    3    0    0 -0.37938545791E+01 -0.36704377079E+02  0.20986970313E+02  0.42450648432E+02  0.00000000000E+00 0. -1.
</event>
<event>
 7    1  0.2688173E-013  0.7246159E+02  0.7816164E-02  0.1226708E+00
        -11   -1    0    0    0    0  0.00000000000E+00  0.00000000000E+00  0.45593999997E+02  0.45594000000E+02  0.51100000000E-03 0.  1.
         11   -1    0    0    0    0 -0.00000000000E+00 -0.00000000000E+00 -0.45593999997E+02  0.45594000000E+02  0.51100000000E-03 0. -1.
    9900012    2    1    2    0    0  0.10852854734E+02  0.31381747648E+00 -0.15257636122E+02  0.72461590913E+02  0.70000026859E+02 0.  0.
        -12    1    1    2    0    0 -0.10852854734E+02 -0.31381747648E+00  0.15257636122E+02  0.18726409087E+02  0.00000000000E+00 0.  1.
         11    1    3    3    0    0 -0.67028443542E+01 -0.75857015509E+01  0.95038983059E+01  0.13885066573E+02  0.51100000000E-03 0. -1.
        -11    1    3    3    0    0  0.30576792627E+02  0.18967064503E+02 -0.17427432474E+02  0.39980059857E+02  0.51100000000E-03 0.  1.
         12    1    3    3    0    0 -0.13021093539E+02 -0.11067545476E+02 -0.73341019539E+01  0.18596464483E+02  0.00000000000E+00 0. -1.
</event>
<event>
 7    1  0.2688173E-013  0.7246157E+02  0.7816164E-02  0.1226708E+00
        -11   -1    0    0    0    0  0.00000000000E+00  0.00000000000E+00  0.45593999997E+02  0.45594000000E+02  0.51100000000E-03 0.  1.
         11   -1    0    0    0    0 -0.00000000000E+00 -0.00000000000E+00 -0.45593999997E+02  0.45594000000E+02  0.51100000000E-03 0. -1.
    9900012    2    1    2    0    0  0.15748750035E+01 -0.43334868689E+01 -0.18149924113E+02  0.72461572551E+02  0.70000002939E+02 0.  0.
        -12    1    1    2    0    0 -0.15748750035E+01  0.43334868689E+01  0.18149924113E+02  0.18726427449E+02  0.00000000000E+00 0.  1.
         11    1    3    3    0    0 -0.57746042441E+01 -0.79257819745E+01 -0.11451466971E+02  0.15076477378E+02  0.51100000000E-03 0. -1.
        -11    1    3    3    0    0 -0.16283662150E+02  0.21728530570E+02 -0.43912227159E+01  0.27505809040E+02  0.51100000000E-03 0.  1.
         12    1    3    3    0    0  0.23633141397E+02 -0.18136235464E+02 -0.23072344258E+01  0.29879286133E+02  0.00000000000E+00 0. -1.
</event>
<event>
 7    1  0.2688173E-013  0.7246167E+02  0.7816164E-02  0.1226708E+00
        -11   -1    0    0    0    0  0.00000000000E+00  0.00000000000E+00  0.45593999997E+02  0.45594000000E+02  0.51100000000E-03 0.  1.
         11   -1    0    0    0    0 -0.00000000000E+00 -0.00000000000E+00 -0.45593999997E+02  0.45594000000E+02  0.51100000000E-03 0. -1.
    9900012    2    1    2    0    0  0.13714452735E+02  0.98899822076E+01 -0.80484494920E+01  0.72461668242E+02  0.70000127595E+02 0.  0.
        -12    1    1    2    0    0 -0.13714452735E+02 -0.98899822076E+01  0.80484494920E+01  0.18726331758E+02  0.00000000000E+00 0.  1.
         11    1    3    3    0    0 -0.10419692730E+02  0.19830649533E+02  0.17871176533E+01  0.22472615496E+02  0.51100000000E-03 0. -1.
        -11    1    3    3    0    0 -0.13632976134E+01 -0.22400101748E+01  0.14001638379E+02  0.14245072956E+02  0.51100000000E-03 0.  1.
         12    1    3    3    0    0  0.25497443078E+02 -0.77006571504E+01 -0.23837205524E+02  0.35743979790E+02  0.00000000000E+00 0. -1.
</event>
<event>
 7    1  0.2688173E-013  0.7246161E+02  0.7816164E-02  0.1226708E+00
        -11   -1    0    0    0    0  0.00000000000E+00  0.00000000000E+00  0.45593999997E+02  0.45594000000E+02  0.51100000000E-03 0.  1.
         11   -1    0    0    0    0 -0.00000000000E+00 -0.00000000000E+00 -0.45593999997E+02  0.45594000000E+02  0.51100000000E-03 0. -1.
    9900012    2    1    2    0    0 -0.10808779789E+02  0.16501223939E+01 -0.15202794730E+02  0.72461612413E+02  0.70000054868E+02 0.  0.
        -12    1    1    2    0    0  0.10808779789E+02 -0.16501223939E+01  0.15202794730E+02  0.18726387587E+02  0.00000000000E+00 0.  1.
         11    1    3    3    0    0 -0.43563654134E+01 -0.66431145813E+00 -0.85050485577E+01  0.95788872297E+01  0.51100000000E-03 0. -1.
        -11    1    3    3    0    0  0.25618966167E+02  0.27478235056E+01 -0.14916452457E+02  0.29772176871E+02  0.51100000000E-03 0.  1.
         12    1    3    3    0    0 -0.32071380543E+02 -0.43338965357E+00  0.82187062850E+01  0.33110548312E+02  0.00000000000E+00 0. -1.
</event>
<event>
 7    1  0.2688173E-013  0.7246166E+02  0.7816164E-02  0.1226708E+00
        -11   -1    0    0    0    0  0.00000000000E+00  0.00000000000E+00  0.45593999997E+02  0.45594000000E+02  0.51100000000E-03 0. -1.
         11   -1    0    0    0    0 -0.00000000000E+00 -0.00000000000E+00 -0.45593999997E+02  0.45594000000E+02  0.51100000000E-03 0.  1.
    9900012    2    1    2    0    0  0.49369932290E+01 -0.11775980568E+02  0.13697746239E+02  0.72461658326E+02  0.70000114677E+02 0.  0.
        -12    1    1    2    0    0 -0.49369932290E+01  0.11775980568E+02 -0.13697746239E+02  0.18726341674E+02  0.00000000000E+00 0.  1.
         11    1    3    3    0    0 -0.55282157803E+01 -0.48397639501E+01  0.25500743506E+02  0.26538131140E+02  0.51100000000E-03 0. -1.
        -11    1    3    3    0    0  0.11271433460E+02 -0.24358883525E+02 -0.56484797293E+01  0.27428192473E+02  0.51100000000E-03 0.  1.
        -12    1    3    3    0    0 -0.80622445044E+00  0.17422666907E+02 -0.61545175376E+01  0.18495334713E+02  0.00000000000E+00 0.  1.
</event>
<event>
 7    1  0.2688173E-013  0.7246158E+02  0.7816164E-02  0.1226708E+00
        -11   -1    0    0    0    0  0.00000000000E+00  0.00000000000E+00  0.45593999997E+02  0.45594000000E+02  0.51100000000E-03 0. -1.
         11   -1    0    0    0    0 -0.00000000000E+00 -0.00000000000E+00 -0.45593999997E+02  0.45594000000E+02  0.51100000000E-03 0.  1.
    9900012    2    1    2    0    0  0.11691099464E+02  0.14189561208E+02  0.35571663993E+01  0.72461577844E+02  0.70000009835E+02 0.  0.
        -12    1    1    2    0    0 -0.11691099464E+02 -0.14189561208E+02 -0.35571663993E+01  0.18726422156E+02  0.00000000000E+00 0.  1.
         11    1    3    3    0    0 -0.80130681750E+01  0.59488531604E+01  0.23232017727E+02  0.25284872225E+02  0.51100000000E-03 0. -1.
        -11    1    3    3    0    0 -0.40178133275E+01 -0.78444242151E+01  0.43033874740E+01  0.98080048539E+01  0.51100000000E-03 0.  1.
        -12    1    3    3    0    0  0.23721980967E+02  0.16085132263E+02 -0.23978238801E+02  0.37368700766E+02  0.00000000000E+00 0.  1.
</event>
<event>
 7    1  0.2688173E-013  0.7246157E+02  0.7816164E-02  0.1226708E+00
        -11   -1    0    0    0    0  0.00000000000E+00  0.00000000000E+00  0.45593999997E+02  0.45594000000E+02  0.51100000000E-03 0. -1.
         11   -1    0    0    0    0 -0.00000000000E+00 -0.00000000000E+00 -0.45593999997E+02  0.45594000000E+02  0.51100000000E-03 0.  1.
    9900012    2    1    2    0    0  0.22988407356E+01 -0.14171879035E+02  0.12022987617E+02  0.72461573342E+02  0.70000003971E+02 0.  0.
        -12    1    1    2    0    0 -0.22988407356E+01  0.14171879035E+02 -0.12022987617E+02  0.18726426658E+02  0.00000000000E+00 0.  1.
         11    1    3    3    0    0 -0.79253192165E+01  0.12190051203E+02  0.17457928832E+01  0.14644310365E+02  0.51100000000E-03 0. -1.
        -11    1    3    3    0    0  0.21768842881E+02  0.49993918820E+01 -0.14954129375E+01  0.22385546670E+02  0.51100000000E-03 0.  1.
         12    1    3    3    0    0 -0.11544682929E+02 -0.31361322121E+02  0.11772607672E+02  0.35431716307E+02  0.00000000000E+00 0. -1.
</event>
<event>
 7    1  0.2688173E-013  0.7246160E+02  0.7816164E-02  0.1226708E+00
        -11   -1    0    0    0    0  0.00000000000E+00  0.00000000000E+00  0.45593999997E+02  0.45594000000E+02  0.51100000000E-03 0. -1.
         11   -1    0    0    0    0 -0.00000000000E+00 -0.00000000000E+00 -0.45593999997E+02  0.45594000000E+02  0.51100000000E-03 0.  1.
    9900012    2    1    2    0    0 -0.15508814494E+02 -0.15534362810E+01  0.10379866046E+02  0.72461598573E+02  0.70000036838E+02 0.  0.
        -12    1    1    2    0    0  0.15508814494E+02  0.15534362810E+01 -0.10379866046E+02  0.18726401427E+02  0.00000000000E+00 0.  1.
         11    1    3    3    0    0 -0.28690828842E+02 -0.86445109632E+01  0.15383274716E+02  0.33682879489E+02  0.51100000000E-03 0. -1.
        -11    1    3    3    0    0  0.19142744378E+01  0.18513726115E+02  0.57302627854E+01  0.19474558098E+02  0.51100000000E-03 0.  1.
        -12    1    3    3    0    0  0.11267739911E+02 -0.11422651432E+02 -0.10733671456E+02  0.19304160986E+02  0.00000000000E+00 0.  1.
</event>
<event>
 7    1  0.2688173E-013  0.7246157E+02  0.7816164E-02  0.1226708E+00
        -11   -1    0    0    0    0  0.00000000000E+00  0.00000000000E+00  0.45593999997E+02  0.45594000000E+02  0.51100000000E-03 0.  1.
         11   -1    0    0    0    0 -0.00000000000E+00 -0.00000000000E+00 -0.45593999997E+02  0.45594000000E+02  0.51100000000E-03 0. -1.
    9900012    2    1    2    0    0  0.90773673834E+01 -0.15729064370E+02 -0.45691286631E+01  0.72461574786E+02  0.70000005851E+02 0.  0.
        -12    1    1    2    0    0 -0.90773673834E+01  0.15729064370E+02  0.45691286631E+01  0.18726425214E+02  0.00000000000E+00 0.  1.
         11    1    3    3    0    0 -0.80200815656E+01  0.97598807063E+01 -0.29100223242E+02  0.31723807664E+02  0.51100000000E-03 0. -1.
        -11    1    3    3    0    0  0.12515123734E+02 -0.11554937122E+02  0.85968875658E+01  0.19080130242E+02  0.51100000000E-03 0.  1.
        -12    1    3    3    0    0  0.45823252147E+01 -0.13934007954E+02  0.15934207013E+02  0.21657636879E+02  0.00000000000E+00 0.  1.
</event>
<event>
 7    1  0.2688173E-013  0.7246155E+02  0.7816164E-02  0.1226708E+00
        -11   -1    0    0    0    0  0.00000000000E+00  0.00000000000E+00  0.45593999997E+02  0.45594000000E+02  0.51100000000E-03 0.  1.
         11   -1    0    0    0    0 -0.00000000000E+00 -0.00000000000E+00 -0.45593999997E+02  0.45594000000E+02  0.51100000000E-03 0. -1.
    9900012    2    1    2    0    0 -0.36035274192E+01  0.16314969970E+02 -0.84567314345E+01  0.72461549148E+02  0.69999972452E+02 0.  0.
        -12    1    1    2    0    0  0.36035274192E+01 -0.16314969970E+02  0.84567314345E+01  0.18726450852E+02  0.00000000000E+00 0.  1.
         11    1    3    3    0    0 -0.23053589317E+02  0.17855858179E+02 -0.10430261061E+02  0.30969178190E+02  0.51100000000E-03 0. -1.
        -11    1    3    3    0    0 -0.92298988661E+01  0.57834472381E+01  0.44982353270E+01  0.11784456557E+02  0.51100000000E-03 0.  1.
        -12    1    3    3    0    0  0.28679960764E+02 -0.73243354473E+01 -0.25247057009E+01  0.29707914401E+02  0.00000000000E+00 0.  1.
</event>
<event>
 7    1  0.2688173E-013  0.7246145E+02  0.7816164E-02  0.1226708E+00
        -11   -1    0    0    0    0  0.00000000000E+00  0.00000000000E+00  0.45593999997E+02  0.45594000000E+02  0.51100000000E-03 0.  1.
         11   -1    0    0    0    0 -0.00000000000E+00 -0.00000000000E+00 -0.45593999997E+02  0.45594000000E+02  0.51100000000E-03 0. -1.
    9900012    2    1    2    0    0  0.15190997657E+02 -0.66768820849E+01 -0.86796551735E+01  0.72461452584E+02  0.69999846661E+02 0.  0.
        -12    1    1    2    0    0 -0.15190997657E+02  0.66768820849E+01  0.86796551735E+01  0.18726547416E+02  0.00000000000E+00 0.  1.
         11    1    3    3    0    0 -0.10008706200E+02  0.98149560153E+01  0.31488128383E+01  0.14367413961E+02  0.51100000000E-03 0. -1.
        -11    1    3    3    0    0 -0.65831952376E+01 -0.18700752499E+02  0.70729362366E+01  0.21049537544E+02  0.51100000000E-03 0.  1.
        -12    1    3    3    0    0  0.31782899094E+02  0.22089143987E+01 -0.18901404248E+02  0.37044501079E+02  0.00000000000E+00 0.  1.
</event>
<event>
 7    1  0.2688173E-013  0.7246165E+02  0.7816164E-02  0.1226708E+00
        -11   -1    0    0    0    0  0.00000000000E+00  0.00000000000E+00  0.45593999997E+02  0.45594000000E+02  0.51100000000E-03 0.  1.
         11   -1    0    0    0    0 -0.00000000000E+00 -0.00000000000E+00 -0.45593999997E+02  0.45594000000E+02  0.51100000000E-03 0. -1.
    9900012    2    1    2    0    0 -0.26508441271E+01  0.15355033313E+02 -0.10386152107E+02  0.72461650163E+02  0.70000104044E+02 0.  0.
        -12    1    1    2    0    0  0.26508441271E+01 -0.15355033313E+02  0.10386152107E+02  0.18726349837E+02  0.00000000000E+00 0.  1.
         11    1    3    3    0    0 -0.17424145969E+02  0.10971756490E+01  0.84101220992E+01  0.19378720575E+02  0.51100000000E-03 0. -1.
        -11    1    3    3    0    0 -0.54916045088E+01  0.13209844183E+02  0.10286861726E+02  0.17620364010E+02  0.51100000000E-03 0.  1.
         12    1    3    3    0    0  0.20264906351E+02  0.10480134813E+01 -0.29083135933E+02  0.35462565577E+02  0.00000000000E+00 0. -1.
</event>
<event>
 7    1  0.2688173E-013  0.7246155E+02  0.7816164E-02  0.1226708E+00
        -11   -1    0    0    0    0  0.00000000000E+00  0.00000000000E+00  0.45593999997E+02  0.45594000000E+02  0.51100000000E-03 0.  1.
         11   -1    0    0    0    0 -0.00000000000E+00 -0.00000000000E+00 -0.45593999997E+02  0.45594000000E+02  0.51100000000E-03 0. -1.
    9900012    2    1    2    0    0 -0.46307523600E+01 -0.16597170449E+02 -0.73328115609E+01  0.72461546526E+02  0.69999969038E+02 0.  0.
        -12    1    1    2    0    0  0.46307523600E+01  0.16597170449E+02  0.73328115609E+01  0.18726453474E+02  0.00000000000E+00 0.  1.
         11    1    3    3    0    0  0.16527897720E+02 -0.76776436155E+01 -0.97429004665E+01  0.20664987885E+02  0.51100000000E-03 0. -1.
        -11    1    3    3    0    0  0.10045964527E+02 -0.16685927121E+02  0.25257562094E+01  0.19639781360E+02  0.51100000000E-03 0.  1.
        -12    1    3    3    0    0 -0.31204614607E+02  0.77664002881E+01 -0.11566730383E+00  0.32156777281E+02  0.00000000000E+00 0.  1.
</event>
<event>
 7    1  0.2688173E-013  0.7246156E+02  0.7816164E-02  0.1226708E+00
        -11   -1    0    0    0    0  0.00000000000E+00  0.00000000000E+00  0.45593999997E+02  0.45594000000E+02  0.51100000000E-03 0.  1.
         11   -1    0    0    0    0 -0.00000000000E+00 -0.00000000000E+00 -0.45593999997E+02  0.45594000000E+02  0.51100000000E-03 0. -1.
    9900012    2    1    2    0    0 -0.52963173615E+01 -0.78671435554E+01 -0.16147338144E+02  0.72461562687E+02  0.69999990090E+02 0.  0.
        -12    1    1    2    0    0  0.52963173615E+01  0.78671435554E+01  0.16147338144E+02  0.18726437313E+02  0.00000000000E+00 0.  1.
         11    1    3    3    0    0  0.20496932966E+02 -0.30604312301E+01 -0.26928500558E+02  0.33979915286E+02  0.51100000000E-03 0. -1.
        -11    1    3    3    0    0  0.28186654427E+01  0.54308541562E+01 -0.32511143468E+00  0.61273770448E+01  0.51100000000E-03 0.  1.
        -12    1    3    3    0    0 -0.28611915770E+02 -0.10237566481E+02  0.11106273849E+02  0.32354270356E+02  0.00000000000E+00 0.  1.
</event>
<event>
 7    1  0.2688173E-013  0.7246160E+02  0.7816164E-02  0.1226708E+00
        -11   -1    0    0    0    0  0.00000000000E+00  0.00000000000E+00  0.45593999997E+02  0.45594000000E+02  0.51100000000E-03 0.  1.
         11   -1    0    0    0    0 -0.00000000000E+00 -0.00000000000E+00 -0.45593999997E+02  0.45594000000E+02  0.51100000000E-03 0. -1.
    9900012    2    1    2    0    0 -0.15416046078E+02  0.95286108147E+01 -0.47147768177E+01  0.72461600955E+02  0.70000039942E+02 0.  0.
        -12    1    1    2    0    0  0.15416046078E+02 -0.95286108147E+01  0.47147768177E+01  0.18726399045E+02  0.00000000000E+00 0.  1.
         11    1    3    3    0    0  0.86218623433E+01 -0.94545036686E+01  0.25704819629E+01  0.13051112124E+02  0.51100000000E-03 0. -1.
        -11    1    3    3    0    0  0.15015957748E+02  0.38824744337E+00  0.20488845339E+01  0.15160067653E+02  0.51100000000E-03 0.  1.
         12    1    3    3    0    0 -0.39053866169E+02  0.18594867040E+02 -0.93341433145E+01  0.44250421178E+02  0.00000000000E+00 0. -1.
</event>
<event>
 7    1  0.2688173E-013  0.7246157E+02  0.7816164E-02  0.1226708E+00
        -11   -1    0    0    0    0  0.00000000000E+00  0.00000000000E+00  0.45593999997E+02  0.45594000000E+02  0.51100000000E-03 0.  1.
         11   -1    0    0    0    0 -0.00000000000E+00 -0.00000000000E+00 -0.45593999997E+02  0.45594000000E+02  0.51100000000E-03 0. -1.
    9900012    2    1    2    0    0  0.10000502138E+02 -0.49031294003E+01 -0.15054188587E+02  0.72461566411E+02  0.69999994942E+02 0.  0.
        -12    1    1    2    0    0 -0.10000502138E+02  0.49031294003E+01  0.15054188587E+02  0.18726433589E+02  0.00000000000E+00 0.  1.
         11    1    3    3    0    0 -0.19411914324E+00  0.61317971168E+00  0.12999954547E+02  0.13015855334E+02  0.51100000000E-03 0. -1.
        -11    1    3    3    0    0  0.13625979608E+02  0.17004837431E+02  0.18314445429E+01  0.21867464547E+02  0.51100000000E-03 0.  1.
         12    1    3    3    0    0 -0.34313583265E+01 -0.22521146543E+02 -0.29885587677E+02  0.37578246531E+02  0.00000000000E+00 0. -1.
</event>
<event>
 7    1  0.2688173E-013  0.7246152E+02  0.7816164E-02  0.1226708E+00
        -11   -1    0    0    0    0  0.00000000000E+00  0.00000000000E+00  0.45593999997E+02  0.45594000000E+02  0.51100000000E-03 0.  1.
         11   -1    0    0    0    0 -0.00000000000E+00 -0.00000000000E+00 -0.45593999997E+02  0.45594000000E+02  0.51100000000E-03 0. -1.
    9900012    2    1    2    0    0  0.14193655268E+02 -0.98225041689E+01 -0.72621954755E+01  0.72461523526E+02  0.69999939075E+02 0.  0.
        -12    1    1    2    0    0 -0.14193655268E+02  0.98225041689E+01  0.72621954755E+01  0.18726476474E+02  0.00000000000E+00 0.  1.
         11    1    3    3    0    0 -0.12390025939E+02 -0.18484797837E+01 -0.14178562889E+02  0.18919864327E+02  0.51100000000E-03 0. -1.
        -11    1    3    3    0    0 -0.11668926281E+02 -0.10404960151E+01  0.87505107090E+01  0.14622513821E+02  0.51100000000E-03 0.  1.
        -12    1    3    3    0    0  0.38252607488E+02 -0.69335283701E+01 -0.18341432954E+01  0.38919145378E+02  0.00000000000E+00 0.  1.
</event>
<event>
 7    1  0.2688173E-013  0.7246138E+02  0.7816164E-02  0.1226709E+00
        -11   -1    0    0    0    0  0.00000000000E+00  0.00000000000E+00  0.45593999997E+02  0.45594000000E+02  0.51100000000E-03 0. -1.
         11   -1    0    0    0    0 -0.00000000000E+00 -0.00000000000E+00 -0.45593999997E+02  0.45594000000E+02  0.51100000000E-03 0.  1.
    9900012    2    1    2    0    0 -0.37950373542E+00  0.18688505830E+02  0.11323377531E+01  0.72461375583E+02  0.69999746352E+02 0.  0.
        -12    1    1    2    0    0  0.37950373542E+00 -0.18688505830E+02 -0.11323377531E+01  0.18726624417E+02  0.00000000000E+00 0.  1.
         11    1    3    3    0    0 -0.72981241886E+00 -0.17067914038E+02 -0.21335066321E+01  0.17216218126E+02  0.51100000000E-03 0. -1.
        -11    1    3    3    0    0 -0.19260418840E+02  0.20524092562E+02 -0.59328772607E+01  0.28764581385E+02  0.51100000000E-03 0.  1.
         12    1    3    3    0    0  0.19610727524E+02  0.15232327306E+02  0.91987216460E+01  0.26480576072E+02  0.00000000000E+00 0. -1.
</event>
<event>
 7    1  0.2688173E-013  0.7246156E+02  0.7816164E-02  0.1226708E+00
        -11   -1    0    0    0    0  0.00000000000E+00  0.00000000000E+00  0.45593999997E+02  0.45594000000E+02  0.51100000000E-03 0.  1.
         11   -1    0    0    0    0 -0.00000000000E+00 -0.00000000000E+00 -0.45593999997E+02  0.45594000000E+02  0.51100000000E-03 0. -1.
    9900012    2    1    2    0    0 -0.14121139965E+01 -0.17995558559E+02 -0.49845163127E+01  0.72461558890E+02  0.69999985144E+02 0.  0.
        -12    1    1    2    0    0  0.14121139965E+01  0.17995558559E+02  0.49845163127E+01  0.18726441110E+02  0.00000000000E+00 0.  1.
         11    1    3    3    0    0  0.12378856391E+02  0.14518279613E+02  0.30898309295E+01  0.19327793043E+02  0.51100000000E-03 0. -1.
        -11    1    3    3    0    0  0.44220563350E+01  0.63742696525E+01  0.37170609297E+01  0.86024669746E+01  0.51100000000E-03 0.  1.
        -12    1    3    3    0    0 -0.18213026722E+02 -0.38888107825E+02 -0.11791408172E+02  0.44531298872E+02  0.00000000000E+00 0.  1.
</event>
<event>
 7    1  0.2688173E-013  0.7246158E+02  0.7816164E-02  0.1226708E+00
        -11   -1    0    0    0    0  0.00000000000E+00  0.00000000000E+00  0.45593999997E+02  0.45594000000E+02  0.51100000000E-03 0.  1.
         11   -1    0    0    0    0 -0.00000000000E+00 -0.00000000000E+00 -0.45593999997E+02  0.45594000000E+02  0.51100000000E-03 0. -1.
    9900012    2    1    2    0    0  0.12300296742E+02  0.80783370600E+01 -0.11581099057E+02  0.72461583232E+02  0.70000016854E+02 0.  0.
        -12    1    1    2    0    0 -0.12300296742E+02 -0.80783370600E+01  0.11581099057E+02  0.18726416768E+02  0.00000000000E+00 0.  1.
         11    1    3    3    0    0  0.31991088069E+02  0.77224653379E+01  0.16152037549E+02  0.36659985051E+02  0.51100000000E-03 0. -1.
        -11    1    3    3    0    0 -0.60279154080E+00  0.50563825738E-01  0.10800824694E+01  0.12379389096E+01  0.51100000000E-03 0.  1.
        -12    1    3    3    0    0 -0.19087999786E+02  0.30530789645E+00 -0.28813219075E+02  0.34563659271E+02  0.00000000000E+00 0.  1.
</event>
<event>
 7    1  0.2688173E-013  0.7246176E+02  0.7816164E-02  0.1226708E+00
        -11   -1    0    0    0    0  0.00000000000E+00  0.00000000000E+00  0.45593999997E+02  0.45594000000E+02  0.51100000000E-03 0.  1.
         11   -1    0    0    0    0 -0.00000000000E+00 -0.00000000000E+00 -0.45593999997E+02  0.45594000000E+02  0.51100000000E-03 0. -1.
    9900012    2    1    2    0    0 -0.78757533339E+00 -0.16010312160E+02 -0.96809981117E+01  0.72461759192E+02  0.70000246073E+02 0.  0.
        -12    1    1    2    0    0  0.78757533339E+00  0.16010312160E+02  0.96809981117E+01  0.18726240808E+02  0.00000000000E+00 0.  1.
         11    1    3    3    0    0  0.21559432802E+01  0.15771794810E+02 -0.76312792167E+01  0.17653159086E+02  0.51100000000E-03 0. -1.
        -11    1    3    3    0    0 -0.40724120859E+00 -0.10790131960E+02  0.20948356221E+02  0.23567486538E+02  0.51100000000E-03 0.  1.
        -12    1    3    3    0    0 -0.25362774050E+01 -0.20991975010E+02 -0.22998075116E+02  0.31241113568E+02  0.00000000000E+00 0.  1.
</event>
<event>
 7    1  0.2688173E-013  0.7246157E+02  0.7816164E-02  0.1226708E+00
        -11   -1    0    0    0    0  0.00000000000E+00  0.00000000000E+00  0.45593999997E+02  0.45594000000E+02  0.51100000000E-03 0. -1.
         11   -1    0    0    0    0 -0.00000000000E+00 -0.00000000000E+00 -0.45593999997E+02  0.45594000000E+02  0.51100000000E-03 0.  1.
    9900012    2    1    2    0    0  0.78046752588E+00  0.12429327851E+02  0.13985064519E+02  0.72461565476E+02  0.69999993723E+02 0.  0.
        -12    1    1    2    0    0 -0.78046752588E+00 -0.12429327851E+02 -0.13985064519E+02  0.18726434524E+02  0.00000000000E+00 0.  1.
         11    1    3    3    0    0  0.96462380091E+00 -0.12257675749E+02  0.26675993382E+02  0.29373282707E+02  0.51100000000E-03 0. -1.
        -11    1    3    3    0    0 -0.60428813605E-01 -0.53259797306E+01  0.57695059454E+01  0.78521914678E+01  0.51100000000E-03 0.  1.
        -12    1    3    3    0    0 -0.12372746142E+00  0.30012983330E+02 -0.18460434807E+02  0.35236091301E+02  0.00000000000E+00 0.  1.
</event>
<event>
 7    1  0.2688173E-013  0.7246160E+02  0.7816164E-02  0.1226708E+00
        -11   -1    0    0    0    0  0.00000000000E+00  0.00000000000E+00  0.45593999997E+02  0.45594000000E+02  0.51100000000E-03 0.  1.
         11   -1    0    0    0    0 -0.00000000000E+00 -0.00000000000E+00 -0.45593999997E+02  0.45594000000E+02  0.51100000000E-03 0. -1.
    9900012    2    1    2    0    0  0.52907316587E+01 -0.17920172471E+02 -0.12465174385E+01  0.72461595417E+02  0.70000032727E+02 0.  0.
        -12    1    1    2    0    0 -0.52907316587E+01  0.17920172471E+02  0.12465174385E+01  0.18726404583E+02  0.00000000000E+00 0.  1.
         11    1    3    3    0    0  0.31954683978E+02 -0.45899978061E+00  0.83445757140E+01  0.33029448270E+02  0.51100000000E-03 0. -1.
        -11    1    3    3    0    0 -0.72376321822E+01 -0.91529591596E+00  0.60713760803E+01  0.94911903357E+01  0.51100000000E-03 0.  1.
        -12    1    3    3    0    0 -0.19426320137E+02 -0.16545876774E+02 -0.15662469233E+02  0.29940956811E+02  0.00000000000E+00 0.  1.
</event>
<event>
 7    1  0.2688173E-013  0.7246158E+02  0.7816164E-02  0.1226708E+00
        -11   -1    0    0    0    0  0.00000000000E+00  0.00000000000E+00  0.45593999997E+02  0.45594000000E+02  0.51100000000E-03 0.  1.
         11   -1    0    0    0    0 -0.00000000000E+00 -0.00000000000E+00 -0.45593999997E+02  0.45594000000E+02  0.51100000000E-03 0. -1.
    9900012    2    1    2    0    0  0.18014517230E+00 -0.87291425686E-01 -0.18725349766E+02  0.72461580269E+02  0.70000012994E+02 0.  0.
        -12    1    1    2    0    0 -0.18014517230E+00  0.87291425686E-01  0.18725349766E+02  0.18726419731E+02  0.00000000000E+00 0.  1.
         11    1    3    3    0    0  0.66347502186E+01 -0.32894501392E+01  0.49740781474E+00  0.74221161050E+01  0.51100000000E-03 0. -1.
        -11    1    3    3    0    0 -0.96448441628E+01  0.57670464849E+01  0.21421213314E+02  0.24189878548E+02  0.51100000000E-03 0.  1.
         12    1    3    3    0    0  0.31902391165E+01 -0.25648877713E+01 -0.40643970895E+02  0.40849585616E+02  0.00000000000E+00 0. -1.
</event>
<event>
 7    1  0.2688173E-013  0.7246158E+02  0.7816164E-02  0.1226708E+00
        -11   -1    0    0    0    0  0.00000000000E+00  0.00000000000E+00  0.45593999997E+02  0.45594000000E+02  0.51100000000E-03 0. -1.
         11   -1    0    0    0    0 -0.00000000000E+00 -0.00000000000E+00 -0.45593999997E+02  0.45594000000E+02  0.51100000000E-03 0.  1.
    9900012    2    1    2    0    0 -0.77652626216E+01 -0.44557676954E+01  0.16447661611E+02  0.72461581715E+02  0.70000014877E+02 0.  0.
        -12    1    1    2    0    0  0.77652626216E+01  0.44557676954E+01 -0.16447661611E+02  0.18726418285E+02  0.00000000000E+00 0.  1.
         11    1    3    3    0    0  0.10321439048E+02  0.69637444984E+01  0.28817020078E+02  0.31391821991E+02  0.51100000000E-03 0. -1.
        -11    1    3    3    0    0 -0.19611124734E+02 -0.11190725426E+02  0.54142676909E+01  0.23219449688E+02  0.51100000000E-03 0.  1.
        -12    1    3    3    0    0  0.15244230649E+01 -0.22878676755E+00 -0.17783626158E+02  0.17850310037E+02  0.00000000000E+00 0.  1.
</event>
<event>
 7    1  0.2688173E-013  0.7246152E+02  0.7816164E-02  0.1226708E+00
        -11   -1    0    0    0    0  0.00000000000E+00  0.00000000000E+00  0.45593999997E+02  0.45594000000E+02  0.51100000000E-03 0.  1.
         11   -1    0    0    0    0 -0.00000000000E+00 -0.00000000000E+00 -0.45593999997E+02  0.45594000000E+02  0.51100000000E-03 0. -1.
    9900012    2    1    2    0    0 -0.13615459774E+02  0.11232103980E+02 -0.62562076174E+01  0.72461520394E+02  0.69999934996E+02 0.  0.
        -12    1    1    2    0    0  0.13615459774E+02 -0.11232103980E+02  0.62562076174E+01  0.18726479606E+02  0.00000000000E+00 0.  1.
         11    1    3    3    0    0 -0.34712042537E+02  0.61264962415E+01  0.92371342865E+01  0.36438777468E+02  0.51100000000E-03 0. -1.
        -11    1    3    3    0    0 -0.11042594978E+01  0.97586881532E+01 -0.41576346060E+01  0.10664769538E+02  0.51100000000E-03 0.  1.
        -12    1    3    3    0    0  0.22200842261E+02 -0.46530804146E+01 -0.11335707298E+02  0.25357973389E+02  0.00000000000E+00 0.  1.
</event>
<event>
 7    1  0.2688173E-013  0.7246157E+02  0.7816164E-02  0.1226708E+00
        -11   -1    0    0    0    0  0.00000000000E+00  0.00000000000E+00  0.45593999997E+02  0.45594000000E+02  0.51100000000E-03 0.  1.
         11   -1    0    0    0    0 -0.00000000000E+00 -0.00000000000E+00 -0.45593999997E+02  0.45594000000E+02  0.51100000000E-03 0. -1.
    9900012    2    1    2    0    0  0.17501609674E+02 -0.36380239547E+01  0.55801122177E+01  0.72461569165E+02  0.69999998529E+02 0.  0.
        -12    1    1    2    0    0 -0.17501609674E+02  0.36380239547E+01 -0.55801122177E+01  0.18726430835E+02  0.00000000000E+00 0.  1.
         11    1    3    3    0    0  0.24527635085E+01 -0.13127603690E+02 -0.19862788602E+02  0.23934920070E+02  0.51100000000E-03 0. -1.
        -11    1    3    3    0    0  0.16842638060E+02 -0.81978491902E+01  0.16204775711E+01  0.18801732261E+02  0.51100000000E-03 0.  1.
         12    1    3    3    0    0 -0.17937918954E+01  0.17687428925E+02  0.23822423249E+02  0.29724916834E+02  0.00000000000E+00 0. -1.
</event>
<event>
 7    1  0.2688173E-013  0.7246158E+02  0.7816164E-02  0.1226708E+00
        -11   -1    0    0    0    0  0.00000000000E+00  0.00000000000E+00  0.45593999997E+02  0.45594000000E+02  0.51100000000E-03 0.  1.
         11   -1    0    0    0    0 -0.00000000000E+00 -0.00000000000E+00 -0.45593999997E+02  0.45594000000E+02  0.51100000000E-03 0. -1.
    9900012    2    1    2    0    0 -0.13287541550E+01 -0.18214255808E+02 -0.41417612735E+01  0.72461577792E+02  0.70000009767E+02 0.  0.
        -12    1    1    2    0    0  0.13287541550E+01  0.18214255808E+02  0.41417612735E+01  0.18726422208E+02  0.00000000000E+00 0.  1.
         11    1    3    3    0    0  0.16776395933E+02  0.82957900967E+01 -0.10437612726E+02  0.21429217287E+02  0.51100000000E-03 0. -1.
        -11    1    3    3    0    0 -0.24009094734E+00  0.14913192962E+01  0.16279452542E+02  0.16349380790E+02  0.51100000000E-03 0.  1.
         12    1    3    3    0    0 -0.17865059141E+02 -0.28001365201E+02 -0.99836010887E+01  0.34682979715E+02  0.00000000000E+00 0. -1.
</event>
<event>
 7    1  0.2688173E-013  0.7246154E+02  0.7816164E-02  0.1226708E+00
        -11   -1    0    0    0    0  0.00000000000E+00  0.00000000000E+00  0.45593999997E+02  0.45594000000E+02  0.51100000000E-03 0.  1.
         11   -1    0    0    0    0 -0.00000000000E+00 -0.00000000000E+00 -0.45593999997E+02  0.45594000000E+02  0.51100000000E-03 0. -1.
    9900012    2    1    2    0    0  0.13920689790E+02  0.12881522180E+01  0.12459355516E+02  0.72461535298E+02  0.69999954411E+02 0.  0.
        -12    1    1    2    0    0 -0.13920689790E+02 -0.12881522180E+01 -0.12459355516E+02  0.18726464702E+02  0.00000000000E+00 0.  1.
         11    1    3    3    0    0 -0.67762847756E+01  0.81860196448E+01  0.14183886756E+02  0.17723193751E+02  0.51100000000E-03 0. -1.
        -11    1    3    3    0    0  0.10908026377E+01  0.96990436812E+01  0.19244949893E+02  0.21578447473E+02  0.51100000000E-03 0.  1.
        -12    1    3    3    0    0  0.19606171928E+02 -0.16596911108E+02 -0.20969481133E+02  0.33159894073E+02  0.00000000000E+00 0.  1.
</event>
<event>
 7    1  0.2688173E-013  0.7246159E+02  0.7816164E-02  0.1226708E+00
        -11   -1    0    0    0    0  0.00000000000E+00  0.00000000000E+00  0.45593999997E+02  0.45594000000E+02  0.51100000000E-03 0.  1.
         11   -1    0    0    0    0 -0.00000000000E+00 -0.00000000000E+00 -0.45593999997E+02  0.45594000000E+02  0.51100000000E-03 0. -1.
    9900012    2    1    2    0    0 -0.48313831446E+01 -0.16672672207E+02 -0.70255370514E+01  0.72461589973E+02  0.70000025636E+02 0.  0.
        -12    1    1    2    0    0  0.48313831446E+01  0.16672672207E+02  0.70255370514E+01  0.18726410027E+02  0.00000000000E+00 0.  1.
         11    1    3    3    0    0 -0.69681129891E+01  0.77940620214E+01 -0.29102978523E+02  0.30923863934E+02  0.51100000000E-03 0. -1.
        -11    1    3    3    0    0 -0.22569291776E+01 -0.15739516895E+02 -0.15439388654E+01  0.15975289321E+02  0.51100000000E-03 0.  1.
         12    1    3    3    0    0  0.43936590221E+01 -0.87272173338E+01  0.23621380337E+02  0.25562436719E+02  0.00000000000E+00 0. -1.
</event>
<event>
 7    1  0.2688173E-013  0.7246106E+02  0.7816164E-02  0.1226709E+00
        -11   -1    0    0    0    0  0.00000000000E+00  0.00000000000E+00  0.45593999997E+02  0.45594000000E+02  0.51100000000E-03 0.  1.
         11   -1    0    0    0    0 -0.00000000000E+00 -0.00000000000E+00 -0.45593999997E+02  0.45594000000E+02  0.51100000000E-03 0. -1.
    9900012    2    1    2    0    0  0.92150715666E+00 -0.18579855821E+02 -0.21536070407E+01  0.72461061087E+02  0.69999336660E+02 0.  0.
        -12    1    1    2    0    0 -0.92150715666E+00  0.18579855821E+02  0.21536070407E+01  0.18726938913E+02  0.00000000000E+00 0.  1.
         11    1    3    3    0    0 -0.35641897538E+01  0.11318261169E+02  0.17589731386E+02  0.21218037963E+02  0.51100000000E-03 0. -1.
        -11    1    3    3    0    0  0.16809434306E+02 -0.70807945782E+01  0.65110510216E+00  0.18251538885E+02  0.51100000000E-03 0.  1.
        -12    1    3    3    0    0 -0.12323737396E+02 -0.22817322411E+02 -0.20394443529E+02  0.32991484239E+02  0.00000000000E+00 0.  1.
</event>
<event>
 7    1  0.2688173E-013  0.7246157E+02  0.7816164E-02  0.1226708E+00
        -11   -1    0    0    0    0  0.00000000000E+00  0.00000000000E+00  0.45593999997E+02  0.45594000000E+02  0.51100000000E-03 0.  1.
         11   -1    0    0    0    0 -0.00000000000E+00 -0.00000000000E+00 -0.45593999997E+02  0.45594000000E+02  0.51100000000E-03 0. -1.
    9900012    2    1    2    0    0 -0.28622516991E+01  0.15644884566E+02 -0.98855597516E+01  0.72461569761E+02  0.69999999306E+02 0.  0.
        -12    1    1    2    0    0  0.28622516991E+01 -0.15644884566E+02  0.98855597516E+01  0.18726430239E+02  0.00000000000E+00 0.  1.
         11    1    3    3    0    0  0.50314087589E+01  0.10906261579E+02  0.13622759054E+02  0.18161530228E+02  0.51100000000E-03 0. -1.
        -11    1    3    3    0    0 -0.15247088000E+01  0.10247523926E+02  0.13119325673E+02  0.16716853469E+02  0.51100000000E-03 0.  1.
         12    1    3    3    0    0 -0.63689516580E+01 -0.55089009384E+01 -0.36627644478E+02  0.37583186065E+02  0.00000000000E+00 0. -1.
</event>
<event>
 7    1  0.2688173E-013  0.7246154E+02  0.7816164E-02  0.1226708E+00
        -11   -1    0    0    0    0  0.00000000000E+00  0.00000000000E+00  0.45593999997E+02  0.45594000000E+02  0.51100000000E-03 0. -1.
         11   -1    0    0    0    0 -0.00000000000E+00 -0.00000000000E+00 -0.45593999997E+02  0.45594000000E+02  0.51100000000E-03 0.  1.
    9900012    2    1    2    0    0  0.75942533052E+01 -0.16956009212E+02  0.23455251480E+01  0.72461536910E+02  0.69999956511E+02 0.  0.
        -12    1    1    2    0    0 -0.75942533052E+01  0.16956009212E+02 -0.23455251480E+01  0.18726463090E+02  0.00000000000E+00 0.  1.
         11    1    3    3    0    0 -0.25238509385E+01  0.39816327575E+01 -0.45679822686E+01  0.65642733979E+01  0.51100000000E-03 0. -1.
        -11    1    3    3    0    0 -0.26854815437E+01  0.75724523627E+01 -0.21937977817E+02  0.23362977483E+02  0.51100000000E-03 0.  1.
         12    1    3    3    0    0  0.12803585787E+02 -0.28510094332E+02  0.28851485234E+02  0.42534286029E+02  0.00000000000E+00 0. -1.
</event>
<event>
 7    1  0.2688173E-013  0.7246166E+02  0.7816164E-02  0.1226708E+00
        -11   -1    0    0    0    0  0.00000000000E+00  0.00000000000E+00  0.45593999997E+02  0.45594000000E+02  0.51100000000E-03 0. -1.
         11   -1    0    0    0    0 -0.00000000000E+00 -0.00000000000E+00 -0.45593999997E+02  0.45594000000E+02  0.51100000000E-03 0.  1.
    9900012    2    1    2    0    0  0.78332614873E+01 -0.16753498588E+02 -0.29387407605E+01  0.72461657652E+02  0.70000113800E+02 0.  0.
        -12    1    1    2    0    0 -0.78332614873E+01  0.16753498588E+02  0.29387407605E+01  0.18726342348E+02  0.00000000000E+00 0.  1.
         11    1    3    3    0    0  0.13046123319E+02 -0.22752657337E+02  0.67218938482E+01  0.27075239736E+02  0.51100000000E-03 0. -1.
        -11    1    3    3    0    0 -0.11380579080E+02 -0.14278605318E+01  0.15012016674E+02  0.18892247373E+02  0.51100000000E-03 0.  1.
        -12    1    3    3    0    0  0.61677172485E+01  0.74270192811E+01 -0.24672651283E+02  0.26494170544E+02  0.00000000000E+00 0.  1.
</event>
<event>
 7    1  0.2688173E-013  0.7246157E+02  0.7816164E-02  0.1226708E+00
        -11   -1    0    0    0    0  0.00000000000E+00  0.00000000000E+00  0.45593999997E+02  0.45594000000E+02  0.51100000000E-03 0. -1.
         11   -1    0    0    0    0 -0.00000000000E+00 -0.00000000000E+00 -0.45593999997E+02  0.45594000000E+02  0.51100000000E-03 0.  1.
    9900012    2    1    2    0    0 -0.10962863112E+00 -0.12852019883E+02  0.13619565536E+02  0.72461574850E+02  0.70000005934E+02 0.  0.
        -12    1    1    2    0    0  0.10962863112E+00  0.12852019883E+02 -0.13619565536E+02  0.18726425150E+02  0.00000000000E+00 0.  1.
         11    1    3    3    0    0 -0.18730284315E+02  0.92741570547E+01  0.17805116365E+02  0.27456432919E+02  0.51100000000E-03 0. -1.
        -11    1    3    3    0    0 -0.39745753650E+01  0.67768471839E+01 -0.26312914767E+01  0.82853245068E+01  0.51100000000E-03 0.  1.
        -12    1    3    3    0    0  0.22595231049E+02 -0.28903024122E+02 -0.15542593520E+01  0.36719817424E+02  0.00000000000E+00 0.  1.
</event>
<event>
 7    1  0.2688173E-013  0.7246163E+02  0.7816164E-02  0.1226708E+00
        -11   -1    0    0    0    0  0.00000000000E+00  0.00000000000E+00  0.45593999997E+02  0.45594000000E+02  0.51100000000E-03 0.  1.
         11   -1    0    0    0    0 -0.00000000000E+00 -0.00000000000E+00 -0.45593999997E+02  0.45594000000E+02  0.51100000000E-03 0. -1.
    9900012    2    1    2    0    0  0.17972138940E+02 -0.39130062505E+01 -0.35167313517E+01  0.72461633684E+02  0.70000082577E+02 0.  0.
        -12    1    1    2    0    0 -0.17972138940E+02  0.39130062505E+01  0.35167313517E+01  0.18726366316E+02  0.00000000000E+00 0.  1.
         11    1    3    3    0    0  0.37423170877E+01  0.91469661749E+01 -0.14856498146E+02  0.17843415167E+02  0.51100000000E-03 0. -1.
        -11    1    3    3    0    0  0.22185669825E+02 -0.23819939772E+02 -0.56009948521E+01  0.33029753555E+02  0.51100000000E-03 0.  1.
         12    1    3    3    0    0 -0.79558479727E+01  0.10759967346E+02  0.16940761647E+02  0.21588464962E+02  0.00000000000E+00 0. -1.
</event>
<event>
 7    1  0.2688173E-013  0.7246128E+02  0.7816164E-02  0.1226709E+00
        -11   -1    0    0    0    0  0.00000000000E+00  0.00000000000E+00  0.45593999997E+02  0.45594000000E+02  0.51100000000E-03 0. -1.
         11   -1    0    0    0    0 -0.00000000000E+00 -0.00000000000E+00 -0.45593999997E+02  0.45594000000E+02  0.51100000000E-03 0.  1.
    9900012    2    1    2    0    0  0.16162778562E+02 -0.53696299767E+01  0.77859870099E+01  0.72461282972E+02  0.69999625708E+02 0.  0.
        -12    1    1    2    0    0 -0.16162778562E+02  0.53696299767E+01 -0.77859870099E+01  0.18726717028E+02  0.00000000000E+00 0.  1.
         11    1    3    3    0    0  0.80078618753E+01 -0.14596279269E+02 -0.81878352804E+01  0.18553109366E+02  0.51100000000E-03 0. -1.
        -11    1    3    3    0    0 -0.13113559565E+02 -0.13259667448E+02  0.13169205026E+02  0.22830071980E+02  0.51100000000E-03 0.  1.
         12    1    3    3    0    0  0.21268476252E+02  0.22486316741E+02  0.28046172641E+01  0.31078101626E+02  0.00000000000E+00 0. -1.
</event>
<event>
 7    1  0.2688173E-013  0.7246157E+02  0.7816164E-02  0.1226708E+00
        -11   -1    0    0    0    0  0.00000000000E+00  0.00000000000E+00  0.45593999997E+02  0.45594000000E+02  0.51100000000E-03 0.  1.
         11   -1    0    0    0    0 -0.00000000000E+00 -0.00000000000E+00 -0.45593999997E+02  0.45594000000E+02  0.51100000000E-03 0. -1.
    9900012    2    1    2    0    0  0.16441381201E+02  0.59097809595E+01 -0.67405134391E+01  0.72461573534E+02  0.70000004220E+02 0.  0.
        -12    1    1    2    0    0 -0.16441381201E+02 -0.59097809595E+01  0.67405134391E+01  0.18726426466E+02  0.00000000000E+00 0.  1.
         11    1    3    3    0    0 -0.87669066325E+01 -0.34376654825E+01 -0.25010773938E+02  0.26724801386E+02  0.51100000000E-03 0. -1.
        -11    1    3    3    0    0 -0.51006425397E+01  0.74704206759E+00 -0.45170941139E+01  0.68541057523E+01  0.51100000000E-03 0.  1.
        -12    1    3    3    0    0  0.30308930373E+02  0.86004043744E+01  0.22787354613E+02  0.38882666395E+02  0.00000000000E+00 0.  1.
</event>
<event>
 7    1  0.2688173E-013  0.7246158E+02  0.7816164E-02  0.1226708E+00
        -11   -1    0    0    0    0  0.00000000000E+00  0.00000000000E+00  0.45593999997E+02  0.45594000000E+02  0.51100000000E-03 0.  1.
         11   -1    0    0    0    0 -0.00000000000E+00 -0.00000000000E+00 -0.45593999997E+02  0.45594000000E+02  0.51100000000E-03 0. -1.
    9900012    2    1    2    0    0  0.51794200909E+01  0.14291655126E+02 -0.10936231622E+02  0.72461575867E+02  0.70000007259E+02 0.  0.
        -12    1    1    2    0    0 -0.51794200909E+01 -0.14291655126E+02  0.10936231622E+02  0.18726424133E+02  0.00000000000E+00 0.  1.
         11    1    3    3    0    0  0.11034850230E+02  0.11745706612E+02 -0.31201290858E+02  0.35117660726E+02  0.51100000000E-03 0. -1.
        -11    1    3    3    0    0 -0.10224748118E+01 -0.92375305869E+01 -0.38598064920E+01  0.10063574539E+02  0.51100000000E-03 0.  1.
        -12    1    3    3    0    0 -0.48329553272E+01  0.11783479102E+02  0.24124865728E+02  0.27280340602E+02  0.00000000000E+00 0.  1.
</event>
<event>
 7    1  0.2688173E-013  0.7246206E+02  0.7816164E-02  0.1226707E+00
        -11   -1    0    0    0    0  0.00000000000E+00  0.00000000000E+00  0.45593999997E+02  0.45594000000E+02  0.51100000000E-03 0. -1.
         11   -1    0    0    0    0 -0.00000000000E+00 -0.00000000000E+00 -0.45593999997E+02  0.45594000000E+02  0.51100000000E-03 0.  1.
    9900012    2    1    2    0    0 -0.53494535336E+00  0.52649311619E+01  0.17962601413E+02  0.72462063009E+02  0.70000641850E+02 0.  0.
        -12    1    1    2    0    0  0.53494535336E+00 -0.52649311619E+01 -0.17962601413E+02  0.18725936991E+02  0.00000000000E+00 0.  1.
         11    1    3    3    0    0 -0.31701551202E+01  0.23994857972E+02  0.14996770736E+02  0.28472903353E+02  0.51100000000E-03 0. -1.
        -11    1    3    3    0    0 -0.17014403971E+02 -0.84695025869E+01  0.89801245532E+01  0.21020586429E+02  0.51100000000E-03 0.  1.
        -12    1    3    3    0    0  0.19649613738E+02 -0.10260424223E+02 -0.60142938766E+01  0.22968573228E+02  0.00000000000E+00 0.  1.
</event>
<event>
 7    1  0.2688173E-013  0.7246155E+02  0.7816164E-02  0.1226708E+00
        -11   -1    0    0    0    0  0.00000000000E+00  0.00000000000E+00  0.45593999997E+02  0.45594000000E+02  0.51100000000E-03 0.  1.
         11   -1    0    0    0    0 -0.00000000000E+00 -0.00000000000E+00 -0.45593999997E+02  0.45594000000E+02  0.51100000000E-03 0. -1.
    9900012    2    1    2    0    0  0.39031832474E+01 -0.18294169120E+02  0.87657064435E+00  0.72461552410E+02  0.69999976702E+02 0.  0.
        -12    1    1    2    0    0 -0.39031832474E+01  0.18294169120E+02 -0.87657064435E+00  0.18726447590E+02  0.00000000000E+00 0.  1.
         11    1    3    3    0    0 -0.16022046494E+02 -0.21345842565E+02 -0.15979508903E+02  0.31107807279E+02  0.51100000000E-03 0. -1.
        -11    1    3    3    0    0  0.25494988803E+01 -0.83902215825E+01 -0.58626800074E+01  0.10548306967E+02  0.51100000000E-03 0.  1.
        -12    1    3    3    0    0  0.17375730861E+02  0.11441895027E+02  0.22718759555E+02  0.30805438164E+02  0.00000000000E+00 0.  1.
</event>
<event>
 7    1  0.2688173E-013  0.7246173E+02  0.7816164E-02  0.1226708E+00
        -11   -1    0    0    0    0  0.00000000000E+00  0.00000000000E+00  0.45593999997E+02  0.45594000000E+02  0.51100000000E-03 0.  1.
         11   -1    0    0    0    0 -0.00000000000E+00 -0.00000000000E+00 -0.45593999997E+02  0.45594000000E+02  0.51100000000E-03 0. -1.
    9900012    2    1    2    0    0  0.66071165929E+01  0.16941439076E+02 -0.44728942511E+01  0.72461731535E+02  0.70000210046E+02 0.  0.
        -12    1    1    2    0    0 -0.66071165929E+01 -0.16941439076E+02  0.44728942511E+01  0.18726268465E+02  0.00000000000E+00 0.  1.
         11    1    3    3    0    0 -0.10286869837E+02  0.19597229671E+02 -0.92215638398E+01  0.23977246333E+02  0.51100000000E-03 0. -1.
        -11    1    3    3    0    0 -0.15043167729E+02 -0.42950293929E+01  0.52489317504E+01  0.16501377445E+02  0.51100000000E-03 0.  1.
         12    1    3    3    0    0  0.31937154159E+02  0.16392387979E+01 -0.50026216175E+00  0.31983107757E+02  0.00000000000E+00 0. -1.
</event>
<event>
 7    1  0.2688173E-013  0.7246110E+02  0.7816164E-02  0.1226709E+00
        -11   -1    0    0    0    0  0.00000000000E+00  0.00000000000E+00  0.45593999997E+02  0.45594000000E+02  0.51100000000E-03 0. -1.
         11   -1    0    0    0    0 -0.00000000000E+00 -0.00000000000E+00 -0.45593999997E+02  0.45594000000E+02  0.51100000000E-03 0.  1.
    9900012    2    1    2    0    0 -0.13659126238E+02  0.85039572591E+01  0.95816306156E+01  0.72461103196E+02  0.69999391515E+02 0.  0.
        -12    1    1    2    0    0  0.13659126238E+02 -0.85039572591E+01 -0.95816306156E+01  0.18726896804E+02  0.00000000000E+00 0.  1.
         11    1    3    3    0    0 -0.17749608101E+02  0.22045013961E+01  0.16724720942E+02  0.24487235552E+02  0.51100000000E-03 0. -1.
        -11    1    3    3    0    0  0.21650207539E+02 -0.26655258580E+01 -0.15292504525E+02  0.26640142820E+02  0.51100000000E-03 0.  1.
         12    1    3    3    0    0 -0.17559725676E+02  0.89649817210E+01  0.81494141983E+01  0.21333724823E+02  0.00000000000E+00 0. -1.
</event>
<event>
 7    1  0.2688173E-013  0.7246158E+02  0.7816164E-02  0.1226708E+00
        -11   -1    0    0    0    0  0.00000000000E+00  0.00000000000E+00  0.45593999997E+02  0.45594000000E+02  0.51100000000E-03 0.  1.
         11   -1    0    0    0    0 -0.00000000000E+00 -0.00000000000E+00 -0.45593999997E+02  0.45594000000E+02  0.51100000000E-03 0. -1.
    9900012    2    1    2    0    0 -0.13936910860E+02 -0.81994935019E+01 -0.94450823354E+01  0.72461581273E+02  0.70000014302E+02 0.  0.
        -12    1    1    2    0    0  0.13936910860E+02  0.81994935019E+01  0.94450823354E+01  0.18726418727E+02  0.00000000000E+00 0.  1.
         11    1    3    3    0    0  0.25241791387E+01 -0.11739777020E+02 -0.31025685470E+02  0.33268408498E+02  0.51100000000E-03 0. -1.
        -11    1    3    3    0    0  0.24683209906E+01  0.12292053657E+01 -0.54528307963E+01  0.61103942834E+01  0.51100000000E-03 0.  1.
        -12    1    3    3    0    0 -0.18929410990E+02  0.23110781529E+01  0.27033433931E+02  0.33082778492E+02  0.00000000000E+00 0.  1.
</event>
<event>
 7    1  0.2688173E-013  0.7246159E+02  0.7816164E-02  0.1226708E+00
        -11   -1    0    0    0    0  0.00000000000E+00  0.00000000000E+00  0.45593999997E+02  0.45594000000E+02  0.51100000000E-03 0.  1.
         11   -1    0    0    0    0 -0.00000000000E+00 -0.00000000000E+00 -0.45593999997E+02  0.45594000000E+02  0.51100000000E-03 0. -1.
    9900012    2    1    2    0    0  0.11661365012E+02  0.13718692764E+02 -0.51466944456E+01  0.72461590071E+02  0.70000025763E+02 0.  0.
        -12    1    1    2    0    0 -0.11661365012E+02 -0.13718692764E+02  0.51466944456E+01  0.18726409929E+02  0.00000000000E+00 0.  1.
         11    1    3    3    0    0 -0.25916527842E+02 -0.86907236574E+01 -0.17351304434E+01  0.27389884465E+02  0.51100000000E-03 0. -1.
        -11    1    3    3    0    0 -0.36695339113E+00  0.56420215604E+00 -0.10207153411E+01  0.12226360590E+01  0.51100000000E-03 0.  1.
        -12    1    3    3    0    0  0.37944846245E+02  0.21845214265E+02 -0.23908486611E+01  0.43849069548E+02  0.00000000000E+00 0.  1.
</event>
<event>
 7    1  0.2688173E-013  0.7246166E+02  0.7816164E-02  0.1226708E+00
        -11   -1    0    0    0    0  0.00000000000E+00  0.00000000000E+00  0.45593999997E+02  0.45594000000E+02  0.51100000000E-03 0.  1.
         11   -1    0    0    0    0 -0.00000000000E+00 -0.00000000000E+00 -0.45593999997E+02  0.45594000000E+02  0.51100000000E-03 0. -1.
    9900012    2    1    2    0    0  0.81946885480E+01  0.16517993662E+02  0.32678597074E+01  0.72461656468E+02  0.70000112257E+02 0.  0.
        -12    1    1    2    0    0 -0.81946885480E+01 -0.16517993662E+02 -0.32678597074E+01  0.18726343532E+02  0.00000000000E+00 0.  1.
         11    1    3    3    0    0  0.46005963686E+01  0.13010629886E+00 -0.24107754867E+02  0.24543150971E+02  0.51100000000E-03 0. -1.
        -11    1    3    3    0    0 -0.39246850078E+01  0.24087243758E+02  0.78723114340E+01  0.25643161893E+02  0.51100000000E-03 0.  1.
         12    1    3    3    0    0  0.75187771873E+01 -0.76993563950E+01  0.19503303140E+02  0.22275343604E+02  0.00000000000E+00 0. -1.
</event>
<event>
 7    1  0.2688173E-013  0.7246161E+02  0.7816164E-02  0.1226708E+00
        -11   -1    0    0    0    0  0.00000000000E+00  0.00000000000E+00  0.45593999997E+02  0.45594000000E+02  0.51100000000E-03 0. -1.
         11   -1    0    0    0    0 -0.00000000000E+00 -0.00000000000E+00 -0.45593999997E+02  0.45594000000E+02  0.51100000000E-03 0.  1.
    9900012    2    1    2    0    0 -0.17403897702E+02 -0.67705273699E+01  0.13935261015E+01  0.72461611905E+02  0.70000054205E+02 0.  0.
        -12    1    1    2    0    0  0.17403897702E+02  0.67705273699E+01 -0.13935261015E+01  0.18726388095E+02  0.00000000000E+00 0.  1.
         11    1    3    3    0    0 -0.60072598176E+00 -0.10125507332E+00  0.11422250634E+02  0.11438484782E+02  0.51100000000E-03 0. -1.
        -11    1    3    3    0    0 -0.26729781975E+01 -0.27668481169E+02  0.91526875445E+01  0.29265360961E+02  0.51100000000E-03 0.  1.
         12    1    3    3    0    0 -0.14130193523E+02  0.20999208873E+02 -0.19181412077E+02  0.31757766161E+02  0.00000000000E+00 0. -1.
</event>
<event>
 7    1  0.2688173E-013  0.7246153E+02  0.7816164E-02  0.1226708E+00
        -11   -1    0    0    0    0  0.00000000000E+00  0.00000000000E+00  0.45593999997E+02  0.45594000000E+02  0.51100000000E-03 0.  1.
         11   -1    0    0    0    0 -0.00000000000E+00 -0.00000000000E+00 -0.45593999997E+02  0.45594000000E+02  0.51100000000E-03 0. -1.
    9900012    2    1    2    0    0 -0.14166105336E+02 -0.19941157593E+01 -0.12084102273E+02  0.72461533013E+02  0.69999951435E+02 0.  0.
        -12    1    1    2    0    0  0.14166105336E+02  0.19941157593E+01  0.12084102273E+02  0.18726466987E+02  0.00000000000E+00 0.  1.
         11    1    3    3    0    0 -0.25355748373E+02 -0.12676583102E+02 -0.10754238917E+02  0.30319356683E+02  0.51100000000E-03 0. -1.
        -11    1    3    3    0    0 -0.62487029620E+01  0.15914523952E+02  0.10838941979E+02  0.20243542793E+02  0.51100000000E-03 0.  1.
         12    1    3    3    0    0  0.17438345999E+02 -0.52320566086E+01 -0.12168805335E+02  0.21898633538E+02  0.00000000000E+00 0. -1.
</event>
<event>
 7    1  0.2688173E-013  0.7246159E+02  0.7816164E-02  0.1226708E+00
        -11   -1    0    0    0    0  0.00000000000E+00  0.00000000000E+00  0.45593999997E+02  0.45594000000E+02  0.51100000000E-03 0. -1.
         11   -1    0    0    0    0 -0.00000000000E+00 -0.00000000000E+00 -0.45593999997E+02  0.45594000000E+02  0.51100000000E-03 0.  1.
    9900012    2    1    2    0    0  0.10214734850E+01 -0.19449793588E+01  0.18597103422E+02  0.72461585275E+02  0.70000019515E+02 0.  0.
        -12    1    1    2    0    0 -0.10214734850E+01  0.19449793588E+01 -0.18597103422E+02  0.18726414725E+02  0.00000000000E+00 0.  1.
         11    1    3    3    0    0 -0.35526105414E+00 -0.38396213868E+01 -0.63759283978E+01  0.74512660673E+01  0.51100000000E-03 0. -1.
        -11    1    3    3    0    0  0.26431086455E+01 -0.21608564881E+02 -0.91024884488E+01  0.23596003809E+02  0.51100000000E-03 0.  1.
         12    1    3    3    0    0 -0.12663741064E+01  0.23503206909E+02  0.34075520268E+02  0.41414315399E+02  0.00000000000E+00 0. -1.
</event>
<event>
 7    1  0.2688173E-013  0.7246160E+02  0.7816164E-02  0.1226708E+00
        -11   -1    0    0    0    0  0.00000000000E+00  0.00000000000E+00  0.45593999997E+02  0.45594000000E+02  0.51100000000E-03 0. -1.
         11   -1    0    0    0    0 -0.00000000000E+00 -0.00000000000E+00 -0.45593999997E+02  0.45594000000E+02  0.51100000000E-03 0.  1.
    9900012    2    1    2    0    0 -0.12311034681E+02 -0.11630206174E+02  0.79909279860E+01  0.72461596163E+02  0.70000033699E+02 0.  0.
        -12    1    1    2    0    0  0.12311034681E+02  0.11630206174E+02 -0.79909279860E+01  0.18726403837E+02  0.00000000000E+00 0.  1.
         11    1    3    3    0    0 -0.30192711990E+02 -0.18656972985E+02  0.22953739217E+02  0.42267678462E+02  0.51100000000E-03 0. -1.
        -11    1    3    3    0    0  0.23334328400E+01 -0.56831143154E+01 -0.35450736111E+01  0.70929714726E+01  0.51100000000E-03 0.  1.
        -12    1    3    3    0    0  0.15548244469E+02  0.12709881126E+02 -0.11417737620E+02  0.23100946229E+02  0.00000000000E+00 0.  1.
</event>
<event>
 7    1  0.2688173E-013  0.7246160E+02  0.7816164E-02  0.1226708E+00
        -11   -1    0    0    0    0  0.00000000000E+00  0.00000000000E+00  0.45593999997E+02  0.45594000000E+02  0.51100000000E-03 0. -1.
         11   -1    0    0    0    0 -0.00000000000E+00 -0.00000000000E+00 -0.45593999997E+02  0.45594000000E+02  0.51100000000E-03 0.  1.
    9900012    2    1    2    0    0 -0.17809605174E+02 -0.57566837775E+01 -0.59729079410E+00  0.72461596158E+02  0.70000033693E+02 0.  0.
        -12    1    1    2    0    0  0.17809605174E+02  0.57566837775E+01  0.59729079410E+00  0.18726403842E+02  0.00000000000E+00 0.  1.
         11    1    3    3    0    0 -0.18530707729E+01  0.11196233165E+02  0.11491871149E+02  0.16150932206E+02  0.51100000000E-03 0. -1.
        -11    1    3    3    0    0 -0.25876445240E+02 -0.48590605353E+01 -0.24789262163E+02  0.36162251125E+02  0.51100000000E-03 0.  1.
         12    1    3    3    0    0  0.99199108397E+01 -0.12093856407E+02  0.12700100220E+02  0.20148412827E+02  0.00000000000E+00 0. -1.
</event>
<event>
 7    1  0.2688173E-013  0.7246154E+02  0.7816164E-02  0.1226708E+00
        -11   -1    0    0    0    0  0.00000000000E+00  0.00000000000E+00  0.45593999997E+02  0.45594000000E+02  0.51100000000E-03 0. -1.
         11   -1    0    0    0    0 -0.00000000000E+00 -0.00000000000E+00 -0.45593999997E+02  0.45594000000E+02  0.51100000000E-03 0.  1.
    9900012    2    1    2    0    0  0.10701415800E+02  0.65102225253E+01  0.13920380836E+02  0.72461540108E+02  0.69999960677E+02 0.  0.
        -12    1    1    2    0    0 -0.10701415800E+02 -0.65102225253E+01 -0.13920380836E+02  0.18726459892E+02  0.00000000000E+00 0.  1.
         11    1    3    3    0    0  0.13335179987E+02 -0.54268391460E+00 -0.38613083494E+01  0.13893568064E+02  0.51100000000E-03 0. -1.
        -11    1    3    3    0    0  0.19447093910E+02 -0.75646484189E+01 -0.72878821068E+01  0.22102637696E+02  0.51100000000E-03 0.  1.
        -12    1    3    3    0    0 -0.22080858097E+02  0.14617554859E+02  0.25069571292E+02  0.36465334348E+02  0.00000000000E+00 0.  1.
</event>
<event>
 7    1  0.2688173E-013  0.7246169E+02  0.7816164E-02  0.1226708E+00
        -11   -1    0    0    0    0  0.00000000000E+00  0.00000000000E+00  0.45593999997E+02  0.45594000000E+02  0.51100000000E-03 0.  1.
         11   -1    0    0    0    0 -0.00000000000E+00 -0.00000000000E+00 -0.45593999997E+02  0.45594000000E+02  0.51100000000E-03 0. -1.
    9900012    2    1    2    0    0  0.17599104027E+02 -0.60457912934E+01 -0.20963264124E+01  0.72461691251E+02  0.70000157569E+02 0.  0.
        -12    1    1    2    0    0 -0.17599104027E+02  0.60457912934E+01  0.20963264124E+01  0.18726308749E+02  0.00000000000E+00 0.  1.
         11    1    3    3    0    0  0.90959618404E+01  0.91221612331E+01 -0.85462550361E+01  0.15459263332E+02  0.51100000000E-03 0. -1.
        -11    1    3    3    0    0  0.10942550559E+02 -0.26759851046E+02 -0.14946474191E+02  0.32545754435E+02  0.51100000000E-03 0.  1.
        -12    1    3    3    0    0 -0.24394083721E+01  0.11591898520E+02  0.21396402815E+02  0.24456673484E+02  0.00000000000E+00 0.  1.
</event>
<event>
 7    1  0.2688173E-013  0.7246160E+02  0.7816164E-02  0.1226708E+00
        -11   -1    0    0    0    0  0.00000000000E+00  0.00000000000E+00  0.45593999997E+02  0.45594000000E+02  0.51100000000E-03 0. -1.
         11   -1    0    0    0    0 -0.00000000000E+00 -0.00000000000E+00 -0.45593999997E+02  0.45594000000E+02  0.51100000000E-03 0.  1.
    9900012    2    1    2    0    0 -0.37344841416E+01  0.92758684235E+01  0.15833194759E+02  0.72461597166E+02  0.70000035006E+02 0.  0.
        -12    1    1    2    0    0  0.37344841416E+01 -0.92758684235E+01 -0.15833194759E+02  0.18726402834E+02  0.00000000000E+00 0.  1.
         11    1    3    3    0    0 -0.93541076737E+01  0.41078627659E+01  0.22111146504E+02  0.24357271335E+02  0.51100000000E-03 0. -1.
        -11    1    3    3    0    0  0.10957210565E+02 -0.50948786582E+01  0.17729141416E+02  0.21455551904E+02  0.51100000000E-03 0.  1.
        -12    1    3    3    0    0 -0.53375870334E+01  0.10262884316E+02 -0.24007093161E+02  0.26648773927E+02  0.00000000000E+00 0.  1.
</event>
<event>
 7    1  0.2688173E-013  0.7246154E+02  0.7816164E-02  0.1226708E+00
        -11   -1    0    0    0    0  0.00000000000E+00  0.00000000000E+00  0.45593999997E+02  0.45594000000E+02  0.51100000000E-03 0.  1.
         11   -1    0    0    0    0 -0.00000000000E+00 -0.00000000000E+00 -0.45593999997E+02  0.45594000000E+02  0.51100000000E-03 0. -1.
    9900012    2    1    2    0    0 -0.11655159650E+02  0.18748051289E+01 -0.14536935752E+02  0.72461544334E+02  0.69999966182E+02 0.  0.
        -12    1    1    2    0    0  0.11655159650E+02 -0.18748051289E+01  0.14536935752E+02  0.18726455666E+02  0.00000000000E+00 0.  1.
         11    1    3    3    0    0 -0.83521279034E+01  0.56429517054E+01 -0.11168255164E+02  0.15044296864E+02  0.51100000000E-03 0. -1.
        -11    1    3    3    0    0 -0.28859930595E+02 -0.85636051555E-01  0.68266549343E+01  0.29656468862E+02  0.51100000000E-03 0.  1.
         12    1    3    3    0    0  0.25556898849E+02 -0.36825105249E+01 -0.10195335522E+02  0.27760778608E+02  0.00000000000E+00 0. -1.
</event>
<event>
 7    1  0.2688173E-013  0.7246157E+02  0.7816164E-02  0.1226708E+00
        -11   -1    0    0    0    0  0.00000000000E+00  0.00000000000E+00  0.45593999997E+02  0.45594000000E+02  0.51100000000E-03 0. -1.
         11   -1    0    0    0    0 -0.00000000000E+00 -0.00000000000E+00 -0.45593999997E+02  0.45594000000E+02  0.51100000000E-03 0.  1.
    9900012    2    1    2    0    0 -0.28765769019E+01  0.18165995076E+02  0.35215299687E+01  0.72461568277E+02  0.69999997372E+02 0.  0.
        -12    1    1    2    0    0  0.28765769019E+01 -0.18165995076E+02 -0.35215299687E+01  0.18726431723E+02  0.00000000000E+00 0.  1.
         11    1    3    3    0    0  0.60427044127E+01 -0.12583818079E+02  0.91620982385E+01  0.16697628528E+02  0.51100000000E-03 0. -1.
        -11    1    3    3    0    0 -0.14742162983E+01 -0.10283919382E+02  0.65911585518E+01  0.12303482550E+02  0.51100000000E-03 0.  1.
         12    1    3    3    0    0 -0.74450650162E+01  0.41033732536E+02 -0.12231726822E+02  0.43460457199E+02  0.00000000000E+00 0. -1.
</event>
<event>
 7    1  0.2688173E-013  0.7246160E+02  0.7816164E-02  0.1226708E+00
        -11   -1    0    0    0    0  0.00000000000E+00  0.00000000000E+00  0.45593999997E+02  0.45594000000E+02  0.51100000000E-03 0.  1.
         11   -1    0    0    0    0 -0.00000000000E+00 -0.00000000000E+00 -0.45593999997E+02  0.45594000000E+02  0.51100000000E-03 0. -1.
    9900012    2    1    2    0    0  0.14173846587E+02 -0.56596737882E+01 -0.10851185199E+02  0.72461600061E+02  0.70000038776E+02 0.  0.
        -12    1    1    2    0    0 -0.14173846587E+02  0.56596737882E+01  0.10851185199E+02  0.18726399939E+02  0.00000000000E+00 0.  1.
         11    1    3    3    0    0  0.14221629254E+02 -0.10616529037E+02  0.17054664313E+02  0.24613553228E+02  0.51100000000E-03 0. -1.
        -11    1    3    3    0    0  0.11071394686E+02 -0.13192328970E+02 -0.15742519602E+02  0.23333243401E+02  0.51100000000E-03 0.  1.
         12    1    3    3    0    0 -0.11119177353E+02  0.18149184218E+02 -0.12163329911E+02  0.24514803432E+02  0.00000000000E+00 0. -1.
</event>
<event>
 7    1  0.2688173E-013  0.7246150E+02  0.7816164E-02  0.1226708E+00
        -11   -1    0    0    0    0  0.00000000000E+00  0.00000000000E+00  0.45593999997E+02  0.45594000000E+02  0.51100000000E-03 0.  1.
         11   -1    0    0    0    0 -0.00000000000E+00 -0.00000000000E+00 -0.45593999997E+02  0.45594000000E+02  0.51100000000E-03 0. -1.
    9900012    2    1    2    0    0  0.17689168823E+02  0.41703481444E+01 -0.45147995465E+01  0.72461497063E+02  0.69999904602E+02 0.  0.
        -12    1    1    2    0    0 -0.17689168823E+02 -0.41703481444E+01  0.45147995465E+01  0.18726502937E+02  0.00000000000E+00 0.  1.
         11    1    3    3    0    0  0.87797399926E+00  0.23635078947E+02  0.11871771686E+01  0.23681156751E+02  0.51100000000E-03 0. -1.
        -11    1    3    3    0    0  0.20123098952E+02  0.33072386218E+01  0.81047892066E+01  0.21944578991E+02  0.51100000000E-03 0.  1.
        -12    1    3    3    0    0 -0.33119041284E+01 -0.22771969425E+02 -0.13806765922E+02  0.26835761321E+02  0.00000000000E+00 0.  1.
</event>
<event>
 7    1  0.2688173E-013  0.7246199E+02  0.7816164E-02  0.1226707E+00
        -11   -1    0    0    0    0  0.00000000000E+00  0.00000000000E+00  0.45593999997E+02  0.45594000000E+02  0.51100000000E-03 0.  1.
         11   -1    0    0    0    0 -0.00000000000E+00 -0.00000000000E+00 -0.45593999997E+02  0.45594000000E+02  0.51100000000E-03 0. -1.
    9900012    2    1    2    0    0 -0.84380334919E+01  0.16078777544E+02 -0.45755906199E+01  0.72461987984E+02  0.70000544116E+02 0.  0.
        -12    1    1    2    0    0  0.84380334919E+01 -0.16078777544E+02  0.45755906199E+01  0.18726012016E+02  0.00000000000E+00 0.  1.
         11    1    3    3    0    0 -0.46235652609E+01 -0.14447786854E+02 -0.13448946743E+02  0.20272890012E+02  0.51100000000E-03 0. -1.
        -11    1    3    3    0    0 -0.21862285171E+02  0.11817763155E+02  0.82535967623E+01  0.26186654973E+02  0.51100000000E-03 0.  1.
         12    1    3    3    0    0  0.18047816940E+02  0.18708801242E+02  0.61975936080E+00  0.26002442998E+02  0.00000000000E+00 0. -1.
</event>
<event>
 7    1  0.2688173E-013  0.7246156E+02  0.7816164E-02  0.1226708E+00
        -11   -1    0    0    0    0  0.00000000000E+00  0.00000000000E+00  0.45593999997E+02  0.45594000000E+02  0.51100000000E-03 0.  1.
         11   -1    0    0    0    0 -0.00000000000E+00 -0.00000000000E+00 -0.45593999997E+02  0.45594000000E+02  0.51100000000E-03 0. -1.
    9900012    2    1    2    0    0 -0.42026771439E+01 -0.17655932135E+01 -0.18163140362E+02  0.72461561941E+02  0.69999989118E+02 0.  0.
        -12    1    1    2    0    0  0.42026771439E+01  0.17655932135E+01  0.18163140362E+02  0.18726438059E+02  0.00000000000E+00 0.  1.
         11    1    3    3    0    0 -0.17269685051E+02  0.82978877465E+01 -0.15741203951E+02  0.24796823686E+02  0.51100000000E-03 0. -1.
        -11    1    3    3    0    0 -0.86712648321E+01  0.89033581632E+01 -0.11990903445E+02  0.17269695598E+02  0.51100000000E-03 0.  1.
        -12    1    3    3    0    0  0.21738272739E+02 -0.18966839123E+02  0.95689670332E+01  0.30395042657E+02  0.00000000000E+00 0.  1.
</event>
<event>
 7    1  0.2688173E-013  0.7246148E+02  0.7816164E-02  0.1226708E+00
        -11   -1    0    0    0    0  0.00000000000E+00  0.00000000000E+00  0.45593999997E+02  0.45594000000E+02  0.51100000000E-03 0.  1.
         11   -1    0    0    0    0 -0.00000000000E+00 -0.00000000000E+00 -0.45593999997E+02  0.45594000000E+02  0.51100000000E-03 0. -1.
    9900012    2    1    2    0    0 -0.12524783635E+02  0.52630113666E+01 -0.12888490417E+02  0.72461476591E+02  0.69999877934E+02 0.  0.
        -12    1    1    2    0    0  0.12524783635E+02 -0.52630113666E+01  0.12888490417E+02  0.18726523409E+02  0.00000000000E+00 0.  1.
         11    1    3    3    0    0  0.85761679336E+01 -0.77769361626E+01 -0.20004197287E+02  0.23112751931E+02  0.51100000000E-03 0. -1.
        -11    1    3    3    0    0  0.54884931437E+01  0.15047976857E+02 -0.88191869839E+01  0.18285054657E+02  0.51100000000E-03 0.  1.
        -12    1    3    3    0    0 -0.26589444713E+02 -0.20080293282E+01  0.15934893854E+02  0.31063670003E+02  0.00000000000E+00 0.  1.
</event>
<event>
 7    1  0.2688173E-013  0.7246150E+02  0.7816164E-02  0.1226708E+00
        -11   -1    0    0    0    0  0.00000000000E+00  0.00000000000E+00  0.45593999997E+02  0.45594000000E+02  0.51100000000E-03 0. -1.
         11   -1    0    0    0    0 -0.00000000000E+00 -0.00000000000E+00 -0.45593999997E+02  0.45594000000E+02  0.51100000000E-03 0.  1.
    9900012    2    1    2    0    0  0.18021998838E+02 -0.46595027573E+01  0.20441500729E+01  0.72461495853E+02  0.69999903026E+02 0.  0.
        -12    1    1    2    0    0 -0.18021998838E+02  0.46595027573E+01 -0.20441500729E+01  0.18726504147E+02  0.00000000000E+00 0.  1.
         11    1    3    3    0    0  0.23132370780E+01  0.83127867867E+01  0.21416044075E+02  0.23088967799E+02  0.51100000000E-03 0. -1.
        -11    1    3    3    0    0  0.13023054713E+02  0.31927463569E+01  0.93209316838E+01  0.16330136285E+02  0.51100000000E-03 0.  1.
        -12    1    3    3    0    0  0.26857070468E+01 -0.16165035901E+02 -0.28692825685E+02  0.33042391769E+02  0.00000000000E+00 0.  1.
</event>
<event>
 7    1  0.2688173E-013  0.7246163E+02  0.7816164E-02  0.1226708E+00
        -11   -1    0    0    0    0  0.00000000000E+00  0.00000000000E+00  0.45593999997E+02  0.45594000000E+02  0.51100000000E-03 0.  1.
         11   -1    0    0    0    0 -0.00000000000E+00 -0.00000000000E+00 -0.45593999997E+02  0.45594000000E+02  0.51100000000E-03 0. -1.
    9900012    2    1    2    0    0 -0.17063260597E+02  0.73650197244E+01 -0.22975159941E+01  0.72461629356E+02  0.70000076939E+02 0.  0.
        -12    1    1    2    0    0  0.17063260597E+02 -0.73650197244E+01  0.22975159941E+01  0.18726370644E+02  0.00000000000E+00 0.  1.
         11    1    3    3    0    0  0.16864725197E+00 -0.17370762099E+02 -0.23147559806E+02  0.28940997617E+02  0.51100000000E-03 0. -1.
        -11    1    3    3    0    0  0.21531200787E+01 -0.30100921223E+00 -0.31228875416E+01  0.38051227941E+01  0.51100000000E-03 0.  1.
        -12    1    3    3    0    0 -0.19385027928E+02  0.25036791036E+02  0.23972931354E+02  0.39715508946E+02  0.00000000000E+00 0.  1.
</event>
<event>
 7    1  0.2688173E-013  0.7246155E+02  0.7816164E-02  0.1226708E+00
        -11   -1    0    0    0    0  0.00000000000E+00  0.00000000000E+00  0.45593999997E+02  0.45594000000E+02  0.51100000000E-03 0.  1.
         11   -1    0    0    0    0 -0.00000000000E+00 -0.00000000000E+00 -0.45593999997E+02  0.45594000000E+02  0.51100000000E-03 0. -1.
    9900012    2    1    2    0    0  0.13825900220E+02 -0.12157138535E+02  0.34246546059E+01  0.72461553636E+02  0.69999978299E+02 0.  0.
        -12    1    1    2    0    0 -0.13825900220E+02  0.12157138535E+02 -0.34246546059E+01  0.18726446364E+02  0.00000000000E+00 0.  1.
         11    1    3    3    0    0  0.30101339481E+01  0.62267186807E+01  0.16034432433E+02  0.17462415515E+02  0.51100000000E-03 0. -1.
        -11    1    3    3    0    0  0.24515992574E+02 -0.16920009564E+02  0.74104712420E+01  0.30695858024E+02  0.51100000000E-03 0.  1.
         12    1    3    3    0    0 -0.13700226302E+02 -0.14638476513E+01 -0.20020249069E+02  0.24303280097E+02  0.00000000000E+00 0. -1.
</event>
<event>
 7    1  0.2688173E-013  0.7246153E+02  0.7816164E-02  0.1226708E+00
        -11   -1    0    0    0    0  0.00000000000E+00  0.00000000000E+00  0.45593999997E+02  0.45594000000E+02  0.51100000000E-03 0.  1.
         11   -1    0    0    0    0 -0.00000000000E+00 -0.00000000000E+00 -0.45593999997E+02  0.45594000000E+02  0.51100000000E-03 0. -1.
    9900012    2    1    2    0    0  0.12302595081E+02  0.10267777294E+02 -0.96901740827E+01  0.72461532900E+02  0.69999951287E+02 0.  0.
        -12    1    1    2    0    0 -0.12302595081E+02 -0.10267777294E+02  0.96901740827E+01  0.18726467100E+02  0.00000000000E+00 0.  1.
         11    1    3    3    0    0 -0.44605038959E+01  0.10328704099E+02 -0.91422766857E+00  0.11287782593E+02  0.51100000000E-03 0. -1.
        -11    1    3    3    0    0  0.11863181083E+02  0.27510825519E+02  0.43016389092E+01  0.30266890883E+02  0.51100000000E-03 0.  1.
        -12    1    3    3    0    0  0.48999178935E+01 -0.27571752324E+02 -0.13077585323E+02  0.30906859424E+02  0.00000000000E+00 0.  1.
</event>
<event>
 7    1  0.2688173E-013  0.7246150E+02  0.7816164E-02  0.1226708E+00
        -11   -1    0    0    0    0  0.00000000000E+00  0.00000000000E+00  0.45593999997E+02  0.45594000000E+02  0.51100000000E-03 0.  1.
         11   -1    0    0    0    0 -0.00000000000E+00 -0.00000000000E+00 -0.45593999997E+02  0.45594000000E+02  0.51100000000E-03 0. -1.
    9900012    2    1    2    0    0  0.12943188625E+02 -0.10924865052E+02 -0.79876755680E+01  0.72461500884E+02  0.69999909580E+02 0.  0.
        -12    1    1    2    0    0 -0.12943188625E+02  0.10924865052E+02  0.79876755680E+01  0.18726499116E+02  0.00000000000E+00 0.  1.
         11    1    3    3    0    0 -0.10790148204E+02 -0.10849995659E+02  0.13856158604E+02  0.20643227354E+02  0.51100000000E-03 0.  1.
        -11    1    3    3    0    0 -0.97346043205E+01 -0.38118657725E+01  0.18839167320E+01  0.10622710787E+02  0.51100000000E-03 0. -1.
         12    1    3    3    0    0  0.33467941150E+02  0.37369963803E+01 -0.23727750904E+02  0.41195562743E+02  0.00000000000E+00 0. -1.
</event>
<event>
 7    1  0.2688173E-013  0.7246149E+02  0.7816164E-02  0.1226708E+00
        -11   -1    0    0    0    0  0.00000000000E+00  0.00000000000E+00  0.45593999997E+02  0.45594000000E+02  0.51100000000E-03 0.  1.
         11   -1    0    0    0    0 -0.00000000000E+00 -0.00000000000E+00 -0.45593999997E+02  0.45594000000E+02  0.51100000000E-03 0. -1.
    9900012    2    1    2    0    0  0.19592480073E+01 -0.93701609472E+00 -0.18600149083E+02  0.72461489438E+02  0.69999894670E+02 0.  0.
        -12    1    1    2    0    0 -0.19592480073E+01  0.93701609472E+00  0.18600149083E+02  0.18726510562E+02  0.00000000000E+00 0.  1.
         11    1    3    3    0    0  0.55844105851E+01  0.10758168831E+02 -0.53186309616E+01  0.13236754653E+02  0.51100000000E-03 0. -1.
        -11    1    3    3    0    0  0.70428123805E+01  0.20605619887E+02  0.21293359456E+01  0.21879827444E+02  0.51100000000E-03 0.  1.
         12    1    3    3    0    0 -0.10667974958E+02 -0.32300804813E+02 -0.15410854067E+02  0.37344907341E+02  0.00000000000E+00 0. -1.
</event>
<event>
 7    1  0.2688173E-013  0.7246151E+02  0.7816164E-02  0.1226708E+00
        -11   -1    0    0    0    0  0.00000000000E+00  0.00000000000E+00  0.45593999997E+02  0.45594000000E+02  0.51100000000E-03 0.  1.
         11   -1    0    0    0    0 -0.00000000000E+00 -0.00000000000E+00 -0.45593999997E+02  0.45594000000E+02  0.51100000000E-03 0. -1.
    9900012    2    1    2    0    0  0.98896004017E+01  0.98877782322E+00 -0.15871338348E+02  0.72461514515E+02  0.69999927337E+02 0.  0.
        -12    1    1    2    0    0 -0.98896004017E+01 -0.98877782322E+00  0.15871338348E+02  0.18726485485E+02  0.00000000000E+00 0.  1.
         11    1    3    3    0    0 -0.16036507944E+02  0.55853591594E+01 -0.35197628955E+02  0.39079904149E+02  0.51100000000E-03 0. -1.
        -11    1    3    3    0    0  0.22017255281E+00 -0.32648804571E+00 -0.50147907434E+00  0.63761424084E+00  0.51100000000E-03 0.  1.
        -12    1    3    3    0    0  0.25705935792E+02 -0.42700932905E+01  0.19827769682E+02  0.32743996125E+02  0.00000000000E+00 0.  1.
</event>
<event>
 7    1  0.2688173E-013  0.7246159E+02  0.7816164E-02  0.1226708E+00
        -11   -1    0    0    0    0  0.00000000000E+00  0.00000000000E+00  0.45593999997E+02  0.45594000000E+02  0.51100000000E-03 0.  1.
         11   -1    0    0    0    0 -0.00000000000E+00 -0.00000000000E+00 -0.45593999997E+02  0.45594000000E+02  0.51100000000E-03 0. -1.
    9900012    2    1    2    0    0 -0.80608313660E+01 -0.16877365932E+02 -0.92515513770E+00  0.72461590971E+02  0.70000026935E+02 0.  0.
        -12    1    1    2    0    0  0.80608313660E+01  0.16877365932E+02  0.92515513770E+00  0.18726409029E+02  0.00000000000E+00 0.  1.
         11    1    3    3    0    0 -0.23729652797E+01  0.12315860706E+00  0.59154244982E+01  0.63748238812E+01  0.51100000000E-03 0. -1.
        -11    1    3    3    0    0 -0.24970128289E+02 -0.28159737203E+02  0.90657424524E+01  0.38712605087E+02  0.51100000000E-03 0.  1.
         12    1    3    3    0    0  0.19282262203E+02  0.11159212665E+02 -0.15906322088E+02  0.27374162002E+02  0.00000000000E+00 0. -1.
</event>
<event>
 7    1  0.2688173E-013  0.7246151E+02  0.7816164E-02  0.1226708E+00
        -11   -1    0    0    0    0  0.00000000000E+00  0.00000000000E+00  0.45593999997E+02  0.45594000000E+02  0.51100000000E-03 0. -1.
         11   -1    0    0    0    0 -0.00000000000E+00 -0.00000000000E+00 -0.45593999997E+02  0.45594000000E+02  0.51100000000E-03 0.  1.
    9900012    2    1    2    0    0  0.50244624324E+01  0.15238105388E+02  0.96558995406E+01  0.72461508751E+02  0.69999919829E+02 0.  0.
        -12    1    1    2    0    0 -0.50244624324E+01 -0.15238105388E+02 -0.96558995406E+01  0.18726491249E+02  0.00000000000E+00 0.  1.
         11    1    3    3    0    0 -0.27322224916E+02  0.11669050500E+02  0.30422183290E+01  0.29865126930E+02  0.51100000000E-03 0. -1.
        -11    1    3    3    0    0  0.24136491277E+01  0.20483866818E-01 -0.85289546664E+01  0.88639263119E+01  0.51100000000E-03 0.  1.
         12    1    3    3    0    0  0.29933038220E+02  0.35485710215E+01  0.15142635878E+02  0.33732455510E+02  0.00000000000E+00 0. -1.
</event>
<event>
 7    1  0.2688173E-013  0.7246156E+02  0.7816164E-02  0.1226708E+00
        -11   -1    0    0    0    0  0.00000000000E+00  0.00000000000E+00  0.45593999997E+02  0.45594000000E+02  0.51100000000E-03 0.  1.
         11   -1    0    0    0    0 -0.00000000000E+00 -0.00000000000E+00 -0.45593999997E+02  0.45594000000E+02  0.51100000000E-03 0. -1.
    9900012    2    1    2    0    0  0.42259474331E+01 -0.16229931587E+02 -0.83312904981E+01  0.72461555800E+02  0.69999981118E+02 0.  0.
        -12    1    1    2    0    0 -0.42259474331E+01  0.16229931587E+02  0.83312904981E+01  0.18726444200E+02  0.00000000000E+00 0.  1.
         11    1    3    3    0    0  0.18590062453E+02 -0.15173443943E+02  0.16691772631E+02  0.29230790221E+02  0.51100000000E-03 0. -1.
        -11    1    3    3    0    0 -0.22899848227E+01 -0.14196573259E+02 -0.26660602150E+01  0.14625135900E+02  0.51100000000E-03 0.  1.
         12    1    3    3    0    0 -0.12074130198E+02  0.13140085614E+02 -0.22357002914E+02  0.28605629678E+02  0.00000000000E+00 0. -1.
</event>
<event>
 7    1  0.2688173E-013  0.7246168E+02  0.7816164E-02  0.1226708E+00
        -11   -1    0    0    0    0  0.00000000000E+00  0.00000000000E+00  0.45593999997E+02  0.45594000000E+02  0.51100000000E-03 0.  1.
         11   -1    0    0    0    0 -0.00000000000E+00 -0.00000000000E+00 -0.45593999997E+02  0.45594000000E+02  0.51100000000E-03 0. -1.
    9900012    2    1    2    0    0  0.14864401749E+02 -0.79718419701E+01  0.81347640069E+01  0.72461679240E+02  0.70000141922E+02 0.  0.
        -12    1    1    2    0    0 -0.14864401749E+02  0.79718419701E+01 -0.81347640069E+01  0.18726320760E+02  0.00000000000E+00 0.  1.
         11    1    3    3    0    0 -0.15456879152E+02 -0.17682616232E+02 -0.27452305982E+01  0.23645852093E+02  0.51100000000E-03 0. -1.
        -11    1    3    3    0    0  0.62471724314E+01  0.30084716501E+01 -0.12692243554E+02  0.14462749108E+02  0.51100000000E-03 0.  1.
        -12    1    3    3    0    0  0.24074108470E+02  0.67023026116E+01  0.23572238159E+02  0.34353078039E+02  0.00000000000E+00 0.  1.
</event>
<event>
 7    1  0.2688173E-013  0.7246159E+02  0.7816164E-02  0.1226708E+00
        -11   -1    0    0    0    0  0.00000000000E+00  0.00000000000E+00  0.45593999997E+02  0.45594000000E+02  0.51100000000E-03 0. -1.
         11   -1    0    0    0    0 -0.00000000000E+00 -0.00000000000E+00 -0.45593999997E+02  0.45594000000E+02  0.51100000000E-03 0.  1.
    9900012    2    1    2    0    0 -0.53620730878E+01  0.98240611482E+01  0.15013809887E+02  0.72461588369E+02  0.70000023546E+02 0.  0.
        -12    1    1    2    0    0  0.53620730878E+01 -0.98240611482E+01 -0.15013809887E+02  0.18726411631E+02  0.00000000000E+00 0.  1.
         11    1    3    3    0    0  0.23109788219E+02  0.14340867684E+01  0.14059652627E+02  0.27088609205E+02  0.51100000000E-03 0. -1.
        -11    1    3    3    0    0  0.45872706653E+01  0.81365546192E+00  0.93382462356E+01  0.10435896243E+02  0.51100000000E-03 0.  1.
        -12    1    3    3    0    0 -0.33059131973E+02  0.75763189179E+01 -0.83840889753E+01  0.34937082922E+02  0.00000000000E+00 0.  1.
</event>
<event>
 7    1  0.2688173E-013  0.7246153E+02  0.7816164E-02  0.1226708E+00
        -11   -1    0    0    0    0  0.00000000000E+00  0.00000000000E+00  0.45593999997E+02  0.45594000000E+02  0.51100000000E-03 0.  1.
         11   -1    0    0    0    0 -0.00000000000E+00 -0.00000000000E+00 -0.45593999997E+02  0.45594000000E+02  0.51100000000E-03 0. -1.
    9900012    2    1    2    0    0  0.90187261433E+01 -0.15450297822E+02 -0.55345868859E+01  0.72461527400E+02  0.69999944123E+02 0.  0.
        -12    1    1    2    0    0 -0.90187261433E+01  0.15450297822E+02  0.55345868859E+01  0.18726472600E+02  0.00000000000E+00 0.  1.
         11    1    3    3    0    0 -0.15032953151E+01  0.10297466614E+02  0.75152939901E+00  0.10433719958E+02  0.51100000000E-03 0. -1.
        -11    1    3    3    0    0 -0.13677244050E+01 -0.23534736504E+02  0.21385267166E+02  0.31828982773E+02  0.51100000000E-03 0.  1.
         12    1    3    3    0    0  0.11889745863E+02 -0.22130279315E+01 -0.27671383451E+02  0.30198824669E+02  0.00000000000E+00 0. -1.
</event>
<event>
 7    1  0.2688173E-013  0.7246160E+02  0.7816164E-02  0.1226708E+00
        -11   -1    0    0    0    0  0.00000000000E+00  0.00000000000E+00  0.45593999997E+02  0.45594000000E+02  0.51100000000E-03 0.  1.
         11   -1    0    0    0    0 -0.00000000000E+00 -0.00000000000E+00 -0.45593999997E+02  0.45594000000E+02  0.51100000000E-03 0. -1.
    9900012    2    1    2    0    0  0.65464685661E+01 -0.15884479763E+02 -0.74501823848E+01  0.72461597099E+02  0.70000034918E+02 0.  0.
        -12    1    1    2    0    0 -0.65464685661E+01  0.15884479763E+02  0.74501823848E+01  0.18726402901E+02  0.00000000000E+00 0.  1.
         11    1    3    3    0    0  0.65575645113E+01 -0.23956707153E+01  0.14984126982E+01  0.71404573643E+01  0.51100000000E-03 0. -1.
        -11    1    3    3    0    0 -0.13689048836E+02 -0.25207369242E+02  0.17292217241E+02  0.33493615802E+02  0.51100000000E-03 0.  1.
         12    1    3    3    0    0  0.13677952891E+02  0.11718560194E+02 -0.26240812324E+02  0.31827523933E+02  0.00000000000E+00 0. -1.
</event>
<event>
 7    1  0.2688173E-013  0.7246156E+02  0.7816164E-02  0.1226708E+00
        -11   -1    0    0    0    0  0.00000000000E+00  0.00000000000E+00  0.45593999997E+02  0.45594000000E+02  0.51100000000E-03 0.  1.
         11   -1    0    0    0    0 -0.00000000000E+00 -0.00000000000E+00 -0.45593999997E+02  0.45594000000E+02  0.51100000000E-03 0. -1.
    9900012    2    1    2    0    0  0.16387828383E+02 -0.20318869461E+01 -0.88311941478E+01  0.72461562171E+02  0.69999989418E+02 0.  0.
        -12    1    1    2    0    0 -0.16387828383E+02  0.20318869461E+01  0.88311941478E+01  0.18726437829E+02  0.00000000000E+00 0.  1.
         11    1    3    3    0    0  0.22821309441E+02  0.57073983267E+01 -0.12162393429E+02  0.26482265282E+02  0.51100000000E-03 0. -1.
        -11    1    3    3    0    0 -0.66736970148E+01 -0.11996597072E+02 -0.18890701347E+02  0.23351984301E+02  0.51100000000E-03 0.  1.
        -12    1    3    3    0    0  0.24021595668E+00  0.42573117988E+01  0.22221900628E+02  0.22627312589E+02  0.00000000000E+00 0.  1.
</event>
<event>
 7    1  0.2688173E-013  0.7246187E+02  0.7816164E-02  0.1226707E+00
        -11   -1    0    0    0    0  0.00000000000E+00  0.00000000000E+00  0.45593999997E+02  0.45594000000E+02  0.51100000000E-03 0.  1.
         11   -1    0    0    0    0 -0.00000000000E+00 -0.00000000000E+00 -0.45593999997E+02  0.45594000000E+02  0.51100000000E-03 0. -1.
    9900012    2    1    2    0    0 -0.11819558260E+02  0.72624073578E+01 -0.12578688837E+02  0.72461870370E+02  0.70000390903E+02 0.  0.
        -12    1    1    2    0    0  0.11819558260E+02 -0.72624073578E+01  0.12578688837E+02  0.18726129630E+02  0.00000000000E+00 0.  1.
         11    1    3    3    0    0  0.16051162982E+02 -0.35935071438E+01 -0.27215884315E+01  0.16672137551E+02  0.51100000000E-03 0. -1.
        -11    1    3    3    0    0  0.76671711506E+01  0.15949734977E+02  0.23891670111E+01  0.17857426426E+02  0.51100000000E-03 0.  1.
         12    1    3    3    0    0 -0.35537892392E+02 -0.50938204752E+01 -0.12246267416E+02  0.37932306393E+02  0.00000000000E+00 0. -1.
</event>
<event>
 7    1  0.2688173E-013  0.7246158E+02  0.7816164E-02  0.1226708E+00
        -11   -1    0    0    0    0  0.00000000000E+00  0.00000000000E+00  0.45593999997E+02  0.45594000000E+02  0.51100000000E-03 0.  1.
         11   -1    0    0    0    0 -0.00000000000E+00 -0.00000000000E+00 -0.45593999997E+02  0.45594000000E+02  0.51100000000E-03 0. -1.
    9900012    2    1    2    0    0  0.12779563785E+02  0.13462862910E+02 -0.24724259830E+01  0.72461579666E+02  0.70000012208E+02 0.  0.
        -12    1    1    2    0    0 -0.12779563785E+02 -0.13462862910E+02  0.24724259830E+01  0.18726420334E+02  0.00000000000E+00 0.  1.
         11    1    3    3    0    0  0.22941319840E+02 -0.26073020999E+01 -0.11275898935E+01  0.23116523084E+02  0.51100000000E-03 0. -1.
        -11    1    3    3    0    0  0.13861993784E+02 -0.69121512197E+01  0.31177941830E+01  0.15800422368E+02  0.51100000000E-03 0.  1.
        -12    1    3    3    0    0 -0.24023749839E+02  0.22982316230E+02 -0.44626302724E+01  0.33544634215E+02  0.00000000000E+00 0.  1.
</event>
<event>
 7    1  0.2688173E-013  0.7246162E+02  0.7816164E-02  0.1226708E+00
        -11   -1    0    0    0    0  0.00000000000E+00  0.00000000000E+00  0.45593999997E+02  0.45594000000E+02  0.51100000000E-03 0. -1.
         11   -1    0    0    0    0 -0.00000000000E+00 -0.00000000000E+00 -0.45593999997E+02  0.45594000000E+02  0.51100000000E-03 0.  1.
    9900012    2    1    2    0    0 -0.57044688487E+01  0.17834617387E+02  0.25078440986E+00  0.72461616606E+02  0.70000060330E+02 0.  0.
        -12    1    1    2    0    0  0.57044688487E+01 -0.17834617387E+02 -0.25078440986E+00  0.18726383394E+02  0.00000000000E+00 0.  1.
         11    1    3    3    0    0 -0.50538621612E+01  0.10992310747E+02 -0.18750546972E+02  0.22314914974E+02  0.51100000000E-03 0.  1.
        -11    1    3    3    0    0 -0.77366642758E+01 -0.46014360746E+00  0.32404617954E+02  0.33318567965E+02  0.51100000000E-03 0. -1.
         12    1    3    3    0    0  0.70860575882E+01  0.73024502479E+01 -0.13403286572E+02  0.16828133667E+02  0.00000000000E+00 0. -1.
</event>
<event>
 7    1  0.2688173E-013  0.7246150E+02  0.7816164E-02  0.1226708E+00
        -11   -1    0    0    0    0  0.00000000000E+00  0.00000000000E+00  0.45593999997E+02  0.45594000000E+02  0.51100000000E-03 0.  1.
         11   -1    0    0    0    0 -0.00000000000E+00 -0.00000000000E+00 -0.45593999997E+02  0.45594000000E+02  0.51100000000E-03 0. -1.
    9900012    2    1    2    0    0  0.20193166840E+00  0.15619803389E+02 -0.10327761254E+02  0.72461503082E+02  0.69999912444E+02 0.  0.
        -12    1    1    2    0    0 -0.20193166840E+00 -0.15619803389E+02  0.10327761254E+02  0.18726496918E+02  0.00000000000E+00 0.  1.
         11    1    3    3    0    0  0.60752562783E+01 -0.12344148584E+02 -0.14283146485E+02  0.19831667022E+02  0.51100000000E-03 0. -1.
        -11    1    3    3    0    0 -0.10328727107E+02 -0.98654781925E+01 -0.41357226858E+00  0.14289202423E+02  0.51100000000E-03 0.  1.
         12    1    3    3    0    0  0.44554024968E+01  0.37829430165E+02  0.43689574995E+01  0.38340633637E+02  0.00000000000E+00 0. -1.
</event>
<event>
 7    1  0.2688173E-013  0.7246161E+02  0.7816164E-02  0.1226708E+00
        -11   -1    0    0    0    0  0.00000000000E+00  0.00000000000E+00  0.45593999997E+02  0.45594000000E+02  0.51100000000E-03 0.  1.
         11   -1    0    0    0    0 -0.00000000000E+00 -0.00000000000E+00 -0.45593999997E+02  0.45594000000E+02  0.51100000000E-03 0. -1.
    9900012    2    1    2    0    0 -0.16168251805E+02 -0.65146677601E+01 -0.68428421768E+01  0.72461608156E+02  0.70000049322E+02 0.  0.
        -12    1    1    2    0    0  0.16168251805E+02  0.65146677601E+01  0.68428421768E+01  0.18726391844E+02  0.00000000000E+00 0.  1.
         11    1    3    3    0    0  0.15384716258E+02 -0.38514312595E+01 -0.63430304832E+01  0.17080897314E+02  0.51100000000E-03 0. -1.
        -11    1    3    3    0    0 -0.56681566546E+01 -0.16340009457E+02  0.14423884440E+02  0.22520487373E+02  0.51100000000E-03 0.  1.
         12    1    3    3    0    0 -0.25884811408E+02  0.13676772957E+02 -0.14923696133E+02  0.32860223469E+02  0.00000000000E+00 0. -1.
</event>
<event>
 7    1  0.2688173E-013  0.7246156E+02  0.7816164E-02  0.1226708E+00
        -11   -1    0    0    0    0  0.00000000000E+00  0.00000000000E+00  0.45593999997E+02  0.45594000000E+02  0.51100000000E-03 0.  1.
         11   -1    0    0    0    0 -0.00000000000E+00 -0.00000000000E+00 -0.45593999997E+02  0.45594000000E+02  0.51100000000E-03 0. -1.
    9900012    2    1    2    0    0  0.76941842154E+01  0.12909984568E+02 -0.11171907025E+02  0.72461556695E+02  0.69999982284E+02 0.  0.
        -12    1    1    2    0    0 -0.76941842154E+01 -0.12909984568E+02  0.11171907025E+02  0.18726443305E+02  0.00000000000E+00 0.  1.
         11    1    3    3    0    0 -0.23966697357E+02  0.11305051236E+02 -0.10522235223E+02  0.28511825616E+02  0.51100000000E-03 0. -1.
        -11    1    3    3    0    0 -0.36222355106E+01  0.54510509645E+01 -0.49390990338E+01  0.81993442567E+01  0.51100000000E-03 0.  1.
         12    1    3    3    0    0  0.35283117083E+02 -0.38461176318E+01  0.42894272321E+01  0.35750386822E+02  0.00000000000E+00 0. -1.
</event>
<event>
 7    1  0.2688173E-013  0.7246152E+02  0.7816164E-02  0.1226708E+00
        -11   -1    0    0    0    0  0.00000000000E+00  0.00000000000E+00  0.45593999997E+02  0.45594000000E+02  0.51100000000E-03 0. -1.
         11   -1    0    0    0    0 -0.00000000000E+00 -0.00000000000E+00 -0.45593999997E+02  0.45594000000E+02  0.51100000000E-03 0.  1.
    9900012    2    1    2    0    0 -0.17609654019E+02 -0.37588195096E+01  0.51431824086E+01  0.72461522380E+02  0.69999937582E+02 0.  0.
        -12    1    1    2    0    0  0.17609654019E+02  0.37588195096E+01 -0.51431824086E+01  0.18726477620E+02  0.00000000000E+00 0.  1.
         11    1    3    3    0    0  0.76683445947E+01  0.29995409172E+01 -0.38717565076E+01  0.90989699006E+01  0.51100000000E-03 0. -1.
        -11    1    3    3    0    0  0.15650654327E+02  0.67306460559E+01 -0.54795685234E+01  0.17896095906E+02  0.51100000000E-03 0.  1.
         12    1    3    3    0    0 -0.40928652941E+02 -0.13489006483E+02  0.14494507440E+02  0.45466456574E+02  0.00000000000E+00 0. -1.
</event>
<event>
 7    1  0.2688173E-013  0.7246157E+02  0.7816164E-02  0.1226708E+00
        -11   -1    0    0    0    0  0.00000000000E+00  0.00000000000E+00  0.45593999997E+02  0.45594000000E+02  0.51100000000E-03 0.  1.
         11   -1    0    0    0    0 -0.00000000000E+00 -0.00000000000E+00 -0.45593999997E+02  0.45594000000E+02  0.51100000000E-03 0. -1.
    9900012    2    1    2    0    0 -0.16041313620E+02 -0.94919618629E+01 -0.18049960192E+01  0.72461572329E+02  0.70000002651E+02 0.  0.
        -12    1    1    2    0    0  0.16041313620E+02  0.94919618629E+01  0.18049960192E+01  0.18726427671E+02  0.00000000000E+00 0.  1.
         11    1    3    3    0    0  0.13728200948E+02 -0.84569758716E+01 -0.18313066326E+02  0.24399843046E+02  0.51100000000E-03 0. -1.
        -11    1    3    3    0    0  0.54929271090E+00 -0.12145554246E+02  0.83731253632E+01  0.14762297892E+02  0.51100000000E-03 0.  1.
        -12    1    3    3    0    0 -0.30318807279E+02  0.11110568255E+02  0.81349449435E+01  0.33299431392E+02  0.00000000000E+00 0.  1.
</event>
<event>
 7    1  0.2688173E-013  0.7246158E+02  0.7816164E-02  0.1226708E+00
        -11   -1    0    0    0    0  0.00000000000E+00  0.00000000000E+00  0.45593999997E+02  0.45594000000E+02  0.51100000000E-03 0. -1.
         11   -1    0    0    0    0 -0.00000000000E+00 -0.00000000000E+00 -0.45593999997E+02  0.45594000000E+02  0.51100000000E-03 0.  1.
    9900012    2    1    2    0    0  0.14265848965E+02 -0.12123994368E+02 -0.41612664192E+00  0.72461578892E+02  0.70000011200E+02 0.  0.
        -12    1    1    2    0    0 -0.14265848965E+02  0.12123994368E+02  0.41612664192E+00  0.18726421108E+02  0.00000000000E+00 0.  1.
         11    1    3    3    0    0  0.22883859800E+01  0.34286602626E+00  0.23280746286E+02  0.23395457153E+02  0.51100000000E-03 0. -1.
        -11    1    3    3    0    0  0.25632088881E+02 -0.96952213189E+01 -0.90727452251E+01  0.28867213288E+02  0.51100000000E-03 0.  1.
         12    1    3    3    0    0 -0.13654625896E+02 -0.27716390753E+01 -0.14624127703E+02  0.20198908451E+02  0.00000000000E+00 0. -1.
</event>
<event>
 7    1  0.2688173E-013  0.7246155E+02  0.7816164E-02  0.1226708E+00
        -11   -1    0    0    0    0  0.00000000000E+00  0.00000000000E+00  0.45593999997E+02  0.45594000000E+02  0.51100000000E-03 0.  1.
         11   -1    0    0    0    0 -0.00000000000E+00 -0.00000000000E+00 -0.45593999997E+02  0.45594000000E+02  0.51100000000E-03 0. -1.
    9900012    2    1    2    0    0  0.12282261081E+01 -0.34954336771E+01 -0.18356290201E+02  0.72461548497E+02  0.69999971605E+02 0.  0.
        -12    1    1    2    0    0 -0.12282261081E+01  0.34954336771E+01  0.18356290201E+02  0.18726451503E+02  0.00000000000E+00 0.  1.
         11    1    3    3    0    0 -0.17869216178E+01 -0.33193005568E+02 -0.23094721719E+02  0.40476349626E+02  0.51100000000E-03 0. -1.
        -11    1    3    3    0    0  0.24968925310E+01  0.42807032028E+01 -0.25028353336E+01  0.55518534915E+01  0.51100000000E-03 0.  1.
        -12    1    3    3    0    0  0.51825519485E+00  0.25416868688E+02  0.72412668515E+01  0.26433345380E+02  0.00000000000E+00 0.  1.
</event>
<event>
 7    1  0.2688173E-013  0.7246165E+02  0.7816164E-02  0.1226708E+00
        -11   -1    0    0    0    0  0.00000000000E+00  0.00000000000E+00  0.45593999997E+02  0.45594000000E+02  0.51100000000E-03 0.  1.
         11   -1    0    0    0    0 -0.00000000000E+00 -0.00000000000E+00 -0.45593999997E+02  0.45594000000E+02  0.51100000000E-03 0. -1.
    9900012    2    1    2    0    0  0.82428879301E+01  0.42815434800E+01 -0.16260357043E+02  0.72461654197E+02  0.70000109298E+02 0.  0.
        -12    1    1    2    0    0 -0.82428879301E+01 -0.42815434800E+01  0.16260357043E+02  0.18726345803E+02  0.00000000000E+00 0.  1.
         11    1    3    3    0    0  0.30589338802E+01  0.62316318452E+01 -0.21359303655E+02  0.22459077559E+02  0.51100000000E-03 0. -1.
        -11    1    3    3    0    0  0.14051736653E+01  0.23650748088E+02  0.45086193491E+01  0.24117629379E+02  0.51100000000E-03 0.  1.
        -12    1    3    3    0    0  0.37787803845E+01 -0.25600836453E+02  0.59032726310E+00  0.25884947258E+02  0.00000000000E+00 0.  1.
</event>
<event>
 7    1  0.2688173E-013  0.7246149E+02  0.7816164E-02  0.1226708E+00
        -11   -1    0    0    0    0  0.00000000000E+00  0.00000000000E+00  0.45593999997E+02  0.45594000000E+02  0.51100000000E-03 0.  1.
         11   -1    0    0    0    0 -0.00000000000E+00 -0.00000000000E+00 -0.45593999997E+02  0.45594000000E+02  0.51100000000E-03 0. -1.
    9900012    2    1    2    0    0  0.14562761571E+02 -0.84208703879E+01 -0.82278249983E+01  0.72461489731E+02  0.69999895051E+02 0.  0.
        -12    1    1    2    0    0 -0.14562761571E+02  0.84208703879E+01  0.82278249983E+01  0.18726510269E+02  0.00000000000E+00 0.  1.
         11    1    3    3    0    0  0.13397106664E+02  0.84895755393E+01 -0.30517182441E+02  0.34392641425E+02  0.51100000000E-03 0. -1.
        -11    1    3    3    0    0 -0.15097192216E+01  0.34889901487E+01  0.16159958923E+02  0.16601101681E+02  0.51100000000E-03 0.  1.
        -12    1    3    3    0    0  0.26753741282E+01 -0.20399436076E+02  0.61293985195E+01  0.21467746625E+02  0.00000000000E+00 0.  1.
</event>
<event>
 7    1  0.2688173E-013  0.7246158E+02  0.7816164E-02  0.1226708E+00
        -11   -1    0    0    0    0  0.00000000000E+00  0.00000000000E+00  0.45593999997E+02  0.45594000000E+02  0.51100000000E-03 0. -1.
         11   -1    0    0    0    0 -0.00000000000E+00 -0.00000000000E+00 -0.45593999997E+02  0.45594000000E+02  0.51100000000E-03 0.  1.
    9900012    2    1    2    0    0  0.93792304429E+01  0.11356462084E+02  0.11564588250E+02  0.72461577593E+02  0.70000009508E+02 0.  0.
        -12    1    1    2    0    0 -0.93792304429E+01 -0.11356462084E+02 -0.11564588250E+02  0.18726422407E+02  0.00000000000E+00 0.  1.
         11    1    3    3    0    0  0.25437944243E+02 -0.16379105574E+02  0.22352080696E+02  0.37616214834E+02  0.51100000000E-03 0. -1.
        -11    1    3    3    0    0 -0.27027095342E+01  0.11756474639E+02 -0.60155207255E+01  0.13479830289E+02  0.51100000000E-03 0.  1.
        -12    1    3    3    0    0 -0.13356004266E+02  0.15979093018E+02 -0.47719717209E+01  0.21365532470E+02  0.00000000000E+00 0.  1.
</event>
<event>
 7    1  0.2688173E-013  0.7246153E+02  0.7816164E-02  0.1226708E+00
        -11   -1    0    0    0    0  0.00000000000E+00  0.00000000000E+00  0.45593999997E+02  0.45594000000E+02  0.51100000000E-03 0. -1.
         11   -1    0    0    0    0 -0.00000000000E+00 -0.00000000000E+00 -0.45593999997E+02  0.45594000000E+02  0.51100000000E-03 0.  1.
    9900012    2    1    2    0    0 -0.13504169669E+02 -0.12934672888E+02  0.10060928338E+01  0.72461532528E+02  0.69999950803E+02 0.  0.
        -12    1    1    2    0    0  0.13504169669E+02  0.12934672888E+02 -0.10060928338E+01  0.18726467472E+02  0.00000000000E+00 0.  1.
         11    1    3    3    0    0  0.17317318386E+02  0.60185690118E+01 -0.13765308242E+02  0.22925889302E+02  0.51100000000E-03 0. -1.
        -11    1    3    3    0    0 -0.38824483021E+01  0.34270806588E+01 -0.66901158502E+01  0.84602563207E+01  0.51100000000E-03 0.  1.
         12    1    3    3    0    0 -0.26939039753E+02 -0.22380322558E+02  0.21461516926E+02  0.41075386905E+02  0.00000000000E+00 0. -1.
</event>
<event>
 7    1  0.2688173E-013  0.7246157E+02  0.7816164E-02  0.1226708E+00
        -11   -1    0    0    0    0  0.00000000000E+00  0.00000000000E+00  0.45593999997E+02  0.45594000000E+02  0.51100000000E-03 0.  1.
         11   -1    0    0    0    0 -0.00000000000E+00 -0.00000000000E+00 -0.45593999997E+02  0.45594000000E+02  0.51100000000E-03 0. -1.
    9900012    2    1    2    0    0 -0.14119849595E+02  0.45141131199E+01 -0.11442545790E+02  0.72461568840E+02  0.69999998106E+02 0.  0.
        -12    1    1    2    0    0  0.14119849595E+02 -0.45141131199E+01  0.11442545790E+02  0.18726431160E+02  0.00000000000E+00 0.  1.
         11    1    3    3    0    0  0.10283322176E+02  0.62771299291E+01  0.69088470547E+01  0.13888169174E+02  0.51100000000E-03 0. -1.
        -11    1    3    3    0    0  0.36027759623E+01 -0.12449044239E+02 -0.24736177655E+02  0.27925565032E+02  0.51100000000E-03 0.  1.
         12    1    3    3    0    0 -0.28005947733E+02  0.10686027430E+02  0.63847848104E+01  0.30647834634E+02  0.00000000000E+00 0. -1.
</event>
<event>
 7    1  0.2688173E-013  0.7246181E+02  0.7816164E-02  0.1226707E+00
        -11   -1    0    0    0    0  0.00000000000E+00  0.00000000000E+00  0.45593999997E+02  0.45594000000E+02  0.51100000000E-03 0.  1.
         11   -1    0    0    0    0 -0.00000000000E+00 -0.00000000000E+00 -0.45593999997E+02  0.45594000000E+02  0.51100000000E-03 0. -1.
    9900012    2    1    2    0    0 -0.10569271104E+02 -0.32001409399E+00 -0.15455046155E+02  0.72461805717E+02  0.70000306681E+02 0.  0.
        -12    1    1    2    0    0  0.10569271104E+02  0.32001409399E+00  0.15455046155E+02  0.18726194283E+02  0.00000000000E+00 0.  1.
         11    1    3    3    0    0  0.12714044662E+02  0.15827446754E+02 -0.16709119361E+02  0.26293529100E+02  0.51100000000E-03 0. -1.
        -11    1    3    3    0    0 -0.23408158446E+02 -0.88469982610E+01 -0.14416703574E+02  0.28879968876E+02  0.51100000000E-03 0.  1.
        -12    1    3    3    0    0  0.12484268023E+00 -0.73004625875E+01  0.15670776780E+02  0.17288307742E+02  0.00000000000E+00 0.  1.
</event>
<event>
 7    1  0.2688173E-013  0.7246155E+02  0.7816164E-02  0.1226708E+00
        -11   -1    0    0    0    0  0.00000000000E+00  0.00000000000E+00  0.45593999997E+02  0.45594000000E+02  0.51100000000E-03 0.  1.
         11   -1    0    0    0    0 -0.00000000000E+00 -0.00000000000E+00 -0.45593999997E+02  0.45594000000E+02  0.51100000000E-03 0. -1.
    9900012    2    1    2    0    0 -0.57468512360E+01  0.14886329776E+02 -0.98005573867E+01  0.72461547094E+02  0.69999969778E+02 0.  0.
        -12    1    1    2    0    0  0.57468512360E+01 -0.14886329776E+02  0.98005573867E+01  0.18726452906E+02  0.00000000000E+00 0.  1.
         11    1    3    3    0    0 -0.93204896706E+01 -0.15467001063E+02 -0.91676154991E+01  0.20252032584E+02  0.51100000000E-03 0. -1.
        -11    1    3    3    0    0 -0.65856861291E+01 -0.36406928324E+00 -0.15318950453E+02  0.16678550641E+02  0.51100000000E-03 0.  1.
        -12    1    3    3    0    0  0.10159324564E+02  0.30717400123E+02  0.14686008565E+02  0.35530963869E+02  0.00000000000E+00 0.  1.
</event>
<event>
 7    1  0.2688173E-013  0.7246158E+02  0.7816164E-02  0.1226708E+00
        -11   -1    0    0    0    0  0.00000000000E+00  0.00000000000E+00  0.45593999997E+02  0.45594000000E+02  0.51100000000E-03 0.  1.
         11   -1    0    0    0    0 -0.00000000000E+00 -0.00000000000E+00 -0.45593999997E+02  0.45594000000E+02  0.51100000000E-03 0. -1.
    9900012    2    1    2    0    0 -0.80227495948E+01 -0.21099309934E+01 -0.16788766033E+02  0.72461575227E+02  0.70000006426E+02 0.  0.
        -12    1    1    2    0    0  0.80227495948E+01  0.21099309934E+01  0.16788766033E+02  0.18726424773E+02  0.00000000000E+00 0.  1.
         11    1    3    3    0    0  0.39232917126E+01  0.10053833305E+02 -0.41594648080E+01  0.11566024803E+02  0.51100000000E-03 0. -1.
        -11    1    3    3    0    0 -0.26501561380E+02  0.11965933737E+02  0.19965063487E+01  0.29146223832E+02  0.51100000000E-03 0.  1.
         12    1    3    3    0    0  0.14555520073E+02 -0.24129698036E+02 -0.14625807574E+02  0.31749326593E+02  0.00000000000E+00 0. -1.
</event>
<event>
 7    1  0.2688173E-013  0.7246155E+02  0.7816164E-02  0.1226708E+00
        -11   -1    0    0    0    0  0.00000000000E+00  0.00000000000E+00  0.45593999997E+02  0.45594000000E+02  0.51100000000E-03 0.  1.
         11   -1    0    0    0    0 -0.00000000000E+00 -0.00000000000E+00 -0.45593999997E+02  0.45594000000E+02  0.51100000000E-03 0. -1.
    9900012    2    1    2    0    0  0.45075347570E+01  0.17259605831E+02 -0.56980707857E+01  0.72461551493E+02  0.69999975507E+02 0.  0.
        -12    1    1    2    0    0 -0.45075347570E+01 -0.17259605831E+02  0.56980707857E+01  0.18726448507E+02  0.00000000000E+00 0.  1.
         11    1    3    3    0    0 -0.11376554402E+01 -0.11785029858E+02 -0.71285417311E+01  0.13820177138E+02  0.51100000000E-03 0. -1.
        -11    1    3    3    0    0 -0.44703497847E+01 -0.11591544486E+02  0.99381826980E+01  0.15909601075E+02  0.51100000000E-03 0.  1.
         12    1    3    3    0    0  0.10115539982E+02  0.40636180175E+02 -0.85077117526E+01  0.42731773279E+02  0.00000000000E+00 0. -1.
</event>
<event>
 7    1  0.2688173E-013  0.7246155E+02  0.7816164E-02  0.1226708E+00
        -11   -1    0    0    0    0  0.00000000000E+00  0.00000000000E+00  0.45593999997E+02  0.45594000000E+02  0.51100000000E-03 0.  1.
         11   -1    0    0    0    0 -0.00000000000E+00 -0.00000000000E+00 -0.45593999997E+02  0.45594000000E+02  0.51100000000E-03 0. -1.
    9900012    2    1    2    0    0 -0.51205967090E+00 -0.59545187773E+01 -0.17747157191E+02  0.72461545788E+02  0.69999968076E+02 0.  0.
        -12    1    1    2    0    0  0.51205967090E+00  0.59545187773E+01  0.17747157191E+02  0.18726454212E+02  0.00000000000E+00 0.  1.
         11    1    3    3    0    0  0.14911956389E+02 -0.23480920095E+02 -0.16379407292E+02  0.32280102778E+02  0.51100000000E-03 0. -1.
        -11    1    3    3    0    0  0.60531587848E+01 -0.19038633761E+01  0.75641697626E+01  0.98733019547E+01  0.51100000000E-03 0.  1.
        -12    1    3    3    0    0 -0.21477174845E+02  0.19430264694E+02 -0.89319196622E+01  0.30308141056E+02  0.00000000000E+00 0.  1.
</event>
<event>
 7    1  0.2688173E-013  0.7246164E+02  0.7816164E-02  0.1226708E+00
        -11   -1    0    0    0    0  0.00000000000E+00  0.00000000000E+00  0.45593999997E+02  0.45594000000E+02  0.51100000000E-03 0.  1.
         11   -1    0    0    0    0 -0.00000000000E+00 -0.00000000000E+00 -0.45593999997E+02  0.45594000000E+02  0.51100000000E-03 0. -1.
    9900012    2    1    2    0    0 -0.17933654361E+01  0.17888680800E+02 -0.52397840353E+01  0.72461644319E+02  0.70000096431E+02 0.  0.
        -12    1    1    2    0    0  0.17933654361E+01 -0.17888680800E+02  0.52397840353E+01  0.18726355681E+02  0.00000000000E+00 0.  1.
         11    1    3    3    0    0 -0.92663107763E+01 -0.14721604818E+01 -0.14009870406E+02  0.16861442434E+02  0.51100000000E-03 0. -1.
        -11    1    3    3    0    0 -0.12821712844E+02 -0.59884288081E+01  0.16982173861E+02  0.22105470570E+02  0.51100000000E-03 0.  1.
         12    1    3    3    0    0  0.20294658184E+02  0.25349270090E+02 -0.82120874896E+01  0.33494731315E+02  0.00000000000E+00 0. -1.
</event>
<event>
 7    1  0.2688173E-013  0.7246162E+02  0.7816164E-02  0.1226708E+00
        -11   -1    0    0    0    0  0.00000000000E+00  0.00000000000E+00  0.45593999997E+02  0.45594000000E+02  0.51100000000E-03 0. -1.
         11   -1    0    0    0    0 -0.00000000000E+00 -0.00000000000E+00 -0.45593999997E+02  0.45594000000E+02  0.51100000000E-03 0.  1.
    9900012    2    1    2    0    0  0.96918913036E+01  0.12473950282E+01  0.15974618893E+02  0.72461622877E+02  0.70000068498E+02 0.  0.
        -12    1    1    2    0    0 -0.96918913036E+01 -0.12473950282E+01 -0.15974618893E+02  0.18726377123E+02  0.00000000000E+00 0.  1.
         11    1    3    3    0    0  0.28809654162E+01  0.12941106388E+02  0.18184893357E+02  0.22504722681E+02  0.51100000000E-03 0. -1.
        -11    1    3    3    0    0 -0.11123780437E+02  0.12668385753E+02  0.71173758219E+01  0.18299823159E+02  0.51100000000E-03 0.  1.
         12    1    3    3    0    0  0.17934706324E+02 -0.24362097112E+02 -0.93276502864E+01  0.31657077037E+02  0.00000000000E+00 0. -1.
</event>
<event>
 7    1  0.2688173E-013  0.7246158E+02  0.7816164E-02  0.1226708E+00
        -11   -1    0    0    0    0  0.00000000000E+00  0.00000000000E+00  0.45593999997E+02  0.45594000000E+02  0.51100000000E-03 0.  1.
         11   -1    0    0    0    0 -0.00000000000E+00 -0.00000000000E+00 -0.45593999997E+02  0.45594000000E+02  0.51100000000E-03 0. -1.
    9900012    2    1    2    0    0 -0.12201800380E+02  0.44811150175E+01 -0.13480149152E+02  0.72461581616E+02  0.70000014749E+02 0.  0.
        -12    1    1    2    0    0  0.12201800380E+02 -0.44811150175E+01  0.13480149152E+02  0.18726418384E+02  0.00000000000E+00 0.  1.
         11    1    3    3    0    0  0.55798296933E+01 -0.18894570189E+01  0.12963427334E+02  0.14239206289E+02  0.51100000000E-03 0. -1.
        -11    1    3    3    0    0  0.10016048314E+02  0.12190721456E+02  0.43153310348E+01  0.16357169549E+02  0.51100000000E-03 0.  1.
         12    1    3    3    0    0 -0.27797678388E+02 -0.58201494191E+01 -0.30758907521E+02  0.41865205779E+02  0.00000000000E+00 0. -1.
</event>
<event>
 7    1  0.2688173E-013  0.7246152E+02  0.7816164E-02  0.1226708E+00
        -11   -1    0    0    0    0  0.00000000000E+00  0.00000000000E+00  0.45593999997E+02  0.45594000000E+02  0.51100000000E-03 0. -1.
         11   -1    0    0    0    0 -0.00000000000E+00 -0.00000000000E+00 -0.45593999997E+02  0.45594000000E+02  0.51100000000E-03 0.  1.
    9900012    2    1    2    0    0  0.13429896090E+02  0.19743415364E+01  0.12900418457E+02  0.72461523293E+02  0.69999938772E+02 0.  0.
        -12    1    1    2    0    0 -0.13429896090E+02 -0.19743415364E+01 -0.12900418457E+02  0.18726476707E+02  0.00000000000E+00 0.  1.
         11    1    3    3    0    0 -0.47000340914E+01  0.16507498949E+02  0.76679969468E+01  0.18798564292E+02  0.51100000000E-03 0. -1.
        -11    1    3    3    0    0  0.48288684415E+01  0.61922926746E+01 -0.18105343485E+02  0.19734890979E+02  0.51100000000E-03 0.  1.
        -12    1    3    3    0    0  0.13301061740E+02 -0.20725450087E+02  0.23337764995E+02  0.33928068022E+02  0.00000000000E+00 0.  1.
</event>
<event>
 7    1  0.2688173E-013  0.7246151E+02  0.7816164E-02  0.1226708E+00
        -11   -1    0    0    0    0  0.00000000000E+00  0.00000000000E+00  0.45593999997E+02  0.45594000000E+02  0.51100000000E-03 0. -1.
         11   -1    0    0    0    0 -0.00000000000E+00 -0.00000000000E+00 -0.45593999997E+02  0.45594000000E+02  0.51100000000E-03 0.  1.
    9900012    2    1    2    0    0 -0.95522471086E+01  0.14016978813E+02 -0.79347634684E+01  0.72461505636E+02  0.69999915770E+02 0.  0.
        -12    1    1    2    0    0  0.95522471086E+01 -0.14016978813E+02  0.79347634684E+01  0.18726494364E+02  0.00000000000E+00 0.  1.
         11    1    3    3    0    0 -0.74274864028E+00  0.28759672408E+01  0.15035072785E+02  0.15325673787E+02  0.51100000000E-03 0. -1.
        -11    1    3    3    0    0 -0.24762542206E+02  0.11439737152E+02 -0.29243967396E+02  0.39990757831E+02  0.51100000000E-03 0.  1.
         12    1    3    3    0    0  0.15953043737E+02 -0.29872557970E+00  0.62741311424E+01  0.17145074017E+02  0.00000000000E+00 0. -1.
</event>
<event>
 7    1  0.2688173E-013  0.7246156E+02  0.7816164E-02  0.1226708E+00
        -11   -1    0    0    0    0  0.00000000000E+00  0.00000000000E+00  0.45593999997E+02  0.45594000000E+02  0.51100000000E-03 0.  1.
         11   -1    0    0    0    0 -0.00000000000E+00 -0.00000000000E+00 -0.45593999997E+02  0.45594000000E+02  0.51100000000E-03 0. -1.
    9900012    2    1    2    0    0 -0.15357985635E+02 -0.10681169164E+02 -0.85109061816E+00  0.72461562733E+02  0.69999990150E+02 0.  0.
        -12    1    1    2    0    0  0.15357985635E+02  0.10681169164E+02  0.85109061816E+00  0.18726437267E+02  0.00000000000E+00 0.  1.
         11    1    3    3    0    0 -0.45725081680E+01  0.56327305459E+01 -0.23940113923E+01  0.76398151258E+01  0.51100000000E-03 0. -1.
        -11    1    3    3    0    0 -0.18452566946E+02 -0.33980738905E+02 -0.12884991977E+02  0.40757954585E+02  0.51100000000E-03 0.  1.
         12    1    3    3    0    0  0.76670894792E+01  0.17666839195E+02  0.14427912751E+02  0.24063793022E+02  0.00000000000E+00 0. -1.
</event>
<event>
 7    1  0.2688173E-013  0.7246157E+02  0.7816164E-02  0.1226708E+00
        -11   -1    0    0    0    0  0.00000000000E+00  0.00000000000E+00  0.45593999997E+02  0.45594000000E+02  0.51100000000E-03 0. -1.
         11   -1    0    0    0    0 -0.00000000000E+00 -0.00000000000E+00 -0.45593999997E+02  0.45594000000E+02  0.51100000000E-03 0.  1.
    9900012    2    1    2    0    0 -0.10182660663E+02 -0.84001341469E+00  0.15693531389E+02  0.72461571398E+02  0.70000001438E+02 0.  0.
        -12    1    1    2    0    0  0.10182660663E+02  0.84001341469E+00 -0.15693531389E+02  0.18726428602E+02  0.00000000000E+00 0.  1.
         11    1    3    3    0    0 -0.20973215049E+02 -0.15975958534E+02  0.23343088949E+01  0.26468018415E+02  0.51100000000E-03 0. -1.
        -11    1    3    3    0    0  0.11991549381E+02 -0.11711145287E+02  0.22415909438E+01  0.16910733595E+02  0.51100000000E-03 0.  1.
        -12    1    3    3    0    0 -0.12009949949E+01  0.26847090406E+02  0.11117631551E+02  0.29082819388E+02  0.00000000000E+00 0.  1.
</event>
<event>
 7    1  0.2688173E-013  0.7246161E+02  0.7816164E-02  0.1226708E+00
        -11   -1    0    0    0    0  0.00000000000E+00  0.00000000000E+00  0.45593999997E+02  0.45594000000E+02  0.51100000000E-03 0.  1.
         11   -1    0    0    0    0 -0.00000000000E+00 -0.00000000000E+00 -0.45593999997E+02  0.45594000000E+02  0.51100000000E-03 0. -1.
    9900012    2    1    2    0    0 -0.44535477865E+01  0.18142008885E+02 -0.13080603333E+01  0.72461612305E+02  0.70000054726E+02 0.  0.
        -12    1    1    2    0    0  0.44535477865E+01 -0.18142008885E+02  0.13080603333E+01  0.18726387695E+02  0.00000000000E+00 0.  1.
         11    1    3    3    0    0  0.13687899927E+02  0.30112501643E+02 -0.21149573123E+01  0.33145050978E+02  0.51100000000E-03 0. -1.
        -11    1    3    3    0    0  0.95535100822E+01 -0.15697036489E+01  0.99315216227E+00  0.97324136736E+01  0.51100000000E-03 0.  1.
         12    1    3    3    0    0 -0.27694957796E+02 -0.10400789109E+02 -0.18625518327E+00  0.29584147654E+02  0.00000000000E+00 0. -1.
</event>
<event>
 7    1  0.2688173E-013  0.7246157E+02  0.7816164E-02  0.1226708E+00
        -11   -1    0    0    0    0  0.00000000000E+00  0.00000000000E+00  0.45593999997E+02  0.45594000000E+02  0.51100000000E-03 0. -1.
         11   -1    0    0    0    0 -0.00000000000E+00 -0.00000000000E+00 -0.45593999997E+02  0.45594000000E+02  0.51100000000E-03 0.  1.
    9900012    2    1    2    0    0  0.18650507990E+02 -0.11101643861E+01  0.12670020347E+01  0.72461569283E+02  0.69999998682E+02 0.  0.
        -12    1    1    2    0    0 -0.18650507990E+02  0.11101643861E+01 -0.12670020347E+01  0.18726430717E+02  0.00000000000E+00 0.  1.
         11    1    3    3    0    0  0.14978545574E+02  0.81346862534E+01  0.80662515951E+01  0.18857209841E+02  0.51100000000E-03 0. -1.
        -11    1    3    3    0    0  0.23152137580E+02  0.31857196263E+01 -0.16431772075E+02  0.28568748973E+02  0.51100000000E-03 0.  1.
         12    1    3    3    0    0 -0.19480175164E+02 -0.12430570266E+02  0.96325225148E+01  0.25035610469E+02  0.00000000000E+00 0. -1.
</event>
<event>
 7    1  0.2688173E-013  0.7246156E+02  0.7816164E-02  0.1226708E+00
        -11   -1    0    0    0    0  0.00000000000E+00  0.00000000000E+00  0.45593999997E+02  0.45594000000E+02  0.51100000000E-03 0.  1.
         11   -1    0    0    0    0 -0.00000000000E+00 -0.00000000000E+00 -0.45593999997E+02  0.45594000000E+02  0.51100000000E-03 0. -1.
    9900012    2    1    2    0    0 -0.13437946987E+02  0.28599776500E+01 -0.12724843619E+02  0.72461560496E+02  0.69999987235E+02 0.  0.
        -12    1    1    2    0    0  0.13437946987E+02 -0.28599776500E+01  0.12724843619E+02  0.18726439504E+02  0.00000000000E+00 0.  1.
         11    1    3    3    0    0  0.10213309052E+02  0.28262775948E+02  0.10717677509E+01  0.30070664649E+02  0.51100000000E-03 0. -1.
        -11    1    3    3    0    0 -0.58959724835E+01  0.29635074135E+01 -0.27638146461E+01  0.71542672144E+01  0.51100000000E-03 0.  1.
        -12    1    3    3    0    0 -0.17755283555E+02 -0.28366305711E+02 -0.11032796724E+02  0.35236628632E+02  0.00000000000E+00 0.  1.
</event>
<event>
 7    1  0.2688173E-013  0.7246152E+02  0.7816164E-02  0.1226708E+00
        -11   -1    0    0    0    0  0.00000000000E+00  0.00000000000E+00  0.45593999997E+02  0.45594000000E+02  0.51100000000E-03 0. -1.
         11   -1    0    0    0    0 -0.00000000000E+00 -0.00000000000E+00 -0.45593999997E+02  0.45594000000E+02  0.51100000000E-03 0.  1.
    9900012    2    1    2    0    0 -0.10505352051E+01 -0.18119401326E+02  0.46113755759E+01  0.72461518395E+02  0.69999932391E+02 0.  0.
        -12    1    1    2    0    0  0.10505352051E+01  0.18119401326E+02 -0.46113755759E+01  0.18726481605E+02  0.00000000000E+00 0.  1.
         11    1    3    3    0    0 -0.39865207039E+01  0.37824955488E+00  0.21249860478E+02  0.21623875477E+02  0.51100000000E-03 0. -1.
        -11    1    3    3    0    0  0.16287415025E+02 -0.20523343296E+02  0.36622358622E+01  0.26455613393E+02  0.51100000000E-03 0.  1.
        -12    1    3    3    0    0 -0.13351429526E+02  0.20256924152E+01 -0.20300720764E+02  0.24382029524E+02  0.00000000000E+00 0.  1.
</event>
<event>
 7    1  0.2688173E-013  0.7246166E+02  0.7816164E-02  0.1226708E+00
        -11   -1    0    0    0    0  0.00000000000E+00  0.00000000000E+00  0.45593999997E+02  0.45594000000E+02  0.51100000000E-03 0.  1.
         11   -1    0    0    0    0 -0.00000000000E+00 -0.00000000000E+00 -0.45593999997E+02  0.45594000000E+02  0.51100000000E-03 0. -1.
    9900012    2    1    2    0    0  0.31425800356E+01 -0.17395358610E+02 -0.61807381563E+01  0.72461659337E+02  0.70000115995E+02 0.  0.
        -12    1    1    2    0    0 -0.31425800356E+01  0.17395358610E+02  0.61807381563E+01  0.18726340663E+02  0.00000000000E+00 0.  1.
         11    1    3    3    0    0 -0.61936929374E+01  0.17089061377E+01 -0.37948112051E+01  0.74620898369E+01  0.51100000000E-03 0. -1.
        -11    1    3    3    0    0 -0.17241413883E+02  0.14102140328E+02 -0.29109432834E+01  0.22463532793E+02  0.51100000000E-03 0.  1.
         12    1    3    3    0    0  0.26577686856E+02 -0.33206405075E+02  0.52501633214E+00  0.42536036707E+02  0.00000000000E+00 0. -1.
</event>
<event>
 7    1  0.2688173E-013  0.7246169E+02  0.7816164E-02  0.1226708E+00
        -11   -1    0    0    0    0  0.00000000000E+00  0.00000000000E+00  0.45593999997E+02  0.45594000000E+02  0.51100000000E-03 0.  1.
         11   -1    0    0    0    0 -0.00000000000E+00 -0.00000000000E+00 -0.45593999997E+02  0.45594000000E+02  0.51100000000E-03 0. -1.
    9900012    2    1    2    0    0  0.80600261409E+01 -0.97088095479E+01 -0.13836528783E+02  0.72461694091E+02  0.70000161268E+02 0.  0.
        -12    1    1    2    0    0 -0.80600261409E+01  0.97088095479E+01  0.13836528783E+02  0.18726305909E+02  0.00000000000E+00 0.  1.
         11    1    3    3    0    0 -0.16547829767E+02 -0.15086463149E+02  0.17506152424E+01  0.22461003858E+02  0.51100000000E-03 0. -1.
        -11    1    3    3    0    0  0.24445494672E+02  0.29070830751E+01  0.83047851510E+01  0.25980815969E+02  0.51100000000E-03 0.  1.
         12    1    3    3    0    0  0.16236123625E+00  0.24705705258E+01 -0.23891929176E+02  0.24019874264E+02  0.00000000000E+00 0. -1.
</event>
<event>
 7    1  0.2688173E-013  0.7246160E+02  0.7816164E-02  0.1226708E+00
        -11   -1    0    0    0    0  0.00000000000E+00  0.00000000000E+00  0.45593999997E+02  0.45594000000E+02  0.51100000000E-03 0.  1.
         11   -1    0    0    0    0 -0.00000000000E+00 -0.00000000000E+00 -0.45593999997E+02  0.45594000000E+02  0.51100000000E-03 0. -1.
    9900012    2    1    2    0    0  0.62659158007E+01 -0.66028390563E+01 -0.16365167958E+02  0.72461604012E+02  0.70000043923E+02 0.  0.
        -12    1    1    2    0    0 -0.62659158007E+01  0.66028390563E+01  0.16365167958E+02  0.18726395988E+02  0.00000000000E+00 0.  1.
         11    1    3    3    0    0 -0.16194012423E+02  0.13332913609E+02 -0.14931690841E+01  0.21029554866E+02  0.51100000000E-03 0. -1.
        -11    1    3    3    0    0 -0.82671275279E+00 -0.32856543268E+00  0.11270468441E+02  0.11305523798E+02  0.51100000000E-03 0.  1.
         12    1    3    3    0    0  0.23286640977E+02 -0.19607187233E+02 -0.26142467315E+02  0.40126525347E+02  0.00000000000E+00 0. -1.
</event>
<event>
 7    1  0.2688173E-013  0.7246163E+02  0.7816164E-02  0.1226708E+00
        -11   -1    0    0    0    0  0.00000000000E+00  0.00000000000E+00  0.45593999997E+02  0.45594000000E+02  0.51100000000E-03 0. -1.
         11   -1    0    0    0    0 -0.00000000000E+00 -0.00000000000E+00 -0.45593999997E+02  0.45594000000E+02  0.51100000000E-03 0.  1.
    9900012    2    1    2    0    0 -0.21952180573E-01  0.16717328781E+02 -0.84384422682E+01  0.72461631655E+02  0.70000079933E+02 0.  0.
        -12    1    1    2    0    0  0.21952180573E-01 -0.16717328781E+02  0.84384422682E+01  0.18726368345E+02  0.00000000000E+00 0.  1.
         11    1    3    3    0    0  0.10912663732E+00  0.36984971429E+02  0.56594076459E+00  0.36989462140E+02  0.51100000000E-03 0. -1.
        -11    1    3    3    0    0 -0.12175161389E+00  0.59599271016E+01  0.29471143809E+01  0.66498900703E+01  0.51100000000E-03 0.  1.
        -12    1    3    3    0    0 -0.93272040028E-02 -0.26227569749E+02 -0.11951497414E+02  0.28822279444E+02  0.00000000000E+00 0.  1.
</event>
<event>
 7    1  0.2688173E-013  0.7246159E+02  0.7816164E-02  0.1226708E+00
        -11   -1    0    0    0    0  0.00000000000E+00  0.00000000000E+00  0.45593999997E+02  0.45594000000E+02  0.51100000000E-03 0. -1.
         11   -1    0    0    0    0 -0.00000000000E+00 -0.00000000000E+00 -0.45593999997E+02  0.45594000000E+02  0.51100000000E-03 0.  1.
    9900012    2    1    2    0    0 -0.17159817560E+02 -0.74611744364E+01 -0.74155941237E+00  0.72461591561E+02  0.70000027703E+02 0.  0.
        -12    1    1    2    0    0  0.17159817560E+02  0.74611744364E+01  0.74155941237E+00  0.18726408439E+02  0.00000000000E+00 0.  1.
         11    1    3    3    0    0  0.19211285031E+02 -0.39532784130E+01  0.59381136905E+00  0.19622805481E+02  0.51100000000E-03 0. -1.
        -11    1    3    3    0    0  0.77524495100E+01  0.41798535844E-01 -0.35298087533E+01  0.85183197063E+01  0.51100000000E-03 0.  1.
        -12    1    3    3    0    0 -0.44123552101E+02 -0.35496945592E+01  0.21944379718E+01  0.44320466373E+02  0.00000000000E+00 0.  1.
</event>
<event>
 7    1  0.2688173E-013  0.7246158E+02  0.7816164E-02  0.1226708E+00
        -11   -1    0    0    0    0  0.00000000000E+00  0.00000000000E+00  0.45593999997E+02  0.45594000000E+02  0.51100000000E-03 0. -1.
         11   -1    0    0    0    0 -0.00000000000E+00 -0.00000000000E+00 -0.45593999997E+02  0.45594000000E+02  0.51100000000E-03 0.  1.
    9900012    2    1    2    0    0  0.57280091215E+01  0.27288045905E+01  0.17618811033E+02  0.72461575749E+02  0.70000007106E+02 0.  0.
        -12    1    1    2    0    0 -0.57280091215E+01 -0.27288045905E+01 -0.17618811033E+02  0.18726424251E+02  0.00000000000E+00 0.  1.
         11    1    3    3    0    0  0.18666162339E+01 -0.48922292431E+01  0.52591706041E+01  0.74213906268E+01  0.51100000000E-03 0. -1.
        -11    1    3    3    0    0  0.14198087857E+01  0.16835626282E+02  0.35881421284E+02  0.39660188639E+02  0.51100000000E-03 0.  1.
         12    1    3    3    0    0  0.24415841020E+01 -0.92145924485E+01 -0.23521780855E+02  0.25379996483E+02  0.00000000000E+00 0. -1.
</event>
<event>
 7    1  0.2688173E-013  0.7246154E+02  0.7816164E-02  0.1226708E+00
        -11   -1    0    0    0    0  0.00000000000E+00  0.00000000000E+00  0.45593999997E+02  0.45594000000E+02  0.51100000000E-03 0.  1.
         11   -1    0    0    0    0 -0.00000000000E+00 -0.00000000000E+00 -0.45593999997E+02  0.45594000000E+02  0.51100000000E-03 0. -1.
    9900012    2    1    2    0    0  0.14408478886E+01  0.17703866232E+02 -0.59310413787E+01  0.72461543474E+02  0.69999965061E+02 0.  0.
        -12    1    1    2    0    0 -0.14408478886E+01 -0.17703866232E+02  0.59310413787E+01  0.18726456526E+02  0.00000000000E+00 0.  1.
         11    1    3    3    0    0  0.12816104841E+01  0.14278516724E+01  0.44891669874E+01  0.48819981906E+01  0.51100000000E-03 0. -1.
        -11    1    3    3    0    0 -0.13296763755E+01 -0.13854043180E+02  0.20242298979E+02  0.24565284853E+02  0.51100000000E-03 0.  1.
         12    1    3    3    0    0  0.14889137800E+01  0.30130057739E+02 -0.30662507345E+02  0.43014260430E+02  0.00000000000E+00 0. -1.
</event>
<event>
 7    1  0.2688173E-013  0.7246158E+02  0.7816164E-02  0.1226708E+00
        -11   -1    0    0    0    0  0.00000000000E+00  0.00000000000E+00  0.45593999997E+02  0.45594000000E+02  0.51100000000E-03 0.  1.
         11   -1    0    0    0    0 -0.00000000000E+00 -0.00000000000E+00 -0.45593999997E+02  0.45594000000E+02  0.51100000000E-03 0. -1.
    9900012    2    1    2    0    0  0.98915123452E+01  0.12031306168E+02  0.10396373690E+02  0.72461576677E+02  0.70000008314E+02 0.  0.
        -12    1    1    2    0    0 -0.98915123452E+01 -0.12031306168E+02 -0.10396373690E+02  0.18726423323E+02  0.00000000000E+00 0.  1.
         11    1    3    3    0    0  0.18036391270E+02 -0.51234330220E+01 -0.15745454517E+02  0.24484287087E+02  0.51100000000E-03 0. -1.
        -11    1    3    3    0    0 -0.11610910818E+02 -0.72672467662E+01  0.27259868844E+01  0.13966285488E+02  0.51100000000E-03 0.  1.
        -12    1    3    3    0    0  0.34660318935E+01  0.24421985956E+02  0.23415841323E+02  0.34011004101E+02  0.00000000000E+00 0.  1.
</event>
<event>
 7    1  0.2688173E-013  0.7246147E+02  0.7816164E-02  0.1226708E+00
        -11   -1    0    0    0    0  0.00000000000E+00  0.00000000000E+00  0.45593999997E+02  0.45594000000E+02  0.51100000000E-03 0. -1.
         11   -1    0    0    0    0 -0.00000000000E+00 -0.00000000000E+00 -0.45593999997E+02  0.45594000000E+02  0.51100000000E-03 0.  1.
    9900012    2    1    2    0    0  0.16862838306E+02 -0.80503145329E+01  0.12328728999E+01  0.72461471881E+02  0.69999871798E+02 0.  0.
        -12    1    1    2    0    0 -0.16862838306E+02  0.80503145329E+01 -0.12328728999E+01  0.18726528119E+02  0.00000000000E+00 0.  1.
         11    1    3    3    0    0 -0.20420822019E+02 -0.97795769991E+01 -0.34975801647E+01  0.22910328794E+02  0.51100000000E-03 0. -1.
        -11    1    3    3    0    0 -0.60002460537E+01  0.12936033065E+00  0.89811966662E+00  0.60684681755E+01  0.51100000000E-03 0.  1.
        -12    1    3    3    0    0  0.43283906378E+02  0.15999021355E+01  0.38323333979E+01  0.43482674911E+02  0.00000000000E+00 0.  1.
</event>
<event>
 7    1  0.2688173E-013  0.7246166E+02  0.7816164E-02  0.1226708E+00
        -11   -1    0    0    0    0  0.00000000000E+00  0.00000000000E+00  0.45593999997E+02  0.45594000000E+02  0.51100000000E-03 0.  1.
         11   -1    0    0    0    0 -0.00000000000E+00 -0.00000000000E+00 -0.45593999997E+02  0.45594000000E+02  0.51100000000E-03 0. -1.
    9900012    2    1    2    0    0 -0.11216102984E+02  0.11419065598E+02 -0.97200804523E+01  0.72461655208E+02  0.70000110616E+02 0.  0.
        -12    1    1    2    0    0  0.11216102984E+02 -0.11419065598E+02  0.97200804523E+01  0.18726344792E+02  0.00000000000E+00 0.  1.
         11    1    3    3    0    0 -0.25080696954E+02  0.20476049561E+02 -0.68655384912E+01  0.33097516287E+02  0.51100000000E-03 0. -1.
        -11    1    3    3    0    0  0.47594169375E+01 -0.10958988806E+02 -0.17991656884E+02  0.21597481402E+02  0.51100000000E-03 0.  1.
        -12    1    3    3    0    0  0.91051770332E+01  0.19020048426E+01  0.15137114922E+02  0.17766657519E+02  0.00000000000E+00 0.  1.
</event>
<event>
 7    1  0.2688173E-013  0.7246160E+02  0.7816164E-02  0.1226708E+00
        -11   -1    0    0    0    0  0.00000000000E+00  0.00000000000E+00  0.45593999997E+02  0.45594000000E+02  0.51100000000E-03 0. -1.
         11   -1    0    0    0    0 -0.00000000000E+00 -0.00000000000E+00 -0.45593999997E+02  0.45594000000E+02  0.51100000000E-03 0.  1.
    9900012    2    1    2    0    0 -0.15403157012E+02 -0.10219156486E+02 -0.29982847318E+01  0.72461598409E+02  0.70000036625E+02 0.  0.
        -12    1    1    2    0    0  0.15403157012E+02  0.10219156486E+02  0.29982847318E+01  0.18726401591E+02  0.00000000000E+00 0.  1.
         11    1    3    3    0    0 -0.28153639777E+02 -0.97280360059E+00 -0.54541139548E+01  0.28693573128E+02  0.51100000000E-03 0. -1.
        -11    1    3    3    0    0 -0.13302367047E+02  0.86508440948E+00 -0.59311507900E+01  0.14590404040E+02  0.51100000000E-03 0.  1.
        -12    1    3    3    0    0  0.26052849813E+02 -0.10111437295E+02  0.83869800130E+01  0.29177621241E+02  0.00000000000E+00 0.  1.
</event>
<event>
 7    1  0.2688173E-013  0.7246154E+02  0.7816164E-02  0.1226708E+00
        -11   -1    0    0    0    0  0.00000000000E+00  0.00000000000E+00  0.45593999997E+02  0.45594000000E+02  0.51100000000E-03 0.  1.
         11   -1    0    0    0    0 -0.00000000000E+00 -0.00000000000E+00 -0.45593999997E+02  0.45594000000E+02  0.51100000000E-03 0. -1.
    9900012    2    1    2    0    0 -0.12826427797E+02  0.10451923418E+02 -0.87704338247E+01  0.72461535768E+02  0.69999955023E+02 0.  0.
        -12    1    1    2    0    0  0.12826427797E+02 -0.10451923418E+02  0.87704338247E+01  0.18726464232E+02  0.00000000000E+00 0.  1.
         11    1    3    3    0    0  0.53414795468E+01  0.64209619961E+01  0.65893205784E+01  0.10638576157E+02  0.51100000000E-03 0. -1.
        -11    1    3    3    0    0 -0.63195934045E+01  0.25056857821E+00  0.21767689508E+02  0.22667870482E+02  0.51100000000E-03 0.  1.
         12    1    3    3    0    0 -0.11848313939E+02  0.37803928438E+01 -0.37127443911E+02  0.39155089128E+02  0.00000000000E+00 0. -1.
</event>
<event>
 7    1  0.2688173E-013  0.7246156E+02  0.7816164E-02  0.1226708E+00
        -11   -1    0    0    0    0  0.00000000000E+00  0.00000000000E+00  0.45593999997E+02  0.45594000000E+02  0.51100000000E-03 0. -1.
         11   -1    0    0    0    0 -0.00000000000E+00 -0.00000000000E+00 -0.45593999997E+02  0.45594000000E+02  0.51100000000E-03 0.  1.
    9900012    2    1    2    0    0 -0.15575000509E+02  0.86735836424E+01 -0.57330571241E+01  0.72461557785E+02  0.69999983704E+02 0.  0.
        -12    1    1    2    0    0  0.15575000509E+02 -0.86735836424E+01  0.57330571241E+01  0.18726442215E+02  0.00000000000E+00 0.  1.
         11    1    3    3    0    0 -0.25276916986E+02 -0.29533784722E+01  0.13092668126E+02  0.28619275596E+02  0.51100000000E-03 0. -1.
        -11    1    3    3    0    0 -0.11750099713E+02  0.41930754561E+01 -0.16970741786E+02  0.21063067252E+02  0.51100000000E-03 0.  1.
        -12    1    3    3    0    0  0.21452016190E+02  0.74338866585E+01 -0.18549834642E+01  0.22779214937E+02  0.00000000000E+00 0.  1.
</event>
<event>
 7    1  0.2688173E-013  0.7246157E+02  0.7816164E-02  0.1226708E+00
        -11   -1    0    0    0    0  0.00000000000E+00  0.00000000000E+00  0.45593999997E+02  0.45594000000E+02  0.51100000000E-03 0.  1.
         11   -1    0    0    0    0 -0.00000000000E+00 -0.00000000000E+00 -0.45593999997E+02  0.45594000000E+02  0.51100000000E-03 0. -1.
    9900012    2    1    2    0    0 -0.23343359653E+01 -0.22246516945E+01 -0.18446704466E+02  0.72461572012E+02  0.70000002237E+02 0.  0.
        -12    1    1    2    0    0  0.23343359653E+01  0.22246516945E+01  0.18446704466E+02  0.18726427988E+02  0.00000000000E+00 0.  1.
         11    1    3    3    0    0 -0.58019689949E+01  0.44484559164E+01 -0.24156077954E+02  0.25238219165E+02  0.51100000000E-03 0. -1.
        -11    1    3    3    0    0  0.17384020149E+02 -0.46177657482E+01 -0.14150594782E+02  0.22885961854E+02  0.51100000000E-03 0.  1.
        -12    1    3    3    0    0 -0.13916387119E+02 -0.20553418627E+01  0.19859968270E+02  0.24337390992E+02  0.00000000000E+00 0.  1.
</event>
<event>
 7    1  0.2688173E-013  0.7246152E+02  0.7816164E-02  0.1226708E+00
        -11   -1    0    0    0    0  0.00000000000E+00  0.00000000000E+00  0.45593999997E+02  0.45594000000E+02  0.51100000000E-03 0. -1.
         11   -1    0    0    0    0 -0.00000000000E+00 -0.00000000000E+00 -0.45593999997E+02  0.45594000000E+02  0.51100000000E-03 0.  1.
    9900012    2    1    2    0    0  0.17473782471E+02  0.25182352664E+01  0.62455073195E+01  0.72461522905E+02  0.69999938267E+02 0.  0.
        -12    1    1    2    0    0 -0.17473782471E+02 -0.25182352664E+01 -0.62455073195E+01  0.18726477095E+02  0.00000000000E+00 0.  1.
         11    1    3    3    0    0 -0.20270934275E+02  0.62330104818E+01  0.40519802757E+01  0.21591195902E+02  0.51100000000E-03 0. -1.
        -11    1    3    3    0    0 -0.58377190882E+01  0.11915773502E+01  0.36521379251E+01  0.69883426089E+01  0.51100000000E-03 0.  1.
        -12    1    3    3    0    0  0.43582435834E+02 -0.49063525656E+01 -0.14586108813E+01  0.43881984395E+02  0.00000000000E+00 0.  1.
</event>
<event>
 7    1  0.2688173E-013  0.7246160E+02  0.7816164E-02  0.1226708E+00
        -11   -1    0    0    0    0  0.00000000000E+00  0.00000000000E+00  0.45593999997E+02  0.45594000000E+02  0.51100000000E-03 0.  1.
         11   -1    0    0    0    0 -0.00000000000E+00 -0.00000000000E+00 -0.45593999997E+02  0.45594000000E+02  0.51100000000E-03 0. -1.
    9900012    2    1    2    0    0  0.16827090192E+02  0.73698059513E+01 -0.36350003586E+01  0.72461595335E+02  0.70000032620E+02 0.  0.
        -12    1    1    2    0    0 -0.16827090192E+02 -0.73698059513E+01  0.36350003586E+01  0.18726404665E+02  0.00000000000E+00 0.  1.
         11    1    3    3    0    0 -0.95287834303E+01  0.57411365085E+00 -0.11563251019E+02  0.14994535489E+02  0.51100000000E-03 0. -1.
        -11    1    3    3    0    0 -0.14247638745E+02  0.76750032673E+01  0.39586790100E+01  0.16660492931E+02  0.51100000000E-03 0.  1.
        -12    1    3    3    0    0  0.40603512366E+02 -0.87931096680E+00  0.39695716503E+01  0.40806566915E+02  0.00000000000E+00 0.  1.
</event>
<event>
 7    1  0.2688173E-013  0.7246160E+02  0.7816164E-02  0.1226708E+00
        -11   -1    0    0    0    0  0.00000000000E+00  0.00000000000E+00  0.45593999997E+02  0.45594000000E+02  0.51100000000E-03 0.  1.
         11   -1    0    0    0    0 -0.00000000000E+00 -0.00000000000E+00 -0.45593999997E+02  0.45594000000E+02  0.51100000000E-03 0. -1.
    9900012    2    1    2    0    0  0.73628135416E+01 -0.10576948269E+02 -0.13586581186E+02  0.72461600286E+02  0.70000039070E+02 0.  0.
        -12    1    1    2    0    0 -0.73628135416E+01  0.10576948269E+02  0.13586581186E+02  0.18726399714E+02  0.00000000000E+00 0.  1.
         11    1    3    3    0    0  0.17888244339E+02 -0.12706651115E+02  0.20431087140E+01  0.22036845545E+02  0.51100000000E-03 0. -1.
        -11    1    3    3    0    0  0.17476320989E+02 -0.27277366462E+01  0.59824118347E+00  0.17698029136E+02  0.51100000000E-03 0.  1.
         12    1    3    3    0    0 -0.28001751787E+02  0.48574394924E+01 -0.16227931083E+02  0.32726725604E+02  0.00000000000E+00 0. -1.
</event>
<event>
 7    1  0.2688173E-013  0.7246159E+02  0.7816164E-02  0.1226708E+00
        -11   -1    0    0    0    0  0.00000000000E+00  0.00000000000E+00  0.45593999997E+02  0.45594000000E+02  0.51100000000E-03 0.  1.
         11   -1    0    0    0    0 -0.00000000000E+00 -0.00000000000E+00 -0.45593999997E+02  0.45594000000E+02  0.51100000000E-03 0. -1.
    9900012    2    1    2    0    0  0.16356396556E+02 -0.89827791329E+01 -0.15672750279E+01  0.72461591368E+02  0.70000027453E+02 0.  0.
        -12    1    1    2    0    0 -0.16356396556E+02  0.89827791329E+01  0.15672750279E+01  0.18726408632E+02  0.00000000000E+00 0.  1.
         11    1    3    3    0    0  0.70319316006E+01 -0.89909908783E+00 -0.12483296579E+02  0.14355804922E+02  0.51100000000E-03 0. -1.
        -11    1    3    3    0    0  0.30161126512E+02 -0.82179771966E+01 -0.52942949585E+01  0.31705808002E+02  0.51100000000E-03 0.  1.
        -12    1    3    3    0    0 -0.20836661557E+02  0.13429715156E+00  0.16210316510E+02  0.26399978445E+02  0.00000000000E+00 0.  1.
</event>
<event>
 7    1  0.2784456E-013  0.7246168E+02  0.7816164E-02  0.1226708E+00
        -11   -1    0    0    0    0  0.00000000000E+00  0.00000000000E+00  0.45593999997E+02  0.45594000000E+02  0.51100000000E-03 0. -1.
         11   -1    0    0    0    0 -0.00000000000E+00 -0.00000000000E+00 -0.45593999997E+02  0.45594000000E+02  0.51100000000E-03 0.  1.
    9900012    2    1    2    0    0  0.13601058507E+02  0.83568992709E+01  0.97902192077E+01  0.72461682955E+02  0.70000146761E+02 0.  0.
        -12    1    1    2    0    0 -0.13601058507E+02 -0.83568992709E+01 -0.97902192077E+01  0.18726317045E+02  0.00000000000E+00 0.  1.
         11    1    3    3    0    0 -0.29580752273E+01  0.34768842393E+01 -0.91016414188E+00  0.46548181586E+01  0.51100000000E-03 0. -1.
        -11    1    3    3    0    0 -0.35806343874E+01  0.13153548602E+02 -0.23556288867E+02  0.27216456950E+02  0.51100000000E-03 0.  1.
         12    1    3    3    0    0  0.20139768122E+02 -0.82735335708E+01  0.34256672217E+02  0.40590407846E+02  0.00000000000E+00 0. -1.
</event>
<event>
 7    1  0.2688173E-013  0.7246145E+02  0.7816164E-02  0.1226708E+00
        -11   -1    0    0    0    0  0.00000000000E+00  0.00000000000E+00  0.45593999997E+02  0.45594000000E+02  0.51100000000E-03 0.  1.
         11   -1    0    0    0    0 -0.00000000000E+00 -0.00000000000E+00 -0.45593999997E+02  0.45594000000E+02  0.51100000000E-03 0. -1.
    9900012    2    1    2    0    0  0.18247084394E-01 -0.53438064613E+00 -0.18718916927E+02  0.72461448087E+02  0.69999840802E+02 0.  0.
        -12    1    1    2    0    0 -0.18247084394E-01  0.53438064613E+00  0.18718916927E+02  0.18726551913E+02  0.00000000000E+00 0.  1.
         11    1    3    3    0    0  0.19368784187E+02  0.11925272671E+02 -0.13720015711E+01  0.22786933048E+02  0.51100000000E-03 0. -1.
        -11    1    3    3    0    0  0.44773470255E+01  0.21250155606E+01  0.96350775213E+01  0.10834991768E+02  0.51100000000E-03 0.  1.
        -12    1    3    3    0    0 -0.23827884128E+02 -0.14584668878E+02 -0.26981992877E+02  0.38839523271E+02  0.00000000000E+00 0.  1.
</event>
<event>
 7    1  0.2688173E-013  0.7246154E+02  0.7816164E-02  0.1226708E+00
        -11   -1    0    0    0    0  0.00000000000E+00  0.00000000000E+00  0.45593999997E+02  0.45594000000E+02  0.51100000000E-03 0.  1.
         11   -1    0    0    0    0 -0.00000000000E+00 -0.00000000000E+00 -0.45593999997E+02  0.45594000000E+02  0.51100000000E-03 0. -1.
    9900012    2    1    2    0    0 -0.30959037560E+01  0.18314630496E+02 -0.23811467545E+01  0.72461543578E+02  0.69999965197E+02 0.  0.
        -12    1    1    2    0    0  0.30959037560E+01 -0.18314630496E+02  0.23811467545E+01  0.18726456422E+02  0.00000000000E+00 0.  1.
         11    1    3    3    0    0 -0.95325534262E+01  0.25725585765E+01 -0.58980745855E+00  0.98911832231E+01  0.51100000000E-03 0. -1.
        -11    1    3    3    0    0 -0.24621779160E+02  0.14634056233E+02 -0.10150132108E+02  0.30387707925E+02  0.51100000000E-03 0.  1.
        -12    1    3    3    0    0  0.31058428830E+02  0.11080156864E+01  0.83587928126E+01  0.32182652430E+02  0.00000000000E+00 0.  1.
</event>
<event>
 7    1  0.2688173E-013  0.7246162E+02  0.7816164E-02  0.1226708E+00
        -11   -1    0    0    0    0  0.00000000000E+00  0.00000000000E+00  0.45593999997E+02  0.45594000000E+02  0.51100000000E-03 0.  1.
         11   -1    0    0    0    0 -0.00000000000E+00 -0.00000000000E+00 -0.45593999997E+02  0.45594000000E+02  0.51100000000E-03 0. -1.
    9900012    2    1    2    0    0  0.53997215576E+01  0.17770907535E+02  0.23906672693E+01  0.72461616540E+02  0.70000060243E+02 0.  0.
        -12    1    1    2    0    0 -0.53997215576E+01 -0.17770907535E+02 -0.23906672693E+01  0.18726383460E+02  0.00000000000E+00 0.  1.
         11    1    3    3    0    0  0.12804824456E+01  0.16067808709E+02  0.11653961215E+01  0.16160824867E+02  0.51100000000E-03 0. -1.
        -11    1    3    3    0    0  0.12915989016E+02  0.26570187148E+02  0.38517645451E+01  0.29793182235E+02  0.51100000000E-03 0.  1.
        -12    1    3    3    0    0 -0.87967499039E+01 -0.24867088323E+02 -0.26264933974E+01  0.26507609437E+02  0.00000000000E+00 0.  1.
</event>
<event>
 7    1  0.2688173E-013  0.7246164E+02  0.7816164E-02  0.1226708E+00
        -11   -1    0    0    0    0  0.00000000000E+00  0.00000000000E+00  0.45593999997E+02  0.45594000000E+02  0.51100000000E-03 0.  1.
         11   -1    0    0    0    0 -0.00000000000E+00 -0.00000000000E+00 -0.45593999997E+02  0.45594000000E+02  0.51100000000E-03 0. -1.
    9900012    2    1    2    0    0 -0.76971747911E+01  0.16106145418E+02  0.56587989701E+01  0.72461643553E+02  0.70000095433E+02 0.  0.
        -12    1    1    2    0    0  0.76971747911E+01 -0.16106145418E+02 -0.56587989701E+01  0.18726356447E+02  0.00000000000E+00 0.  1.
         11    1    3    3    0    0  0.97185750962E+01  0.74084837838E+01 -0.63985889871E+00  0.12237064744E+02  0.51100000000E-03 0. -1.
        -11    1    3    3    0    0 -0.29847510740E+02  0.21912310146E+02 -0.70594361248E+01  0.37694281688E+02  0.51100000000E-03 0.  1.
        -12    1    3    3    0    0  0.12431760853E+02 -0.13214648512E+02  0.13358093994E+02  0.22530297121E+02  0.00000000000E+00 0.  1.
</event>
<event>
 7    1  0.2688173E-013  0.7246163E+02  0.7816164E-02  0.1226708E+00
        -11   -1    0    0    0    0  0.00000000000E+00  0.00000000000E+00  0.45593999997E+02  0.45594000000E+02  0.51100000000E-03 0.  1.
         11   -1    0    0    0    0 -0.00000000000E+00 -0.00000000000E+00 -0.45593999997E+02  0.45594000000E+02  0.51100000000E-03 0. -1.
    9900012    2    1    2    0    0  0.12852024066E+02 -0.11104225535E+02  0.78866020226E+01  0.72461632526E+02  0.70000081068E+02 0.  0.
        -12    1    1    2    0    0 -0.12852024066E+02  0.11104225535E+02 -0.78866020226E+01  0.18726367474E+02  0.00000000000E+00 0.  1.
         11    1    3    3    0    0  0.25503437266E+02 -0.46767474003E+00  0.20283908161E+02  0.32589583651E+02  0.51100000000E-03 0. -1.
        -11    1    3    3    0    0 -0.81708502265E+01  0.12167060776E+02 -0.47621916749E+01  0.15410341695E+02  0.51100000000E-03 0.  1.
        -12    1    3    3    0    0 -0.44805629734E+01 -0.22803611571E+02 -0.76351144632E+01  0.24461707179E+02  0.00000000000E+00 0.  1.
</event>
<event>
 7    1  0.2688173E-013  0.7246171E+02  0.7816164E-02  0.1226708E+00
        -11   -1    0    0    0    0  0.00000000000E+00  0.00000000000E+00  0.45593999997E+02  0.45594000000E+02  0.51100000000E-03 0.  1.
         11   -1    0    0    0    0 -0.00000000000E+00 -0.00000000000E+00 -0.45593999997E+02  0.45594000000E+02  0.51100000000E-03 0. -1.
    9900012    2    1    2    0    0  0.26576844983E+01 -0.12131674537E+02 -0.14015459810E+02  0.72461710254E+02  0.70000182324E+02 0.  0.
        -12    1    1    2    0    0 -0.26576844983E+01  0.12131674537E+02  0.14015459810E+02  0.18726289746E+02  0.00000000000E+00 0.  1.
         11    1    3    3    0    0  0.10059873298E+01  0.18529992980E+02  0.11600611047E+02  0.21884853833E+02  0.51100000000E-03 0.  1.
        -11    1    3    3    0    0 -0.11206850058E+02 -0.20023929289E+01 -0.27159136098E+01  0.11703813595E+02  0.51100000000E-03 0. -1.
         12    1    3    3    0    0  0.12858547226E+02 -0.28659274588E+02 -0.22900157247E+02  0.38873042827E+02  0.00000000000E+00 0. -1.
</event>
<event>
 7    1  0.2688173E-013  0.7246162E+02  0.7816164E-02  0.1226708E+00
        -11   -1    0    0    0    0  0.00000000000E+00  0.00000000000E+00  0.45593999997E+02  0.45594000000E+02  0.51100000000E-03 0. -1.
         11   -1    0    0    0    0 -0.00000000000E+00 -0.00000000000E+00 -0.45593999997E+02  0.45594000000E+02  0.51100000000E-03 0.  1.
    9900012    2    1    2    0    0  0.17795458299E+00  0.16392006656E+02  0.90524968592E+01  0.72461621561E+02  0.70000066785E+02 0.  0.
        -12    1    1    2    0    0 -0.17795458299E+00 -0.16392006656E+02 -0.90524968592E+01  0.18726378439E+02  0.00000000000E+00 0.  1.
         11    1    3    3    0    0  0.28638034241E+01 -0.55534201357E+01  0.30970798405E+01  0.69737901499E+01  0.51100000000E-03 0. -1.
        -11    1    3    3    0    0  0.24145222312E+02  0.17204728453E+02 -0.12921095765E+02  0.32341137235E+02  0.51100000000E-03 0.  1.
         12    1    3    3    0    0 -0.26831071153E+02  0.47406983389E+01  0.18876512783E+02  0.33146694176E+02  0.00000000000E+00 0. -1.
</event>
<event>
 7    1  0.2688173E-013  0.7246148E+02  0.7816164E-02  0.1226708E+00
        -11   -1    0    0    0    0  0.00000000000E+00  0.00000000000E+00  0.45593999997E+02  0.45594000000E+02  0.51100000000E-03 0.  1.
         11   -1    0    0    0    0 -0.00000000000E+00 -0.00000000000E+00 -0.45593999997E+02  0.45594000000E+02  0.51100000000E-03 0. -1.
    9900012    2    1    2    0    0  0.69217458452E+01 -0.15669316924E+02  0.75660199254E+01  0.72461475605E+02  0.69999876650E+02 0.  0.
        -12    1    1    2    0    0 -0.69217458452E+01  0.15669316924E+02 -0.75660199254E+01  0.18726524395E+02  0.00000000000E+00 0.  1.
         11    1    3    3    0    0  0.13507937575E+02 -0.21569415750E+02 -0.12746872055E+02  0.28463780859E+02  0.51100000000E-03 0. -1.
        -11    1    3    3    0    0  0.90486206626E+01  0.39359725631E+01 -0.72525501765E+01  0.12246179006E+02  0.51100000000E-03 0.  1.
        -12    1    3    3    0    0 -0.15634812392E+02  0.19641262637E+01  0.27565442157E+02  0.31751515741E+02  0.00000000000E+00 0.  1.
</event>
<event>
 7    1  0.2688173E-013  0.7246155E+02  0.7816164E-02  0.1226708E+00
        -11   -1    0    0    0    0  0.00000000000E+00  0.00000000000E+00  0.45593999997E+02  0.45594000000E+02  0.51100000000E-03 0. -1.
         11   -1    0    0    0    0 -0.00000000000E+00 -0.00000000000E+00 -0.45593999997E+02  0.45594000000E+02  0.51100000000E-03 0.  1.
    9900012    2    1    2    0    0  0.16572449642E+02 -0.86964027096E+01 -0.63753531084E+00  0.72461549229E+02  0.69999972558E+02 0.  0.
        -12    1    1    2    0    0 -0.16572449642E+02  0.86964027096E+01  0.63753531084E+00  0.18726450771E+02  0.00000000000E+00 0.  1.
         11    1    3    3    0    0 -0.81047199290E+01 -0.23321870014E+02  0.43065933496E+01  0.25062778230E+02  0.51100000000E-03 0. -1.
        -11    1    3    3    0    0  0.19474387750E+02 -0.66938199269E+01  0.78015370225E+01  0.22020966909E+02  0.51100000000E-03 0.  1.
        -12    1    3    3    0    0  0.52027818208E+01  0.21319287231E+02 -0.12745665683E+02  0.25377804090E+02  0.00000000000E+00 0.  1.
</event>
<event>
 7    1  0.2688173E-013  0.7246164E+02  0.7816164E-02  0.1226708E+00
        -11   -1    0    0    0    0  0.00000000000E+00  0.00000000000E+00  0.45593999997E+02  0.45594000000E+02  0.51100000000E-03 0. -1.
         11   -1    0    0    0    0 -0.00000000000E+00 -0.00000000000E+00 -0.45593999997E+02  0.45594000000E+02  0.51100000000E-03 0.  1.
    9900012    2    1    2    0    0 -0.12494168751E+02  0.13866210436E+02 -0.15167947649E+01  0.72461635938E+02  0.70000085513E+02 0.  0.
        -12    1    1    2    0    0  0.12494168751E+02 -0.13866210436E+02  0.15167947649E+01  0.18726364062E+02  0.00000000000E+00 0.  1.
         11    1    3    3    0    0 -0.95093833706E+01 -0.17476835242E+02  0.11521468466E+02  0.22991571892E+02  0.51100000000E-03 0. -1.
        -11    1    3    3    0    0 -0.56574132778E+01 -0.71142752507E+01 -0.36373257028E+01  0.97902694482E+01  0.51100000000E-03 0.  1.
        -12    1    3    3    0    0  0.26726278979E+01  0.38457320929E+02 -0.94009375283E+01  0.39679794598E+02  0.00000000000E+00 0.  1.
</event>
<event>
 7    1  0.2688173E-013  0.7246157E+02  0.7816164E-02  0.1226708E+00
        -11   -1    0    0    0    0  0.00000000000E+00  0.00000000000E+00  0.45593999997E+02  0.45594000000E+02  0.51100000000E-03 0.  1.
         11   -1    0    0    0    0 -0.00000000000E+00 -0.00000000000E+00 -0.45593999997E+02  0.45594000000E+02  0.51100000000E-03 0. -1.
    9900012    2    1    2    0    0  0.88585897893E+01  0.21516514385E+01 -0.16357720647E+02  0.72461568366E+02  0.69999997488E+02 0.  0.
        -12    1    1    2    0    0 -0.88585897893E+01 -0.21516514385E+01  0.16357720647E+02  0.18726431634E+02  0.00000000000E+00 0.  1.
         11    1    3    3    0    0  0.38676534281E+01 -0.20626494187E+01  0.25674571262E+01  0.50798722445E+01  0.51100000000E-03 0. -1.
        -11    1    3    3    0    0  0.31371152253E+02 -0.61535361316E+01  0.21794026542E+01  0.32043173950E+02  0.51100000000E-03 0.  1.
         12    1    3    3    0    0 -0.26380215891E+02  0.10367836989E+02 -0.21104580427E+02  0.35338522172E+02  0.00000000000E+00 0. -1.
</event>
<event>
 7    1  0.2688173E-013  0.7246192E+02  0.7816164E-02  0.1226707E+00
        -11   -1    0    0    0    0  0.00000000000E+00  0.00000000000E+00  0.45593999997E+02  0.45594000000E+02  0.51100000000E-03 0.  1.
         11   -1    0    0    0    0 -0.00000000000E+00 -0.00000000000E+00 -0.45593999997E+02  0.45594000000E+02  0.51100000000E-03 0. -1.
    9900012    2    1    2    0    0  0.12513368837E+02 -0.17547492698E+01 -0.13820363639E+02  0.72461922040E+02  0.70000458213E+02 0.  0.
        -12    1    1    2    0    0 -0.12513368837E+02  0.17547492698E+01  0.13820363639E+02  0.18726077960E+02  0.00000000000E+00 0.  1.
         11    1    3    3    0    0 -0.55241462348E+01  0.13751743295E+02 -0.93473812454E+01  0.17521420367E+02  0.51100000000E-03 0. -1.
        -11    1    3    3    0    0  0.18297543154E+02  0.14288348472E+02 -0.88092955342E+01  0.24830639855E+02  0.51100000000E-03 0.  1.
         12    1    3    3    0    0 -0.26002808266E+00 -0.29794841037E+02  0.43363131407E+01  0.30109861818E+02  0.00000000000E+00 0. -1.
</event>
<event>
 7    1  0.2688173E-013  0.7246188E+02  0.7816164E-02  0.1226707E+00
        -11   -1    0    0    0    0  0.00000000000E+00  0.00000000000E+00  0.45593999997E+02  0.45594000000E+02  0.51100000000E-03 0. -1.
         11   -1    0    0    0    0 -0.00000000000E+00 -0.00000000000E+00 -0.45593999997E+02  0.45594000000E+02  0.51100000000E-03 0.  1.
    9900012    2    1    2    0    0  0.13626482095E+02  0.12225745652E+02 -0.39392668252E+01  0.72461876692E+02  0.70000399139E+02 0.  0.
        -12    1    1    2    0    0 -0.13626482095E+02 -0.12225745652E+02  0.39392668252E+01  0.18726123308E+02  0.00000000000E+00 0.  1.
         11    1    3    3    0    0 -0.36015997259E+01 -0.14687260531E+02  0.73148867593E+01  0.16798652060E+02  0.51100000000E-03 0. -1.
        -11    1    3    3    0    0 -0.44469095446E+01  0.49137009106E+01  0.14181702035E+02  0.15653757824E+02  0.51100000000E-03 0.  1.
        -12    1    3    3    0    0  0.21674991365E+02  0.21999305273E+02 -0.25435855619E+02  0.40009466808E+02  0.00000000000E+00 0.  1.
</event>
<event>
 7    1  0.2688173E-013  0.7246155E+02  0.7816164E-02  0.1226708E+00
        -11   -1    0    0    0    0  0.00000000000E+00  0.00000000000E+00  0.45593999997E+02  0.45594000000E+02  0.51100000000E-03 0. -1.
         11   -1    0    0    0    0 -0.00000000000E+00 -0.00000000000E+00 -0.45593999997E+02  0.45594000000E+02  0.51100000000E-03 0.  1.
    9900012    2    1    2    0    0 -0.10968031136E+02  0.14562175945E+02 -0.42807944709E+01  0.72461551416E+02  0.69999975407E+02 0.  0.
        -12    1    1    2    0    0  0.10968031136E+02 -0.14562175945E+02  0.42807944709E+01  0.18726448584E+02  0.00000000000E+00 0.  1.
         11    1    3    3    0    0  0.22043060006E+01 -0.21435882414E+02  0.11440849732E+02  0.24397726588E+02  0.51100000000E-03 0. -1.
        -11    1    3    3    0    0 -0.28107806767E+01 -0.15075985630E+01 -0.77006787344E+01  0.83350941609E+01  0.51100000000E-03 0.  1.
         12    1    3    3    0    0 -0.10361556460E+02  0.37505656922E+02 -0.80209654682E+01  0.39728730668E+02  0.00000000000E+00 0. -1.
</event>
<event>
 7    1  0.2688173E-013  0.7246157E+02  0.7816164E-02  0.1226708E+00
        -11   -1    0    0    0    0  0.00000000000E+00  0.00000000000E+00  0.45593999997E+02  0.45594000000E+02  0.51100000000E-03 0. -1.
         11   -1    0    0    0    0 -0.00000000000E+00 -0.00000000000E+00 -0.45593999997E+02  0.45594000000E+02  0.51100000000E-03 0.  1.
    9900012    2    1    2    0    0  0.97139655650E+01  0.58613346995E+01 -0.14898412396E+02  0.72461573129E+02  0.70000003692E+02 0.  0.
        -12    1    1    2    0    0 -0.97139655650E+01 -0.58613346995E+01  0.14898412396E+02  0.18726426871E+02  0.00000000000E+00 0.  1.
         11    1    3    3    0    0 -0.15922439115E+02  0.78926463352E+01 -0.34712628704E+01  0.18107114617E+02  0.51100000000E-03 0. -1.
        -11    1    3    3    0    0  0.13461548169E+02  0.21951896489E+01  0.17792538657E+02  0.22418888662E+02  0.51100000000E-03 0.  1.
         12    1    3    3    0    0  0.12174856511E+02 -0.42265012847E+01 -0.29219688183E+02  0.31935569850E+02  0.00000000000E+00 0. -1.
</event>
<event>
 7    1  0.2688173E-013  0.7246156E+02  0.7816164E-02  0.1226708E+00
        -11   -1    0    0    0    0  0.00000000000E+00  0.00000000000E+00  0.45593999997E+02  0.45594000000E+02  0.51100000000E-03 0.  1.
         11   -1    0    0    0    0 -0.00000000000E+00 -0.00000000000E+00 -0.45593999997E+02  0.45594000000E+02  0.51100000000E-03 0. -1.
    9900012    2    1    2    0    0 -0.67917509406E+01 -0.94435614085E+01 -0.14675517261E+02  0.72461560408E+02  0.69999987121E+02 0.  0.
        -12    1    1    2    0    0  0.67917509406E+01  0.94435614085E+01  0.14675517261E+02  0.18726439592E+02  0.00000000000E+00 0.  1.
         11    1    3    3    0    0 -0.24853572363E+02 -0.10668721749E+02 -0.53251165734E+01  0.27565894684E+02  0.51100000000E-03 0. -1.
        -11    1    3    3    0    0  0.11353667713E+02 -0.11714192390E+02  0.11137281938E+02  0.19752648509E+02  0.51100000000E-03 0.  1.
        -12    1    3    3    0    0  0.67081537087E+01  0.12939352731E+02 -0.20487682626E+02  0.25143017215E+02  0.00000000000E+00 0.  1.
</event>
<event>
 7    1  0.2688173E-013  0.7246164E+02  0.7816164E-02  0.1226708E+00
        -11   -1    0    0    0    0  0.00000000000E+00  0.00000000000E+00  0.45593999997E+02  0.45594000000E+02  0.51100000000E-03 0.  1.
         11   -1    0    0    0    0 -0.00000000000E+00 -0.00000000000E+00 -0.45593999997E+02  0.45594000000E+02  0.51100000000E-03 0. -1.
    9900012    2    1    2    0    0 -0.14454279376E+02 -0.11894137387E+02  0.52913073290E+00  0.72461636878E+02  0.70000086737E+02 0.  0.
        -12    1    1    2    0    0  0.14454279376E+02  0.11894137387E+02 -0.52913073290E+00  0.18726363122E+02  0.00000000000E+00 0.  1.
         11    1    3    3    0    0  0.12163819873E+02  0.49554315319E+01 -0.94817948249E+01  0.16199359523E+02  0.51100000000E-03 0. -1.
        -11    1    3    3    0    0  0.52515650119E+01  0.93899860672E+00 -0.12354174205E+02  0.13456830013E+02  0.51100000000E-03 0.  1.
        -12    1    3    3    0    0 -0.31869664261E+02 -0.17788567525E+02  0.22365099763E+02  0.42805447342E+02  0.00000000000E+00 0.  1.
</event>
<event>
 7    1  0.2688173E-013  0.7246144E+02  0.7816164E-02  0.1226708E+00
        -11   -1    0    0    0    0  0.00000000000E+00  0.00000000000E+00  0.45593999997E+02  0.45594000000E+02  0.51100000000E-03 0.  1.
         11   -1    0    0    0    0 -0.00000000000E+00 -0.00000000000E+00 -0.45593999997E+02  0.45594000000E+02  0.51100000000E-03 0. -1.
    9900012    2    1    2    0    0  0.40754262683E-01  0.16709986321E+02 -0.84533306465E+01  0.72461438575E+02  0.69999828412E+02 0.  0.
        -12    1    1    2    0    0 -0.40754262683E-01 -0.16709986321E+02  0.84533306465E+01  0.18726561425E+02  0.00000000000E+00 0.  1.
         11    1    3    3    0    0 -0.22621489872E+02  0.21636784574E+02 -0.18928609760E+02  0.36581067760E+02  0.51100000000E-03 0. -1.
        -11    1    3    3    0    0 -0.48288146233E+01 -0.15126215141E+01  0.59502958624E+01  0.78109855731E+01  0.51100000000E-03 0.  1.
        -12    1    3    3    0    0  0.27491058758E+02 -0.34141767391E+01  0.45249832511E+01  0.28069385242E+02  0.00000000000E+00 0.  1.
</event>
<event>
 7    1  0.2688173E-013  0.7246160E+02  0.7816164E-02  0.1226708E+00
        -11   -1    0    0    0    0  0.00000000000E+00  0.00000000000E+00  0.45593999997E+02  0.45594000000E+02  0.51100000000E-03 0. -1.
         11   -1    0    0    0    0 -0.00000000000E+00 -0.00000000000E+00 -0.45593999997E+02  0.45594000000E+02  0.51100000000E-03 0.  1.
    9900012    2    1    2    0    0  0.18200984289E+02 -0.43682595232E+01 -0.56614326088E+00  0.72461600491E+02  0.70000039337E+02 0.  0.
        -12    1    1    2    0    0 -0.18200984289E+02  0.43682595232E+01  0.56614326088E+00  0.18726399509E+02  0.00000000000E+00 0.  1.
         11    1    3    3    0    0  0.24272382487E+02 -0.29283818821E+02 -0.15268343169E+02  0.40985520611E+02  0.51100000000E-03 0. -1.
        -11    1    3    3    0    0  0.30216040777E+01  0.39166429375E+01  0.24854924279E+01  0.55360505753E+01  0.51100000000E-03 0.  1.
        -12    1    3    3    0    0 -0.90930022758E+01  0.20998916360E+02  0.12216707481E+02  0.25940029305E+02  0.00000000000E+00 0.  1.
</event>
<event>
 7    1  0.2688173E-013  0.7246159E+02  0.7816164E-02  0.1226708E+00
        -11   -1    0    0    0    0  0.00000000000E+00  0.00000000000E+00  0.45593999997E+02  0.45594000000E+02  0.51100000000E-03 0. -1.
         11   -1    0    0    0    0 -0.00000000000E+00 -0.00000000000E+00 -0.45593999997E+02  0.45594000000E+02  0.51100000000E-03 0.  1.
    9900012    2    1    2    0    0  0.71529563368E+01  0.16903850167E+02 -0.37112672488E+01  0.72461589789E+02  0.70000025395E+02 0.  0.
        -12    1    1    2    0    0 -0.71529563368E+01 -0.16903850167E+02  0.37112672488E+01  0.18726410211E+02  0.00000000000E+00 0.  1.
         11    1    3    3    0    0  0.23321141618E+02  0.11636878856E+02  0.12676770932E+01  0.26094052988E+02  0.51100000000E-03 0. -1.
        -11    1    3    3    0    0  0.58050628802E+01  0.17508321032E+02 -0.95989503086E+01  0.20793746841E+02  0.51100000000E-03 0.  1.
         12    1    3    3    0    0 -0.21973248161E+02 -0.12241349721E+02  0.46200059665E+01  0.25573789959E+02  0.00000000000E+00 0. -1.
</event>
<event>
 7    1  0.2688173E-013  0.7246155E+02  0.7816164E-02  0.1226708E+00
        -11   -1    0    0    0    0  0.00000000000E+00  0.00000000000E+00  0.45593999997E+02  0.45594000000E+02  0.51100000000E-03 0. -1.
         11   -1    0    0    0    0 -0.00000000000E+00 -0.00000000000E+00 -0.45593999997E+02  0.45594000000E+02  0.51100000000E-03 0.  1.
    9900012    2    1    2    0    0 -0.13015305247E+02  0.13100448546E+02  0.31080540451E+01  0.72461550184E+02  0.69999973802E+02 0.  0.
        -12    1    1    2    0    0  0.13015305247E+02 -0.13100448546E+02 -0.31080540451E+01  0.18726449816E+02  0.00000000000E+00 0.  1.
         11    1    3    3    0    0 -0.14585455291E+02  0.43891134787E+01  0.13978537021E+00  0.15232181832E+02  0.51100000000E-03 0. -1.
        -11    1    3    3    0    0 -0.25683737660E+02 -0.37752969150E+01  0.72350398607E+01  0.26949082527E+02  0.51100000000E-03 0.  1.
        -12    1    3    3    0    0  0.27253887704E+02  0.12486631982E+02 -0.42667711857E+01  0.30280285824E+02  0.00000000000E+00 0.  1.
</event>
<event>
 7    1  0.2688173E-013  0.7246157E+02  0.7816164E-02  0.1226708E+00
        -11   -1    0    0    0    0  0.00000000000E+00  0.00000000000E+00  0.45593999997E+02  0.45594000000E+02  0.51100000000E-03 0. -1.
         11   -1    0    0    0    0 -0.00000000000E+00 -0.00000000000E+00 -0.45593999997E+02  0.45594000000E+02  0.51100000000E-03 0.  1.
    9900012    2    1    2    0    0  0.15733722649E+02  0.41183969683E+01  0.92826791491E+01  0.72461565364E+02  0.69999993578E+02 0.  0.
        -12    1    1    2    0    0 -0.15733722649E+02 -0.41183969683E+01 -0.92826791491E+01  0.18726434636E+02  0.00000000000E+00 0.  1.
         11    1    3    3    0    0  0.79604262388E+01  0.13724509827E+01  0.10743373087E+02  0.13441431217E+02  0.51100000000E-03 0. -1.
        -11    1    3    3    0    0  0.21382829206E+02 -0.19816079096E+02  0.92384060873E+01  0.30581865916E+02  0.51100000000E-03 0.  1.
         12    1    3    3    0    0 -0.13609532796E+02  0.22562025081E+02 -0.10699100025E+02  0.28438268232E+02  0.00000000000E+00 0. -1.
</event>
<event>
 7    1  0.2688173E-013  0.7246155E+02  0.7816164E-02  0.1226708E+00
        -11   -1    0    0    0    0  0.00000000000E+00  0.00000000000E+00  0.45593999997E+02  0.45594000000E+02  0.51100000000E-03 0.  1.
         11   -1    0    0    0    0 -0.00000000000E+00 -0.00000000000E+00 -0.45593999997E+02  0.45594000000E+02  0.51100000000E-03 0. -1.
    9900012    2    1    2    0    0  0.95233954683E+01  0.38019787905E+01 -0.15669391714E+02  0.72461549705E+02  0.69999973178E+02 0.  0.
        -12    1    1    2    0    0 -0.95233954683E+01 -0.38019787905E+01  0.15669391714E+02  0.18726450295E+02  0.00000000000E+00 0.  1.
         11    1    3    3    0    0  0.13093382564E+02  0.18161099506E+02 -0.18706579937E+02  0.29175303519E+02  0.51100000000E-03 0. -1.
        -11    1    3    3    0    0 -0.84533663482E+01  0.99159630751E+01  0.11233054241E+02  0.17203698270E+02  0.51100000000E-03 0.  1.
        -12    1    3    3    0    0  0.48833792529E+01 -0.24275083791E+02 -0.81958660179E+01  0.26082547916E+02  0.00000000000E+00 0.  1.
</event>
<event>
 7    1  0.2688173E-013  0.7246154E+02  0.7816164E-02  0.1226708E+00
        -11   -1    0    0    0    0  0.00000000000E+00  0.00000000000E+00  0.45593999997E+02  0.45594000000E+02  0.51100000000E-03 0.  1.
         11   -1    0    0    0    0 -0.00000000000E+00 -0.00000000000E+00 -0.45593999997E+02  0.45594000000E+02  0.51100000000E-03 0. -1.
    9900012    2    1    2    0    0 -0.37818944720E+01  0.15700930843E+02  0.94793614064E+01  0.72461541504E+02  0.69999962495E+02 0.  0.
        -12    1    1    2    0    0  0.37818944720E+01 -0.15700930843E+02 -0.94793614064E+01  0.18726458496E+02  0.00000000000E+00 0.  1.
         11    1    3    3    0    0 -0.56453016661E+01 -0.41289030252E+01 -0.52009012970E+01  0.87158846743E+01  0.51100000000E-03 0. -1.
        -11    1    3    3    0    0  0.22383923644E+02 -0.16274659588E+01 -0.10535249914E+02  0.24792744386E+02  0.51100000000E-03 0.  1.
         12    1    3    3    0    0 -0.20520516450E+02  0.21457299827E+02  0.25215512618E+02  0.38952912444E+02  0.00000000000E+00 0. -1.
</event>
<event>
 7    1  0.2688173E-013  0.7246159E+02  0.7816164E-02  0.1226708E+00
        -11   -1    0    0    0    0  0.00000000000E+00  0.00000000000E+00  0.45593999997E+02  0.45594000000E+02  0.51100000000E-03 0.  1.
         11   -1    0    0    0    0 -0.00000000000E+00 -0.00000000000E+00 -0.45593999997E+02  0.45594000000E+02  0.51100000000E-03 0. -1.
    9900012    2    1    2    0    0 -0.12653649744E+02 -0.11516146331E+02  0.76119711188E+01  0.72461585969E+02  0.70000020419E+02 0.  0.
        -12    1    1    2    0    0  0.12653649744E+02  0.11516146331E+02 -0.76119711188E+01  0.18726414031E+02  0.00000000000E+00 0.  1.
         11    1    3    3    0    0  0.25398522637E+00  0.70331594521E+01  0.11036065185E+02  0.13089101398E+02  0.51100000000E-03 0. -1.
        -11    1    3    3    0    0 -0.16853589346E+02  0.16678142548E+02  0.43855130560E+00  0.23714894902E+02  0.51100000000E-03 0.  1.
         12    1    3    3    0    0  0.39459543757E+01 -0.35227448330E+02 -0.38626453715E+01  0.35657589670E+02  0.00000000000E+00 0. -1.
</event>
<event>
 7    1  0.2688173E-013  0.7246174E+02  0.7816164E-02  0.1226708E+00
        -11   -1    0    0    0    0  0.00000000000E+00  0.00000000000E+00  0.45593999997E+02  0.45594000000E+02  0.51100000000E-03 0. -1.
         11   -1    0    0    0    0 -0.00000000000E+00 -0.00000000000E+00 -0.45593999997E+02  0.45594000000E+02  0.51100000000E-03 0.  1.
    9900012    2    1    2    0    0 -0.12555992612E+01 -0.14400029881E+02  0.11905274598E+02  0.72461736269E+02  0.70000216212E+02 0.  0.
        -12    1    1    2    0    0  0.12555992612E+01  0.14400029881E+02 -0.11905274598E+02  0.18726263731E+02  0.00000000000E+00 0.  1.
         11    1    3    3    0    0  0.45785357327E+01 -0.28174309089E+01  0.20143800669E+02  0.20848827594E+02  0.51100000000E-03 0. -1.
        -11    1    3    3    0    0  0.19881128531E+02 -0.93840529807E+01  0.50890052938E+01  0.22565852458E+02  0.51100000000E-03 0.  1.
         12    1    3    3    0    0 -0.25715263525E+02 -0.21985459916E+01 -0.13327531365E+02  0.29047056218E+02  0.00000000000E+00 0. -1.
</event>
<event>
 7    1  0.2688173E-013  0.7246172E+02  0.7816164E-02  0.1226708E+00
        -11   -1    0    0    0    0  0.00000000000E+00  0.00000000000E+00  0.45593999997E+02  0.45594000000E+02  0.51100000000E-03 0.  1.
         11   -1    0    0    0    0 -0.00000000000E+00 -0.00000000000E+00 -0.45593999997E+02  0.45594000000E+02  0.51100000000E-03 0. -1.
    9900012    2    1    2    0    0 -0.16775747750E+02  0.73448438243E+01  0.39116480638E+01  0.72461723436E+02  0.70000199495E+02 0.  0.
        -12    1    1    2    0    0  0.16775747750E+02 -0.73448438243E+01 -0.39116480638E+01  0.18726276564E+02  0.00000000000E+00 0.  1.
         11    1    3    3    0    0  0.13159003736E+02 -0.13541244446E+02  0.53816423610E+01  0.19633816624E+02  0.51100000000E-03 0. -1.
        -11    1    3    3    0    0  0.23395893967E+01 -0.53928428410E+01 -0.87847062075E+01  0.10570122793E+02  0.51100000000E-03 0.  1.
        -12    1    3    3    0    0 -0.32274340883E+02  0.26278931112E+02  0.73147119103E+01  0.42257784018E+02  0.00000000000E+00 0.  1.
</event>
<event>
 7    1  0.2688173E-013  0.7246159E+02  0.7816164E-02  0.1226708E+00
        -11   -1    0    0    0    0  0.00000000000E+00  0.00000000000E+00  0.45593999997E+02  0.45594000000E+02  0.51100000000E-03 0.  1.
         11   -1    0    0    0    0 -0.00000000000E+00 -0.00000000000E+00 -0.45593999997E+02  0.45594000000E+02  0.51100000000E-03 0. -1.
    9900012    2    1    2    0    0 -0.20195874090E+01  0.18541998367E+02 -0.16715573839E+01  0.72461587081E+02  0.70000021868E+02 0.  0.
        -12    1    1    2    0    0  0.20195874090E+01 -0.18541998367E+02  0.16715573839E+01  0.18726412919E+02  0.00000000000E+00 0.  1.
         11    1    3    3    0    0 -0.13291731467E+02  0.15886001072E+02 -0.81089043964E+01  0.22243864013E+02  0.51100000000E-03 0. -1.
        -11    1    3    3    0    0 -0.84057850033E+01  0.20610090870E+02  0.76932963688E+01  0.23550368924E+02  0.51100000000E-03 0.  1.
         12    1    3    3    0    0  0.19677929062E+02 -0.17954093575E+02 -0.12559493563E+01  0.26667354144E+02  0.00000000000E+00 0. -1.
</event>
<event>
 7    1  0.2688173E-013  0.7246161E+02  0.7816164E-02  0.1226708E+00
        -11   -1    0    0    0    0  0.00000000000E+00  0.00000000000E+00  0.45593999997E+02  0.45594000000E+02  0.51100000000E-03 0.  1.
         11   -1    0    0    0    0 -0.00000000000E+00 -0.00000000000E+00 -0.45593999997E+02  0.45594000000E+02  0.51100000000E-03 0. -1.
    9900012    2    1    2    0    0  0.10674373172E+01 -0.18425228874E+02 -0.31700741424E+01  0.72461605485E+02  0.70000045842E+02 0.  0.
        -12    1    1    2    0    0 -0.10674373172E+01  0.18425228874E+02  0.31700741424E+01  0.18726394515E+02  0.00000000000E+00 0.  1.
         11    1    3    3    0    0 -0.44233232484E+01 -0.13732975964E+02 -0.22355337607E+02  0.26606794944E+02  0.51100000000E-03 0. -1.
        -11    1    3    3    0    0  0.68738995101E+01 -0.21233642305E+02  0.27356513861E+01  0.22485592026E+02  0.51100000000E-03 0.  1.
        -12    1    3    3    0    0 -0.13831389444E+01  0.16541389395E+02  0.16449612078E+02  0.23369218515E+02  0.00000000000E+00 0.  1.
</event>
<event>
 7    1  0.2688173E-013  0.7246155E+02  0.7816164E-02  0.1226708E+00
        -11   -1    0    0    0    0  0.00000000000E+00  0.00000000000E+00  0.45593999997E+02  0.45594000000E+02  0.51100000000E-03 0.  1.
         11   -1    0    0    0    0 -0.00000000000E+00 -0.00000000000E+00 -0.45593999997E+02  0.45594000000E+02  0.51100000000E-03 0. -1.
    9900012    2    1    2    0    0 -0.13893759298E+02  0.11847754374E+02  0.41562015095E+01  0.72461552336E+02  0.69999976606E+02 0.  0.
        -12    1    1    2    0    0  0.13893759298E+02 -0.11847754374E+02 -0.41562015095E+01  0.18726447664E+02  0.00000000000E+00 0.  1.
         11    1    3    3    0    0  0.96243081354E+01  0.20931062015E+02  0.30004986742E+01  0.23232297707E+02  0.51100000000E-03 0. -1.
        -11    1    3    3    0    0  0.58209930908E+00  0.90029159361E+01  0.13852744628E+02  0.16531481148E+02  0.51100000000E-03 0.  1.
         12    1    3    3    0    0 -0.24100166742E+02 -0.18086223577E+02 -0.12697041793E+02  0.32697773481E+02  0.00000000000E+00 0. -1.
</event>
<event>
 7    1  0.2688173E-013  0.7246161E+02  0.7816164E-02  0.1226708E+00
        -11   -1    0    0    0    0  0.00000000000E+00  0.00000000000E+00  0.45593999997E+02  0.45594000000E+02  0.51100000000E-03 0.  1.
         11   -1    0    0    0    0 -0.00000000000E+00 -0.00000000000E+00 -0.45593999997E+02  0.45594000000E+02  0.51100000000E-03 0. -1.
    9900012    2    1    2    0    0 -0.15831737259E+02 -0.36981951191E+01  0.92928487288E+01  0.72461612487E+02  0.70000054964E+02 0.  0.
        -12    1    1    2    0    0  0.15831737259E+02  0.36981951191E+01 -0.92928487288E+01  0.18726387513E+02  0.00000000000E+00 0.  1.
         11    1    3    3    0    0 -0.11631538031E+02 -0.21729995853E+00  0.22028109023E+02  0.24911392647E+02  0.51100000000E-03 0. -1.
        -11    1    3    3    0    0  0.28137642534E+01 -0.20136311619E+02  0.63165629863E+01  0.21290544453E+02  0.51100000000E-03 0.  1.
         12    1    3    3    0    0 -0.70139634819E+01  0.16655416459E+02 -0.19051823280E+02  0.26259675387E+02  0.00000000000E+00 0. -1.
</event>
<event>
 7    1  0.2688173E-013  0.7246169E+02  0.7816164E-02  0.1226708E+00
        -11   -1    0    0    0    0  0.00000000000E+00  0.00000000000E+00  0.45593999997E+02  0.45594000000E+02  0.51100000000E-03 0.  1.
         11   -1    0    0    0    0 -0.00000000000E+00 -0.00000000000E+00 -0.45593999997E+02  0.45594000000E+02  0.51100000000E-03 0. -1.
    9900012    2    1    2    0    0 -0.76407230501E+01 -0.46107014856E+01 -0.16463150975E+02  0.72461693452E+02  0.70000160435E+02 0.  0.
        -12    1    1    2    0    0  0.76407230501E+01  0.46107014856E+01  0.16463150975E+02  0.18726306548E+02  0.00000000000E+00 0.  1.
         11    1    3    3    0    0  0.35092207480E+00 -0.98099384061E+01  0.75821684875E+01  0.12403520350E+02  0.51100000000E-03 0. -1.
        -11    1    3    3    0    0  0.37598121221E+01 -0.58502794877E+01  0.15696256591E+02  0.17167831212E+02  0.51100000000E-03 0.  1.
         12    1    3    3    0    0 -0.11751457247E+02  0.11049516408E+02 -0.39741576053E+02  0.42890341890E+02  0.00000000000E+00 0. -1.
</event>
<event>
 7    1  0.2688173E-013  0.7246156E+02  0.7816164E-02  0.1226708E+00
        -11   -1    0    0    0    0  0.00000000000E+00  0.00000000000E+00  0.45593999997E+02  0.45594000000E+02  0.51100000000E-03 0. -1.
         11   -1    0    0    0    0 -0.00000000000E+00 -0.00000000000E+00 -0.45593999997E+02  0.45594000000E+02  0.51100000000E-03 0.  1.
    9900012    2    1    2    0    0  0.81694182204E+01  0.15345389394E+02  0.69612510485E+01  0.72461564517E+02  0.69999992475E+02 0.  0.
        -12    1    1    2    0    0 -0.81694182204E+01 -0.15345389394E+02 -0.69612510485E+01  0.18726435483E+02  0.00000000000E+00 0.  1.
         11    1    3    3    0    0 -0.15191341887E+02  0.16485462280E+02  0.30628802551E+01  0.22625838563E+02  0.51100000000E-03 0. -1.
        -11    1    3    3    0    0 -0.33929365785E+01 -0.17829050545E+02  0.12225806791E+01  0.18190155737E+02  0.51100000000E-03 0.  1.
         12    1    3    3    0    0  0.26753696686E+02  0.16688977659E+02  0.26757901144E+01  0.31645570218E+02  0.00000000000E+00 0. -1.
</event>
<event>
 7    1  0.2688173E-013  0.7246157E+02  0.7816164E-02  0.1226708E+00
        -11   -1    0    0    0    0  0.00000000000E+00  0.00000000000E+00  0.45593999997E+02  0.45594000000E+02  0.51100000000E-03 0. -1.
         11   -1    0    0    0    0 -0.00000000000E+00 -0.00000000000E+00 -0.45593999997E+02  0.45594000000E+02  0.51100000000E-03 0.  1.
    9900012    2    1    2    0    0  0.18518489125E+02 -0.26173641290E+01 -0.94555328008E+00  0.72461572005E+02  0.70000002228E+02 0.  0.
        -12    1    1    2    0    0 -0.18518489125E+02  0.26173641290E+01  0.94555328008E+00  0.18726427995E+02  0.00000000000E+00 0.  1.
         11    1    3    3    0    0  0.18464120680E+02  0.12518049358E+02  0.19506573751E+02  0.29633287566E+02  0.51100000000E-03 0. -1.
        -11    1    3    3    0    0  0.17169661492E+02 -0.94249583102E+01 -0.10574028558E+02  0.22258418522E+02  0.51100000000E-03 0.  1.
        -12    1    3    3    0    0 -0.17115293047E+02 -0.57104551767E+01 -0.98780984723E+01  0.20569865917E+02  0.00000000000E+00 0.  1.
</event>
<event>
 7    1  0.2688173E-013  0.7246159E+02  0.7816164E-02  0.1226708E+00
        -11   -1    0    0    0    0  0.00000000000E+00  0.00000000000E+00  0.45593999997E+02  0.45594000000E+02  0.51100000000E-03 0.  1.
         11   -1    0    0    0    0 -0.00000000000E+00 -0.00000000000E+00 -0.45593999997E+02  0.45594000000E+02  0.51100000000E-03 0. -1.
    9900012    2    1    2    0    0 -0.11379485552E+02 -0.13661315688E+02 -0.58782900138E+01  0.72461587336E+02  0.70000022200E+02 0.  0.
        -12    1    1    2    0    0  0.11379485552E+02  0.13661315688E+02  0.58782900138E+01  0.18726412664E+02  0.00000000000E+00 0.  1.
         11    1    3    3    0    0 -0.11938879279E+02  0.24821602659E+02 -0.13334023261E+02  0.30601388425E+02  0.51100000000E-03 0. -1.
        -11    1    3    3    0    0 -0.12224950621E+01  0.97272870727E+00  0.96021946086E+00  0.18337712477E+01  0.51100000000E-03 0.  1.
        -12    1    3    3    0    0  0.17818887882E+01 -0.39455647054E+02  0.64955137860E+01  0.40026427663E+02  0.00000000000E+00 0.  1.
</event>
<event>
 7    1  0.2688173E-013  0.7246153E+02  0.7816164E-02  0.1226708E+00
        -11   -1    0    0    0    0  0.00000000000E+00  0.00000000000E+00  0.45593999997E+02  0.45594000000E+02  0.51100000000E-03 0.  1.
         11   -1    0    0    0    0 -0.00000000000E+00 -0.00000000000E+00 -0.45593999997E+02  0.45594000000E+02  0.51100000000E-03 0. -1.
    9900012    2    1    2    0    0  0.12553992177E+02  0.10950838334E+02  0.85531925775E+01  0.72461529882E+02  0.69999947356E+02 0.  0.
        -12    1    1    2    0    0 -0.12553992177E+02 -0.10950838334E+02 -0.85531925775E+01  0.18726470118E+02  0.00000000000E+00 0.  1.
         11    1    3    3    0    0 -0.12317134721E+01 -0.62159082201E+01 -0.20009249075E+00  0.63399266829E+01  0.51100000000E-03 0. -1.
        -11    1    3    3    0    0 -0.86696858307E+00  0.14074733197E+02  0.33977185609E+02  0.36787210974E+02  0.51100000000E-03 0.  1.
         12    1    3    3    0    0  0.14652674232E+02  0.30920133574E+01 -0.25223900541E+02  0.29334392225E+02  0.00000000000E+00 0. -1.
</event>
<event>
 7    1  0.2688173E-013  0.7246155E+02  0.7816164E-02  0.1226708E+00
        -11   -1    0    0    0    0  0.00000000000E+00  0.00000000000E+00  0.45593999997E+02  0.45594000000E+02  0.51100000000E-03 0.  1.
         11   -1    0    0    0    0 -0.00000000000E+00 -0.00000000000E+00 -0.45593999997E+02  0.45594000000E+02  0.51100000000E-03 0. -1.
    9900012    2    1    2    0    0  0.15604634467E+02  0.84476274376E+01  0.59844019896E+01  0.72461545628E+02  0.69999967867E+02 0.  0.
        -12    1    1    2    0    0 -0.15604634467E+02 -0.84476274376E+01 -0.59844019896E+01  0.18726454372E+02  0.00000000000E+00 0.  1.
         11    1    3    3    0    0 -0.28954350885E+01 -0.14120182291E+02 -0.72866169456E+01  0.16151095290E+02  0.51100000000E-03 0. -1.
        -11    1    3    3    0    0  0.29623571962E+02  0.19794300600E+02  0.22024884395E+02  0.41886344849E+02  0.51100000000E-03 0.  1.
         12    1    3    3    0    0 -0.11123502406E+02  0.27735091291E+01 -0.87538654594E+01  0.14424105489E+02  0.00000000000E+00 0. -1.
</event>
<event>
 7    1  0.2688173E-013  0.7246194E+02  0.7816164E-02  0.1226707E+00
        -11   -1    0    0    0    0  0.00000000000E+00  0.00000000000E+00  0.45593999997E+02  0.45594000000E+02  0.51100000000E-03 0.  1.
         11   -1    0    0    0    0 -0.00000000000E+00 -0.00000000000E+00 -0.45593999997E+02  0.45594000000E+02  0.51100000000E-03 0. -1.
    9900012    2    1    2    0    0  0.14301068959E+02 -0.65901960749E+01 -0.10134788641E+02  0.72461943328E+02  0.70000485944E+02 0.  0.
        -12    1    1    2    0    0 -0.14301068959E+02  0.65901960749E+01  0.10134788641E+02  0.18726056672E+02  0.00000000000E+00 0.  1.
         11    1    3    3    0    0 -0.37568948108E+01 -0.47342737407E+01  0.88257841361E+01  0.10696825340E+02  0.51100000000E-03 0. -1.
        -11    1    3    3    0    0 -0.13188970560E+01  0.24548193420E+02 -0.14941969752E+02  0.28768311559E+02  0.51100000000E-03 0.  1.
         12    1    3    3    0    0  0.19376860826E+02 -0.26404115754E+02 -0.40186030253E+01  0.32996806429E+02  0.00000000000E+00 0. -1.
</event>
<event>
 7    1  0.2688173E-013  0.7246158E+02  0.7816164E-02  0.1226708E+00
        -11   -1    0    0    0    0  0.00000000000E+00  0.00000000000E+00  0.45593999997E+02  0.45594000000E+02  0.51100000000E-03 0.  1.
         11   -1    0    0    0    0 -0.00000000000E+00 -0.00000000000E+00 -0.45593999997E+02  0.45594000000E+02  0.51100000000E-03 0. -1.
    9900012    2    1    2    0    0  0.16780248525E+02 -0.65195637259E+01 -0.51572497655E+01  0.72461583448E+02  0.70000017136E+02 0.  0.
        -12    1    1    2    0    0 -0.16780248525E+02  0.65195637259E+01  0.51572497655E+01  0.18726416552E+02  0.00000000000E+00 0.  1.
         11    1    3    3    0    0  0.11904812794E+02 -0.16696780883E+02  0.14380395297E+02  0.25046014227E+02  0.51100000000E-03 0. -1.
        -11    1    3    3    0    0  0.12244095158E+02 -0.42376197212E+01  0.81754777550E+01  0.15320369575E+02  0.51100000000E-03 0.  1.
         12    1    3    3    0    0 -0.73686594274E+01  0.14414836878E+02 -0.27713122818E+02  0.32095199646E+02  0.00000000000E+00 0. -1.
</event>
<event>
 7    1  0.2688173E-013  0.7246157E+02  0.7816164E-02  0.1226708E+00
        -11   -1    0    0    0    0  0.00000000000E+00  0.00000000000E+00  0.45593999997E+02  0.45594000000E+02  0.51100000000E-03 0.  1.
         11   -1    0    0    0    0 -0.00000000000E+00 -0.00000000000E+00 -0.45593999997E+02  0.45594000000E+02  0.51100000000E-03 0. -1.
    9900012    2    1    2    0    0 -0.10353616158E+01  0.71416841383E+01 -0.17280149353E+02  0.72461569809E+02  0.69999999368E+02 0.  0.
        -12    1    1    2    0    0  0.10353616158E+01 -0.71416841383E+01  0.17280149353E+02  0.18726430191E+02  0.00000000000E+00 0.  1.
         11    1    3    3    0    0  0.54831981571E+01  0.14744846454E+01 -0.35374600535E+02  0.35827390782E+02  0.51100000000E-03 0. -1.
        -11    1    3    3    0    0  0.45595416876E+01  0.15565408625E+02  0.13445505701E+02  0.21067818821E+02  0.51100000000E-03 0.  1.
        -12    1    3    3    0    0 -0.11078101460E+02 -0.98982091322E+01  0.46489454803E+01  0.15566360206E+02  0.00000000000E+00 0.  1.
</event>
<event>
 7    1  0.2688173E-013  0.7246152E+02  0.7816164E-02  0.1226708E+00
        -11   -1    0    0    0    0  0.00000000000E+00  0.00000000000E+00  0.45593999997E+02  0.45594000000E+02  0.51100000000E-03 0. -1.
         11   -1    0    0    0    0 -0.00000000000E+00 -0.00000000000E+00 -0.45593999997E+02  0.45594000000E+02  0.51100000000E-03 0.  1.
    9900012    2    1    2    0    0  0.44491957796E+01 -0.40861251689E+01  0.17725388166E+02  0.72461517479E+02  0.69999931198E+02 0.  0.
        -12    1    1    2    0    0 -0.44491957796E+01  0.40861251689E+01 -0.17725388166E+02  0.18726482521E+02  0.00000000000E+00 0.  1.
         11    1    3    3    0    0  0.59385193733E+01 -0.39827751880E+01  0.20424655183E+02  0.21640125927E+02  0.51100000000E-03 0. -1.
        -11    1    3    3    0    0 -0.21037103803E+02 -0.15063098286E+02 -0.39537989022E+01  0.26174208534E+02  0.51100000000E-03 0.  1.
         12    1    3    3    0    0  0.19547780209E+02  0.14959748305E+02  0.12545318853E+01  0.24647183018E+02  0.00000000000E+00 0. -1.
</event>
<event>
 7    1  0.2688173E-013  0.7246157E+02  0.7816164E-02  0.1226708E+00
        -11   -1    0    0    0    0  0.00000000000E+00  0.00000000000E+00  0.45593999997E+02  0.45594000000E+02  0.51100000000E-03 0.  1.
         11   -1    0    0    0    0 -0.00000000000E+00 -0.00000000000E+00 -0.45593999997E+02  0.45594000000E+02  0.51100000000E-03 0. -1.
    9900012    2    1    2    0    0 -0.16086039021E+02  0.34120494832E+00  0.95813480420E+01  0.72461566743E+02  0.69999995374E+02 0.  0.
        -12    1    1    2    0    0  0.16086039021E+02 -0.34120494832E+00 -0.95813480420E+01  0.18726433257E+02  0.00000000000E+00 0.  1.
         11    1    3    3    0    0  0.68641434344E+00  0.18458107428E+00  0.27933511974E+01  0.28823681231E+01  0.51100000000E-03 0. -1.
        -11    1    3    3    0    0  0.10741000122E+02  0.92781914849E+01  0.29511871386E+02  0.32747587297E+02  0.51100000000E-03 0.  1.
         12    1    3    3    0    0 -0.27513453487E+02 -0.91215676109E+01 -0.22723874541E+02  0.36831611323E+02  0.00000000000E+00 0. -1.
</event>
<event>
 7    1  0.2688173E-013  0.7246157E+02  0.7816164E-02  0.1226708E+00
        -11   -1    0    0    0    0  0.00000000000E+00  0.00000000000E+00  0.45593999997E+02  0.45594000000E+02  0.51100000000E-03 0. -1.
         11   -1    0    0    0    0 -0.00000000000E+00 -0.00000000000E+00 -0.45593999997E+02  0.45594000000E+02  0.51100000000E-03 0.  1.
    9900012    2    1    2    0    0 -0.32224416636E+01 -0.16867644345E+02  0.74684408262E+01  0.72461570431E+02  0.70000000178E+02 0.  0.
        -12    1    1    2    0    0  0.32224416636E+01  0.16867644345E+02 -0.74684408262E+01  0.18726429569E+02  0.00000000000E+00 0.  1.
         11    1    3    3    0    0  0.10713099557E+02 -0.33799833688E+02  0.34911608193E+01  0.35628464233E+02  0.51100000000E-03 0. -1.
        -11    1    3    3    0    0 -0.12600277481E+02  0.19165605647E+01  0.13843125533E+02  0.18816809553E+02  0.51100000000E-03 0.  1.
        -12    1    3    3    0    0 -0.13352637405E+01  0.15015628778E+02 -0.98658455256E+01  0.18016296645E+02  0.00000000000E+00 0.  1.
</event>
<event>
 7    1  0.2688173E-013  0.7246155E+02  0.7816164E-02  0.1226708E+00
        -11   -1    0    0    0    0  0.00000000000E+00  0.00000000000E+00  0.45593999997E+02  0.45594000000E+02  0.51100000000E-03 0. -1.
         11   -1    0    0    0    0 -0.00000000000E+00 -0.00000000000E+00 -0.45593999997E+02  0.45594000000E+02  0.51100000000E-03 0.  1.
    9900012    2    1    2    0    0 -0.15898365206E+02  0.68437535838E+01  0.71473673842E+01  0.72461552396E+02  0.69999976684E+02 0.  0.
        -12    1    1    2    0    0  0.15898365206E+02 -0.68437535838E+01 -0.71473673842E+01  0.18726447604E+02  0.00000000000E+00 0.  1.
         11    1    3    3    0    0  0.14981671132E+02  0.17741977924E+02  0.26367256388E+01  0.23370506476E+02  0.51100000000E-03 0. -1.
        -11    1    3    3    0    0 -0.27794809014E+02  0.86215771661E+01  0.19967326787E+01  0.29169675051E+02  0.51100000000E-03 0.  1.
         12    1    3    3    0    0 -0.30852273239E+01 -0.19519801507E+02  0.25139090667E+01  0.19921370869E+02  0.00000000000E+00 0. -1.
</event>
<event>
 7    1  0.2688173E-013  0.7246154E+02  0.7816164E-02  0.1226708E+00
        -11   -1    0    0    0    0  0.00000000000E+00  0.00000000000E+00  0.45593999997E+02  0.45594000000E+02  0.51100000000E-03 0.  1.
         11   -1    0    0    0    0 -0.00000000000E+00 -0.00000000000E+00 -0.45593999997E+02  0.45594000000E+02  0.51100000000E-03 0. -1.
    9900012    2    1    2    0    0  0.35814528701E+01  0.16216419658E+02 -0.86534034090E+01  0.72461535792E+02  0.69999955054E+02 0.  0.
        -12    1    1    2    0    0 -0.35814528701E+01 -0.16216419658E+02  0.86534034090E+01  0.18726464208E+02  0.00000000000E+00 0.  1.
         11    1    3    3    0    0 -0.16712678864E+02  0.22014867701E+02 -0.21882582115E+01  0.27726458645E+02  0.51100000000E-03 0. -1.
        -11    1    3    3    0    0 -0.89487678055E+01 -0.30855922575E+01 -0.11546137225E+02  0.14930325177E+02  0.51100000000E-03 0.  1.
        -12    1    3    3    0    0  0.29242899540E+02 -0.27128557854E+01  0.50809920275E+01  0.29804751970E+02  0.00000000000E+00 0.  1.
</event>
<event>
 7    1  0.2688173E-013  0.7246132E+02  0.7816164E-02  0.1226709E+00
        -11   -1    0    0    0    0  0.00000000000E+00  0.00000000000E+00  0.45593999997E+02  0.45594000000E+02  0.51100000000E-03 0. -1.
         11   -1    0    0    0    0 -0.00000000000E+00 -0.00000000000E+00 -0.45593999997E+02  0.45594000000E+02  0.51100000000E-03 0.  1.
    9900012    2    1    2    0    0  0.12344743609E+02 -0.13831475794E+02 -0.26431067527E+01  0.72461323020E+02  0.69999677878E+02 0.  0.
        -12    1    1    2    0    0 -0.12344743609E+02  0.13831475794E+02  0.26431067527E+01  0.18726676980E+02  0.00000000000E+00 0.  1.
         11    1    3    3    0    0  0.47474730370E+01  0.13219702366E+02 -0.11397554165E+02  0.18088760933E+02  0.51100000000E-03 0. -1.
        -11    1    3    3    0    0 -0.12371657383E+01  0.58586908897E+01 -0.12745286421E+02  0.14081802591E+02  0.51100000000E-03 0.  1.
        -12    1    3    3    0    0  0.88344363105E+01 -0.32909869050E+02  0.21499733834E+02  0.40290759495E+02  0.00000000000E+00 0.  1.
</event>
<event>
 7    1  0.2688173E-013  0.7246159E+02  0.7816164E-02  0.1226708E+00
        -11   -1    0    0    0    0  0.00000000000E+00  0.00000000000E+00  0.45593999997E+02  0.45594000000E+02  0.51100000000E-03 0. -1.
         11   -1    0    0    0    0 -0.00000000000E+00 -0.00000000000E+00 -0.45593999997E+02  0.45594000000E+02  0.51100000000E-03 0.  1.
    9900012    2    1    2    0    0 -0.87028217343E+01 -0.16578591768E+02 -0.29935444166E+00  0.72461590194E+02  0.70000025923E+02 0.  0.
        -12    1    1    2    0    0  0.87028217343E+01  0.16578591768E+02  0.29935444166E+00  0.18726409806E+02  0.00000000000E+00 0.  1.
         11    1    3    3    0    0  0.20674779269E+02 -0.13000854989E+02 -0.23083223389E+02  0.33605117625E+02  0.51100000000E-03 0. -1.
        -11    1    3    3    0    0 -0.18646326044E+01  0.33488844200E+00 -0.11196855466E+01  0.22006137785E+01  0.51100000000E-03 0.  1.
        -12    1    3    3    0    0 -0.27512968399E+02 -0.39126252207E+01  0.23903554494E+02  0.36655858791E+02  0.00000000000E+00 0.  1.
</event>
<event>
 7    1  0.2688173E-013  0.7246151E+02  0.7816164E-02  0.1226708E+00
        -11   -1    0    0    0    0  0.00000000000E+00  0.00000000000E+00  0.45593999997E+02  0.45594000000E+02  0.51100000000E-03 0.  1.
         11   -1    0    0    0    0 -0.00000000000E+00 -0.00000000000E+00 -0.45593999997E+02  0.45594000000E+02  0.51100000000E-03 0. -1.
    9900012    2    1    2    0    0  0.63374392329E+01 -0.13847482698E+02 -0.10897953942E+02  0.72461513057E+02  0.69999925437E+02 0.  0.
        -12    1    1    2    0    0 -0.63374392329E+01  0.13847482698E+02  0.10897953942E+02  0.18726486943E+02  0.00000000000E+00 0.  1.
         11    1    3    3    0    0 -0.37701340063E+01  0.10293145396E+02  0.17372322588E+02  0.20541673372E+02  0.51100000000E-03 0. -1.
        -11    1    3    3    0    0  0.22986663000E+01  0.43585654986E+01  0.52730523637E+01  0.72170659866E+01  0.51100000000E-03 0.  1.
        -12    1    3    3    0    0  0.78089069392E+01 -0.28499193592E+02 -0.33543328894E+02  0.44702773698E+02  0.00000000000E+00 0.  1.
</event>
<event>
 7    1  0.2688173E-013  0.7246156E+02  0.7816164E-02  0.1226708E+00
        -11   -1    0    0    0    0  0.00000000000E+00  0.00000000000E+00  0.45593999997E+02  0.45594000000E+02  0.51100000000E-03 0. -1.
         11   -1    0    0    0    0 -0.00000000000E+00 -0.00000000000E+00 -0.45593999997E+02  0.45594000000E+02  0.51100000000E-03 0.  1.
    9900012    2    1    2    0    0 -0.18540365124E+02  0.19805830508E+01  0.17354335970E+01  0.72461559390E+02  0.69999985794E+02 0.  0.
        -12    1    1    2    0    0  0.18540365124E+02 -0.19805830508E+01 -0.17354335970E+01  0.18726440610E+02  0.00000000000E+00 0.  1.
         11    1    3    3    0    0  0.20962377869E+02 -0.17417880087E+01  0.96286500494E+01  0.23133655427E+02  0.51100000000E-03 0. -1.
        -11    1    3    3    0    0  0.55319532983E+00  0.24465285420E+01 -0.88922068932E+01  0.92392029241E+01  0.51100000000E-03 0.  1.
        -12    1    3    3    0    0 -0.40055938323E+02  0.12758425175E+01  0.99899044079E+00  0.40088701039E+02  0.00000000000E+00 0.  1.
</event>
<event>
 7    1  0.2688173E-013  0.7246154E+02  0.7816164E-02  0.1226708E+00
        -11   -1    0    0    0    0  0.00000000000E+00  0.00000000000E+00  0.45593999997E+02  0.45594000000E+02  0.51100000000E-03 0.  1.
         11   -1    0    0    0    0 -0.00000000000E+00 -0.00000000000E+00 -0.45593999997E+02  0.45594000000E+02  0.51100000000E-03 0. -1.
    9900012    2    1    2    0    0 -0.53864686710E+01  0.16999143406E+02 -0.57179897677E+01  0.72461539356E+02  0.69999959697E+02 0.  0.
        -12    1    1    2    0    0  0.53864686710E+01 -0.16999143406E+02  0.57179897677E+01  0.18726460644E+02  0.00000000000E+00 0.  1.
         11    1    3    3    0    0 -0.69107270501E+01  0.12686519405E+02 -0.12894805782E+02  0.19364450402E+02  0.51100000000E-03 0. -1.
        -11    1    3    3    0    0 -0.20230179225E+02  0.17838013178E+02  0.44520520308E+01  0.27336342718E+02  0.51100000000E-03 0.  1.
         12    1    3    3    0    0  0.21754437604E+02 -0.13525389177E+02  0.27247639837E+01  0.25760746236E+02  0.00000000000E+00 0. -1.
</event>
<event>
 7    1  0.2688173E-013  0.7246161E+02  0.7816164E-02  0.1226708E+00
        -11   -1    0    0    0    0  0.00000000000E+00  0.00000000000E+00  0.45593999997E+02  0.45594000000E+02  0.51100000000E-03 0.  1.
         11   -1    0    0    0    0 -0.00000000000E+00 -0.00000000000E+00 -0.45593999997E+02  0.45594000000E+02  0.51100000000E-03 0. -1.
    9900012    2    1    2    0    0  0.10852573820E+02 -0.10681555021E+02 -0.10899705913E+02  0.72461613131E+02  0.70000055803E+02 0.  0.
        -12    1    1    2    0    0 -0.10852573820E+02  0.10681555021E+02  0.10899705913E+02  0.18726386869E+02  0.00000000000E+00 0.  1.
         11    1    3    3    0    0  0.10428794651E+02 -0.35578579949E+02 -0.16972514981E+02  0.40775744923E+02  0.51100000000E-03 0. -1.
        -11    1    3    3    0    0  0.25201998935E+01 -0.25366379389E+01  0.45539072449E+00  0.36046248778E+01  0.51100000000E-03 0.  1.
        -12    1    3    3    0    0 -0.20964207242E+01  0.27433662866E+02  0.56174183434E+01  0.28081243330E+02  0.00000000000E+00 0.  1.
</event>
<event>
 7    1  0.2688173E-013  0.7246156E+02  0.7816164E-02  0.1226708E+00
        -11   -1    0    0    0    0  0.00000000000E+00  0.00000000000E+00  0.45593999997E+02  0.45594000000E+02  0.51100000000E-03 0. -1.
         11   -1    0    0    0    0 -0.00000000000E+00 -0.00000000000E+00 -0.45593999997E+02  0.45594000000E+02  0.51100000000E-03 0.  1.
    9900012    2    1    2    0    0  0.13756691149E+02  0.11765317994E+02  0.47969135727E+01  0.72461557767E+02  0.69999983681E+02 0.  0.
        -12    1    1    2    0    0 -0.13756691149E+02 -0.11765317994E+02 -0.47969135727E+01  0.18726442233E+02  0.00000000000E+00 0.  1.
         11    1    3    3    0    0  0.14778455942E+02  0.15315393147E+02 -0.15262695469E+00  0.21283498832E+02  0.51100000000E-03 0. -1.
        -11    1    3    3    0    0  0.10057961554E+02  0.19097977149E+02 -0.77672250725E+01  0.22939596932E+02  0.51100000000E-03 0.  1.
         12    1    3    3    0    0 -0.11079726347E+02 -0.22648052302E+02  0.12716765600E+02  0.28238462003E+02  0.00000000000E+00 0. -1.
</event>
<event>
 7    1  0.2688173E-013  0.7246150E+02  0.7816164E-02  0.1226708E+00
        -11   -1    0    0    0    0  0.00000000000E+00  0.00000000000E+00  0.45593999997E+02  0.45594000000E+02  0.51100000000E-03 0.  1.
         11   -1    0    0    0    0 -0.00000000000E+00 -0.00000000000E+00 -0.45593999997E+02  0.45594000000E+02  0.51100000000E-03 0. -1.
    9900012    2    1    2    0    0  0.16823275398E+02 -0.82247925530E+01 -0.10892784207E+00  0.72461503452E+02  0.69999912926E+02 0.  0.
        -12    1    1    2    0    0 -0.16823275398E+02  0.82247925530E+01  0.10892784207E+00  0.18726496548E+02  0.00000000000E+00 0.  1.
         11    1    3    3    0    0 -0.54961120739E+01 -0.17811185390E+02  0.14260167528E+02  0.23469085008E+02  0.51100000000E-03 0.  1.
        -11    1    3    3    0    0 -0.26299904717E+01 -0.12907427164E+02 -0.28275570853E+01  0.13472698513E+02  0.51100000000E-03 0. -1.
        -12    1    3    3    0    0  0.24949377944E+02  0.22493820001E+02 -0.11541538285E+02  0.35519719932E+02  0.00000000000E+00 0.  1.
</event>
<event>
 7    1  0.2688173E-013  0.7246159E+02  0.7816164E-02  0.1226708E+00
        -11   -1    0    0    0    0  0.00000000000E+00  0.00000000000E+00  0.45593999997E+02  0.45594000000E+02  0.51100000000E-03 0.  1.
         11   -1    0    0    0    0 -0.00000000000E+00 -0.00000000000E+00 -0.45593999997E+02  0.45594000000E+02  0.51100000000E-03 0. -1.
    9900012    2    1    2    0    0 -0.42350837750E+01  0.17990144268E+02 -0.30161568633E+01  0.72461590104E+02  0.70000025806E+02 0.  0.
        -12    1    1    2    0    0  0.42350837750E+01 -0.17990144268E+02  0.30161568633E+01  0.18726409896E+02  0.00000000000E+00 0.  1.
         11    1    3    3    0    0  0.87249375091E+01 -0.25825523542E+01 -0.13068845203E+02  0.15924472563E+02  0.51100000000E-03 0. -1.
        -11    1    3    3    0    0  0.10019002475E+02  0.25957112353E+02 -0.53785786146E+01  0.28338687345E+02  0.51100000000E-03 0.  1.
        -12    1    3    3    0    0 -0.22979023759E+02 -0.53844157302E+01  0.15431266954E+02  0.28198430196E+02  0.00000000000E+00 0.  1.
</event>
<event>
 7    1  0.2688173E-013  0.7246164E+02  0.7816164E-02  0.1226708E+00
        -11   -1    0    0    0    0  0.00000000000E+00  0.00000000000E+00  0.45593999997E+02  0.45594000000E+02  0.51100000000E-03 0.  1.
         11   -1    0    0    0    0 -0.00000000000E+00 -0.00000000000E+00 -0.45593999997E+02  0.45594000000E+02  0.51100000000E-03 0. -1.
    9900012    2    1    2    0    0  0.17771031859E+02  0.37788623535E+01 -0.45372980033E+01  0.72461642981E+02  0.70000094688E+02 0.  0.
        -12    1    1    2    0    0 -0.17771031859E+02 -0.37788623535E+01  0.45372980033E+01  0.18726357019E+02  0.00000000000E+00 0.  1.
         11    1    3    3    0    0  0.98236973490E-01  0.45397420590E+01 -0.54118574457E+01  0.70644964250E+01  0.51100000000E-03 0. -1.
        -11    1    3    3    0    0 -0.19173208730E+02  0.13065524529E+01  0.16492601796E+02  0.25324393904E+02  0.51100000000E-03 0.  1.
         12    1    3    3    0    0  0.36846003616E+02 -0.20674321584E+01 -0.15618042354E+02  0.40072752652E+02  0.00000000000E+00 0. -1.
</event>
<event>
 7    1  0.2688173E-013  0.7246150E+02  0.7816164E-02  0.1226708E+00
        -11   -1    0    0    0    0  0.00000000000E+00  0.00000000000E+00  0.45593999997E+02  0.45594000000E+02  0.51100000000E-03 0.  1.
         11   -1    0    0    0    0 -0.00000000000E+00 -0.00000000000E+00 -0.45593999997E+02  0.45594000000E+02  0.51100000000E-03 0. -1.
    9900012    2    1    2    0    0  0.56417823460E+00  0.28585062814E+01 -0.18498445683E+02  0.72461498781E+02  0.69999906840E+02 0.  0.
        -12    1    1    2    0    0 -0.56417823460E+00 -0.28585062814E+01  0.18498445683E+02  0.18726501219E+02  0.00000000000E+00 0.  1.
         11    1    3    3    0    0 -0.12641574380E+02 -0.65753492869E+01  0.53331739363E+00  0.14259349521E+02  0.51100000000E-03 0. -1.
        -11    1    3    3    0    0 -0.13787847439E+02  0.18862987170E+02  0.84319007848E+00  0.23380076812E+02  0.51100000000E-03 0.  1.
         12    1    3    3    0    0  0.26993600054E+02 -0.94291316019E+01 -0.19874953155E+02  0.34822072447E+02  0.00000000000E+00 0. -1.
</event>
<event>
 7    1  0.2688173E-013  0.7246201E+02  0.7816164E-02  0.1226707E+00
        -11   -1    0    0    0    0  0.00000000000E+00  0.00000000000E+00  0.45593999997E+02  0.45594000000E+02  0.51100000000E-03 0.  1.
         11   -1    0    0    0    0 -0.00000000000E+00 -0.00000000000E+00 -0.45593999997E+02  0.45594000000E+02  0.51100000000E-03 0. -1.
    9900012    2    1    2    0    0 -0.67099960011E+01  0.16363150213E+02 -0.61551606447E+01  0.72462009137E+02  0.70000571672E+02 0.  0.
        -12    1    1    2    0    0  0.67099960011E+01 -0.16363150213E+02  0.61551606447E+01  0.18725990863E+02  0.00000000000E+00 0.  1.
         11    1    3    3    0    0 -0.79099811740E+00 -0.52116650643E+01  0.13361569143E+02  0.14363796887E+02  0.51100000000E-03 0.  1.
        -11    1    3    3    0    0  0.64843208434E+01  0.25396516313E+02  0.82242931284E+01  0.27471229593E+02  0.51100000000E-03 0. -1.
         12    1    3    3    0    0 -0.12403318727E+02 -0.38217010349E+01 -0.27741022917E+02  0.30626982658E+02  0.00000000000E+00 0. -1.
</event>
<event>
 7    1  0.2688173E-013  0.7246154E+02  0.7816164E-02  0.1226708E+00
        -11   -1    0    0    0    0  0.00000000000E+00  0.00000000000E+00  0.45593999997E+02  0.45594000000E+02  0.51100000000E-03 0. -1.
         11   -1    0    0    0    0 -0.00000000000E+00 -0.00000000000E+00 -0.45593999997E+02  0.45594000000E+02  0.51100000000E-03 0.  1.
    9900012    2    1    2    0    0 -0.16270755018E+02  0.85727221808E+01  0.35286207183E+01  0.72461542817E+02  0.69999964206E+02 0.  0.
        -12    1    1    2    0    0  0.16270755018E+02 -0.85727221808E+01 -0.35286207183E+01  0.18726457183E+02  0.00000000000E+00 0.  1.
         11    1    3    3    0    0  0.17689522924E+02  0.15827546053E+02  0.71665957885E+01  0.24794969869E+02  0.51100000000E-03 0. -1.
        -11    1    3    3    0    0 -0.16818284216E+02  0.12459155806E+02  0.17102966863E+01  0.21000246722E+02  0.51100000000E-03 0.  1.
        -12    1    3    3    0    0 -0.17141993726E+02 -0.19713979678E+02 -0.53482717565E+01  0.26666326227E+02  0.00000000000E+00 0.  1.
</event>
<event>
 7    1  0.2688173E-013  0.7246158E+02  0.7816164E-02  0.1226708E+00
        -11   -1    0    0    0    0  0.00000000000E+00  0.00000000000E+00  0.45593999997E+02  0.45594000000E+02  0.51100000000E-03 0.  1.
         11   -1    0    0    0    0 -0.00000000000E+00 -0.00000000000E+00 -0.45593999997E+02  0.45594000000E+02  0.51100000000E-03 0. -1.
    9900012    2    1    2    0    0  0.69281443410E+01  0.12773930575E+02 -0.11811285487E+02  0.72461576124E+02  0.70000007594E+02 0.  0.
        -12    1    1    2    0    0 -0.69281443410E+01 -0.12773930575E+02  0.11811285487E+02  0.18726423876E+02  0.00000000000E+00 0.  1.
         11    1    3    3    0    0  0.21041854484E+01  0.83976573793E+01 -0.22402329954E+00  0.86601635413E+01  0.51100000000E-03 0. -1.
        -11    1    3    3    0    0 -0.33796392902E+01  0.31798673244E+02 -0.14340567179E+02  0.35046104621E+02  0.51100000000E-03 0.  1.
         12    1    3    3    0    0  0.82035981828E+01 -0.27422400049E+02  0.27533049922E+01  0.28755307962E+02  0.00000000000E+00 0. -1.
</event>
<event>
 7    1  0.2688173E-013  0.7246159E+02  0.7816164E-02  0.1226708E+00
        -11   -1    0    0    0    0  0.00000000000E+00  0.00000000000E+00  0.45593999997E+02  0.45594000000E+02  0.51100000000E-03 0. -1.
         11   -1    0    0    0    0 -0.00000000000E+00 -0.00000000000E+00 -0.45593999997E+02  0.45594000000E+02  0.51100000000E-03 0.  1.
    9900012    2    1    2    0    0 -0.11304755138E+02  0.36569807958E+00 -0.14924720450E+02  0.72461588055E+02  0.70000023137E+02 0.  0.
        -12    1    1    2    0    0  0.11304755138E+02 -0.36569807958E+00  0.14924720450E+02  0.18726411945E+02  0.00000000000E+00 0.  1.
         11    1    3    3    0    0 -0.96130118775E+01  0.27390531226E+01 -0.92587103044E+01  0.13624834903E+02  0.51100000000E-03 0. -1.
        -11    1    3    3    0    0 -0.15386783009E+02 -0.25656798860E+01 -0.28338611903E+02  0.32348303348E+02  0.51100000000E-03 0.  1.
         12    1    3    3    0    0  0.13695039748E+02  0.19232484305E+00  0.22672601758E+02  0.26488449804E+02  0.00000000000E+00 0. -1.
</event>
<event>
 7    1  0.2688173E-013  0.7246158E+02  0.7816164E-02  0.1226708E+00
        -11   -1    0    0    0    0  0.00000000000E+00  0.00000000000E+00  0.45593999997E+02  0.45594000000E+02  0.51100000000E-03 0. -1.
         11   -1    0    0    0    0 -0.00000000000E+00 -0.00000000000E+00 -0.45593999997E+02  0.45594000000E+02  0.51100000000E-03 0.  1.
    9900012    2    1    2    0    0  0.13174822754E+00 -0.16537524373E+02 -0.87847495676E+01  0.72461577626E+02  0.70000009550E+02 0.  0.
        -12    1    1    2    0    0 -0.13174822754E+00  0.16537524373E+02  0.87847495676E+01  0.18726422374E+02  0.00000000000E+00 0.  1.
         11    1    3    3    0    0 -0.51182853429E+01  0.89360041312E+01  0.42571268901E+01  0.11143255552E+02  0.51100000000E-03 0. -1.
        -11    1    3    3    0    0  0.24568426179E+02 -0.15310696998E+02 -0.23336970889E+02  0.37183856955E+02  0.51100000000E-03 0.  1.
         12    1    3    3    0    0 -0.19318392609E+02 -0.10162831506E+02  0.10295094431E+02  0.24134465118E+02  0.00000000000E+00 0. -1.
</event>
<event>
 7    1  0.2688173E-013  0.7246156E+02  0.7816164E-02  0.1226708E+00
        -11   -1    0    0    0    0  0.00000000000E+00  0.00000000000E+00  0.45593999997E+02  0.45594000000E+02  0.51100000000E-03 0.  1.
         11   -1    0    0    0    0 -0.00000000000E+00 -0.00000000000E+00 -0.45593999997E+02  0.45594000000E+02  0.51100000000E-03 0. -1.
    9900012    2    1    2    0    0 -0.90726982928E+01  0.33352708267E+00  0.16378472937E+02  0.72461562262E+02  0.69999989536E+02 0.  0.
        -12    1    1    2    0    0  0.90726982928E+01 -0.33352708267E+00 -0.16378472937E+02  0.18726437738E+02  0.00000000000E+00 0.  1.
         11    1    3    3    0    0  0.12046542225E+02 -0.17773544985E+01  0.25225650034E+02  0.28010919094E+02  0.51100000000E-03 0. -1.
        -11    1    3    3    0    0 -0.15650453073E+02  0.10643521145E+02  0.11196415874E+02  0.21990474130E+02  0.51100000000E-03 0.  1.
         12    1    3    3    0    0 -0.54687874440E+01 -0.85326395642E+01 -0.20043592971E+02  0.22460169038E+02  0.00000000000E+00 0. -1.
</event>
<event>
 7    1  0.2688173E-013  0.7246157E+02  0.7816164E-02  0.1226708E+00
        -11   -1    0    0    0    0  0.00000000000E+00  0.00000000000E+00  0.45593999997E+02  0.45594000000E+02  0.51100000000E-03 0.  1.
         11   -1    0    0    0    0 -0.00000000000E+00 -0.00000000000E+00 -0.45593999997E+02  0.45594000000E+02  0.51100000000E-03 0. -1.
    9900012    2    1    2    0    0  0.17775696620E+02 -0.55032506260E+01 -0.21019273586E+01  0.72461567975E+02  0.69999996978E+02 0.  0.
        -12    1    1    2    0    0 -0.17775696620E+02  0.55032506260E+01  0.21019273586E+01  0.18726432025E+02  0.00000000000E+00 0.  1.
         11    1    3    3    0    0  0.32573966647E+02 -0.10568561654E+02 -0.84778538623E+00  0.34256043830E+02  0.51100000000E-03 0. -1.
        -11    1    3    3    0    0 -0.48571365176E+01  0.25896952208E+01  0.16672713374E+02  0.17557837794E+02  0.51100000000E-03 0.  1.
         12    1    3    3    0    0 -0.99411335090E+01  0.24756158073E+01 -0.17926855346E+02  0.20647686351E+02  0.00000000000E+00 0. -1.
</event>
<event>
 7    1  0.2688173E-013  0.7246153E+02  0.7816164E-02  0.1226708E+00
        -11   -1    0    0    0    0  0.00000000000E+00  0.00000000000E+00  0.45593999997E+02  0.45594000000E+02  0.51100000000E-03 0. -1.
         11   -1    0    0    0    0 -0.00000000000E+00 -0.00000000000E+00 -0.45593999997E+02  0.45594000000E+02  0.51100000000E-03 0.  1.
    9900012    2    1    2    0    0 -0.11541984592E+02 -0.68833136880E+01  0.13041601358E+02  0.72461527250E+02  0.69999943927E+02 0.  0.
        -12    1    1    2    0    0  0.11541984592E+02  0.68833136880E+01 -0.13041601358E+02  0.18726472750E+02  0.00000000000E+00 0.  1.
         11    1    3    3    0    0 -0.68817182687E+00 -0.29629498257E+01  0.68721130876E+01  0.75152239277E+01  0.51100000000E-03 0. -1.
        -11    1    3    3    0    0  0.15659290725E+02 -0.24614171671E+02 -0.48090518595E+01  0.29566836373E+02  0.51100000000E-03 0.  1.
         12    1    3    3    0    0 -0.26513103490E+02  0.20693807808E+02  0.10978540130E+02  0.35379466950E+02  0.00000000000E+00 0. -1.
</event>
<event>
 7    1  0.2688173E-013  0.7246155E+02  0.7816164E-02  0.1226708E+00
        -11   -1    0    0    0    0  0.00000000000E+00  0.00000000000E+00  0.45593999997E+02  0.45594000000E+02  0.51100000000E-03 0. -1.
         11   -1    0    0    0    0 -0.00000000000E+00 -0.00000000000E+00 -0.45593999997E+02  0.45594000000E+02  0.51100000000E-03 0.  1.
    9900012    2    1    2    0    0 -0.12837077981E+02 -0.13206281442E+02  0.33887383998E+01  0.72461548426E+02  0.69999971513E+02 0.  0.
        -12    1    1    2    0    0  0.12837077981E+02  0.13206281442E+02 -0.33887383998E+01  0.18726451574E+02  0.00000000000E+00 0.  1.
         11    1    3    3    0    0  0.10071261357E+02  0.10911079566E+02 -0.18576254183E+01  0.14964382214E+02  0.51100000000E-03 0.  1.
        -11    1    3    3    0    0  0.15010748619E+01 -0.22355621478E+02 -0.13949992695E+02  0.26393736640E+02  0.51100000000E-03 0. -1.
        -12    1    3    3    0    0 -0.24409414199E+02 -0.17617395302E+01  0.19196356513E+02  0.31103429571E+02  0.00000000000E+00 0.  1.
</event>
<event>
 7    1  0.2688173E-013  0.7246153E+02  0.7816164E-02  0.1226708E+00
        -11   -1    0    0    0    0  0.00000000000E+00  0.00000000000E+00  0.45593999997E+02  0.45594000000E+02  0.51100000000E-03 0.  1.
         11   -1    0    0    0    0 -0.00000000000E+00 -0.00000000000E+00 -0.45593999997E+02  0.45594000000E+02  0.51100000000E-03 0. -1.
    9900012    2    1    2    0    0  0.16032698324E+02 -0.89537031822E+01 -0.36693966121E+01  0.72461529758E+02  0.69999947194E+02 0.  0.
        -12    1    1    2    0    0 -0.16032698324E+02  0.89537031822E+01  0.36693966121E+01  0.18726470242E+02  0.00000000000E+00 0.  1.
         11    1    3    3    0    0  0.64041281811E+00 -0.31800900477E+02 -0.11045828371E+02  0.33670725035E+02  0.51100000000E-03 0. -1.
        -11    1    3    3    0    0  0.11857302992E+02 -0.24447685446E+01  0.51485877093E+01  0.13156005592E+02  0.51100000000E-03 0.  1.
        -12    1    3    3    0    0  0.35349825140E+01  0.25291965839E+02  0.22278440497E+01  0.25634799131E+02  0.00000000000E+00 0.  1.
</event>
<event>
 7    1  0.2688173E-013  0.7246156E+02  0.7816164E-02  0.1226708E+00
        -11   -1    0    0    0    0  0.00000000000E+00  0.00000000000E+00  0.45593999997E+02  0.45594000000E+02  0.51100000000E-03 0.  1.
         11   -1    0    0    0    0 -0.00000000000E+00 -0.00000000000E+00 -0.45593999997E+02  0.45594000000E+02  0.51100000000E-03 0. -1.
    9900012    2    1    2    0    0  0.25156028618E+01 -0.29062753471E+01 -0.18327707655E+02  0.72461559814E+02  0.69999986348E+02 0.  0.
        -12    1    1    2    0    0 -0.25156028618E+01  0.29062753471E+01  0.18327707655E+02  0.18726440186E+02  0.00000000000E+00 0.  1.
         11    1    3    3    0    0  0.11267512906E+02 -0.16268689446E+01 -0.23497580772E+02  0.26110148449E+02  0.51100000000E-03 0. -1.
        -11    1    3    3    0    0 -0.48329302582E+00 -0.19729761038E+02 -0.89706215530E+01  0.21678770585E+02  0.51100000000E-03 0.  1.
        -12    1    3    3    0    0 -0.82686170185E+01  0.18450354635E+02  0.14140494671E+02  0.24672640781E+02  0.00000000000E+00 0.  1.
</event>
<event>
 7    1  0.2688173E-013  0.7246158E+02  0.7816164E-02  0.1226708E+00
        -11   -1    0    0    0    0  0.00000000000E+00  0.00000000000E+00  0.45593999997E+02  0.45594000000E+02  0.51100000000E-03 0.  1.
         11   -1    0    0    0    0 -0.00000000000E+00 -0.00000000000E+00 -0.45593999997E+02  0.45594000000E+02  0.51100000000E-03 0. -1.
    9900012    2    1    2    0    0  0.86474609098E+01 -0.15151520850E+02 -0.68067460867E+01  0.72461575981E+02  0.70000007408E+02 0.  0.
        -12    1    1    2    0    0 -0.86474609098E+01  0.15151520850E+02  0.68067460867E+01  0.18726424019E+02  0.00000000000E+00 0.  1.
         11    1    3    3    0    0  0.48780748349E+01  0.58073459397E+01  0.11383568073E+01  0.76692070933E+01  0.51100000000E-03 0. -1.
        -11    1    3    3    0    0 -0.16362902246E+02 -0.87176547340E+01  0.20642561654E+02  0.27746304725E+02  0.51100000000E-03 0.  1.
         12    1    3    3    0    0  0.20132288321E+02 -0.12241212056E+02 -0.28587664548E+02  0.37046064163E+02  0.00000000000E+00 0. -1.
</event>
<event>
 7    1  0.2688173E-013  0.7246157E+02  0.7816164E-02  0.1226708E+00
        -11   -1    0    0    0    0  0.00000000000E+00  0.00000000000E+00  0.45593999997E+02  0.45594000000E+02  0.51100000000E-03 0.  1.
         11   -1    0    0    0    0 -0.00000000000E+00 -0.00000000000E+00 -0.45593999997E+02  0.45594000000E+02  0.51100000000E-03 0. -1.
    9900012    2    1    2    0    0  0.29380352913E+01  0.78813507286E+01 -0.16731153316E+02  0.72461568627E+02  0.69999997828E+02 0.  0.
        -12    1    1    2    0    0 -0.29380352913E+01 -0.78813507286E+01  0.16731153316E+02  0.18726431373E+02  0.00000000000E+00 0.  1.
         11    1    3    3    0    0 -0.18238985102E+01  0.13794697839E+02  0.63454781389E+01  0.15293311849E+02  0.51100000000E-03 0. -1.
        -11    1    3    3    0    0 -0.51996237676E+01  0.83221945341E+01  0.13491220566E+02  0.16682567003E+02  0.51100000000E-03 0.  1.
         12    1    3    3    0    0  0.99615575692E+01 -0.14235541644E+02 -0.36567852021E+02  0.40485689775E+02  0.00000000000E+00 0. -1.
</event>
<event>
 7    1  0.2688173E-013  0.7246155E+02  0.7816164E-02  0.1226708E+00
        -11   -1    0    0    0    0  0.00000000000E+00  0.00000000000E+00  0.45593999997E+02  0.45594000000E+02  0.51100000000E-03 0.  1.
         11   -1    0    0    0    0 -0.00000000000E+00 -0.00000000000E+00 -0.45593999997E+02  0.45594000000E+02  0.51100000000E-03 0. -1.
    9900012    2    1    2    0    0 -0.50578627461E+01  0.79835288832E+00 -0.18012793086E+02  0.72461546581E+02  0.69999969109E+02 0.  0.
        -12    1    1    2    0    0  0.50578627461E+01 -0.79835288832E+00  0.18012793086E+02  0.18726453419E+02  0.00000000000E+00 0.  1.
         11    1    3    3    0    0  0.10778395485E+02 -0.23604794454E+01  0.44459583383E+01  0.11895890813E+02  0.51100000000E-03 0. -1.
        -11    1    3    3    0    0  0.20021967473E+02  0.36792725987E+01 -0.90617078875E+01  0.22282970593E+02  0.51100000000E-03 0.  1.
         12    1    3    3    0    0 -0.35858225704E+02 -0.52044026497E+00 -0.13397043537E+02  0.38282685175E+02  0.00000000000E+00 0. -1.
</event>
<event>
 7    1  0.2688173E-013  0.7246158E+02  0.7816164E-02  0.1226708E+00
        -11   -1    0    0    0    0  0.00000000000E+00  0.00000000000E+00  0.45593999997E+02  0.45594000000E+02  0.51100000000E-03 0. -1.
         11   -1    0    0    0    0 -0.00000000000E+00 -0.00000000000E+00 -0.45593999997E+02  0.45594000000E+02  0.51100000000E-03 0.  1.
    9900012    2    1    2    0    0  0.17408103841E+02 -0.52715940201E+01  0.44550028365E+01  0.72461579276E+02  0.70000011700E+02 0.  0.
        -12    1    1    2    0    0 -0.17408103841E+02  0.52715940201E+01 -0.44550028365E+01  0.18726420724E+02  0.00000000000E+00 0.  1.
         11    1    3    3    0    0  0.13203789875E+02 -0.11024936037E+02  0.23548831916E+02  0.29162248997E+02  0.51100000000E-03 0. -1.
        -11    1    3    3    0    0 -0.60064497903E-01 -0.10173423604E+02  0.70592264791E+01  0.12382844355E+02  0.51100000000E-03 0.  1.
        -12    1    3    3    0    0  0.42643784644E+01  0.15926765621E+02 -0.26153055559E+02  0.30916485924E+02  0.00000000000E+00 0.  1.
</event>
<event>
 7    1  0.2688173E-013  0.7246079E+02  0.7816164E-02  0.1226710E+00
        -11   -1    0    0    0    0  0.00000000000E+00  0.00000000000E+00  0.45593999997E+02  0.45594000000E+02  0.51100000000E-03 0.  1.
         11   -1    0    0    0    0 -0.00000000000E+00 -0.00000000000E+00 -0.45593999997E+02  0.45594000000E+02  0.51100000000E-03 0. -1.
    9900012    2    1    2    0    0  0.10659654628E+02  0.38119333633E+01 -0.14918080825E+02  0.72460794969E+02  0.69998989988E+02 0.  0.
        -12    1    1    2    0    0 -0.10659654628E+02 -0.38119333633E+01  0.14918080825E+02  0.18727205031E+02  0.00000000000E+00 0.  1.
         11    1    3    3    0    0  0.74594117863E+01 -0.95187199979E+01  0.32206296618E+01  0.12514843598E+02  0.51100000000E-03 0. -1.
        -11    1    3    3    0    0  0.34619068500E+01  0.70646923932E+01  0.19897399959E+02  0.21396289469E+02  0.51100000000E-03 0.  1.
         12    1    3    3    0    0 -0.26166400788E+00  0.62659609679E+01 -0.38036110446E+02  0.38549661902E+02  0.00000000000E+00 0. -1.
</event>
<event>
 7    1  0.2688173E-013  0.7246157E+02  0.7816164E-02  0.1226708E+00
        -11   -1    0    0    0    0  0.00000000000E+00  0.00000000000E+00  0.45593999997E+02  0.45594000000E+02  0.51100000000E-03 0.  1.
         11   -1    0    0    0    0 -0.00000000000E+00 -0.00000000000E+00 -0.45593999997E+02  0.45594000000E+02  0.51100000000E-03 0. -1.
    9900012    2    1    2    0    0 -0.31468448502E+01  0.14146882093E+02 -0.11859265901E+02  0.72461572333E+02  0.70000002655E+02 0.  0.
        -12    1    1    2    0    0  0.31468448502E+01 -0.14146882093E+02  0.11859265901E+02  0.18726427667E+02  0.00000000000E+00 0.  1.
         11    1    3    3    0    0 -0.78604512986E+01  0.16876907971E+02 -0.24399747315E+02  0.30691438327E+02  0.51100000000E-03 0. -1.
        -11    1    3    3    0    0  0.34849520384E+01  0.41416514171E+01 -0.13640132845E+02  0.14674855756E+02  0.51100000000E-03 0.  1.
        -12    1    3    3    0    0  0.12286544100E+01 -0.68716772947E+01  0.26180614259E+02  0.27095278250E+02  0.00000000000E+00 0.  1.
</event>
<event>
 7    1  0.2688173E-013  0.7246148E+02  0.7816164E-02  0.1226708E+00
        -11   -1    0    0    0    0  0.00000000000E+00  0.00000000000E+00  0.45593999997E+02  0.45594000000E+02  0.51100000000E-03 0. -1.
         11   -1    0    0    0    0 -0.00000000000E+00 -0.00000000000E+00 -0.45593999997E+02  0.45594000000E+02  0.51100000000E-03 0.  1.
    9900012    2    1    2    0    0 -0.10714303836E+02  0.60618238639E+01  0.14111710294E+02  0.72461484502E+02  0.69999888240E+02 0.  0.
        -12    1    1    2    0    0  0.10714303836E+02 -0.60618238639E+01 -0.14111710294E+02  0.18726515498E+02  0.00000000000E+00 0.  1.
         11    1    3    3    0    0  0.61020965360E+01 -0.54713872364E+01  0.12074794349E+01  0.82843024614E+01  0.51100000000E-03 0.  1.
        -11    1    3    3    0    0 -0.22328936380E+02  0.14478667360E+02 -0.18336225784E+02  0.32317648192E+02  0.51100000000E-03 0. -1.
         12    1    3    3    0    0  0.55125360076E+01 -0.29454562596E+01  0.31240456644E+02  0.31859533850E+02  0.00000000000E+00 0. -1.
</event>
<event>
 7    1  0.2688173E-013  0.7246165E+02  0.7816164E-02  0.1226708E+00
        -11   -1    0    0    0    0  0.00000000000E+00  0.00000000000E+00  0.45593999997E+02  0.45594000000E+02  0.51100000000E-03 0.  1.
         11   -1    0    0    0    0 -0.00000000000E+00 -0.00000000000E+00 -0.45593999997E+02  0.45594000000E+02  0.51100000000E-03 0. -1.
    9900012    2    1    2    0    0 -0.41194615837E+00 -0.10442194365E+02 -0.15539205843E+02  0.72461653826E+02  0.70000108816E+02 0.  0.
        -12    1    1    2    0    0  0.41194615837E+00  0.10442194365E+02  0.15539205843E+02  0.18726346174E+02  0.00000000000E+00 0.  1.
         11    1    3    3    0    0 -0.15135096848E+02 -0.77983867346E+01 -0.31311670976E+02  0.35641362654E+02  0.51100000000E-03 0. -1.
        -11    1    3    3    0    0  0.15692212498E+01 -0.12964324252E+02 -0.10517640668E+01  0.13101235306E+02  0.51100000000E-03 0.  1.
         12    1    3    3    0    0  0.13153929440E+02  0.10320516622E+02  0.16824229200E+02  0.23719055866E+02  0.00000000000E+00 0. -1.
</event>
<event>
 7    1  0.2688173E-013  0.7246159E+02  0.7816164E-02  0.1226708E+00
        -11   -1    0    0    0    0  0.00000000000E+00  0.00000000000E+00  0.45593999997E+02  0.45594000000E+02  0.51100000000E-03 0.  1.
         11   -1    0    0    0    0 -0.00000000000E+00 -0.00000000000E+00 -0.45593999997E+02  0.45594000000E+02  0.51100000000E-03 0. -1.
    9900012    2    1    2    0    0  0.46971763437E+01 -0.67880289515E+01 -0.16808851958E+02  0.72461593329E+02  0.70000030007E+02 0.  0.
        -12    1    1    2    0    0 -0.46971763437E+01  0.67880289515E+01  0.16808851958E+02  0.18726406671E+02  0.00000000000E+00 0.  1.
         11    1    3    3    0    0 -0.70615522352E+01  0.13540961779E+01 -0.99287272266E+01  0.12258822171E+02  0.51100000000E-03 0. -1.
        -11    1    3    3    0    0  0.19930788691E+02  0.20629533222E+02 -0.94036388070E+01  0.30186791845E+02  0.51100000000E-03 0.  1.
         12    1    3    3    0    0 -0.81720601123E+01 -0.28771658352E+02  0.25235140751E+01  0.30015979312E+02  0.00000000000E+00 0. -1.
</event>
<event>
 7    1  0.2688173E-013  0.7246156E+02  0.7816164E-02  0.1226708E+00
        -11   -1    0    0    0    0  0.00000000000E+00  0.00000000000E+00  0.45593999997E+02  0.45594000000E+02  0.51100000000E-03 0.  1.
         11   -1    0    0    0    0 -0.00000000000E+00 -0.00000000000E+00 -0.45593999997E+02  0.45594000000E+02  0.51100000000E-03 0. -1.
    9900012    2    1    2    0    0  0.11520232560E+02  0.13858734350E+02 -0.50891406923E+01  0.72461558026E+02  0.69999984018E+02 0.  0.
        -12    1    1    2    0    0 -0.11520232560E+02 -0.13858734350E+02  0.50891406923E+01  0.18726441974E+02  0.00000000000E+00 0.  1.
         11    1    3    3    0    0  0.15114991461E+02 -0.13728121933E+02  0.35952776522E+01  0.20732831942E+02  0.51100000000E-03 0. -1.
        -11    1    3    3    0    0  0.68669446247E+01  0.10666909395E+02  0.15747859618E+02  0.20222091072E+02  0.51100000000E-03 0.  1.
         12    1    3    3    0    0 -0.10461703526E+02  0.16919946888E+02 -0.24432277962E+02  0.31506635012E+02  0.00000000000E+00 0. -1.
</event>
<event>
 7    1  0.2688173E-013  0.7246155E+02  0.7816164E-02  0.1226708E+00
        -11   -1    0    0    0    0  0.00000000000E+00  0.00000000000E+00  0.45593999997E+02  0.45594000000E+02  0.51100000000E-03 0. -1.
         11   -1    0    0    0    0 -0.00000000000E+00 -0.00000000000E+00 -0.45593999997E+02  0.45594000000E+02  0.51100000000E-03 0.  1.
    9900012    2    1    2    0    0  0.17316669546E+02  0.39595087506E+01  0.59275073293E+01  0.72461545535E+02  0.69999967746E+02 0.  0.
        -12    1    1    2    0    0 -0.17316669546E+02 -0.39595087506E+01 -0.59275073293E+01  0.18726454465E+02  0.00000000000E+00 0.  1.
         11    1    3    3    0    0  0.20260206388E+02  0.39720140328E+01 -0.38110723356E+01  0.20994692924E+02  0.51100000000E-03 0. -1.
        -11    1    3    3    0    0 -0.70351565158E+01  0.23660442252E+02 -0.19290895018E+01  0.24759469731E+02  0.51100000000E-03 0.  1.
        -12    1    3    3    0    0  0.40916196731E+01 -0.23672947535E+02  0.11667669167E+02  0.26707382880E+02  0.00000000000E+00 0.  1.
</event>
<event>
 7    1  0.2688173E-013  0.7246159E+02  0.7816164E-02  0.1226708E+00
        -11   -1    0    0    0    0  0.00000000000E+00  0.00000000000E+00  0.45593999997E+02  0.45594000000E+02  0.51100000000E-03 0.  1.
         11   -1    0    0    0    0 -0.00000000000E+00 -0.00000000000E+00 -0.45593999997E+02  0.45594000000E+02  0.51100000000E-03 0. -1.
    9900012    2    1    2    0    0 -0.10137422530E+01  0.17794115471E+02 -0.57463176165E+01  0.72461591244E+02  0.70000027291E+02 0.  0.
        -12    1    1    2    0    0  0.10137422530E+01 -0.17794115471E+02  0.57463176165E+01  0.18726408756E+02  0.00000000000E+00 0.  1.
         11    1    3    3    0    0 -0.26696850046E+01 -0.92812293409E+01 -0.72294078213E+01  0.12063696523E+02  0.51100000000E-03 0. -1.
        -11    1    3    3    0    0  0.21842160374E+02  0.63730564545E+01  0.16221592596E+02  0.27943440822E+02  0.51100000000E-03 0.  1.
         12    1    3    3    0    0 -0.20186217622E+02  0.20702288357E+02 -0.14738502391E+02  0.32454453898E+02  0.00000000000E+00 0. -1.
</event>
<event>
 7    1  0.2688173E-013  0.7246157E+02  0.7816164E-02  0.1226708E+00
        -11   -1    0    0    0    0  0.00000000000E+00  0.00000000000E+00  0.45593999997E+02  0.45594000000E+02  0.51100000000E-03 0.  1.
         11   -1    0    0    0    0 -0.00000000000E+00 -0.00000000000E+00 -0.45593999997E+02  0.45594000000E+02  0.51100000000E-03 0. -1.
    9900012    2    1    2    0    0  0.13493718370E+02  0.97985634959E+01 -0.85198037225E+01  0.72461565809E+02  0.69999994157E+02 0.  0.
        -12    1    1    2    0    0 -0.13493718370E+02 -0.97985634959E+01  0.85198037225E+01  0.18726434191E+02  0.00000000000E+00 0.  1.
         11    1    3    3    0    0  0.66295202149E+01  0.42944666592E+01 -0.91789295584E+01  0.12109737002E+02  0.51100000000E-03 0. -1.
        -11    1    3    3    0    0 -0.12987512483E+02 -0.22133663055E+02 -0.41135441663E+01  0.25990301395E+02  0.51100000000E-03 0.  1.
         12    1    3    3    0    0  0.19851710638E+02  0.27637759892E+02  0.47726700023E+01  0.34361527412E+02  0.00000000000E+00 0. -1.
</event>
<event>
 7    1  0.2688173E-013  0.7246157E+02  0.7816164E-02  0.1226708E+00
        -11   -1    0    0    0    0  0.00000000000E+00  0.00000000000E+00  0.45593999997E+02  0.45594000000E+02  0.51100000000E-03 0.  1.
         11   -1    0    0    0    0 -0.00000000000E+00 -0.00000000000E+00 -0.45593999997E+02  0.45594000000E+02  0.51100000000E-03 0. -1.
    9900012    2    1    2    0    0 -0.16464597226E+02  0.29288796719E+01 -0.84272120848E+01  0.72461569441E+02  0.69999998889E+02 0.  0.
        -12    1    1    2    0    0  0.16464597226E+02 -0.29288796719E+01  0.84272120848E+01  0.18726430559E+02  0.00000000000E+00 0.  1.
         11    1    3    3    0    0 -0.88107658393E+01  0.48038210147E+00 -0.24253100453E+02  0.25808394826E+02  0.51100000000E-03 0. -1.
        -11    1    3    3    0    0 -0.53343192139E+01  0.63356818824E+01 -0.14118541392E+02  0.16368538044E+02  0.51100000000E-03 0.  1.
        -12    1    3    3    0    0 -0.23195121729E+01 -0.38871843120E+01  0.29944429760E+02  0.30284636572E+02  0.00000000000E+00 0.  1.
</event>
<event>
 7    1  0.2688173E-013  0.7246166E+02  0.7816164E-02  0.1226708E+00
        -11   -1    0    0    0    0  0.00000000000E+00  0.00000000000E+00  0.45593999997E+02  0.45594000000E+02  0.51100000000E-03 0.  1.
         11   -1    0    0    0    0 -0.00000000000E+00 -0.00000000000E+00 -0.45593999997E+02  0.45594000000E+02  0.51100000000E-03 0. -1.
    9900012    2    1    2    0    0 -0.59439506195E+01 -0.16614396423E+02 -0.62695507000E+01  0.72461655364E+02  0.70000110819E+02 0.  0.
        -12    1    1    2    0    0  0.59439506195E+01  0.16614396423E+02  0.62695507000E+01  0.18726344636E+02  0.00000000000E+00 0.  1.
         11    1    3    3    0    0 -0.39963352833E+01  0.16656268571E+02 -0.94400007705E+01  0.19558005860E+02  0.51100000000E-03 0. -1.
        -11    1    3    3    0    0 -0.37255949972E+01 -0.56698031102E+01 -0.17241992339E+02  0.18528708144E+02  0.51100000000E-03 0.  1.
        -12    1    3    3    0    0  0.17779796610E+01 -0.27600861884E+02  0.20412442409E+02  0.34374941360E+02  0.00000000000E+00 0.  1.
</event>
<event>
 7    1  0.2688173E-013  0.7246153E+02  0.7816164E-02  0.1226708E+00
        -11   -1    0    0    0    0  0.00000000000E+00  0.00000000000E+00  0.45593999997E+02  0.45594000000E+02  0.51100000000E-03 0. -1.
         11   -1    0    0    0    0 -0.00000000000E+00 -0.00000000000E+00 -0.45593999997E+02  0.45594000000E+02  0.51100000000E-03 0.  1.
    9900012    2    1    2    0    0  0.10495880863E+02 -0.11118248286E+02  0.10812110714E+02  0.72461529480E+02  0.69999946832E+02 0.  0.
        -12    1    1    2    0    0 -0.10495880863E+02  0.11118248286E+02 -0.10812110714E+02  0.18726470520E+02  0.00000000000E+00 0.  1.
         11    1    3    3    0    0 -0.15967960704E+02  0.48140230002E+01 -0.35667430315E+00  0.16681660688E+02  0.51100000000E-03 0. -1.
        -11    1    3    3    0    0  0.21221882737E+02  0.12337159647E+02 -0.98057868409E+00  0.24566956463E+02  0.51100000000E-03 0.  1.
         12    1    3    3    0    0  0.52419588306E+01 -0.28269430933E+02  0.12149363702E+02  0.31212912328E+02  0.00000000000E+00 0. -1.
</event>
<event>
 7    1  0.2688173E-013  0.7246158E+02  0.7816164E-02  0.1226708E+00
        -11   -1    0    0    0    0  0.00000000000E+00  0.00000000000E+00  0.45593999997E+02  0.45594000000E+02  0.51100000000E-03 0.  1.
         11   -1    0    0    0    0 -0.00000000000E+00 -0.00000000000E+00 -0.45593999997E+02  0.45594000000E+02  0.51100000000E-03 0. -1.
    9900012    2    1    2    0    0 -0.56122954168E-01  0.16256367574E+02 -0.92955012077E+01  0.72461575376E+02  0.70000006620E+02 0.  0.
        -12    1    1    2    0    0  0.56122954168E-01 -0.16256367574E+02  0.92955012077E+01  0.18726424624E+02  0.00000000000E+00 0.  1.
         11    1    3    3    0    0 -0.59651522771E+01  0.10792469703E+02  0.14821869050E+02  0.19280774009E+02  0.51100000000E-03 0. -1.
        -11    1    3    3    0    0 -0.41415075967E+00  0.10485953369E+02  0.12133149121E+02  0.16041821803E+02  0.51100000000E-03 0.  1.
         12    1    3    3    0    0  0.63231800826E+01 -0.50220554978E+01 -0.36250519379E+02  0.37138979564E+02  0.00000000000E+00 0. -1.
</event>
<event>
 7    1  0.2688173E-013  0.7246155E+02  0.7816164E-02  0.1226708E+00
        -11   -1    0    0    0    0  0.00000000000E+00  0.00000000000E+00  0.45593999997E+02  0.45594000000E+02  0.51100000000E-03 0.  1.
         11   -1    0    0    0    0 -0.00000000000E+00 -0.00000000000E+00 -0.45593999997E+02  0.45594000000E+02  0.51100000000E-03 0. -1.
    9900012    2    1    2    0    0 -0.53987791076E+01 -0.13031491240E+02 -0.12317194457E+02  0.72461551882E+02  0.69999976015E+02 0.  0.
        -12    1    1    2    0    0  0.53987791076E+01  0.13031491240E+02  0.12317194457E+02  0.18726448118E+02  0.00000000000E+00 0.  1.
         11    1    3    3    0    0 -0.13153666632E+02 -0.65400258481E+01 -0.13317478008E+02  0.19827912263E+02  0.51100000000E-03 0. -1.
        -11    1    3    3    0    0 -0.14077543974E+02 -0.16133916245E+02  0.13875917184E+02  0.25515124450E+02  0.51100000000E-03 0.  1.
         12    1    3    3    0    0  0.21832431498E+02  0.96424508529E+01 -0.12875633633E+02  0.27118515170E+02  0.00000000000E+00 0. -1.
</event>
<event>
 7    1  0.2688173E-013  0.7246171E+02  0.7816164E-02  0.1226708E+00
        -11   -1    0    0    0    0  0.00000000000E+00  0.00000000000E+00  0.45593999997E+02  0.45594000000E+02  0.51100000000E-03 0.  1.
         11   -1    0    0    0    0 -0.00000000000E+00 -0.00000000000E+00 -0.45593999997E+02  0.45594000000E+02  0.51100000000E-03 0. -1.
    9900012    2    1    2    0    0  0.14403886769E+02  0.76924689504E+01 -0.91666727045E+01  0.72461710430E+02  0.70000182552E+02 0.  0.
        -12    1    1    2    0    0 -0.14403886769E+02 -0.76924689504E+01  0.91666727045E+01  0.18726289570E+02  0.00000000000E+00 0.  1.
         11    1    3    3    0    0  0.34978142341E+01 -0.54758908043E+01 -0.27432526203E+02  0.28191551548E+02  0.51100000000E-03 0. -1.
        -11    1    3    3    0    0  0.42418165792E+01 -0.54327338744E+01 -0.85365423581E+01  0.10971789322E+02  0.51100000000E-03 0.  1.
        -12    1    3    3    0    0  0.66642559554E+01  0.18601093629E+02  0.26802395857E+02  0.33298369559E+02  0.00000000000E+00 0.  1.
</event>
<event>
 7    1  0.2688173E-013  0.7246168E+02  0.7816164E-02  0.1226708E+00
        -11   -1    0    0    0    0  0.00000000000E+00  0.00000000000E+00  0.45593999997E+02  0.45594000000E+02  0.51100000000E-03 0. -1.
         11   -1    0    0    0    0 -0.00000000000E+00 -0.00000000000E+00 -0.45593999997E+02  0.45594000000E+02  0.51100000000E-03 0.  1.
    9900012    2    1    2    0    0  0.33414759319E+01  0.15913659433E+02  0.92879036369E+01  0.72461677032E+02  0.70000139045E+02 0.  0.
        -12    1    1    2    0    0 -0.33414759319E+01 -0.15913659433E+02 -0.92879036369E+01  0.18726322968E+02  0.00000000000E+00 0.  1.
         11    1    3    3    0    0 -0.11796453364E+02 -0.59419167924E+01  0.69948905899E+01  0.14946276519E+02  0.51100000000E-03 0. -1.
        -11    1    3    3    0    0 -0.11843098625E+02  0.65002205153E+01 -0.16422939065E+02  0.21265577339E+02  0.51100000000E-03 0.  1.
         12    1    3    3    0    0  0.26981027921E+02  0.15355355710E+02  0.18715952112E+02  0.36249823174E+02  0.00000000000E+00 0. -1.
</event>
<event>
 7    1  0.2688173E-013  0.7246153E+02  0.7816164E-02  0.1226708E+00
        -11   -1    0    0    0    0  0.00000000000E+00  0.00000000000E+00  0.45593999997E+02  0.45594000000E+02  0.51100000000E-03 0.  1.
         11   -1    0    0    0    0 -0.00000000000E+00 -0.00000000000E+00 -0.45593999997E+02  0.45594000000E+02  0.51100000000E-03 0. -1.
    9900012    2    1    2    0    0  0.66951043381E+01 -0.16732203952E+02 -0.50881814191E+01  0.72461530462E+02  0.69999948111E+02 0.  0.
        -12    1    1    2    0    0 -0.66951043381E+01  0.16732203952E+02  0.50881814191E+01  0.18726469538E+02  0.00000000000E+00 0.  1.
         11    1    3    3    0    0  0.25021321609E+02 -0.16563896045E+02 -0.39516059742E+01  0.30266225025E+02  0.51100000000E-03 0. -1.
        -11    1    3    3    0    0 -0.75186717129E+01 -0.14631943289E+02 -0.12675514916E+02  0.20767591757E+02  0.51100000000E-03 0.  1.
        -12    1    3    3    0    0 -0.10807545558E+02  0.14463635381E+02  0.11538939472E+02  0.21427713680E+02  0.00000000000E+00 0.  1.
</event>
<event>
 7    1  0.2688173E-013  0.7246162E+02  0.7816164E-02  0.1226708E+00
        -11   -1    0    0    0    0  0.00000000000E+00  0.00000000000E+00  0.45593999997E+02  0.45594000000E+02  0.51100000000E-03 0.  1.
         11   -1    0    0    0    0 -0.00000000000E+00 -0.00000000000E+00 -0.45593999997E+02  0.45594000000E+02  0.51100000000E-03 0. -1.
    9900012    2    1    2    0    0  0.62933472906E+00 -0.18199929938E+02 -0.43639092275E+01  0.72461622462E+02  0.70000067958E+02 0.  0.
        -12    1    1    2    0    0 -0.62933472906E+00  0.18199929938E+02  0.43639092275E+01  0.18726377538E+02  0.00000000000E+00 0.  1.
         11    1    3    3    0    0  0.48209391927E+00  0.19977745982E+02 -0.42330443896E+01  0.20426977606E+02  0.51100000000E-03 0. -1.
        -11    1    3    3    0    0 -0.83313591479E+01  0.37480216790E+01 -0.13953124563E+01  0.92415425590E+01  0.51100000000E-03 0.  1.
        -12    1    3    3    0    0  0.84785999577E+01 -0.41925697599E+02  0.12644476184E+01  0.42793102297E+02  0.00000000000E+00 0.  1.
</event>
<event>
 7    1  0.2688173E-013  0.7246154E+02  0.7816164E-02  0.1226708E+00
        -11   -1    0    0    0    0  0.00000000000E+00  0.00000000000E+00  0.45593999997E+02  0.45594000000E+02  0.51100000000E-03 0.  1.
         11   -1    0    0    0    0 -0.00000000000E+00 -0.00000000000E+00 -0.45593999997E+02  0.45594000000E+02  0.51100000000E-03 0. -1.
    9900012    2    1    2    0    0  0.96516584460E+01  0.68554595573E+01 -0.14509603790E+02  0.72461536408E+02  0.69999955857E+02 0.  0.
        -12    1    1    2    0    0 -0.96516584460E+01 -0.68554595573E+01  0.14509603790E+02  0.18726463592E+02  0.00000000000E+00 0.  1.
         11    1    3    3    0    0  0.29548021192E+02  0.16174048488E+02 -0.12548382124E+02  0.35946450382E+02  0.51100000000E-03 0. -1.
        -11    1    3    3    0    0 -0.15851631994E+02  0.85621635255E+01  0.46804088209E+00  0.18022317932E+02  0.51100000000E-03 0.  1.
        -12    1    3    3    0    0 -0.40447307529E+01 -0.17880752457E+02 -0.24292625479E+01  0.18492768095E+02  0.00000000000E+00 0.  1.
</event>
<event>
 7    1  0.2688173E-013  0.7246158E+02  0.7816164E-02  0.1226708E+00
        -11   -1    0    0    0    0  0.00000000000E+00  0.00000000000E+00  0.45593999997E+02  0.45594000000E+02  0.51100000000E-03 0.  1.
         11   -1    0    0    0    0 -0.00000000000E+00 -0.00000000000E+00 -0.45593999997E+02  0.45594000000E+02  0.51100000000E-03 0. -1.
    9900012    2    1    2    0    0 -0.56246243997E+01  0.45676531094E+01 -0.17267863098E+02  0.72461576141E+02  0.70000007617E+02 0.  0.
        -12    1    1    2    0    0  0.56246243997E+01 -0.45676531094E+01  0.17267863098E+02  0.18726423859E+02  0.00000000000E+00 0.  1.
         11    1    3    3    0    0 -0.61230347135E+00 -0.18089264149E+01 -0.22592927464E+02  0.22673497789E+02  0.51100000000E-03 0. -1.
        -11    1    3    3    0    0 -0.86698300968E+01  0.92424832491E+01 -0.20198675854E+02  0.23844830824E+02  0.51100000000E-03 0.  1.
        -12    1    3    3    0    0  0.36575091685E+01 -0.28659037248E+01  0.25523740220E+02  0.25943247528E+02  0.00000000000E+00 0.  1.
</event>
<event>
 7    1  0.2688173E-013  0.7246158E+02  0.7816164E-02  0.1226708E+00
        -11   -1    0    0    0    0  0.00000000000E+00  0.00000000000E+00  0.45593999997E+02  0.45594000000E+02  0.51100000000E-03 0. -1.
         11   -1    0    0    0    0 -0.00000000000E+00 -0.00000000000E+00 -0.45593999997E+02  0.45594000000E+02  0.51100000000E-03 0.  1.
    9900012    2    1    2    0    0 -0.12251710591E+02 -0.12897525820E+02 -0.58504836627E+01  0.72461581662E+02  0.70000014809E+02 0.  0.
        -12    1    1    2    0    0  0.12251710591E+02  0.12897525820E+02  0.58504836627E+01  0.18726418338E+02  0.00000000000E+00 0.  1.
         11    1    3    3    0    0  0.95173082350E+00 -0.15730299346E+02 -0.94455201285E+01  0.18372968183E+02  0.51100000000E-03 0. -1.
        -11    1    3    3    0    0 -0.32808482975E+01 -0.20447970440E+02  0.15745795292E+02  0.26015640109E+02  0.51100000000E-03 0.  1.
        -12    1    3    3    0    0 -0.99225931166E+01  0.23280743966E+02 -0.12150758826E+02  0.28072973370E+02  0.00000000000E+00 0.  1.
</event>
<event>
 7    1  0.2688173E-013  0.7246156E+02  0.7816164E-02  0.1226708E+00
        -11   -1    0    0    0    0  0.00000000000E+00  0.00000000000E+00  0.45593999997E+02  0.45594000000E+02  0.51100000000E-03 0.  1.
         11   -1    0    0    0    0 -0.00000000000E+00 -0.00000000000E+00 -0.45593999997E+02  0.45594000000E+02  0.51100000000E-03 0. -1.
    9900012    2    1    2    0    0  0.10004516272E+02  0.62379548687E+01 -0.14549134037E+02  0.72461555383E+02  0.69999980575E+02 0.  0.
        -12    1    1    2    0    0 -0.10004516272E+02 -0.62379548687E+01  0.14549134037E+02  0.18726444617E+02  0.00000000000E+00 0.  1.
         11    1    3    3    0    0 -0.90643439562E+01  0.17647279671E+02 -0.17987292428E+02  0.26779311050E+02  0.51100000000E-03 0. -1.
        -11    1    3    3    0    0  0.22458945990E+01  0.12101352538E+02  0.10208311736E+02  0.15990509828E+02  0.51100000000E-03 0.  1.
        -12    1    3    3    0    0  0.16822965629E+02 -0.23510677341E+02 -0.67701533449E+01  0.29691734505E+02  0.00000000000E+00 0.  1.
</event>
<event>
 7    1  0.2688173E-013  0.7246176E+02  0.7816164E-02  0.1226708E+00
        -11   -1    0    0    0    0  0.00000000000E+00  0.00000000000E+00  0.45593999997E+02  0.45594000000E+02  0.51100000000E-03 0.  1.
         11   -1    0    0    0    0 -0.00000000000E+00 -0.00000000000E+00 -0.45593999997E+02  0.45594000000E+02  0.51100000000E-03 0. -1.
    9900012    2    1    2    0    0  0.38532934693E+00  0.79393944579E+01 -0.16955514998E+02  0.72461763007E+02  0.70000251044E+02 0.  0.
        -12    1    1    2    0    0 -0.38532934693E+00 -0.79393944579E+01  0.16955514998E+02  0.18726236993E+02  0.00000000000E+00 0.  1.
         11    1    3    3    0    0 -0.44603713963E+01  0.13846949422E+02 -0.31111036411E+02  0.34344279118E+02  0.51100000000E-03 0. -1.
        -11    1    3    3    0    0 -0.44479287707E+01  0.57754569320E+01 -0.83666542792E+01  0.11096885924E+02  0.51100000000E-03 0.  1.
        -12    1    3    3    0    0  0.92936295139E+01 -0.11683011896E+02  0.22522175692E+02  0.27020597965E+02  0.00000000000E+00 0.  1.
</event>
<event>
 7    1  0.2688173E-013  0.7246196E+02  0.7816164E-02  0.1226707E+00
        -11   -1    0    0    0    0  0.00000000000E+00  0.00000000000E+00  0.45593999997E+02  0.45594000000E+02  0.51100000000E-03 0.  1.
         11   -1    0    0    0    0 -0.00000000000E+00 -0.00000000000E+00 -0.45593999997E+02  0.45594000000E+02  0.51100000000E-03 0. -1.
    9900012    2    1    2    0    0  0.18491263005E+02 -0.38920001038E+00 -0.29302561878E+01  0.72461957026E+02  0.70000503788E+02 0.  0.
        -12    1    1    2    0    0 -0.18491263005E+02  0.38920001038E+00  0.29302561878E+01  0.18726042974E+02  0.00000000000E+00 0.  1.
         11    1    3    3    0    0 -0.88065782758E+01 -0.31939446862E-01  0.79166502273E+01  0.11841882964E+02  0.51100000000E-03 0. -1.
        -11    1    3    3    0    0  0.34426035948E+02  0.12468061963E+02  0.72468010472E+01  0.37324531422E+02  0.51100000000E-03 0.  1.
         12    1    3    3    0    0 -0.71281946676E+01 -0.12825322527E+02 -0.18093707462E+02  0.23295542639E+02  0.00000000000E+00 0. -1.
</event>
<event>
 7    1  0.2688173E-013  0.7246156E+02  0.7816164E-02  0.1226708E+00
        -11   -1    0    0    0    0  0.00000000000E+00  0.00000000000E+00  0.45593999997E+02  0.45594000000E+02  0.51100000000E-03 0.  1.
         11   -1    0    0    0    0 -0.00000000000E+00 -0.00000000000E+00 -0.45593999997E+02  0.45594000000E+02  0.51100000000E-03 0. -1.
    9900012    2    1    2    0    0  0.11215794834E+02  0.76258394027E+01 -0.12912473934E+02  0.72461562446E+02  0.69999989776E+02 0.  0.
        -12    1    1    2    0    0 -0.11215794834E+02 -0.76258394027E+01  0.12912473934E+02  0.18726437554E+02  0.00000000000E+00 0.  1.
         11    1    3    3    0    0  0.19733306537E+01 -0.24352930173E+02 -0.23506330012E+02  0.33904377192E+02  0.51100000000E-03 0. -1.
        -11    1    3    3    0    0 -0.11427057255E+00  0.41038821582E+00 -0.29309876273E+01  0.29617840880E+01  0.51100000000E-03 0.  1.
        -12    1    3    3    0    0  0.93567347530E+01  0.31568381360E+02  0.13524843705E+02  0.35595401166E+02  0.00000000000E+00 0.  1.
</event>
<event>
 7    1  0.2688173E-013  0.7246154E+02  0.7816164E-02  0.1226708E+00
        -11   -1    0    0    0    0  0.00000000000E+00  0.00000000000E+00  0.45593999997E+02  0.45594000000E+02  0.51100000000E-03 0. -1.
         11   -1    0    0    0    0 -0.00000000000E+00 -0.00000000000E+00 -0.45593999997E+02  0.45594000000E+02  0.51100000000E-03 0.  1.
    9900012    2    1    2    0    0 -0.18096796404E+02  0.48093242437E+01 -0.23822227445E+00  0.72461537718E+02  0.69999957563E+02 0.  0.
        -12    1    1    2    0    0  0.18096796404E+02 -0.48093242437E+01  0.23822227445E+00  0.18726462282E+02  0.00000000000E+00 0.  1.
         11    1    3    3    0    0 -0.27755409613E+02 -0.16339994327E+02  0.50560303880E+01  0.32602478754E+02  0.51100000000E-03 0. -1.
        -11    1    3    3    0    0 -0.69037170416E+01  0.95643338360E+01  0.92234140609E+01  0.14973615392E+02  0.51100000000E-03 0.  1.
        -12    1    3    3    0    0  0.16562330250E+02  0.11584984735E+02 -0.14517666723E+02  0.24885443571E+02  0.00000000000E+00 0.  1.
</event>
<event>
 7    1  0.2688173E-013  0.7246156E+02  0.7816164E-02  0.1226708E+00
        -11   -1    0    0    0    0  0.00000000000E+00  0.00000000000E+00  0.45593999997E+02  0.45594000000E+02  0.51100000000E-03 0.  1.
         11   -1    0    0    0    0 -0.00000000000E+00 -0.00000000000E+00 -0.45593999997E+02  0.45594000000E+02  0.51100000000E-03 0. -1.
    9900012    2    1    2    0    0  0.75024745986E+01 -0.10988323859E+02 -0.13177594962E+02  0.72461564265E+02  0.69999992146E+02 0.  0.
        -12    1    1    2    0    0 -0.75024745986E+01  0.10988323859E+02  0.13177594962E+02  0.18726435735E+02  0.00000000000E+00 0.  1.
         11    1    3    3    0    0 -0.10484797334E+02  0.77291701806E+01 -0.92177195714E+01  0.15957361974E+02  0.51100000000E-03 0. -1.
        -11    1    3    3    0    0 -0.14502003297E+01  0.14590748051E+02  0.72305409753E+01  0.16348508578E+02  0.51100000000E-03 0.  1.
         12    1    3    3    0    0  0.19437472263E+02 -0.33308242091E+02 -0.11190416366E+02  0.40155693713E+02  0.00000000000E+00 0. -1.
</event>
<event>
 7    1  0.2688173E-013  0.7246157E+02  0.7816164E-02  0.1226708E+00
        -11   -1    0    0    0    0  0.00000000000E+00  0.00000000000E+00  0.45593999997E+02  0.45594000000E+02  0.51100000000E-03 0. -1.
         11   -1    0    0    0    0 -0.00000000000E+00 -0.00000000000E+00 -0.45593999997E+02  0.45594000000E+02  0.51100000000E-03 0.  1.
    9900012    2    1    2    0    0 -0.10648496938E+02  0.62127802194E+01  0.14095749682E+02  0.72461567233E+02  0.69999996012E+02 0.  0.
        -12    1    1    2    0    0  0.10648496938E+02 -0.62127802194E+01 -0.14095749682E+02  0.18726432767E+02  0.00000000000E+00 0.  1.
         11    1    3    3    0    0 -0.79698088760E+01  0.14242673192E+02 -0.13939917784E+02  0.21463757855E+02  0.51100000000E-03 0. -1.
        -11    1    3    3    0    0  0.13625305230E+02  0.70690279440E+01  0.16250922524E+00  0.15350782006E+02  0.51100000000E-03 0.  1.
         12    1    3    3    0    0 -0.16303993292E+02 -0.15098920917E+02  0.27873158241E+02  0.35647027372E+02  0.00000000000E+00 0. -1.
</event>
<event>
 7    1  0.2688173E-013  0.7246156E+02  0.7816164E-02  0.1226708E+00
        -11   -1    0    0    0    0  0.00000000000E+00  0.00000000000E+00  0.45593999997E+02  0.45594000000E+02  0.51100000000E-03 0. -1.
         11   -1    0    0    0    0 -0.00000000000E+00 -0.00000000000E+00 -0.45593999997E+02  0.45594000000E+02  0.51100000000E-03 0.  1.
    9900012    2    1    2    0    0  0.18173274491E+02  0.44740955912E+01  0.62785859549E+00  0.72461557639E+02  0.69999983514E+02 0.  0.
        -12    1    1    2    0    0 -0.18173274491E+02 -0.44740955912E+01 -0.62785859549E+00  0.18726442361E+02  0.00000000000E+00 0.  1.
         11    1    3    3    0    0  0.15121353830E+00  0.14174818126E+02  0.83528878799E+01  0.16453542799E+02  0.51100000000E-03 0. -1.
        -11    1    3    3    0    0  0.21628462416E+02  0.97040403540E+01  0.13290738181E+02  0.27177242452E+02  0.51100000000E-03 0.  1.
        -12    1    3    3    0    0 -0.36064014633E+01 -0.19404762889E+02 -0.21015767465E+02  0.28830772387E+02  0.00000000000E+00 0.  1.
</event>
<event>
 7    1  0.2688173E-013  0.7246157E+02  0.7816164E-02  0.1226708E+00
        -11   -1    0    0    0    0  0.00000000000E+00  0.00000000000E+00  0.45593999997E+02  0.45594000000E+02  0.51100000000E-03 0.  1.
         11   -1    0    0    0    0 -0.00000000000E+00 -0.00000000000E+00 -0.45593999997E+02  0.45594000000E+02  0.51100000000E-03 0. -1.
    9900012    2    1    2    0    0  0.52756456384E-01  0.72369240905E+01 -0.17271457540E+02  0.72461572175E+02  0.70000002449E+02 0.  0.
        -12    1    1    2    0    0 -0.52756456384E-01 -0.72369240905E+01  0.17271457540E+02  0.18726427825E+02  0.00000000000E+00 0.  1.
         11    1    3    3    0    0 -0.13800180956E+01 -0.69581484858E+01  0.51771101516E+01  0.87819559369E+01  0.51100000000E-03 0. -1.
        -11    1    3    3    0    0  0.82865974602E+01 -0.19877742199E+02  0.13165206757E+01  0.21576041327E+02  0.51100000000E-03 0.  1.
         12    1    3    3    0    0 -0.68538229083E+01  0.34072814775E+02 -0.23765088368E+02  0.42103574911E+02  0.00000000000E+00 0. -1.
</event>
<event>
 7    1  0.2688173E-013  0.7246180E+02  0.7816164E-02  0.1226707E+00
        -11   -1    0    0    0    0  0.00000000000E+00  0.00000000000E+00  0.45593999997E+02  0.45594000000E+02  0.51100000000E-03 0. -1.
         11   -1    0    0    0    0 -0.00000000000E+00 -0.00000000000E+00 -0.45593999997E+02  0.45594000000E+02  0.51100000000E-03 0.  1.
    9900012    2    1    2    0    0  0.35162305063E+01 -0.17647110740E+02 -0.51852035927E+01  0.72461795613E+02  0.70000293519E+02 0.  0.
        -12    1    1    2    0    0 -0.35162305063E+01  0.17647110740E+02  0.51852035927E+01  0.18726204387E+02  0.00000000000E+00 0.  1.
         11    1    3    3    0    0  0.10078334625E+02 -0.59828724536E+01 -0.91470270134E+01  0.14867269253E+02  0.51100000000E-03 0. -1.
        -11    1    3    3    0    0  0.14684035095E+02 -0.15609383991E+02 -0.17101617631E+02  0.27417860622E+02  0.51100000000E-03 0.  1.
         12    1    3    3    0    0 -0.21246139213E+02  0.39451457045E+01  0.21063441052E+02  0.30176665738E+02  0.00000000000E+00 0. -1.
</event>
<event>
 7    1  0.2688173E-013  0.7246157E+02  0.7816164E-02  0.1226708E+00
        -11   -1    0    0    0    0  0.00000000000E+00  0.00000000000E+00  0.45593999997E+02  0.45594000000E+02  0.51100000000E-03 0.  1.
         11   -1    0    0    0    0 -0.00000000000E+00 -0.00000000000E+00 -0.45593999997E+02  0.45594000000E+02  0.51100000000E-03 0. -1.
    9900012    2    1    2    0    0  0.15584178019E+02  0.43421651476E+01 -0.94317655413E+01  0.72461569375E+02  0.69999998803E+02 0.  0.
        -12    1    1    2    0    0 -0.15584178019E+02 -0.43421651476E+01  0.94317655413E+01  0.18726430625E+02  0.00000000000E+00 0.  1.
         11    1    3    3    0    0  0.26232155897E+02  0.80130750684E+01 -0.20711903889E+02  0.34370311870E+02  0.51100000000E-03 0. -1.
        -11    1    3    3    0    0  0.69141704769E+01  0.17946315957E+01 -0.84853001033E+01  0.11091743508E+02  0.51100000000E-03 0.  1.
        -12    1    3    3    0    0 -0.17562148355E+02 -0.54655415164E+01  0.19765438451E+02  0.26999513997E+02  0.00000000000E+00 0.  1.
</event>
<event>
 7    1  0.2688173E-013  0.7246171E+02  0.7816164E-02  0.1226708E+00
        -11   -1    0    0    0    0  0.00000000000E+00  0.00000000000E+00  0.45593999997E+02  0.45594000000E+02  0.51100000000E-03 0. -1.
         11   -1    0    0    0    0 -0.00000000000E+00 -0.00000000000E+00 -0.45593999997E+02  0.45594000000E+02  0.51100000000E-03 0.  1.
    9900012    2    1    2    0    0 -0.32094718887E+01  0.17076274334E+02  0.69838530493E+01  0.72461706764E+02  0.70000177777E+02 0.  0.
        -12    1    1    2    0    0  0.32094718887E+01 -0.17076274334E+02 -0.69838530493E+01  0.18726293236E+02  0.00000000000E+00 0.  1.
         11    1    3    3    0    0  0.13798746737E+02 -0.19392541927E+01 -0.17754202753E+02  0.22569400390E+02  0.51100000000E-03 0. -1.
        -11    1    3    3    0    0  0.58120955840E+01  0.42173221682E+01 -0.56301063494E+01  0.91249306362E+01  0.51100000000E-03 0.  1.
         12    1    3    3    0    0 -0.22820314210E+02  0.14798206359E+02  0.30368162151E+02  0.40767375737E+02  0.00000000000E+00 0. -1.
</event>
<event>
 7    1  0.2688173E-013  0.7246157E+02  0.7816164E-02  0.1226708E+00
        -11   -1    0    0    0    0  0.00000000000E+00  0.00000000000E+00  0.45593999997E+02  0.45594000000E+02  0.51100000000E-03 0. -1.
         11   -1    0    0    0    0 -0.00000000000E+00 -0.00000000000E+00 -0.45593999997E+02  0.45594000000E+02  0.51100000000E-03 0.  1.
    9900012    2    1    2    0    0 -0.61686333147E+01  0.17288093035E+02  0.37079406449E+01  0.72461574245E+02  0.70000005146E+02 0.  0.
        -12    1    1    2    0    0  0.61686333147E+01 -0.17288093035E+02 -0.37079406449E+01  0.18726425755E+02  0.00000000000E+00 0.  1.
         11    1    3    3    0    0  0.20232299123E+01 -0.29210461820E+01 -0.47483082093E+01  0.59306324441E+01  0.51100000000E-03 0. -1.
        -11    1    3    3    0    0 -0.46770513961E+01 -0.11602112702E+02 -0.20076006438E+02  0.23654383603E+02  0.51100000000E-03 0.  1.
         12    1    3    3    0    0 -0.35148118309E+01  0.31811251918E+02  0.28532255292E+02  0.42876558197E+02  0.00000000000E+00 0. -1.
</event>
<event>
 7    1  0.2688173E-013  0.7246155E+02  0.7816164E-02  0.1226708E+00
        -11   -1    0    0    0    0  0.00000000000E+00  0.00000000000E+00  0.45593999997E+02  0.45594000000E+02  0.51100000000E-03 0.  1.
         11   -1    0    0    0    0 -0.00000000000E+00 -0.00000000000E+00 -0.45593999997E+02  0.45594000000E+02  0.51100000000E-03 0. -1.
    9900012    2    1    2    0    0  0.18506297357E+02  0.20193710075E+01  0.20295321978E+01  0.72461550735E+02  0.69999974520E+02 0.  0.
        -12    1    1    2    0    0 -0.18506297357E+02 -0.20193710075E+01 -0.20295321978E+01  0.18726449265E+02  0.00000000000E+00 0.  1.
         11    1    3    3    0    0 -0.74982894362E+01  0.12986581871E+00 -0.80677649916E+00  0.75426850776E+01  0.51100000000E-03 0. -1.
        -11    1    3    3    0    0  0.19439957816E+01 -0.75349315161E+01 -0.25446031714E+02  0.26609299931E+02  0.51100000000E-03 0.  1.
        -12    1    3    3    0    0  0.24060591012E+02  0.94244367049E+01  0.28282340411E+02  0.38309565727E+02  0.00000000000E+00 0.  1.
</event>
<event>
 7    1  0.2688173E-013  0.7246146E+02  0.7816164E-02  0.1226708E+00
        -11   -1    0    0    0    0  0.00000000000E+00  0.00000000000E+00  0.45593999997E+02  0.45594000000E+02  0.51100000000E-03 0.  1.
         11   -1    0    0    0    0 -0.00000000000E+00 -0.00000000000E+00 -0.45593999997E+02  0.45594000000E+02  0.51100000000E-03 0. -1.
    9900012    2    1    2    0    0  0.54642309390E+01  0.43614721163E+01 -0.17372477532E+02  0.72461461762E+02  0.69999858616E+02 0.  0.
        -12    1    1    2    0    0 -0.54642309390E+01 -0.43614721163E+01  0.17372477532E+02  0.18726538238E+02  0.00000000000E+00 0.  1.
         11    1    3    3    0    0 -0.37703896309E+01 -0.45740987366E+01 -0.18917706681E+02  0.19824677641E+02  0.51100000000E-03 0. -1.
        -11    1    3    3    0    0  0.82201782204E+01 -0.19961801788E+02 -0.66386782294E+01  0.22585767852E+02  0.51100000000E-03 0.  1.
        -12    1    3    3    0    0  0.10144423495E+01  0.28897372641E+02  0.81839073785E+01  0.30051016269E+02  0.00000000000E+00 0.  1.
</event>
<event>
 7    1  0.2688173E-013  0.7246157E+02  0.7816164E-02  0.1226708E+00
        -11   -1    0    0    0    0  0.00000000000E+00  0.00000000000E+00  0.45593999997E+02  0.45594000000E+02  0.51100000000E-03 0.  1.
         11   -1    0    0    0    0 -0.00000000000E+00 -0.00000000000E+00 -0.45593999997E+02  0.45594000000E+02  0.51100000000E-03 0. -1.
    9900012    2    1    2    0    0  0.18509039858E+02  0.25897418579E+01  0.11780569436E+01  0.72461571149E+02  0.70000001114E+02 0.  0.
        -12    1    1    2    0    0 -0.18509039858E+02 -0.25897418579E+01 -0.11780569436E+01  0.18726428851E+02  0.00000000000E+00 0.  1.
         11    1    3    3    0    0  0.14601098361E+02 -0.12658021238E+02 -0.14413842636E+02  0.24107601183E+02  0.51100000000E-03 0. -1.
        -11    1    3    3    0    0 -0.65174001670E+01  0.16059135353E+02 -0.10486752048E+02  0.20256956879E+02  0.51100000000E-03 0.  1.
         12    1    3    3    0    0  0.10425341664E+02 -0.81137225702E+00  0.26078651627E+02  0.28097013087E+02  0.00000000000E+00 0. -1.
</event>
<event>
 7    1  0.2688173E-013  0.7246156E+02  0.7816164E-02  0.1226708E+00
        -11   -1    0    0    0    0  0.00000000000E+00  0.00000000000E+00  0.45593999997E+02  0.45594000000E+02  0.51100000000E-03 0. -1.
         11   -1    0    0    0    0 -0.00000000000E+00 -0.00000000000E+00 -0.45593999997E+02  0.45594000000E+02  0.51100000000E-03 0.  1.
    9900012    2    1    2    0    0 -0.55749373748E+01 -0.83498901307E+01 -0.15807564035E+02  0.72461556861E+02  0.69999982500E+02 0.  0.
        -12    1    1    2    0    0  0.55749373748E+01  0.83498901307E+01  0.15807564035E+02  0.18726443139E+02  0.00000000000E+00 0.  1.
         11    1    3    3    0    0 -0.16501083947E+02 -0.17982687056E+02  0.68960539102E+01  0.25361750038E+02  0.51100000000E-03 0. -1.
        -11    1    3    3    0    0 -0.52771104800E+01  0.18507731724E+02 -0.19955956974E+01  0.19348551135E+02  0.51100000000E-03 0.  1.
        -12    1    3    3    0    0  0.16203257053E+02 -0.88749347983E+01 -0.20708022248E+02  0.27751255687E+02  0.00000000000E+00 0.  1.
</event>
<event>
 7    1  0.2688173E-013  0.7246174E+02  0.7816164E-02  0.1226708E+00
        -11   -1    0    0    0    0  0.00000000000E+00  0.00000000000E+00  0.45593999997E+02  0.45594000000E+02  0.51100000000E-03 0. -1.
         11   -1    0    0    0    0 -0.00000000000E+00 -0.00000000000E+00 -0.45593999997E+02  0.45594000000E+02  0.51100000000E-03 0.  1.
    9900012    2    1    2    0    0 -0.12104746800E+02  0.43997087825E+01  0.13593772515E+02  0.72461735459E+02  0.70000215158E+02 0.  0.
        -12    1    1    2    0    0  0.12104746800E+02 -0.43997087825E+01 -0.13593772515E+02  0.18726264541E+02  0.00000000000E+00 0.  1.
         11    1    3    3    0    0 -0.12265280550E+01  0.98800228236E+01  0.22309586477E+02  0.24430245007E+02  0.51100000000E-03 0. -1.
        -11    1    3    3    0    0  0.52001409194E+01  0.13685874674E+02  0.91727597619E+01  0.17276693928E+02  0.51100000000E-03 0.  1.
        -12    1    3    3    0    0 -0.16078359665E+02 -0.19166188715E+02 -0.17888573724E+02  0.30754796524E+02  0.00000000000E+00 0.  1.
</event>
<event>
 7    1  0.2688173E-013  0.7246162E+02  0.7816164E-02  0.1226708E+00
        -11   -1    0    0    0    0  0.00000000000E+00  0.00000000000E+00  0.45593999997E+02  0.45594000000E+02  0.51100000000E-03 0. -1.
         11   -1    0    0    0    0 -0.00000000000E+00 -0.00000000000E+00 -0.45593999997E+02  0.45594000000E+02  0.51100000000E-03 0.  1.
    9900012    2    1    2    0    0  0.13457243216E+02  0.12200037652E+01  0.12965014723E+02  0.72461617249E+02  0.70000061168E+02 0.  0.
        -12    1    1    2    0    0 -0.13457243216E+02 -0.12200037652E+01 -0.12965014723E+02  0.18726382751E+02  0.00000000000E+00 0.  1.
         11    1    3    3    0    0 -0.73451642921E+00 -0.39754177197E+01 -0.84047114428E+01  0.93264481518E+01  0.51100000000E-03 0. -1.
        -11    1    3    3    0    0  0.29863150654E+02  0.37985605626E+01 -0.68066007190E+01  0.30863678377E+02  0.51100000000E-03 0.  1.
         12    1    3    3    0    0 -0.15671391010E+02  0.13968609223E+01  0.28176326885E+02  0.32271490721E+02  0.00000000000E+00 0. -1.
</event>
<event>
 7    1  0.2688173E-013  0.7246173E+02  0.7816164E-02  0.1226708E+00
        -11   -1    0    0    0    0  0.00000000000E+00  0.00000000000E+00  0.45593999997E+02  0.45594000000E+02  0.51100000000E-03 0.  1.
         11   -1    0    0    0    0 -0.00000000000E+00 -0.00000000000E+00 -0.45593999997E+02  0.45594000000E+02  0.51100000000E-03 0. -1.
    9900012    2    1    2    0    0  0.18317999187E+01  0.16059205387E+02 -0.94561877901E+01  0.72461733524E+02  0.70000212636E+02 0.  0.
        -12    1    1    2    0    0 -0.18317999187E+01 -0.16059205387E+02  0.94561877901E+01  0.18726266476E+02  0.00000000000E+00 0.  1.
         11    1    3    3    0    0 -0.19280628884E+02  0.31353149274E+01 -0.81988679868E+01  0.21184765431E+02  0.51100000000E-03 0. -1.
        -11    1    3    3    0    0  0.38318773229E+01  0.25096230645E+02 -0.11403564228E+02  0.27830654929E+02  0.51100000000E-03 0.  1.
        -12    1    3    3    0    0  0.17280551480E+02 -0.12172340185E+02  0.10146244424E+02  0.23446313163E+02  0.00000000000E+00 0.  1.
</event>
<event>
 7    1  0.2688173E-013  0.7246131E+02  0.7816164E-02  0.1226709E+00
        -11   -1    0    0    0    0  0.00000000000E+00  0.00000000000E+00  0.45593999997E+02  0.45594000000E+02  0.51100000000E-03 0.  1.
         11   -1    0    0    0    0 -0.00000000000E+00 -0.00000000000E+00 -0.45593999997E+02  0.45594000000E+02  0.51100000000E-03 0. -1.
    9900012    2    1    2    0    0 -0.10986002061E+02  0.25086194484E+01 -0.14956721771E+02  0.72461309450E+02  0.69999660200E+02 0.  0.
        -12    1    1    2    0    0  0.10986002061E+02 -0.25086194484E+01  0.14956721771E+02  0.18726690550E+02  0.00000000000E+00 0.  1.
         11    1    3    3    0    0  0.20452592666E+01 -0.93282674480E+01  0.14496302807E+02  0.17359218138E+02  0.51100000000E-03 0. -1.
        -11    1    3    3    0    0 -0.51142702024E+01 -0.61823827187E+01  0.89067167532E+01  0.11987794600E+02  0.51100000000E-03 0.  1.
         12    1    3    3    0    0 -0.79169911255E+01  0.18019269615E+02 -0.38359741331E+02  0.43114296712E+02  0.00000000000E+00 0. -1.
</event>
<event>
 7    1  0.2688173E-013  0.7246123E+02  0.7816164E-02  0.1226709E+00
        -11   -1    0    0    0    0  0.00000000000E+00  0.00000000000E+00  0.45593999997E+02  0.45594000000E+02  0.51100000000E-03 0.  1.
         11   -1    0    0    0    0 -0.00000000000E+00 -0.00000000000E+00 -0.45593999997E+02  0.45594000000E+02  0.51100000000E-03 0. -1.
    9900012    2    1    2    0    0 -0.16408286723E+02 -0.10523449731E+01 -0.89639589514E+01  0.72461231373E+02  0.69999558490E+02 0.  0.
        -12    1    1    2    0    0  0.16408286723E+02  0.10523449731E+01  0.89639589514E+01  0.18726768627E+02  0.00000000000E+00 0.  1.
         11    1    3    3    0    0 -0.25084885680E+02 -0.90958256116E+01 -0.15027757941E+02  0.30623831278E+02  0.51100000000E-03 0. -1.
        -11    1    3    3    0    0 -0.20601110245E+01 -0.14584997077E+02  0.79167919651E+01  0.16722493607E+02  0.51100000000E-03 0.  1.
        -12    1    3    3    0    0  0.10736709981E+02  0.22628477715E+02 -0.18529929752E+01  0.25114906488E+02  0.00000000000E+00 0.  1.
</event>
<event>
 7    1  0.2688173E-013  0.7246158E+02  0.7816164E-02  0.1226708E+00
        -11   -1    0    0    0    0  0.00000000000E+00  0.00000000000E+00  0.45593999997E+02  0.45594000000E+02  0.51100000000E-03 0.  1.
         11   -1    0    0    0    0 -0.00000000000E+00 -0.00000000000E+00 -0.45593999997E+02  0.45594000000E+02  0.51100000000E-03 0. -1.
    9900012    2    1    2    0    0  0.17886079874E+02  0.50239341226E+01  0.23509514069E+01  0.72461581767E+02  0.70000014945E+02 0.  0.
        -12    1    1    2    0    0 -0.17886079874E+02 -0.50239341226E+01 -0.23509514069E+01  0.18726418233E+02  0.00000000000E+00 0.  1.
         11    1    3    3    0    0 -0.86779755731E+01  0.15827643628E+02 -0.95231477840E+01  0.20408623345E+02  0.51100000000E-03 0. -1.
        -11    1    3    3    0    0 -0.60754841925E+01 -0.13315664470E+02 -0.46841257064E+01  0.15367480677E+02  0.51100000000E-03 0.  1.
         12    1    3    3    0    0  0.32639539639E+02  0.25119549644E+01  0.16558224897E+02  0.36685477745E+02  0.00000000000E+00 0. -1.
</event>
<event>
 7    1  0.2688173E-013  0.7246163E+02  0.7816164E-02  0.1226708E+00
        -11   -1    0    0    0    0  0.00000000000E+00  0.00000000000E+00  0.45593999997E+02  0.45594000000E+02  0.51100000000E-03 0.  1.
         11   -1    0    0    0    0 -0.00000000000E+00 -0.00000000000E+00 -0.45593999997E+02  0.45594000000E+02  0.51100000000E-03 0. -1.
    9900012    2    1    2    0    0 -0.95104126694E+01 -0.16094595726E+02 -0.10922317498E+01  0.72461630066E+02  0.70000077864E+02 0.  0.
        -12    1    1    2    0    0  0.95104126694E+01  0.16094595726E+02  0.10922317498E+01  0.18726369934E+02  0.00000000000E+00 0.  1.
         11    1    3    3    0    0 -0.43510471637E+01 -0.16523752998E+02  0.26153139031E+02  0.31240241773E+02  0.51100000000E-03 0. -1.
        -11    1    3    3    0    0  0.43901430431E+01  0.34559609694E+01  0.49740535664E+01  0.74805234645E+01  0.51100000000E-03 0.  1.
        -12    1    3    3    0    0 -0.95495085488E+01 -0.30268036967E+01 -0.32219424347E+02  0.33740864829E+02  0.00000000000E+00 0.  1.
</event>
<event>
 7    1  0.2688173E-013  0.7246153E+02  0.7816164E-02  0.1226708E+00
        -11   -1    0    0    0    0  0.00000000000E+00  0.00000000000E+00  0.45593999997E+02  0.45594000000E+02  0.51100000000E-03 0.  1.
         11   -1    0    0    0    0 -0.00000000000E+00 -0.00000000000E+00 -0.45593999997E+02  0.45594000000E+02  0.51100000000E-03 0. -1.
    9900012    2    1    2    0    0  0.31520037068E+01 -0.16220966708E+02  0.88105439636E+01  0.72461532815E+02  0.69999951176E+02 0.  0.
        -12    1    1    2    0    0 -0.31520037068E+01  0.16220966708E+02 -0.88105439636E+01  0.18726467185E+02  0.00000000000E+00 0.  1.
         11    1    3    3    0    0  0.47431104478E+01 -0.28356070279E+01  0.21407026909E+01  0.59262443595E+01  0.51100000000E-03 0. -1.
        -11    1    3    3    0    0  0.16224633077E+02 -0.26343664624E+02  0.23467105540E+02  0.38832105621E+02  0.51100000000E-03 0.  1.
         12    1    3    3    0    0 -0.17815739818E+02  0.12958304943E+02 -0.16797264267E+02  0.27703182834E+02  0.00000000000E+00 0. -1.
</event>
<event>
 7    1  0.2688173E-013  0.7246166E+02  0.7816164E-02  0.1226708E+00
        -11   -1    0    0    0    0  0.00000000000E+00  0.00000000000E+00  0.45593999997E+02  0.45594000000E+02  0.51100000000E-03 0.  1.
         11   -1    0    0    0    0 -0.00000000000E+00 -0.00000000000E+00 -0.45593999997E+02  0.45594000000E+02  0.51100000000E-03 0. -1.
    9900012    2    1    2    0    0 -0.16191889391E+02  0.40378784451E+01 -0.84967065752E+01  0.72461661142E+02  0.70000118346E+02 0.  0.
        -12    1    1    2    0    0  0.16191889391E+02 -0.40378784451E+01  0.84967065752E+01  0.18726338858E+02  0.00000000000E+00 0.  1.
         11    1    3    3    0    0  0.98065258385E+00  0.50028136631E+01  0.20544489213E+02  0.21167566259E+02  0.51100000000E-03 0.  1.
        -11    1    3    3    0    0  0.10632869146E+02 -0.35859450535E+00 -0.18904195714E+02  0.21692282318E+02  0.51100000000E-03 0. -1.
         12    1    3    3    0    0 -0.27805411121E+02 -0.60634071264E+00 -0.10137000075E+02  0.29601812566E+02  0.00000000000E+00 0. -1.
</event>
<event>
 7    1  0.2688173E-013  0.7246154E+02  0.7816164E-02  0.1226708E+00
        -11   -1    0    0    0    0  0.00000000000E+00  0.00000000000E+00  0.45593999997E+02  0.45594000000E+02  0.51100000000E-03 0. -1.
         11   -1    0    0    0    0 -0.00000000000E+00 -0.00000000000E+00 -0.45593999997E+02  0.45594000000E+02  0.51100000000E-03 0.  1.
    9900012    2    1    2    0    0 -0.12716387669E+02 -0.12543035572E+02  0.56254797056E+01  0.72461540681E+02  0.69999961424E+02 0.  0.
        -12    1    1    2    0    0  0.12716387669E+02  0.12543035572E+02 -0.56254797056E+01  0.18726459319E+02  0.00000000000E+00 0.  1.
         11    1    3    3    0    0 -0.23072314595E+01 -0.15924473269E+02  0.31412255895E+01  0.16394494941E+02  0.51100000000E-03 0. -1.
        -11    1    3    3    0    0 -0.19883456051E+01 -0.20811730327E+02 -0.14400554028E+02  0.25386169346E+02  0.51100000000E-03 0.  1.
         12    1    3    3    0    0 -0.84208106041E+01  0.24193168024E+02  0.16884808144E+02  0.30680876395E+02  0.00000000000E+00 0. -1.
</event>
<event>
 7    1  0.2688173E-013  0.7246154E+02  0.7816164E-02  0.1226708E+00
        -11   -1    0    0    0    0  0.00000000000E+00  0.00000000000E+00  0.45593999997E+02  0.45594000000E+02  0.51100000000E-03 0.  1.
         11   -1    0    0    0    0 -0.00000000000E+00 -0.00000000000E+00 -0.45593999997E+02  0.45594000000E+02  0.51100000000E-03 0. -1.
    9900012    2    1    2    0    0 -0.16241990244E+02 -0.27585170656E+01  0.89032848098E+01  0.72461544278E+02  0.69999966110E+02 0.  0.
        -12    1    1    2    0    0  0.16241990244E+02  0.27585170656E+01 -0.89032848098E+01  0.18726455722E+02  0.00000000000E+00 0.  1.
         11    1    3    3    0    0 -0.14730283581E+02  0.11652303493E+02  0.14163443415E+01  0.18835165585E+02  0.51100000000E-03 0. -1.
        -11    1    3    3    0    0 -0.12488943775E+02 -0.10162327555E+02  0.26650408778E+02  0.31136648925E+02  0.51100000000E-03 0.  1.
        -12    1    3    3    0    0  0.10977237112E+02 -0.42484930035E+01 -0.19163468310E+02  0.22489729769E+02  0.00000000000E+00 0.  1.
</event>
<event>
 7    1  0.2688173E-013  0.7246166E+02  0.7816164E-02  0.1226708E+00
        -11   -1    0    0    0    0  0.00000000000E+00  0.00000000000E+00  0.45593999997E+02  0.45594000000E+02  0.51100000000E-03 0. -1.
         11   -1    0    0    0    0 -0.00000000000E+00 -0.00000000000E+00 -0.45593999997E+02  0.45594000000E+02  0.51100000000E-03 0.  1.
    9900012    2    1    2    0    0 -0.31731525828E+01 -0.12871722804E+01  0.18410593875E+02  0.72461663556E+02  0.70000121491E+02 0.  0.
        -12    1    1    2    0    0  0.31731525828E+01  0.12871722804E+01 -0.18410593875E+02  0.18726336444E+02  0.00000000000E+00 0.  1.
         11    1    3    3    0    0 -0.29128489500E+01  0.72839857180E+01  0.27682568479E+02  0.28772656026E+02  0.51100000000E-03 0. -1.
        -11    1    3    3    0    0  0.48535343872E+01  0.41546291633E+01  0.14723911689E+02  0.16050274615E+02  0.51100000000E-03 0.  1.
        -12    1    3    3    0    0 -0.51138380201E+01 -0.12725787162E+02 -0.23995886293E+02  0.27638732915E+02  0.00000000000E+00 0.  1.
</event>
<event>
 7    1  0.2688173E-013  0.7246168E+02  0.7816164E-02  0.1226708E+00
        -11   -1    0    0    0    0  0.00000000000E+00  0.00000000000E+00  0.45593999997E+02  0.45594000000E+02  0.51100000000E-03 0.  1.
         11   -1    0    0    0    0 -0.00000000000E+00 -0.00000000000E+00 -0.45593999997E+02  0.45594000000E+02  0.51100000000E-03 0. -1.
    9900012    2    1    2    0    0  0.41165668723E+00 -0.18486017458E+02 -0.29618693582E+01  0.72461682348E+02  0.70000145971E+02 0.  0.
        -12    1    1    2    0    0 -0.41165668723E+00  0.18486017458E+02  0.29618693582E+01  0.18726317652E+02  0.00000000000E+00 0.  1.
         11    1    3    3    0    0  0.10156810270E+02  0.23425563485E+01  0.62257266853E+01  0.12141171201E+02  0.51100000000E-03 0. -1.
        -11    1    3    3    0    0 -0.14204066795E+02  0.15434564841E+02  0.42307867141E+01  0.21398150898E+02  0.51100000000E-03 0.  1.
         12    1    3    3    0    0  0.44589132129E+01 -0.36263138648E+02 -0.13418382758E+02  0.38922360250E+02  0.00000000000E+00 0. -1.
</event>
<event>
 7    1  0.2688173E-013  0.7246165E+02  0.7816164E-02  0.1226708E+00
        -11   -1    0    0    0    0  0.00000000000E+00  0.00000000000E+00  0.45593999997E+02  0.45594000000E+02  0.51100000000E-03 0.  1.
         11   -1    0    0    0    0 -0.00000000000E+00 -0.00000000000E+00 -0.45593999997E+02  0.45594000000E+02  0.51100000000E-03 0. -1.
    9900012    2    1    2    0    0 -0.12199448973E+02 -0.33564418464E+01 -0.13805219064E+02  0.72461646096E+02  0.70000098746E+02 0.  0.
        -12    1    1    2    0    0  0.12199448973E+02  0.33564418464E+01  0.13805219064E+02  0.18726353904E+02  0.00000000000E+00 0.  1.
         11    1    3    3    0    0  0.71611643869E+01 -0.11686566450E+02 -0.24543227342E+02  0.28110996414E+02  0.51100000000E-03 0. -1.
        -11    1    3    3    0    0  0.47644492471E+01  0.48836671827E+01 -0.10166098284E+02  0.12243354784E+02  0.51100000000E-03 0.  1.
        -12    1    3    3    0    0 -0.24125062607E+02  0.34464574214E+01  0.20904106562E+02  0.32107294898E+02  0.00000000000E+00 0.  1.
</event>
<event>
 7    1  0.2688173E-013  0.7246156E+02  0.7816164E-02  0.1226708E+00
        -11   -1    0    0    0    0  0.00000000000E+00  0.00000000000E+00  0.45593999997E+02  0.45594000000E+02  0.51100000000E-03 0. -1.
         11   -1    0    0    0    0 -0.00000000000E+00 -0.00000000000E+00 -0.45593999997E+02  0.45594000000E+02  0.51100000000E-03 0.  1.
    9900012    2    1    2    0    0 -0.84134724596E+01  0.29063476926E+01  0.16475623524E+02  0.72461560235E+02  0.69999986896E+02 0.  0.
        -12    1    1    2    0    0  0.84134724596E+01 -0.29063476926E+01 -0.16475623524E+02  0.18726439765E+02  0.00000000000E+00 0.  1.
         11    1    3    3    0    0 -0.36342344139E+01 -0.19534440421E+01  0.31719573349E+02  0.31986793167E+02  0.51100000000E-03 0. -1.
        -11    1    3    3    0    0  0.83171315702E+01  0.75872648510E+01  0.78927799462E+01  0.13749081461E+02  0.51100000000E-03 0.  1.
        -12    1    3    3    0    0 -0.13096369616E+02 -0.27274731163E+01 -0.23136729771E+02  0.26725685608E+02  0.00000000000E+00 0.  1.
</event>
<event>
 7    1  0.2688173E-013  0.7246152E+02  0.7816164E-02  0.1226708E+00
        -11   -1    0    0    0    0  0.00000000000E+00  0.00000000000E+00  0.45593999997E+02  0.45594000000E+02  0.51100000000E-03 0. -1.
         11   -1    0    0    0    0 -0.00000000000E+00 -0.00000000000E+00 -0.45593999997E+02  0.45594000000E+02  0.51100000000E-03 0.  1.
    9900012    2    1    2    0    0 -0.13003019191E+02 -0.12721624180E+02  0.44455598206E+01  0.72461515226E+02  0.69999928264E+02 0.  0.
        -12    1    1    2    0    0  0.13003019191E+02  0.12721624180E+02 -0.44455598206E+01  0.18726484774E+02  0.00000000000E+00 0.  1.
         11    1    3    3    0    0 -0.25902195978E+01 -0.63068748372E+01  0.15184706877E+02  0.16645156382E+02  0.51100000000E-03 0. -1.
        -11    1    3    3    0    0 -0.19995046239E+02 -0.23844711540E+02  0.35571351936E+01  0.31321324263E+02  0.51100000000E-03 0.  1.
        -12    1    3    3    0    0  0.95822466466E+01  0.17429962197E+02 -0.14296282250E+02  0.24495034582E+02  0.00000000000E+00 0.  1.
</event>
<event>
 7    1  0.2688173E-013  0.7246158E+02  0.7816164E-02  0.1226708E+00
        -11   -1    0    0    0    0  0.00000000000E+00  0.00000000000E+00  0.45593999997E+02  0.45594000000E+02  0.51100000000E-03 0.  1.
         11   -1    0    0    0    0 -0.00000000000E+00 -0.00000000000E+00 -0.45593999997E+02  0.45594000000E+02  0.51100000000E-03 0. -1.
    9900012    2    1    2    0    0  0.13030157360E+02 -0.41822626536E+01 -0.12782895065E+02  0.72461582083E+02  0.70000015357E+02 0.  0.
        -12    1    1    2    0    0 -0.13030157360E+02  0.41822626536E+01  0.12782895065E+02  0.18726417917E+02  0.00000000000E+00 0.  1.
         11    1    3    3    0    0  0.78709538880E+00  0.15021133790E+02 -0.46808990933E+01  0.15753247159E+02  0.51100000000E-03 0. -1.
        -11    1    3    3    0    0 -0.17311869637E+02 -0.84223916446E+01 -0.15114678495E+02  0.24476335870E+02  0.51100000000E-03 0.  1.
         12    1    3    3    0    0  0.29554931608E+02 -0.10781004799E+02  0.70126825233E+01  0.32231999054E+02  0.00000000000E+00 0. -1.
</event>
<event>
 7    1  0.2688173E-013  0.7246156E+02  0.7816164E-02  0.1226708E+00
        -11   -1    0    0    0    0  0.00000000000E+00  0.00000000000E+00  0.45593999997E+02  0.45594000000E+02  0.51100000000E-03 0. -1.
         11   -1    0    0    0    0 -0.00000000000E+00 -0.00000000000E+00 -0.45593999997E+02  0.45594000000E+02  0.51100000000E-03 0.  1.
    9900012    2    1    2    0    0  0.11688432941E+02  0.69076058171E+01  0.12897477963E+02  0.72461563591E+02  0.69999991268E+02 0.  0.
        -12    1    1    2    0    0 -0.11688432941E+02 -0.69076058171E+01 -0.12897477963E+02  0.18726436409E+02  0.00000000000E+00 0.  1.
         11    1    3    3    0    0 -0.23570821709E+01  0.15420841815E+02 -0.28412470539E+01  0.15856572256E+02  0.51100000000E-03 0. -1.
        -11    1    3    3    0    0  0.13145816204E+01  0.92630159401E+01 -0.15720401491E+02  0.18293786170E+02  0.51100000000E-03 0.  1.
         12    1    3    3    0    0  0.12730933492E+02 -0.17776251938E+02  0.31459126508E+02  0.38311205165E+02  0.00000000000E+00 0. -1.
</event>
<event>
 7    1  0.2688173E-013  0.7246157E+02  0.7816164E-02  0.1226708E+00
        -11   -1    0    0    0    0  0.00000000000E+00  0.00000000000E+00  0.45593999997E+02  0.45594000000E+02  0.51100000000E-03 0. -1.
         11   -1    0    0    0    0 -0.00000000000E+00 -0.00000000000E+00 -0.45593999997E+02  0.45594000000E+02  0.51100000000E-03 0.  1.
    9900012    2    1    2    0    0 -0.10458391408E+02  0.14294411420E+02  0.60803825841E+01  0.72461569453E+02  0.69999998904E+02 0.  0.
        -12    1    1    2    0    0  0.10458391408E+02 -0.14294411420E+02 -0.60803825841E+01  0.18726430547E+02  0.00000000000E+00 0.  1.
         11    1    3    3    0    0  0.13219412027E+02 -0.87862377586E+01  0.56260389592E+01  0.16840520863E+02  0.51100000000E-03 0. -1.
        -11    1    3    3    0    0 -0.17594860572E+01 -0.12647382165E+02  0.44339612225E+01  0.13517103210E+02  0.51100000000E-03 0.  1.
        -12    1    3    3    0    0 -0.21918317378E+02  0.35728031343E+02 -0.39796175976E+01  0.42103945380E+02  0.00000000000E+00 0.  1.
</event>
<event>
 7    1  0.2688173E-013  0.7246150E+02  0.7816164E-02  0.1226708E+00
        -11   -1    0    0    0    0  0.00000000000E+00  0.00000000000E+00  0.45593999997E+02  0.45594000000E+02  0.51100000000E-03 0.  1.
         11   -1    0    0    0    0 -0.00000000000E+00 -0.00000000000E+00 -0.45593999997E+02  0.45594000000E+02  0.51100000000E-03 0. -1.
    9900012    2    1    2    0    0  0.11097071458E+02  0.14851084790E+02 -0.26423771688E+01  0.72461498151E+02  0.69999906020E+02 0.  0.
        -12    1    1    2    0    0 -0.11097071458E+02 -0.14851084790E+02  0.26423771688E+01  0.18726501849E+02  0.00000000000E+00 0.  1.
         11    1    3    3    0    0 -0.77663525853E+01  0.54096511920E+01 -0.71789983686E+01  0.11879334002E+02  0.51100000000E-03 0. -1.
        -11    1    3    3    0    0 -0.20040933217E+02  0.24459205325E+01  0.58882565959E+01  0.21030765499E+02  0.51100000000E-03 0.  1.
         12    1    3    3    0    0  0.38904357261E+02  0.69955130660E+01 -0.13516353962E+01  0.39551398650E+02  0.00000000000E+00 0. -1.
</event>
<event>
 7    1  0.2688173E-013  0.7246161E+02  0.7816164E-02  0.1226708E+00
        -11   -1    0    0    0    0  0.00000000000E+00  0.00000000000E+00  0.45593999997E+02  0.45594000000E+02  0.51100000000E-03 0. -1.
         11   -1    0    0    0    0 -0.00000000000E+00 -0.00000000000E+00 -0.45593999997E+02  0.45594000000E+02  0.51100000000E-03 0.  1.
    9900012    2    1    2    0    0 -0.18152762016E+02  0.20440714109E+01 -0.41202800422E+01  0.72461609414E+02  0.70000050961E+02 0.  0.
        -12    1    1    2    0    0  0.18152762016E+02 -0.20440714109E+01  0.41202800422E+01  0.18726390586E+02  0.00000000000E+00 0.  1.
         11    1    3    3    0    0  0.17922265360E+01 -0.27647729128E+01 -0.11208317223E+02  0.11682569086E+02  0.51100000000E-03 0. -1.
        -11    1    3    3    0    0 -0.15357348174E+02 -0.15103234837E+02 -0.18247714839E+02  0.28230036178E+02  0.51100000000E-03 0.  1.
         12    1    3    3    0    0 -0.45876403777E+01  0.19912079161E+02  0.25335752020E+02  0.32549004150E+02  0.00000000000E+00 0. -1.
</event>
<event>
 7    1  0.2688173E-013  0.7246154E+02  0.7816164E-02  0.1226708E+00
        -11   -1    0    0    0    0  0.00000000000E+00  0.00000000000E+00  0.45593999997E+02  0.45594000000E+02  0.51100000000E-03 0.  1.
         11   -1    0    0    0    0 -0.00000000000E+00 -0.00000000000E+00 -0.45593999997E+02  0.45594000000E+02  0.51100000000E-03 0. -1.
    9900012    2    1    2    0    0 -0.14318058136E+02  0.72473699013E+01 -0.96513894083E+01  0.72461535390E+02  0.69999954531E+02 0.  0.
        -12    1    1    2    0    0  0.14318058136E+02 -0.72473699013E+01  0.96513894083E+01  0.18726464610E+02  0.00000000000E+00 0.  1.
         11    1    3    3    0    0 -0.24841915181E+02 -0.17992651846E+02 -0.14574978548E+02  0.33960068761E+02  0.51100000000E-03 0. -1.
        -11    1    3    3    0    0  0.12910314879E+02  0.16211110841E+01  0.68125891676E+01  0.14687259883E+02  0.51100000000E-03 0.  1.
        -12    1    3    3    0    0 -0.23864578346E+01  0.23618910663E+02 -0.18890000275E+01  0.23814206747E+02  0.00000000000E+00 0.  1.
</event>
<event>
 7    1  0.2688173E-013  0.7246107E+02  0.7816164E-02  0.1226709E+00
        -11   -1    0    0    0    0  0.00000000000E+00  0.00000000000E+00  0.45593999997E+02  0.45594000000E+02  0.51100000000E-03 0.  1.
         11   -1    0    0    0    0 -0.00000000000E+00 -0.00000000000E+00 -0.45593999997E+02  0.45594000000E+02  0.51100000000E-03 0. -1.
    9900012    2    1    2    0    0  0.12058967694E+01  0.14423300463E+02  0.11883274559E+02  0.72461067589E+02  0.69999345130E+02 0.  0.
        -12    1    1    2    0    0 -0.12058967694E+01 -0.14423300463E+02 -0.11883274559E+02  0.18726932411E+02  0.00000000000E+00 0.  1.
         11    1    3    3    0    0  0.10632389236E+02  0.15796082336E+02 -0.50563954022E+01  0.19701041920E+02  0.51100000000E-03 0. -1.
        -11    1    3    3    0    0 -0.10994718282E+02 -0.11980100221E+02 -0.13089159275E+02  0.20874211894E+02  0.51100000000E-03 0.  1.
        -12    1    3    3    0    0  0.15682258152E+01  0.10607318349E+02  0.30028829237E+02  0.31885813775E+02  0.00000000000E+00 0.  1.
</event>
<event>
 7    1  0.2688173E-013  0.7246160E+02  0.7816164E-02  0.1226708E+00
        -11   -1    0    0    0    0  0.00000000000E+00  0.00000000000E+00  0.45593999997E+02  0.45594000000E+02  0.51100000000E-03 0. -1.
         11   -1    0    0    0    0 -0.00000000000E+00 -0.00000000000E+00 -0.45593999997E+02  0.45594000000E+02  0.51100000000E-03 0.  1.
    9900012    2    1    2    0    0  0.17182951822E+02  0.50379023937E+01  0.54812245216E+01  0.72461598421E+02  0.70000036640E+02 0.  0.
        -12    1    1    2    0    0 -0.17182951822E+02 -0.50379023937E+01 -0.54812245216E+01  0.18726401579E+02  0.00000000000E+00 0.  1.
         11    1    3    3    0    0  0.17239269922E+02 -0.47747957856E+01 -0.57228722831E+01  0.18781436837E+02  0.51100000000E-03 0. -1.
        -11    1    3    3    0    0 -0.87209158673E+01 -0.14543454076E+02 -0.10483182880E+02  0.19936487995E+02  0.51100000000E-03 0.  1.
        -12    1    3    3    0    0  0.86645977672E+01  0.24356152255E+02  0.21687279685E+02  0.33743673589E+02  0.00000000000E+00 0.  1.
</event>
<event>
 7    1  0.2688173E-013  0.7246157E+02  0.7816164E-02  0.1226708E+00
        -11   -1    0    0    0    0  0.00000000000E+00  0.00000000000E+00  0.45593999997E+02  0.45594000000E+02  0.51100000000E-03 0.  1.
         11   -1    0    0    0    0 -0.00000000000E+00 -0.00000000000E+00 -0.45593999997E+02  0.45594000000E+02  0.51100000000E-03 0. -1.
    9900012    2    1    2    0    0  0.53754451749E+01 -0.12917114462E+02 -0.12447167618E+02  0.72461568451E+02  0.69999997599E+02 0.  0.
        -12    1    1    2    0    0 -0.53754451749E+01  0.12917114462E+02  0.12447167618E+02  0.18726431549E+02  0.00000000000E+00 0.  1.
         11    1    3    3    0    0 -0.21599838074E+02  0.12570456551E+02 -0.15358046075E+02  0.29333239886E+02  0.51100000000E-03 0. -1.
        -11    1    3    3    0    0  0.42701436200E+01  0.15923595213E+01  0.61350370395E+01  0.76425398342E+01  0.51100000000E-03 0.  1.
        -12    1    3    3    0    0  0.22705139629E+02 -0.27079930534E+02 -0.32241585818E+01  0.35485788731E+02  0.00000000000E+00 0.  1.
</event>
<event>
 7    1  0.2688173E-013  0.7246151E+02  0.7816164E-02  0.1226708E+00
        -11   -1    0    0    0    0  0.00000000000E+00  0.00000000000E+00  0.45593999997E+02  0.45594000000E+02  0.51100000000E-03 0.  1.
         11   -1    0    0    0    0 -0.00000000000E+00 -0.00000000000E+00 -0.45593999997E+02  0.45594000000E+02  0.51100000000E-03 0. -1.
    9900012    2    1    2    0    0  0.11022454487E+01 -0.54085923019E+01 -0.17894511111E+02  0.72461512246E+02  0.69999924381E+02 0.  0.
        -12    1    1    2    0    0 -0.11022454487E+01  0.54085923019E+01  0.17894511111E+02  0.18726487754E+02  0.00000000000E+00 0.  1.
         11    1    3    3    0    0 -0.20697736571E+02  0.21258666385E+02 -0.16363567725E+02  0.33883529104E+02  0.51100000000E-03 0. -1.
        -11    1    3    3    0    0  0.11942159666E+02 -0.91111099980E+01  0.71694537326E+01  0.16644175256E+02  0.51100000000E-03 0.  1.
        -12    1    3    3    0    0  0.98578223536E+01 -0.17556148688E+02 -0.87003971183E+01  0.21933807885E+02  0.00000000000E+00 0.  1.
</event>
<event>
 7    1  0.2688173E-013  0.7246155E+02  0.7816164E-02  0.1226708E+00
        -11   -1    0    0    0    0  0.00000000000E+00  0.00000000000E+00  0.45593999997E+02  0.45594000000E+02  0.51100000000E-03 0.  1.
         11   -1    0    0    0    0 -0.00000000000E+00 -0.00000000000E+00 -0.45593999997E+02  0.45594000000E+02  0.51100000000E-03 0. -1.
    9900012    2    1    2    0    0 -0.11154407318E+02  0.13801359556E+02 -0.59817603998E+01  0.72461553842E+02  0.69999978568E+02 0.  0.
        -12    1    1    2    0    0  0.11154407318E+02 -0.13801359556E+02  0.59817603998E+01  0.18726446158E+02  0.00000000000E+00 0.  1.
         11    1    3    3    0    0  0.55912886693E+01  0.32498168325E+01  0.33039708498E+01  0.72622339583E+01  0.51100000000E-03 0. -1.
        -11    1    3    3    0    0 -0.29721848070E+02  0.49564063731E+01  0.17549886789E+02  0.34870513953E+02  0.51100000000E-03 0.  1.
         12    1    3    3    0    0  0.12976152082E+02  0.55951363507E+01 -0.26835618039E+02  0.30328805930E+02  0.00000000000E+00 0. -1.
</event>
<event>
 7    1  0.2688173E-013  0.7246176E+02  0.7816164E-02  0.1226707E+00
        -11   -1    0    0    0    0  0.00000000000E+00  0.00000000000E+00  0.45593999997E+02  0.45594000000E+02  0.51100000000E-03 0.  1.
         11   -1    0    0    0    0 -0.00000000000E+00 -0.00000000000E+00 -0.45593999997E+02  0.45594000000E+02  0.51100000000E-03 0. -1.
    9900012    2    1    2    0    0  0.53143866926E+01  0.67659363164E+01 -0.16632838921E+02  0.72461763573E+02  0.70000251781E+02 0.  0.
        -12    1    1    2    0    0 -0.53143866926E+01 -0.67659363164E+01  0.16632838921E+02  0.18726236427E+02  0.00000000000E+00 0.  1.
         11    1    3    3    0    0  0.11476991829E+02 -0.78897084599E+01 -0.21510966780E+02  0.25625973798E+02  0.51100000000E-03 0.  1.
        -11    1    3    3    0    0 -0.75890905258E+01 -0.14531072256E+02 -0.27797135944E+01  0.16627482186E+02  0.51100000000E-03 0. -1.
        -12    1    3    3    0    0  0.14264853891E+01  0.29186717032E+02  0.76578414533E+01  0.30208307589E+02  0.00000000000E+00 0.  1.
</event>
<event>
 7    1  0.2688173E-013  0.7246160E+02  0.7816164E-02  0.1226708E+00
        -11   -1    0    0    0    0  0.00000000000E+00  0.00000000000E+00  0.45593999997E+02  0.45594000000E+02  0.51100000000E-03 0.  1.
         11   -1    0    0    0    0 -0.00000000000E+00 -0.00000000000E+00 -0.45593999997E+02  0.45594000000E+02  0.51100000000E-03 0. -1.
    9900012    2    1    2    0    0  0.62334172415E+01  0.16423054295E+02 -0.64889076199E+01  0.72461598184E+02  0.70000036331E+02 0.  0.
        -12    1    1    2    0    0 -0.62334172415E+01 -0.16423054295E+02  0.64889076199E+01  0.18726401816E+02  0.00000000000E+00 0.  1.
         11    1    3    3    0    0  0.72858428904E+01 -0.15994583645E+02 -0.14038610530E+02  0.22494283684E+02  0.51100000000E-03 0. -1.
        -11    1    3    3    0    0  0.10798632920E+02  0.20410905431E+02 -0.10407537661E+02  0.25328489373E+02  0.51100000000E-03 0.  1.
        -12    1    3    3    0    0 -0.11851058569E+02  0.12006732508E+02  0.17957240571E+02  0.24638825127E+02  0.00000000000E+00 0.  1.
</event>
<event>
 7    1  0.2688173E-013  0.7246156E+02  0.7816164E-02  0.1226708E+00
        -11   -1    0    0    0    0  0.00000000000E+00  0.00000000000E+00  0.45593999997E+02  0.45594000000E+02  0.51100000000E-03 0.  1.
         11   -1    0    0    0    0 -0.00000000000E+00 -0.00000000000E+00 -0.45593999997E+02  0.45594000000E+02  0.51100000000E-03 0. -1.
    9900012    2    1    2    0    0 -0.54442564688E+01 -0.16438730139E+02 -0.71279656345E+01  0.72461556900E+02  0.69999982551E+02 0.  0.
        -12    1    1    2    0    0  0.54442564688E+01  0.16438730139E+02  0.71279656345E+01  0.18726443100E+02  0.00000000000E+00 0.  1.
         11    1    3    3    0    0  0.14525886509E+01  0.48220854496E+00  0.65072139417E+00  0.16631228047E+01  0.51100000000E-03 0. -1.
        -11    1    3    3    0    0  0.19084242401E+02 -0.30822669479E+02  0.83569651942E+01  0.37203281164E+02  0.51100000000E-03 0.  1.
         12    1    3    3    0    0 -0.25981087521E+02  0.13901730794E+02 -0.16135652223E+02  0.33595152932E+02  0.00000000000E+00 0. -1.
</event>
<event>
 7    1  0.2688173E-013  0.7246161E+02  0.7816164E-02  0.1226708E+00
        -11   -1    0    0    0    0  0.00000000000E+00  0.00000000000E+00  0.45593999997E+02  0.45594000000E+02  0.51100000000E-03 0. -1.
         11   -1    0    0    0    0 -0.00000000000E+00 -0.00000000000E+00 -0.45593999997E+02  0.45594000000E+02  0.51100000000E-03 0.  1.
    9900012    2    1    2    0    0  0.38478019734E+01  0.59738563485E+01 -0.17325847159E+02  0.72461614351E+02  0.70000057392E+02 0.  0.
        -12    1    1    2    0    0 -0.38478019734E+01 -0.59738563485E+01  0.17325847159E+02  0.18726385649E+02  0.00000000000E+00 0.  1.
         11    1    3    3    0    0 -0.62128699944E+01  0.12369802943E+02  0.18755657216E+02  0.23310651134E+02  0.51100000000E-03 0. -1.
        -11    1    3    3    0    0  0.62741586117E+01 -0.31390098801E+01  0.44532755446E+01  0.83096397424E+01  0.51100000000E-03 0.  1.
        -12    1    3    3    0    0  0.37865133561E+01 -0.32569367149E+01 -0.40534779919E+02  0.40841323475E+02  0.00000000000E+00 0.  1.
</event>
<event>
 7    1  0.2688173E-013  0.7246154E+02  0.7816164E-02  0.1226708E+00
        -11   -1    0    0    0    0  0.00000000000E+00  0.00000000000E+00  0.45593999997E+02  0.45594000000E+02  0.51100000000E-03 0. -1.
         11   -1    0    0    0    0 -0.00000000000E+00 -0.00000000000E+00 -0.45593999997E+02  0.45594000000E+02  0.51100000000E-03 0.  1.
    9900012    2    1    2    0    0 -0.13248879951E+02  0.10846221814E+02  0.75833257610E+01  0.72461543389E+02  0.69999964951E+02 0.  0.
        -12    1    1    2    0    0  0.13248879951E+02 -0.10846221814E+02 -0.75833257610E+01  0.18726456611E+02  0.00000000000E+00 0.  1.
         11    1    3    3    0    0 -0.42875866102E+01  0.18002533341E+02  0.21638652003E+01  0.18632147447E+02  0.51100000000E-03 0. -1.
        -11    1    3    3    0    0 -0.27022797062E+02  0.83856371217E+01  0.90945712135E+01  0.29719718989E+02  0.51100000000E-03 0.  1.
         12    1    3    3    0    0  0.18061503721E+02 -0.15541948649E+02 -0.36751106527E+01  0.24109676953E+02  0.00000000000E+00 0. -1.
</event>
<event>
 7    1  0.2688173E-013  0.7246161E+02  0.7816164E-02  0.1226708E+00
        -11   -1    0    0    0    0  0.00000000000E+00  0.00000000000E+00  0.45593999997E+02  0.45594000000E+02  0.51100000000E-03 0. -1.
         11   -1    0    0    0    0 -0.00000000000E+00 -0.00000000000E+00 -0.45593999997E+02  0.45594000000E+02  0.51100000000E-03 0.  1.
    9900012    2    1    2    0    0  0.43327873249E+01 -0.17827534129E+02 -0.37527966343E+01  0.72461614826E+02  0.70000058011E+02 0.  0.
        -12    1    1    2    0    0 -0.43327873249E+01  0.17827534129E+02  0.37527966343E+01  0.18726385174E+02  0.00000000000E+00 0.  1.
         11    1    3    3    0    0 -0.15660879114E+02 -0.25182500058E+01 -0.45835722066E+01  0.16511022142E+02  0.51100000000E-03 0. -1.
        -11    1    3    3    0    0  0.27141176879E+02 -0.61932290662E+01 -0.18492471901E+02  0.33421117365E+02  0.51100000000E-03 0.  1.
         12    1    3    3    0    0 -0.71475104396E+01 -0.91160550567E+01  0.19323247473E+02  0.22529475320E+02  0.00000000000E+00 0. -1.
</event>
<event>
 7    1  0.2688173E-013  0.7246156E+02  0.7816164E-02  0.1226708E+00
        -11   -1    0    0    0    0  0.00000000000E+00  0.00000000000E+00  0.45593999997E+02  0.45594000000E+02  0.51100000000E-03 0.  1.
         11   -1    0    0    0    0 -0.00000000000E+00 -0.00000000000E+00 -0.45593999997E+02  0.45594000000E+02  0.51100000000E-03 0. -1.
    9900012    2    1    2    0    0 -0.65491977031E+01 -0.62792678458E+01 -0.16381641820E+02  0.72461564569E+02  0.69999992542E+02 0.  0.
        -12    1    1    2    0    0  0.65491977031E+01  0.62792678458E+01  0.16381641820E+02  0.18726435431E+02  0.00000000000E+00 0.  1.
         11    1    3    3    0    0 -0.20370284881E+02 -0.21059001718E+01 -0.28982758584E+02  0.35487795326E+02  0.51100000000E-03 0. -1.
        -11    1    3    3    0    0  0.69347481547E+01 -0.10313725648E+02 -0.77376200406E+01  0.14640165056E+02  0.51100000000E-03 0.  1.
        -12    1    3    3    0    0  0.68863390230E+01  0.61403579741E+01  0.20338736805E+02  0.22333604188E+02  0.00000000000E+00 0.  1.
</event>
<event>
 7    1  0.2688173E-013  0.7246157E+02  0.7816164E-02  0.1226708E+00
        -11   -1    0    0    0    0  0.00000000000E+00  0.00000000000E+00  0.45593999997E+02  0.45594000000E+02  0.51100000000E-03 0. -1.
         11   -1    0    0    0    0 -0.00000000000E+00 -0.00000000000E+00 -0.45593999997E+02  0.45594000000E+02  0.51100000000E-03 0.  1.
    9900012    2    1    2    0    0 -0.13959019779E+02 -0.86266984375E+01  0.90224674193E+01  0.72461572753E+02  0.70000003203E+02 0.  0.
        -12    1    1    2    0    0  0.13959019779E+02  0.86266984375E+01 -0.90224674193E+01  0.18726427247E+02  0.00000000000E+00 0.  1.
         11    1    3    3    0    0  0.45382389974E+01  0.51192666474E+01  0.25354183360E+01  0.72959475467E+01  0.51100000000E-03 0. -1.
        -11    1    3    3    0    0  0.69364058122E+01  0.19860027113E+02  0.91411160224E+01  0.22936747915E+02  0.51100000000E-03 0.  1.
         12    1    3    3    0    0 -0.25433664588E+02 -0.33605992198E+02 -0.26540669390E+01  0.42228877291E+02  0.00000000000E+00 0. -1.
</event>
<event>
 7    1  0.2688173E-013  0.7246149E+02  0.7816164E-02  0.1226708E+00
        -11   -1    0    0    0    0  0.00000000000E+00  0.00000000000E+00  0.45593999997E+02  0.45594000000E+02  0.51100000000E-03 0. -1.
         11   -1    0    0    0    0 -0.00000000000E+00 -0.00000000000E+00 -0.45593999997E+02  0.45594000000E+02  0.51100000000E-03 0.  1.
    9900012    2    1    2    0    0  0.10009761900E+02 -0.50442724374E+00  0.15818731217E+02  0.72461493720E+02  0.69999900248E+02 0.  0.
        -12    1    1    2    0    0 -0.10009761900E+02  0.50442724374E+00 -0.15818731217E+02  0.18726506280E+02  0.00000000000E+00 0.  1.
         11    1    3    3    0    0 -0.99567691544E+01  0.15698633147E+02 -0.11127323388E+02  0.21665679328E+02  0.51100000000E-03 0. -1.
        -11    1    3    3    0    0  0.14971260703E+02  0.71251041638E+01  0.27326207884E+01  0.16803957064E+02  0.51100000000E-03 0.  1.
         12    1    3    3    0    0  0.49952703509E+01 -0.23328164555E+02  0.24213433817E+02  0.33991857328E+02  0.00000000000E+00 0. -1.
</event>
<event>
 7    1  0.2688173E-013  0.7246159E+02  0.7816164E-02  0.1226708E+00
        -11   -1    0    0    0    0  0.00000000000E+00  0.00000000000E+00  0.45593999997E+02  0.45594000000E+02  0.51100000000E-03 0.  1.
         11   -1    0    0    0    0 -0.00000000000E+00 -0.00000000000E+00 -0.45593999997E+02  0.45594000000E+02  0.51100000000E-03 0. -1.
    9900012    2    1    2    0    0 -0.12802805861E+02 -0.12905682464E+02 -0.44955541164E+01  0.72461588583E+02  0.70000023824E+02 0.  0.
        -12    1    1    2    0    0  0.12802805861E+02  0.12905682464E+02  0.44955541164E+01  0.18726411417E+02  0.00000000000E+00 0.  1.
         11    1    3    3    0    0 -0.28919438068E+02 -0.58374608437E+01 -0.15092066124E+02  0.33138803651E+02  0.51100000000E-03 0. -1.
        -11    1    3    3    0    0  0.21635860255E+01  0.12938481455E+02  0.11599812157E+01  0.13169319023E+02  0.51100000000E-03 0.  1.
         12    1    3    3    0    0  0.13953046181E+02 -0.20006703075E+02  0.94365307916E+01  0.26153465909E+02  0.00000000000E+00 0. -1.
</event>
<event>
 7    1  0.2688173E-013  0.7246156E+02  0.7816164E-02  0.1226708E+00
        -11   -1    0    0    0    0  0.00000000000E+00  0.00000000000E+00  0.45593999997E+02  0.45594000000E+02  0.51100000000E-03 0.  1.
         11   -1    0    0    0    0 -0.00000000000E+00 -0.00000000000E+00 -0.45593999997E+02  0.45594000000E+02  0.51100000000E-03 0. -1.
    9900012    2    1    2    0    0  0.18602418677E+02 -0.18256482869E+01 -0.11386736539E+01  0.72461560135E+02  0.69999986766E+02 0.  0.
        -12    1    1    2    0    0 -0.18602418677E+02  0.18256482869E+01  0.11386736539E+01  0.18726439865E+02  0.00000000000E+00 0.  1.
         11    1    3    3    0    0  0.98708858357E+01 -0.69150684956E+01  0.11362049924E+02  0.16563476031E+02  0.51100000000E-03 0. -1.
        -11    1    3    3    0    0 -0.15572919208E+02  0.53657975666E+01  0.12765197791E+02  0.20838854842E+02  0.51100000000E-03 0.  1.
         12    1    3    3    0    0  0.24304452050E+02 -0.27637735799E+00 -0.25265921369E+02  0.35059229263E+02  0.00000000000E+00 0. -1.
</event>
<event>
 7    1  0.2688173E-013  0.7246157E+02  0.7816164E-02  0.1226708E+00
        -11   -1    0    0    0    0  0.00000000000E+00  0.00000000000E+00  0.45593999997E+02  0.45594000000E+02  0.51100000000E-03 0.  1.
         11   -1    0    0    0    0 -0.00000000000E+00 -0.00000000000E+00 -0.45593999997E+02  0.45594000000E+02  0.51100000000E-03 0. -1.
    9900012    2    1    2    0    0  0.64624054442E+01 -0.28553069672E+01 -0.17342542945E+02  0.72461567938E+02  0.69999996930E+02 0.  0.
        -12    1    1    2    0    0 -0.64624054442E+01  0.28553069672E+01  0.17342542945E+02  0.18726432062E+02  0.00000000000E+00 0.  1.
         11    1    3    3    0    0 -0.52380026546E+01 -0.10438224743E+02 -0.11289435496E+02  0.16243292821E+02  0.51100000000E-03 0. -1.
        -11    1    3    3    0    0 -0.55707052115E+01 -0.21169472974E+02 -0.59222339106E+01  0.22677129389E+02  0.51100000000E-03 0.  1.
        -12    1    3    3    0    0  0.17271113310E+02  0.28752390750E+02 -0.13087353826E+00  0.33541145728E+02  0.00000000000E+00 0.  1.
</event>
<event>
 7    1  0.2688173E-013  0.7246150E+02  0.7816164E-02  0.1226708E+00
        -11   -1    0    0    0    0  0.00000000000E+00  0.00000000000E+00  0.45593999997E+02  0.45594000000E+02  0.51100000000E-03 0. -1.
         11   -1    0    0    0    0 -0.00000000000E+00 -0.00000000000E+00 -0.45593999997E+02  0.45594000000E+02  0.51100000000E-03 0.  1.
    9900012    2    1    2    0    0  0.18009569516E+02 -0.26740364566E+01  0.43802704411E+01  0.72461499146E+02  0.69999907316E+02 0.  0.
        -12    1    1    2    0    0 -0.18009569516E+02  0.26740364566E+01 -0.43802704411E+01  0.18726500854E+02  0.00000000000E+00 0.  1.
         11    1    3    3    0    0  0.52265430826E+01 -0.31432648579E+01  0.18473488512E+01  0.63725634246E+01  0.51100000000E-03 0. -1.
        -11    1    3    3    0    0 -0.17795574270E+02 -0.20503499185E+02 -0.65178900793E+01  0.27920580828E+02  0.51100000000E-03 0.  1.
         12    1    3    3    0    0  0.30578600703E+02  0.20972727586E+02  0.90508116692E+01  0.38168354893E+02  0.00000000000E+00 0. -1.
</event>
<event>
 7    1  0.2688173E-013  0.7246202E+02  0.7816164E-02  0.1226707E+00
        -11   -1    0    0    0    0  0.00000000000E+00  0.00000000000E+00  0.45593999997E+02  0.45594000000E+02  0.51100000000E-03 0. -1.
         11   -1    0    0    0    0 -0.00000000000E+00 -0.00000000000E+00 -0.45593999997E+02  0.45594000000E+02  0.51100000000E-03 0.  1.
    9900012    2    1    2    0    0 -0.36067305271E+01  0.11697813303E+01  0.18338090155E+02  0.72462016875E+02  0.70000581752E+02 0.  0.
        -12    1    1    2    0    0  0.36067305271E+01 -0.11697813303E+01 -0.18338090155E+02  0.18725983125E+02  0.00000000000E+00 0.  1.
         11    1    3    3    0    0 -0.25577448993E+02 -0.10476591537E+02 -0.66167529069E-02  0.27639915182E+02  0.51100000000E-03 0. -1.
        -11    1    3    3    0    0  0.17702730464E+02 -0.89597228688E+01  0.83665544638E+01  0.21532824562E+02  0.51100000000E-03 0.  1.
        -12    1    3    3    0    0  0.42679880017E+01  0.20606095736E+02  0.99781524446E+01  0.23289277131E+02  0.00000000000E+00 0.  1.
</event>
<event>
 7    1  0.2688173E-013  0.7246156E+02  0.7816164E-02  0.1226708E+00
        -11   -1    0    0    0    0  0.00000000000E+00  0.00000000000E+00  0.45593999997E+02  0.45594000000E+02  0.51100000000E-03 0.  1.
         11   -1    0    0    0    0 -0.00000000000E+00 -0.00000000000E+00 -0.45593999997E+02  0.45594000000E+02  0.51100000000E-03 0. -1.
    9900012    2    1    2    0    0  0.10992284095E+01 -0.18238819188E+02  0.41008340020E+01  0.72461556986E+02  0.69999982663E+02 0.  0.
        -12    1    1    2    0    0 -0.10992284095E+01  0.18238819188E+02 -0.41008340020E+01  0.18726443014E+02  0.00000000000E+00 0.  1.
         11    1    3    3    0    0 -0.34210853815E+01 -0.58146655177E+01  0.25619633947E+01  0.72164961697E+01  0.51100000000E-03 0. -1.
        -11    1    3    3    0    0 -0.91056509723E+01 -0.31530418347E+02  0.17179268007E+02  0.37043318025E+02  0.51100000000E-03 0.  1.
         12    1    3    3    0    0  0.13625964763E+02  0.19106264677E+02 -0.15640397400E+02  0.28201742791E+02  0.00000000000E+00 0. -1.
</event>
<event>
 7    1  0.2688173E-013  0.7246160E+02  0.7816164E-02  0.1226708E+00
        -11   -1    0    0    0    0  0.00000000000E+00  0.00000000000E+00  0.45593999997E+02  0.45594000000E+02  0.51100000000E-03 0.  1.
         11   -1    0    0    0    0 -0.00000000000E+00 -0.00000000000E+00 -0.45593999997E+02  0.45594000000E+02  0.51100000000E-03 0. -1.
    9900012    2    1    2    0    0 -0.49807441271E+01  0.15859988589E+02 -0.86215473035E+01  0.72461598103E+02  0.70000036226E+02 0.  0.
        -12    1    1    2    0    0  0.49807441271E+01 -0.15859988589E+02  0.86215473035E+01  0.18726401897E+02  0.00000000000E+00 0.  1.
         11    1    3    3    0    0 -0.55704249881E+01  0.23680488703E+02 -0.12790680967E+02  0.27484481069E+02  0.51100000000E-03 0. -1.
        -11    1    3    3    0    0  0.20690965481E+02  0.14936167109E+01 -0.44298384071E+01  0.21212506028E+02  0.51100000000E-03 0.  1.
         12    1    3    3    0    0 -0.20101284620E+02 -0.93141168255E+01  0.85989720709E+01  0.23764611006E+02  0.00000000000E+00 0. -1.
</event>
<event>
 7    1  0.2688173E-013  0.7246172E+02  0.7816164E-02  0.1226708E+00
        -11   -1    0    0    0    0  0.00000000000E+00  0.00000000000E+00  0.45593999997E+02  0.45594000000E+02  0.51100000000E-03 0.  1.
         11   -1    0    0    0    0 -0.00000000000E+00 -0.00000000000E+00 -0.45593999997E+02  0.45594000000E+02  0.51100000000E-03 0. -1.
    9900012    2    1    2    0    0 -0.51074481447E+01  0.15879425282E+02 -0.85106600761E+01  0.72461721439E+02  0.70000196893E+02 0.  0.
        -12    1    1    2    0    0  0.51074481447E+01 -0.15879425282E+02  0.85106600761E+01  0.18726278561E+02  0.00000000000E+00 0.  1.
         11    1    3    3    0    0 -0.32951051044E+01  0.33606801734E+02 -0.63666309732E+01  0.34362899043E+02  0.51100000000E-03 0. -1.
        -11    1    3    3    0    0 -0.89413038697E+00  0.18712733360E+01 -0.14673452678E+02  0.14819289686E+02  0.51100000000E-03 0.  1.
        -12    1    3    3    0    0 -0.91821265337E+00 -0.19598649788E+02  0.12529423575E+02  0.23279532709E+02  0.00000000000E+00 0.  1.
</event>
<event>
 7    1  0.2688173E-013  0.7246155E+02  0.7816164E-02  0.1226708E+00
        -11   -1    0    0    0    0  0.00000000000E+00  0.00000000000E+00  0.45593999997E+02  0.45594000000E+02  0.51100000000E-03 0.  1.
         11   -1    0    0    0    0 -0.00000000000E+00 -0.00000000000E+00 -0.45593999997E+02  0.45594000000E+02  0.51100000000E-03 0. -1.
    9900012    2    1    2    0    0  0.14256009027E+02  0.12013721075E+02  0.17653695199E+01  0.72461553007E+02  0.69999977480E+02 0.  0.
        -12    1    1    2    0    0 -0.14256009027E+02 -0.12013721075E+02 -0.17653695199E+01  0.18726446993E+02  0.00000000000E+00 0.  1.
         11    1    3    3    0    0 -0.16223202316E+02 -0.17295924224E+02 -0.12047552070E+00  0.23714042311E+02  0.51100000000E-03 0. -1.
        -11    1    3    3    0    0  0.72876085414E+01  0.12770840473E+02 -0.10105447667E+02  0.17841627657E+02  0.51100000000E-03 0.  1.
        -12    1    3    3    0    0  0.23191602802E+02  0.16538804826E+02  0.11991292707E+02  0.30905883038E+02  0.00000000000E+00 0.  1.
</event>
<event>
 7    1  0.2688173E-013  0.7246158E+02  0.7816164E-02  0.1226708E+00
        -11   -1    0    0    0    0  0.00000000000E+00  0.00000000000E+00  0.45593999997E+02  0.45594000000E+02  0.51100000000E-03 0.  1.
         11   -1    0    0    0    0 -0.00000000000E+00 -0.00000000000E+00 -0.45593999997E+02  0.45594000000E+02  0.51100000000E-03 0. -1.
    9900012    2    1    2    0    0  0.59004640907E+01 -0.10159281511E+02  0.14582601915E+02  0.72461581338E+02  0.70000014386E+02 0.  0.
        -12    1    1    2    0    0 -0.59004640907E+01  0.10159281511E+02 -0.14582601915E+02  0.18726418662E+02  0.00000000000E+00 0.  1.
         11    1    3    3    0    0 -0.39613238737E+01 -0.81553099374E+01  0.40539095328E+01  0.99315331026E+01  0.51100000000E-03 0. -1.
        -11    1    3    3    0    0  0.22458984814E+02  0.22769779239E+02  0.13221167768E+02  0.34607342037E+02  0.51100000000E-03 0.  1.
         12    1    3    3    0    0 -0.12597196849E+02 -0.24773750812E+02 -0.26924753852E+01  0.27922706198E+02  0.00000000000E+00 0. -1.
</event>
<event>
 7    1  0.2688173E-013  0.7246153E+02  0.7816164E-02  0.1226708E+00
        -11   -1    0    0    0    0  0.00000000000E+00  0.00000000000E+00  0.45593999997E+02  0.45594000000E+02  0.51100000000E-03 0.  1.
         11   -1    0    0    0    0 -0.00000000000E+00 -0.00000000000E+00 -0.45593999997E+02  0.45594000000E+02  0.51100000000E-03 0. -1.
    9900012    2    1    2    0    0  0.56628284021E+01  0.57371681547E+01 -0.16902599391E+02  0.72461532364E+02  0.69999950588E+02 0.  0.
        -12    1    1    2    0    0 -0.56628284021E+01 -0.57371681547E+01  0.16902599391E+02  0.18726467636E+02  0.00000000000E+00 0.  1.
         11    1    3    3    0    0 -0.21015802805E+02  0.67839268163E+01  0.89488956072E+01  0.23827890453E+02  0.51100000000E-03 0. -1.
        -11    1    3    3    0    0  0.38038820605E+01 -0.14260302231E+02 -0.85795605678E+01  0.17071455657E+02  0.51100000000E-03 0.  1.
        -12    1    3    3    0    0  0.22874749146E+02  0.13213543569E+02 -0.17271934431E+02  0.31562186254E+02  0.00000000000E+00 0.  1.
</event>
<event>
 7    1  0.2688173E-013  0.7246156E+02  0.7816164E-02  0.1226708E+00
        -11   -1    0    0    0    0  0.00000000000E+00  0.00000000000E+00  0.45593999997E+02  0.45594000000E+02  0.51100000000E-03 0.  1.
         11   -1    0    0    0    0 -0.00000000000E+00 -0.00000000000E+00 -0.45593999997E+02  0.45594000000E+02  0.51100000000E-03 0. -1.
    9900012    2    1    2    0    0  0.25792669893E+01  0.11559588567E+02 -0.14505272762E+02  0.72461557627E+02  0.69999983498E+02 0.  0.
        -12    1    1    2    0    0 -0.25792669893E+01 -0.11559588567E+02  0.14505272762E+02  0.18726442373E+02  0.00000000000E+00 0.  1.
         11    1    3    3    0    0 -0.13969071514E+02  0.58943079801E+01 -0.20682137621E+02  0.25644271141E+02  0.51100000000E-03 0. -1.
        -11    1    3    3    0    0 -0.44538506098E+01  0.15369808413E+02 -0.97415661888E+01  0.18734084125E+02  0.51100000000E-03 0.  1.
        -12    1    3    3    0    0  0.21002189113E+02 -0.97045278259E+01  0.15918431048E+02  0.28083202361E+02  0.00000000000E+00 0.  1.
</event>
<event>
 7    1  0.2688173E-013  0.7246159E+02  0.7816164E-02  0.1226708E+00
        -11   -1    0    0    0    0  0.00000000000E+00  0.00000000000E+00  0.45593999997E+02  0.45594000000E+02  0.51100000000E-03 0.  1.
         11   -1    0    0    0    0 -0.00000000000E+00 -0.00000000000E+00 -0.45593999997E+02  0.45594000000E+02  0.51100000000E-03 0. -1.
    9900012    2    1    2    0    0  0.48569206912E+00  0.17816099932E+02 -0.57470840531E+01  0.72461593813E+02  0.70000030638E+02 0.  0.
        -12    1    1    2    0    0 -0.48569206912E+00 -0.17816099932E+02  0.57470840531E+01  0.18726406187E+02  0.00000000000E+00 0.  1.
         11    1    3    3    0    0  0.18430996248E+01  0.85536841046E+00  0.11734369636E+02  0.11908992500E+02  0.51100000000E-03 0. -1.
        -11    1    3    3    0    0  0.11444948512E+02 -0.15328720278E+02  0.42278472103E+01  0.19591610554E+02  0.51100000000E-03 0.  1.
         12    1    3    3    0    0 -0.12802356068E+02  0.32289451799E+02 -0.21709300900E+02  0.40960990759E+02  0.00000000000E+00 0. -1.
</event>
<event>
 7    1  0.2688173E-013  0.7246155E+02  0.7816164E-02  0.1226708E+00
        -11   -1    0    0    0    0  0.00000000000E+00  0.00000000000E+00  0.45593999997E+02  0.45594000000E+02  0.51100000000E-03 0.  1.
         11   -1    0    0    0    0 -0.00000000000E+00 -0.00000000000E+00 -0.45593999997E+02  0.45594000000E+02  0.51100000000E-03 0. -1.
    9900012    2    1    2    0    0  0.14251109072E+02  0.11899864879E+02 -0.24451903784E+01  0.72461552128E+02  0.69999976335E+02 0.  0.
        -12    1    1    2    0    0 -0.14251109072E+02 -0.11899864879E+02  0.24451903784E+01  0.18726447872E+02  0.00000000000E+00 0.  1.
         11    1    3    3    0    0 -0.27221696159E+01  0.13137424055E+01 -0.51204000945E+01  0.59459754385E+01  0.51100000000E-03 0. -1.
        -11    1    3    3    0    0  0.27805201323E+02 -0.79530776793E+01 -0.20096576228E+02  0.35217226488E+02  0.51100000000E-03 0.  1.
        -12    1    3    3    0    0 -0.10831922635E+02  0.18539200153E+02  0.22771785944E+02  0.31298350202E+02  0.00000000000E+00 0.  1.
</event>
<event>
 7    1  0.2688173E-013  0.7246133E+02  0.7816164E-02  0.1226709E+00
        -11   -1    0    0    0    0  0.00000000000E+00  0.00000000000E+00  0.45593999997E+02  0.45594000000E+02  0.51100000000E-03 0.  1.
         11   -1    0    0    0    0 -0.00000000000E+00 -0.00000000000E+00 -0.45593999997E+02  0.45594000000E+02  0.51100000000E-03 0. -1.
    9900012    2    1    2    0    0  0.24607360372E+01 -0.16305178844E+02 -0.88754800895E+01  0.72461328491E+02  0.69999685006E+02 0.  0.
        -12    1    1    2    0    0 -0.24607360372E+01  0.16305178844E+02  0.88754800895E+01  0.18726671509E+02  0.00000000000E+00 0.  1.
         11    1    3    3    0    0 -0.11416293174E+02  0.15663487488E+02 -0.82104238723E+01  0.21049647279E+02  0.51100000000E-03 0. -1.
        -11    1    3    3    0    0 -0.30308938393E+01  0.76725282601E+01 -0.10312811872E+01  0.83136964412E+01  0.51100000000E-03 0.  1.
        -12    1    3    3    0    0  0.16907923051E+02 -0.39641194592E+02  0.36622496998E+00  0.43097984771E+02  0.00000000000E+00 0.  1.
</event>
<event>
 7    1  0.2688173E-013  0.7246158E+02  0.7816164E-02  0.1226708E+00
        -11   -1    0    0    0    0  0.00000000000E+00  0.00000000000E+00  0.45593999997E+02  0.45594000000E+02  0.51100000000E-03 0.  1.
         11   -1    0    0    0    0 -0.00000000000E+00 -0.00000000000E+00 -0.45593999997E+02  0.45594000000E+02  0.51100000000E-03 0. -1.
    9900012    2    1    2    0    0  0.32032534983E+01  0.18041435363E+02 -0.38632212461E+01  0.72461582795E+02  0.70000016285E+02 0.  0.
        -12    1    1    2    0    0 -0.32032534983E+01 -0.18041435363E+02  0.38632212461E+01  0.18726417205E+02  0.00000000000E+00 0.  1.
         11    1    3    3    0    0  0.13164976972E+02 -0.13805011766E+02 -0.21645670429E+02  0.28851863321E+02  0.51100000000E-03 0. -1.
        -11    1    3    3    0    0  0.25777574258E+01  0.31279441547E+01  0.10756739889E+02  0.11495056384E+02  0.51100000000E-03 0.  1.
        -12    1    3    3    0    0 -0.12539480899E+02  0.28718502974E+02  0.70257092938E+01  0.32114663090E+02  0.00000000000E+00 0.  1.
</event>
<event>
 7    1  0.2688173E-013  0.7246158E+02  0.7816164E-02  0.1226708E+00
        -11   -1    0    0    0    0  0.00000000000E+00  0.00000000000E+00  0.45593999997E+02  0.45594000000E+02  0.51100000000E-03 0. -1.
         11   -1    0    0    0    0 -0.00000000000E+00 -0.00000000000E+00 -0.45593999997E+02  0.45594000000E+02  0.51100000000E-03 0.  1.
    9900012    2    1    2    0    0  0.11628926503E+02  0.13302153939E+02  0.62048091078E+01  0.72461577835E+02  0.70000009823E+02 0.  0.
        -12    1    1    2    0    0 -0.11628926503E+02 -0.13302153939E+02 -0.62048091078E+01  0.18726422165E+02  0.00000000000E+00 0.  1.
         11    1    3    3    0    0  0.75185681035E+01 -0.54735782961E+00  0.44014186250E+01  0.87293157289E+01  0.51100000000E-03 0. -1.
        -11    1    3    3    0    0  0.31163535739E+02  0.17787952791E+02 -0.28696557630E+01  0.35997390860E+02  0.51100000000E-03 0.  1.
         12    1    3    3    0    0 -0.27053177340E+02 -0.39384410222E+01  0.46730462457E+01  0.27734871247E+02  0.00000000000E+00 0. -1.
</event>
<event>
 7    1  0.2688173E-013  0.7246158E+02  0.7816164E-02  0.1226708E+00
        -11   -1    0    0    0    0  0.00000000000E+00  0.00000000000E+00  0.45593999997E+02  0.45594000000E+02  0.51100000000E-03 0. -1.
         11   -1    0    0    0    0 -0.00000000000E+00 -0.00000000000E+00 -0.45593999997E+02  0.45594000000E+02  0.51100000000E-03 0.  1.
    9900012    2    1    2    0    0  0.14412175163E+02 -0.28855135929E+01  0.11603532879E+02  0.72461575972E+02  0.70000007396E+02 0.  0.
        -12    1    1    2    0    0 -0.14412175163E+02  0.28855135929E+01 -0.11603532879E+02  0.18726424028E+02  0.00000000000E+00 0.  1.
         11    1    3    3    0    0  0.14879486701E+02 -0.12960936436E+02  0.11004213963E+02  0.22593754070E+02  0.51100000000E-03 0. -1.
        -11    1    3    3    0    0  0.14962589705E+02 -0.13360219720E+02  0.67086290170E+01  0.21151365563E+02  0.51100000000E-03 0.  1.
        -12    1    3    3    0    0 -0.15429901243E+02  0.23435642563E+02 -0.61093101009E+01  0.28716456338E+02  0.00000000000E+00 0.  1.
</event>
<event>
 7    1  0.2688173E-013  0.7246153E+02  0.7816164E-02  0.1226708E+00
        -11   -1    0    0    0    0  0.00000000000E+00  0.00000000000E+00  0.45593999997E+02  0.45594000000E+02  0.51100000000E-03 0.  1.
         11   -1    0    0    0    0 -0.00000000000E+00 -0.00000000000E+00 -0.45593999997E+02  0.45594000000E+02  0.51100000000E-03 0. -1.
    9900012    2    1    2    0    0  0.67386568532E+01  0.32885990857E+01 -0.17159729690E+02  0.72461529346E+02  0.69999946657E+02 0.  0.
        -12    1    1    2    0    0 -0.67386568532E+01 -0.32885990857E+01  0.17159729690E+02  0.18726470654E+02  0.00000000000E+00 0.  1.
         11    1    3    3    0    0 -0.81075257727E+01 -0.16941738950E+02 -0.33580221356E+02  0.38475781466E+02  0.51100000000E-03 0. -1.
        -11    1    3    3    0    0 -0.36530830900E+00 -0.52783735068E+00 -0.21540608126E+01  0.22476745037E+01  0.51100000000E-03 0.  1.
        -12    1    3    3    0    0  0.15211490935E+02  0.20758175387E+02  0.18574552479E+02  0.31738073376E+02  0.00000000000E+00 0.  1.
</event>
<event>
 7    1  0.2688173E-013  0.7246156E+02  0.7816164E-02  0.1226708E+00
        -11   -1    0    0    0    0  0.00000000000E+00  0.00000000000E+00  0.45593999997E+02  0.45594000000E+02  0.51100000000E-03 0.  1.
         11   -1    0    0    0    0 -0.00000000000E+00 -0.00000000000E+00 -0.45593999997E+02  0.45594000000E+02  0.51100000000E-03 0. -1.
    9900012    2    1    2    0    0  0.10543346390E+02 -0.12748058168E+02 -0.87752254118E+01  0.72461555565E+02  0.69999980812E+02 0.  0.
        -12    1    1    2    0    0 -0.10543346390E+02  0.12748058168E+02  0.87752254118E+01  0.18726444435E+02  0.00000000000E+00 0.  1.
         11    1    3    3    0    0 -0.49051136486E+01  0.10183477156E+02  0.67478521316E+01  0.13164226356E+02  0.51100000000E-03 0. -1.
        -11    1    3    3    0    0 -0.56989763988E+01 -0.27089329508E+02  0.65507122977E+01  0.28446826485E+02  0.51100000000E-03 0.  1.
         12    1    3    3    0    0  0.21147436438E+02  0.41577941842E+01 -0.22073789841E+02  0.30850502724E+02  0.00000000000E+00 0. -1.
</event>
<event>
 7    1  0.2688173E-013  0.7246161E+02  0.7816164E-02  0.1226708E+00
        -11   -1    0    0    0    0  0.00000000000E+00  0.00000000000E+00  0.45593999997E+02  0.45594000000E+02  0.51100000000E-03 0.  1.
         11   -1    0    0    0    0 -0.00000000000E+00 -0.00000000000E+00 -0.45593999997E+02  0.45594000000E+02  0.51100000000E-03 0. -1.
    9900012    2    1    2    0    0 -0.31558076834E+01 -0.22198700826E+01 -0.18324596484E+02  0.72461607352E+02  0.70000048274E+02 0.  0.
        -12    1    1    2    0    0  0.31558076834E+01  0.22198700826E+01  0.18324596484E+02  0.18726392648E+02  0.00000000000E+00 0.  1.
         11    1    3    3    0    0 -0.21257806721E+02  0.85642739290E+00 -0.95573299724E+01  0.23323172403E+02  0.51100000000E-03 0. -1.
        -11    1    3    3    0    0 -0.77753371744E+01  0.10800208120E+02  0.77986040254E+01  0.15424609837E+02  0.51100000000E-03 0.  1.
         12    1    3    3    0    0  0.25877336212E+02 -0.13876505596E+02 -0.16565870537E+02  0.33713825111E+02  0.00000000000E+00 0. -1.
</event>
<event>
 7    1  0.2688173E-013  0.7246155E+02  0.7816164E-02  0.1226708E+00
        -11   -1    0    0    0    0  0.00000000000E+00  0.00000000000E+00  0.45593999997E+02  0.45594000000E+02  0.51100000000E-03 0. -1.
         11   -1    0    0    0    0 -0.00000000000E+00 -0.00000000000E+00 -0.45593999997E+02  0.45594000000E+02  0.51100000000E-03 0.  1.
    9900012    2    1    2    0    0 -0.47049155382E+01  0.57940372260E+01  0.17174777622E+02  0.72461545878E+02  0.69999968194E+02 0.  0.
        -12    1    1    2    0    0  0.47049155382E+01 -0.57940372260E+01 -0.17174777622E+02  0.18726454122E+02  0.00000000000E+00 0.  1.
         11    1    3    3    0    0 -0.12333716958E+01  0.14110205392E+02 -0.14056547825E+02  0.19955090552E+02  0.51100000000E-03 0.  1.
        -11    1    3    3    0    0 -0.15211369590E+02  0.10064850310E+02  0.61043392196E+01  0.19234082618E+02  0.51100000000E-03 0. -1.
         12    1    3    3    0    0  0.11739825748E+02 -0.18381018476E+02  0.25126986227E+02  0.33272372709E+02  0.00000000000E+00 0. -1.
</event>
<event>
 7    1  0.2688173E-013  0.7246155E+02  0.7816164E-02  0.1226708E+00
        -11   -1    0    0    0    0  0.00000000000E+00  0.00000000000E+00  0.45593999997E+02  0.45594000000E+02  0.51100000000E-03 0. -1.
         11   -1    0    0    0    0 -0.00000000000E+00 -0.00000000000E+00 -0.45593999997E+02  0.45594000000E+02  0.51100000000E-03 0.  1.
    9900012    2    1    2    0    0  0.71817468707E+01  0.16010319546E+02 -0.65400498074E+01  0.72461546210E+02  0.69999968625E+02 0.  0.
        -12    1    1    2    0    0 -0.71817468707E+01 -0.16010319546E+02  0.65400498074E+01  0.18726453790E+02  0.00000000000E+00 0.  1.
         11    1    3    3    0    0  0.12910323513E+02  0.24436396966E+02  0.14126105511E+02  0.31038054176E+02  0.51100000000E-03 0. -1.
        -11    1    3    3    0    0 -0.34815552042E+01  0.13442247032E+02 -0.88402953598E+01  0.16461046571E+02  0.51100000000E-03 0.  1.
        -12    1    3    3    0    0 -0.22470214385E+01 -0.21868324452E+02 -0.11825859958E+02  0.24962445462E+02  0.00000000000E+00 0.  1.
</event>
<event>
 7    1  0.2688173E-013  0.7246155E+02  0.7816164E-02  0.1226708E+00
        -11   -1    0    0    0    0  0.00000000000E+00  0.00000000000E+00  0.45593999997E+02  0.45594000000E+02  0.51100000000E-03 0. -1.
         11   -1    0    0    0    0 -0.00000000000E+00 -0.00000000000E+00 -0.45593999997E+02  0.45594000000E+02  0.51100000000E-03 0.  1.
    9900012    2    1    2    0    0  0.14699089443E+02  0.11593560237E+02  0.45378434333E+00  0.72461553737E+02  0.69999978431E+02 0.  0.
        -12    1    1    2    0    0 -0.14699089443E+02 -0.11593560237E+02 -0.45378434333E+00  0.18726446263E+02  0.00000000000E+00 0.  1.
         11    1    3    3    0    0 -0.25219200455E+00 -0.59630619683E+01 -0.61284065441E+01  0.85544769493E+01  0.51100000000E-03 0. -1.
        -11    1    3    3    0    0 -0.18894021641E+02  0.41435944799E+01  0.17305475735E+02  0.25954439306E+02  0.51100000000E-03 0.  1.
         12    1    3    3    0    0  0.33845303089E+02  0.13413027725E+02 -0.10723284847E+02  0.37952637482E+02  0.00000000000E+00 0. -1.
</event>
<event>
 7    1  0.2688173E-013  0.7246160E+02  0.7816164E-02  0.1226708E+00
        -11   -1    0    0    0    0  0.00000000000E+00  0.00000000000E+00  0.45593999997E+02  0.45594000000E+02  0.51100000000E-03 0. -1.
         11   -1    0    0    0    0 -0.00000000000E+00 -0.00000000000E+00 -0.45593999997E+02  0.45594000000E+02  0.51100000000E-03 0.  1.
    9900012    2    1    2    0    0 -0.17421009478E+02 -0.24777020023E+01  0.64068255433E+01  0.72461601735E+02  0.70000040957E+02 0.  0.
        -12    1    1    2    0    0  0.17421009478E+02  0.24777020023E+01 -0.64068255433E+01  0.18726398265E+02  0.00000000000E+00 0.  1.
         11    1    3    3    0    0 -0.13363906643E+02  0.26478296026E+01  0.21956959245E+02  0.25840144386E+02  0.51100000000E-03 0. -1.
        -11    1    3    3    0    0 -0.17238097134E+02  0.91312513681E+01 -0.18615994624E+02  0.26964550811E+02  0.51100000000E-03 0.  1.
         12    1    3    3    0    0  0.13180994299E+02 -0.14256782973E+02  0.30658609222E+01  0.19656906538E+02  0.00000000000E+00 0. -1.
</event>
<event>
 7    1  0.2688173E-013  0.7246156E+02  0.7816164E-02  0.1226708E+00
        -11   -1    0    0    0    0  0.00000000000E+00  0.00000000000E+00  0.45593999997E+02  0.45594000000E+02  0.51100000000E-03 0.  1.
         11   -1    0    0    0    0 -0.00000000000E+00 -0.00000000000E+00 -0.45593999997E+02  0.45594000000E+02  0.51100000000E-03 0. -1.
    9900012    2    1    2    0    0 -0.12502950441E+02 -0.13614622849E+02 -0.29996573857E+01  0.72461556945E+02  0.69999982610E+02 0.  0.
        -12    1    1    2    0    0  0.12502950441E+02  0.13614622849E+02  0.29996573857E+01  0.18726443055E+02  0.00000000000E+00 0.  1.
         11    1    3    3    0    0 -0.48829490872E+01 -0.28660329609E+02  0.21006506848E+02  0.35868245222E+02  0.51100000000E-03 0. -1.
        -11    1    3    3    0    0  0.57546033378E+01 -0.12878335917E+01 -0.23438977527E+01  0.63456939630E+01  0.51100000000E-03 0.  1.
        -12    1    3    3    0    0 -0.13374604692E+02  0.16333540351E+02 -0.21662266481E+02  0.30247617760E+02  0.00000000000E+00 0.  1.
</event>
<event>
 7    1  0.2688173E-013  0.7246159E+02  0.7816164E-02  0.1226708E+00
        -11   -1    0    0    0    0  0.00000000000E+00  0.00000000000E+00  0.45593999997E+02  0.45594000000E+02  0.51100000000E-03 0.  1.
         11   -1    0    0    0    0 -0.00000000000E+00 -0.00000000000E+00 -0.45593999997E+02  0.45594000000E+02  0.51100000000E-03 0. -1.
    9900012    2    1    2    0    0 -0.11515052669E+02  0.14666333138E+02  0.17264718255E+01  0.72461588954E+02  0.70000024308E+02 0.  0.
        -12    1    1    2    0    0  0.11515052669E+02 -0.14666333138E+02 -0.17264718255E+01  0.18726411046E+02  0.00000000000E+00 0.  1.
         11    1    3    3    0    0 -0.17836734846E+02  0.32429821715E+02  0.19018543102E+02  0.41611866438E+02  0.51100000000E-03 0. -1.
        -11    1    3    3    0    0 -0.51447606572E+01 -0.11182318415E+02 -0.77610739345E+01  0.14551531748E+02  0.51100000000E-03 0.  1.
        -12    1    3    3    0    0  0.11466442834E+02 -0.65811701622E+01 -0.95309973419E+01  0.16298190768E+02  0.00000000000E+00 0.  1.
</event>
<event>
 7    1  0.2688173E-013  0.7246148E+02  0.7816164E-02  0.1226708E+00
        -11   -1    0    0    0    0  0.00000000000E+00  0.00000000000E+00  0.45593999997E+02  0.45594000000E+02  0.51100000000E-03 0. -1.
         11   -1    0    0    0    0 -0.00000000000E+00 -0.00000000000E+00 -0.45593999997E+02  0.45594000000E+02  0.51100000000E-03 0.  1.
    9900012    2    1    2    0    0 -0.48621936728E+01  0.14827965153E+02  0.10352444395E+02  0.72461479158E+02  0.69999881278E+02 0.  0.
        -12    1    1    2    0    0  0.48621936728E+01 -0.14827965153E+02 -0.10352444395E+02  0.18726520842E+02  0.00000000000E+00 0.  1.
         11    1    3    3    0    0 -0.14641200142E+02 -0.61172074171E+00 -0.15413245346E+02  0.21267512224E+02  0.51100000000E-03 0. -1.
        -11    1    3    3    0    0 -0.13324217628E+02  0.16238919877E+02  0.10429168883E+02  0.23452182372E+02  0.51100000000E-03 0.  1.
         12    1    3    3    0    0  0.23103224097E+02 -0.79923398150E+00  0.15336520858E+02  0.27741784562E+02  0.00000000000E+00 0. -1.
</event>
<event>
 7    1  0.2688173E-013  0.7246149E+02  0.7816164E-02  0.1226708E+00
        -11   -1    0    0    0    0  0.00000000000E+00  0.00000000000E+00  0.45593999997E+02  0.45594000000E+02  0.51100000000E-03 0.  1.
         11   -1    0    0    0    0 -0.00000000000E+00 -0.00000000000E+00 -0.45593999997E+02  0.45594000000E+02  0.51100000000E-03 0. -1.
    9900012    2    1    2    0    0  0.81107551680E+01  0.37806557123E+00 -0.16874677897E+02  0.72461493729E+02  0.69999900259E+02 0.  0.
        -12    1    1    2    0    0 -0.81107551680E+01 -0.37806557123E+00  0.16874677897E+02  0.18726506271E+02  0.00000000000E+00 0.  1.
         11    1    3    3    0    0 -0.14192371022E+02 -0.75502839763E+01 -0.50604058692E+01  0.16853423723E+02  0.51100000000E-03 0. -1.
        -11    1    3    3    0    0 -0.40316753966E+01 -0.26505159849E+00  0.15961787379E+02  0.16465215318E+02  0.51100000000E-03 0.  1.
         12    1    3    3    0    0  0.26334801587E+02  0.81934011461E+01 -0.27776059408E+02  0.39142854689E+02  0.00000000000E+00 0. -1.
</event>
<event>
 7    1  0.2688173E-013  0.7246153E+02  0.7816164E-02  0.1226708E+00
        -11   -1    0    0    0    0  0.00000000000E+00  0.00000000000E+00  0.45593999997E+02  0.45594000000E+02  0.51100000000E-03 0.  1.
         11   -1    0    0    0    0 -0.00000000000E+00 -0.00000000000E+00 -0.45593999997E+02  0.45594000000E+02  0.51100000000E-03 0. -1.
    9900012    2    1    2    0    0 -0.10646581775E+02  0.12958040045E+02  0.83318812964E+01  0.72461528062E+02  0.69999944984E+02 0.  0.
        -12    1    1    2    0    0  0.10646581775E+02 -0.12958040045E+02 -0.83318812964E+01  0.18726471938E+02  0.00000000000E+00 0.  1.
         11    1    3    3    0    0 -0.92792099878E-02  0.40446544134E+01  0.36826558527E+01  0.54700338042E+01  0.51100000000E-03 0. -1.
        -11    1    3    3    0    0 -0.34887424041E+02  0.12740755722E+00  0.16516399581E+02  0.38599741506E+02  0.51100000000E-03 0.  1.
         12    1    3    3    0    0  0.24250121476E+02  0.87859780746E+01 -0.11867174137E+02  0.28391752752E+02  0.00000000000E+00 0. -1.
</event>
<event>
 7    1  0.2688173E-013  0.7246156E+02  0.7816164E-02  0.1226708E+00
        -11   -1    0    0    0    0  0.00000000000E+00  0.00000000000E+00  0.45593999997E+02  0.45594000000E+02  0.51100000000E-03 0.  1.
         11   -1    0    0    0    0 -0.00000000000E+00 -0.00000000000E+00 -0.45593999997E+02  0.45594000000E+02  0.51100000000E-03 0. -1.
    9900012    2    1    2    0    0  0.10503340232E+02  0.13169067619E+02 -0.81813863109E+01  0.72461559336E+02  0.69999985724E+02 0.  0.
        -12    1    1    2    0    0 -0.10503340232E+02 -0.13169067619E+02  0.81813863109E+01  0.18726440664E+02  0.00000000000E+00 0.  1.
         11    1    3    3    0    0  0.22834107644E+02  0.35947951791E+02  0.15152721645E+01  0.42613938563E+02  0.51100000000E-03 0. -1.
        -11    1    3    3    0    0 -0.79371595950E+01 -0.90066653519E+01  0.72467577005E+00  0.12026790030E+02  0.51100000000E-03 0.  1.
        -12    1    3    3    0    0 -0.43936078176E+01 -0.13772218820E+02 -0.10421334246E+02  0.17820830742E+02  0.00000000000E+00 0.  1.
</event>
<event>
 7    1  0.2688173E-013  0.7246156E+02  0.7816164E-02  0.1226708E+00
        -11   -1    0    0    0    0  0.00000000000E+00  0.00000000000E+00  0.45593999997E+02  0.45594000000E+02  0.51100000000E-03 0. -1.
         11   -1    0    0    0    0 -0.00000000000E+00 -0.00000000000E+00 -0.45593999997E+02  0.45594000000E+02  0.51100000000E-03 0.  1.
    9900012    2    1    2    0    0 -0.20812242319E+01  0.18330550364E+02  0.32154153627E+01  0.72461562354E+02  0.69999989656E+02 0.  0.
        -12    1    1    2    0    0  0.20812242319E+01 -0.18330550364E+02 -0.32154153627E+01  0.18726437646E+02  0.00000000000E+00 0.  1.
         11    1    3    3    0    0  0.16346945575E+02  0.36170917996E+01  0.34830278316E+00  0.16745963627E+02  0.51100000000E-03 0. -1.
        -11    1    3    3    0    0  0.10284675041E+02  0.23433859660E+02  0.23482849097E+00  0.25592488428E+02  0.51100000000E-03 0.  1.
         12    1    3    3    0    0 -0.28712844848E+02 -0.87204010957E+01  0.26322840886E+01  0.30123110298E+02  0.00000000000E+00 0. -1.
</event>
<event>
 7    1  0.2688173E-013  0.7246155E+02  0.7816164E-02  0.1226708E+00
        -11   -1    0    0    0    0  0.00000000000E+00  0.00000000000E+00  0.45593999997E+02  0.45594000000E+02  0.51100000000E-03 0.  1.
         11   -1    0    0    0    0 -0.00000000000E+00 -0.00000000000E+00 -0.45593999997E+02  0.45594000000E+02  0.51100000000E-03 0. -1.
    9900012    2    1    2    0    0 -0.69230082274E+01  0.17369082771E+02 -0.10328115712E+01  0.72461554022E+02  0.69999978802E+02 0.  0.
        -12    1    1    2    0    0  0.69230082274E+01 -0.17369082771E+02  0.10328115712E+01  0.18726445978E+02  0.00000000000E+00 0.  1.
         11    1    3    3    0    0  0.10854082676E+02 -0.10334857562E+02 -0.22197465450E+02  0.26783350504E+02  0.51100000000E-03 0. -1.
        -11    1    3    3    0    0 -0.17815829038E+02  0.11245766878E+02  0.31925464233E+01  0.21308763219E+02  0.51100000000E-03 0.  1.
        -12    1    3    3    0    0  0.38738134989E-01  0.16458173455E+02  0.17972107455E+02  0.24369440299E+02  0.00000000000E+00 0.  1.
</event>
<event>
 7    1  0.2688173E-013  0.7246159E+02  0.7816164E-02  0.1226708E+00
        -11   -1    0    0    0    0  0.00000000000E+00  0.00000000000E+00  0.45593999997E+02  0.45594000000E+02  0.51100000000E-03 0. -1.
         11   -1    0    0    0    0 -0.00000000000E+00 -0.00000000000E+00 -0.45593999997E+02  0.45594000000E+02  0.51100000000E-03 0.  1.
    9900012    2    1    2    0    0  0.46631519825E+01 -0.12656406137E+02  0.12990338278E+02  0.72461588403E+02  0.70000023590E+02 0.  0.
        -12    1    1    2    0    0 -0.46631519825E+01  0.12656406137E+02 -0.12990338278E+02  0.18726411597E+02  0.00000000000E+00 0.  1.
         11    1    3    3    0    0 -0.72922002962E+01 -0.20271229328E+01 -0.18011790703E+02  0.19537400470E+02  0.51100000000E-03 0. -1.
        -11    1    3    3    0    0 -0.86847228166E+01 -0.85223804612E+01 -0.35028647447E+01  0.12661968283E+02  0.51100000000E-03 0.  1.
         12    1    3    3    0    0  0.20640075095E+02 -0.21069027426E+01  0.34504993726E+02  0.40262219650E+02  0.00000000000E+00 0. -1.
</event>
<event>
 7    1  0.2688173E-013  0.7246144E+02  0.7816164E-02  0.1226708E+00
        -11   -1    0    0    0    0  0.00000000000E+00  0.00000000000E+00  0.45593999997E+02  0.45594000000E+02  0.51100000000E-03 0. -1.
         11   -1    0    0    0    0 -0.00000000000E+00 -0.00000000000E+00 -0.45593999997E+02  0.45594000000E+02  0.51100000000E-03 0.  1.
    9900012    2    1    2    0    0  0.15415996671E+02 -0.29647071471E+01  0.10209884489E+02  0.72461436431E+02  0.69999825618E+02 0.  0.
        -12    1    1    2    0    0 -0.15415996671E+02  0.29647071471E+01 -0.10209884489E+02  0.18726563569E+02  0.00000000000E+00 0.  1.
         11    1    3    3    0    0  0.23116879904E+02 -0.30921333764E+02  0.16361865727E+01  0.38641895981E+02  0.51100000000E-03 0. -1.
        -11    1    3    3    0    0 -0.25917913489E-01 -0.18371848041E+01  0.11584306717E+01  0.21720685129E+01  0.51100000000E-03 0.  1.
        -12    1    3    3    0    0 -0.76749653190E+01  0.29793811422E+02  0.74152672443E+01  0.31647471937E+02  0.00000000000E+00 0.  1.
</event>
<event>
 7    1  0.2688173E-013  0.7246158E+02  0.7816164E-02  0.1226708E+00
        -11   -1    0    0    0    0  0.00000000000E+00  0.00000000000E+00  0.45593999997E+02  0.45594000000E+02  0.51100000000E-03 0.  1.
         11   -1    0    0    0    0 -0.00000000000E+00 -0.00000000000E+00 -0.45593999997E+02  0.45594000000E+02  0.51100000000E-03 0. -1.
    9900012    2    1    2    0    0  0.96294456183E+01 -0.13368050577E+02 -0.89021290830E+01  0.72461577455E+02  0.70000009328E+02 0.  0.
        -12    1    1    2    0    0 -0.96294456183E+01  0.13368050577E+02  0.89021290830E+01  0.18726422545E+02  0.00000000000E+00 0.  1.
         11    1    3    3    0    0 -0.13613909752E+02  0.10832274855E+02  0.39058013789E+01  0.17830647828E+02  0.51100000000E-03 0. -1.
        -11    1    3    3    0    0  0.53884287016E+01  0.11020868847E+02 -0.84644252508E+01  0.14904402340E+02  0.51100000000E-03 0.  1.
         12    1    3    3    0    0  0.17854926669E+02 -0.35221194279E+02 -0.43435052110E+01  0.39726527287E+02  0.00000000000E+00 0. -1.
</event>
<event>
 7    1  0.2688173E-013  0.7246161E+02  0.7816164E-02  0.1226708E+00
        -11   -1    0    0    0    0  0.00000000000E+00  0.00000000000E+00  0.45593999997E+02  0.45594000000E+02  0.51100000000E-03 0. -1.
         11   -1    0    0    0    0 -0.00000000000E+00 -0.00000000000E+00 -0.45593999997E+02  0.45594000000E+02  0.51100000000E-03 0.  1.
    9900012    2    1    2    0    0 -0.18433800474E+02 -0.80883140839E-01 -0.32963943871E+01  0.72461607983E+02  0.70000049097E+02 0.  0.
        -12    1    1    2    0    0  0.18433800474E+02  0.80883140839E-01  0.32963943871E+01  0.18726392017E+02  0.00000000000E+00 0.  1.
         11    1    3    3    0    0 -0.22135108373E+02 -0.16068601397E+02  0.35135966385E+01  0.27577315590E+02  0.51100000000E-03 0. -1.
        -11    1    3    3    0    0 -0.88232537685E+01  0.24803751523E+02 -0.11696128761E+02  0.28807556733E+02  0.51100000000E-03 0.  1.
        -12    1    3    3    0    0  0.12524561668E+02 -0.88160332668E+01  0.48861377351E+01  0.16076735660E+02  0.00000000000E+00 0.  1.
</event>
<event>
 7    1  0.2688173E-013  0.7246136E+02  0.7816164E-02  0.1226709E+00
        -11   -1    0    0    0    0  0.00000000000E+00  0.00000000000E+00  0.45593999997E+02  0.45594000000E+02  0.51100000000E-03 0. -1.
         11   -1    0    0    0    0 -0.00000000000E+00 -0.00000000000E+00 -0.45593999997E+02  0.45594000000E+02  0.51100000000E-03 0.  1.
    9900012    2    1    2    0    0 -0.77766932133E+01  0.16047813930E+02  0.57164470837E+01  0.72461359710E+02  0.69999725675E+02 0.  0.
        -12    1    1    2    0    0  0.77766932133E+01 -0.16047813930E+02 -0.57164470837E+01  0.18726640290E+02  0.00000000000E+00 0.  1.
         11    1    3    3    0    0 -0.87020782126E+01  0.26958152426E+01  0.14675970135E+02  0.17273612382E+02  0.51100000000E-03 0.  1.
        -11    1    3    3    0    0 -0.24738498849E+02 -0.98639328062E+00 -0.69810309005E+01  0.25723551266E+02  0.51100000000E-03 0. -1.
        -12    1    3    3    0    0  0.25663883849E+02  0.14338391968E+02 -0.19784921511E+01  0.29464196063E+02  0.00000000000E+00 0.  1.
</event>
<event>
 7    1  0.2688173E-013  0.7246125E+02  0.7816164E-02  0.1226709E+00
        -11   -1    0    0    0    0  0.00000000000E+00  0.00000000000E+00  0.45593999997E+02  0.45594000000E+02  0.51100000000E-03 0. -1.
         11   -1    0    0    0    0 -0.00000000000E+00 -0.00000000000E+00 -0.45593999997E+02  0.45594000000E+02  0.51100000000E-03 0.  1.
    9900012    2    1    2    0    0  0.10082745514E+02  0.13239159763E+02  0.85880235553E+01  0.72461247561E+02  0.69999579579E+02 0.  0.
        -12    1    1    2    0    0 -0.10082745514E+02 -0.13239159763E+02 -0.85880235553E+01  0.18726752439E+02  0.00000000000E+00 0.  1.
         11    1    3    3    0    0  0.80203054872E+01  0.11051020279E+01 -0.51756737751E+01  0.96090660258E+01  0.51100000000E-03 0. -1.
        -11    1    3    3    0    0  0.19694648497E+02  0.62253309283E+01 -0.17102815545E+02  0.26816789972E+02  0.51100000000E-03 0.  1.
         12    1    3    3    0    0 -0.17632208471E+02  0.59087268066E+01  0.30866512875E+02  0.36035391563E+02  0.00000000000E+00 0. -1.
</event>
<event>
 7    1  0.2688173E-013  0.7246155E+02  0.7816164E-02  0.1226708E+00
        -11   -1    0    0    0    0  0.00000000000E+00  0.00000000000E+00  0.45593999997E+02  0.45594000000E+02  0.51100000000E-03 0. -1.
         11   -1    0    0    0    0 -0.00000000000E+00 -0.00000000000E+00 -0.45593999997E+02  0.45594000000E+02  0.51100000000E-03 0.  1.
    9900012    2    1    2    0    0  0.60134074768E+01 -0.78821859652E+01  0.15886790084E+02  0.72461547473E+02  0.69999970270E+02 0.  0.
        -12    1    1    2    0    0 -0.60134074768E+01  0.78821859652E+01 -0.15886790084E+02  0.18726452527E+02  0.00000000000E+00 0.  1.
         11    1    3    3    0    0  0.20797971683E+02 -0.58524446939E+01  0.67707544534E+01  0.22641772262E+02  0.51100000000E-03 0. -1.
        -11    1    3    3    0    0  0.92219058546E+01 -0.17117123039E+02 -0.15989590072E+01  0.19508872825E+02  0.51100000000E-03 0.  1.
         12    1    3    3    0    0 -0.24006470061E+02  0.15087381768E+02  0.10714994638E+02  0.30310902386E+02  0.00000000000E+00 0. -1.
</event>
<event>
 7    1  0.2688173E-013  0.7246203E+02  0.7816164E-02  0.1226707E+00
        -11   -1    0    0    0    0  0.00000000000E+00  0.00000000000E+00  0.45593999997E+02  0.45594000000E+02  0.51100000000E-03 0.  1.
         11   -1    0    0    0    0 -0.00000000000E+00 -0.00000000000E+00 -0.45593999997E+02  0.45594000000E+02  0.51100000000E-03 0. -1.
    9900012    2    1    2    0    0  0.15125884574E+02 -0.10231289390E+02 -0.41461259979E+01  0.72462027995E+02  0.70000596238E+02 0.  0.
        -12    1    1    2    0    0 -0.15125884574E+02  0.10231289390E+02  0.41461259979E+01  0.18725972005E+02  0.00000000000E+00 0.  1.
         11    1    3    3    0    0  0.69075853976E+01  0.14550786410E+02 -0.23102321685E+02  0.28163050060E+02  0.51100000000E-03 0. -1.
        -11    1    3    3    0    0 -0.51727793829E+01 -0.79788863082E+00 -0.54480761481E+01  0.75548531943E+01  0.51100000000E-03 0.  1.
        -12    1    3    3    0    0  0.13391078560E+02 -0.23984187169E+02  0.24404271835E+02  0.36744124741E+02  0.00000000000E+00 0.  1.
</event>
<event>
 7    1  0.2688173E-013  0.7246159E+02  0.7816164E-02  0.1226708E+00
        -11   -1    0    0    0    0  0.00000000000E+00  0.00000000000E+00  0.45593999997E+02  0.45594000000E+02  0.51100000000E-03 0.  1.
         11   -1    0    0    0    0 -0.00000000000E+00 -0.00000000000E+00 -0.45593999997E+02  0.45594000000E+02  0.51100000000E-03 0. -1.
    9900012    2    1    2    0    0 -0.92007850602E+01  0.12448842565E+02 -0.10538033130E+02  0.72461594334E+02  0.70000031316E+02 0.  0.
        -12    1    1    2    0    0  0.92007850602E+01 -0.12448842565E+02  0.10538033130E+02  0.18726405666E+02  0.00000000000E+00 0.  1.
         11    1    3    3    0    0 -0.57427755384E+01 -0.18267271784E+02 -0.15844438753E+02  0.24853951979E+02  0.51100000000E-03 0. -1.
        -11    1    3    3    0    0 -0.66376442193E+00  0.11777780148E+02 -0.15405922144E+02  0.19403585385E+02  0.51100000000E-03 0.  1.
        -12    1    3    3    0    0 -0.27942450999E+01  0.18938334202E+02  0.20712327767E+02  0.28204056970E+02  0.00000000000E+00 0.  1.
</event>
<event>
 7    1  0.2688173E-013  0.7246159E+02  0.7816164E-02  0.1226708E+00
        -11   -1    0    0    0    0  0.00000000000E+00  0.00000000000E+00  0.45593999997E+02  0.45594000000E+02  0.51100000000E-03 0. -1.
         11   -1    0    0    0    0 -0.00000000000E+00 -0.00000000000E+00 -0.45593999997E+02  0.45594000000E+02  0.51100000000E-03 0.  1.
    9900012    2    1    2    0    0 -0.10595388221E+02  0.23638555013E+01  0.15258709547E+02  0.72461594007E+02  0.70000030890E+02 0.  0.
        -12    1    1    2    0    0  0.10595388221E+02 -0.23638555013E+01 -0.15258709547E+02  0.18726405993E+02  0.00000000000E+00 0.  1.
         11    1    3    3    0    0 -0.19090072682E+01 -0.68698939665E+01 -0.43889660753E+01  0.83727400134E+01  0.51100000000E-03 0. -1.
        -11    1    3    3    0    0  0.22845456888E+02  0.17012608728E+02  0.80007070168E+01  0.29586400071E+02  0.51100000000E-03 0.  1.
         12    1    3    3    0    0 -0.31531837840E+02 -0.77788592603E+01  0.11646968605E+02  0.34502453922E+02  0.00000000000E+00 0. -1.
</event>
<event>
 7    1  0.2688173E-013  0.7246156E+02  0.7816164E-02  0.1226708E+00
        -11   -1    0    0    0    0  0.00000000000E+00  0.00000000000E+00  0.45593999997E+02  0.45594000000E+02  0.51100000000E-03 0. -1.
         11   -1    0    0    0    0 -0.00000000000E+00 -0.00000000000E+00 -0.45593999997E+02  0.45594000000E+02  0.51100000000E-03 0.  1.
    9900012    2    1    2    0    0 -0.76071927616E+01 -0.17020916220E+02 -0.17603234024E+01  0.72461555886E+02  0.69999981230E+02 0.  0.
        -12    1    1    2    0    0  0.76071927616E+01  0.17020916220E+02  0.17603234024E+01  0.18726444114E+02  0.00000000000E+00 0.  1.
         11    1    3    3    0    0 -0.16122543237E+02 -0.24094592048E+02  0.18451504739E+02  0.34364862779E+02  0.51100000000E-03 0. -1.
        -11    1    3    3    0    0 -0.10753849743E+02  0.58904621933E+01 -0.40311719881E+01  0.12907097931E+02  0.51100000000E-03 0.  1.
        -12    1    3    3    0    0  0.19269200219E+02  0.11832136351E+01 -0.16180656153E+02  0.25189595176E+02  0.00000000000E+00 0.  1.
</event>
<event>
 7    1  0.2688173E-013  0.7246156E+02  0.7816164E-02  0.1226708E+00
        -11   -1    0    0    0    0  0.00000000000E+00  0.00000000000E+00  0.45593999997E+02  0.45594000000E+02  0.51100000000E-03 0.  1.
         11   -1    0    0    0    0 -0.00000000000E+00 -0.00000000000E+00 -0.45593999997E+02  0.45594000000E+02  0.51100000000E-03 0. -1.
    9900012    2    1    2    0    0  0.13411402595E+02 -0.10208112158E+02 -0.81613888342E+01  0.72461560373E+02  0.69999987076E+02 0.  0.
        -12    1    1    2    0    0 -0.13411402595E+02  0.10208112158E+02  0.81613888342E+01  0.18726439627E+02  0.00000000000E+00 0.  1.
         11    1    3    3    0    0  0.38998681713E+01  0.15964301464E+02 -0.14718919766E+02  0.22061606748E+02  0.51100000000E-03 0. -1.
        -11    1    3    3    0    0  0.56389448050E+00  0.80335439608E+01  0.12177161010E+02  0.14599282725E+02  0.51100000000E-03 0.  1.
         12    1    3    3    0    0  0.89476399430E+01 -0.34205957583E+02 -0.56196300787E+01  0.35800670900E+02  0.00000000000E+00 0. -1.
</event>
<event>
 7    1  0.2688173E-013  0.7246158E+02  0.7816164E-02  0.1226708E+00
        -11   -1    0    0    0    0  0.00000000000E+00  0.00000000000E+00  0.45593999997E+02  0.45594000000E+02  0.51100000000E-03 0.  1.
         11   -1    0    0    0    0 -0.00000000000E+00 -0.00000000000E+00 -0.45593999997E+02  0.45594000000E+02  0.51100000000E-03 0. -1.
    9900012    2    1    2    0    0  0.10050745781E+01 -0.29120127446E+01 -0.18471297132E+02  0.72461579870E+02  0.70000012474E+02 0.  0.
        -12    1    1    2    0    0 -0.10050745781E+01  0.29120127446E+01  0.18471297132E+02  0.18726420130E+02  0.00000000000E+00 0.  1.
         11    1    3    3    0    0 -0.29142819795E+02 -0.10189304951E+02 -0.30821982189E+01  0.31026211936E+02  0.51100000000E-03 0. -1.
        -11    1    3    3    0    0 -0.29727598895E+01  0.40523982732E+01 -0.33834808143E+01  0.60586447170E+01  0.51100000000E-03 0.  1.
         12    1    3    3    0    0  0.33120654262E+02  0.32248939334E+01 -0.12005618099E+02  0.35376723217E+02  0.00000000000E+00 0. -1.
</event>
<event>
 7    1  0.2688173E-013  0.7246156E+02  0.7816164E-02  0.1226708E+00
        -11   -1    0    0    0    0  0.00000000000E+00  0.00000000000E+00  0.45593999997E+02  0.45594000000E+02  0.51100000000E-03 0.  1.
         11   -1    0    0    0    0 -0.00000000000E+00 -0.00000000000E+00 -0.45593999997E+02  0.45594000000E+02  0.51100000000E-03 0. -1.
    9900012    2    1    2    0    0  0.97767782083E+01  0.15093983355E+02  0.52216701273E+01  0.72461559746E+02  0.69999986259E+02 0.  0.
        -12    1    1    2    0    0 -0.97767782083E+01 -0.15093983355E+02 -0.52216701273E+01  0.18726440254E+02  0.00000000000E+00 0.  1.
         11    1    3    3    0    0 -0.66395942940E+01 -0.16388730093E+02  0.19782232510E+01  0.17792921456E+02  0.51100000000E-03 0. -1.
        -11    1    3    3    0    0  0.89363132349E+01  0.72263152787E+00  0.17720100890E+02  0.19859049987E+02  0.51100000000E-03 0.  1.
        -12    1    3    3    0    0  0.74800592674E+01  0.30760081920E+02 -0.14476654014E+02  0.34809588303E+02  0.00000000000E+00 0.  1.
</event>
<event>
 7    1  0.2688173E-013  0.7246156E+02  0.7816164E-02  0.1226708E+00
        -11   -1    0    0    0    0  0.00000000000E+00  0.00000000000E+00  0.45593999997E+02  0.45594000000E+02  0.51100000000E-03 0.  1.
         11   -1    0    0    0    0 -0.00000000000E+00 -0.00000000000E+00 -0.45593999997E+02  0.45594000000E+02  0.51100000000E-03 0. -1.
    9900012    2    1    2    0    0 -0.53786643349E+01  0.99691600771E+01 -0.14911921907E+02  0.72461558864E+02  0.69999985109E+02 0.  0.
        -12    1    1    2    0    0  0.53786643349E+01 -0.99691600771E+01  0.14911921907E+02  0.18726441136E+02  0.00000000000E+00 0.  1.
         11    1    3    3    0    0  0.47965667555E+01  0.52312325106E+01 -0.93842829215E+01  0.11765951404E+02  0.51100000000E-03 0. -1.
        -11    1    3    3    0    0  0.11721163396E+02  0.32759803516E+01  0.22210420034E+02  0.25326280362E+02  0.51100000000E-03 0.  1.
         12    1    3    3    0    0 -0.21896394486E+02  0.14619472149E+01 -0.27738059020E+02  0.35369327098E+02  0.00000000000E+00 0. -1.
</event>
<event>
 7    1  0.2688173E-013  0.7246160E+02  0.7816164E-02  0.1226708E+00
        -11   -1    0    0    0    0  0.00000000000E+00  0.00000000000E+00  0.45593999997E+02  0.45594000000E+02  0.51100000000E-03 0.  1.
         11   -1    0    0    0    0 -0.00000000000E+00 -0.00000000000E+00 -0.45593999997E+02  0.45594000000E+02  0.51100000000E-03 0. -1.
    9900012    2    1    2    0    0  0.45700165863E+01 -0.77004319617E+01 -0.16446772913E+02  0.72461600366E+02  0.70000039174E+02 0.  0.
        -12    1    1    2    0    0 -0.45700165863E+01  0.77004319617E+01  0.16446772913E+02  0.18726399634E+02  0.00000000000E+00 0.  1.
         11    1    3    3    0    0  0.74147537335E+01  0.17619893021E+02  0.74516641783E+01  0.20517468224E+02  0.51100000000E-03 0. -1.
        -11    1    3    3    0    0  0.53178815055E+01 -0.80623044827E+01  0.94534649662E+01  0.13514755544E+02  0.51100000000E-03 0.  1.
         12    1    3    3    0    0 -0.81626186528E+01 -0.17258020500E+02 -0.33351902058E+02  0.38429376598E+02  0.00000000000E+00 0. -1.
</event>
<event>
 7    1  0.2688173E-013  0.7246157E+02  0.7816164E-02  0.1226708E+00
        -11   -1    0    0    0    0  0.00000000000E+00  0.00000000000E+00  0.45593999997E+02  0.45594000000E+02  0.51100000000E-03 0.  1.
         11   -1    0    0    0    0 -0.00000000000E+00 -0.00000000000E+00 -0.45593999997E+02  0.45594000000E+02  0.51100000000E-03 0. -1.
    9900012    2    1    2    0    0  0.12949762390E+01  0.10650096337E+02 -0.15348543765E+02  0.72461566512E+02  0.69999995073E+02 0.  0.
        -12    1    1    2    0    0 -0.12949762390E+01 -0.10650096337E+02  0.15348543765E+02  0.18726433488E+02  0.00000000000E+00 0.  1.
         11    1    3    3    0    0  0.10675551388E+02 -0.25821287459E+01 -0.99642704062E+01  0.14829749535E+02  0.51100000000E-03 0. -1.
        -11    1    3    3    0    0  0.15241975693E+02  0.23732528654E+02 -0.11011408541E+02  0.30278736064E+02  0.51100000000E-03 0.  1.
         12    1    3    3    0    0 -0.24622550842E+02 -0.10500303570E+02  0.56271351822E+01  0.27353080912E+02  0.00000000000E+00 0. -1.
</event>
<event>
 7    1  0.2688173E-013  0.7246151E+02  0.7816164E-02  0.1226708E+00
        -11   -1    0    0    0    0  0.00000000000E+00  0.00000000000E+00  0.45593999997E+02  0.45594000000E+02  0.51100000000E-03 0. -1.
         11   -1    0    0    0    0 -0.00000000000E+00 -0.00000000000E+00 -0.45593999997E+02  0.45594000000E+02  0.51100000000E-03 0.  1.
    9900012    2    1    2    0    0  0.99004216424E+01 -0.42634705084E+01  0.15312929938E+02  0.72461512002E+02  0.69999924063E+02 0.  0.
        -12    1    1    2    0    0 -0.99004216424E+01  0.42634705084E+01 -0.15312929938E+02  0.18726487998E+02  0.00000000000E+00 0.  1.
         11    1    3    3    0    0 -0.39897085545E+01  0.15763109373E+01 -0.11149592231E+02  0.11946377597E+02  0.51100000000E-03 0.  1.
        -11    1    3    3    0    0  0.30250811192E+02  0.80681962847E+01  0.22802995476E+02  0.38732208458E+02  0.51100000000E-03 0. -1.
         12    1    3    3    0    0 -0.16360680996E+02 -0.13907977730E+02  0.36595266927E+01  0.21782925947E+02  0.00000000000E+00 0. -1.
</event>
<event>
 7    1  0.2688173E-013  0.7246152E+02  0.7816164E-02  0.1226708E+00
        -11   -1    0    0    0    0  0.00000000000E+00  0.00000000000E+00  0.45593999997E+02  0.45594000000E+02  0.51100000000E-03 0.  1.
         11   -1    0    0    0    0 -0.00000000000E+00 -0.00000000000E+00 -0.45593999997E+02  0.45594000000E+02  0.51100000000E-03 0. -1.
    9900012    2    1    2    0    0  0.17906992721E+02  0.30506722893E+01  0.45512712710E+01  0.72461519820E+02  0.69999934248E+02 0.  0.
        -12    1    1    2    0    0 -0.17906992721E+02 -0.30506722893E+01 -0.45512712710E+01  0.18726480180E+02  0.00000000000E+00 0.  1.
         11    1    3    3    0    0 -0.98292768209E+01  0.27960996368E+01  0.19118592204E+02  0.21678409170E+02  0.51100000000E-03 0. -1.
        -11    1    3    3    0    0 -0.10062037339E+02 -0.34096156141E+01 -0.22468024060E+01  0.10859014474E+02  0.51100000000E-03 0.  1.
         12    1    3    3    0    0  0.37798306881E+02  0.36641882666E+01 -0.12320518527E+02  0.39924096176E+02  0.00000000000E+00 0. -1.
</event>
<event>
 7    1  0.2688173E-013  0.7246156E+02  0.7816164E-02  0.1226708E+00
        -11   -1    0    0    0    0  0.00000000000E+00  0.00000000000E+00  0.45593999997E+02  0.45594000000E+02  0.51100000000E-03 0.  1.
         11   -1    0    0    0    0 -0.00000000000E+00 -0.00000000000E+00 -0.45593999997E+02  0.45594000000E+02  0.51100000000E-03 0. -1.
    9900012    2    1    2    0    0  0.18764106971E+01  0.24947111826E+01 -0.18464431604E+02  0.72461555184E+02  0.69999980316E+02 0.  0.
        -12    1    1    2    0    0 -0.18764106971E+01 -0.24947111826E+01  0.18464431604E+02  0.18726444816E+02  0.00000000000E+00 0.  1.
         11    1    3    3    0    0  0.78951892743E+01 -0.19047340858E+02 -0.28180013249E+02  0.34917736960E+02  0.51100000000E-03 0.  1.
        -11    1    3    3    0    0 -0.12401238288E+02  0.41911965946E+00 -0.19872132568E+01  0.12566439001E+02  0.51100000000E-03 0. -1.
        -12    1    3    3    0    0  0.63824597109E+01  0.21122932381E+02  0.11702794902E+02  0.24977379223E+02  0.00000000000E+00 0.  1.
</event>
<event>
 7    1  0.2688173E-013  0.7246155E+02  0.7816164E-02  0.1226708E+00
        -11   -1    0    0    0    0  0.00000000000E+00  0.00000000000E+00  0.45593999997E+02  0.45594000000E+02  0.51100000000E-03 0.  1.
         11   -1    0    0    0    0 -0.00000000000E+00 -0.00000000000E+00 -0.45593999997E+02  0.45594000000E+02  0.51100000000E-03 0. -1.
    9900012    2    1    2    0    0  0.15873427250E+02  0.79631439598E+01 -0.59416001181E+01  0.72461549019E+02  0.69999972285E+02 0.  0.
        -12    1    1    2    0    0 -0.15873427250E+02 -0.79631439598E+01  0.59416001181E+01  0.18726450981E+02  0.00000000000E+00 0.  1.
         11    1    3    3    0    0 -0.77544421295E+01 -0.11348992110E+02 -0.12646766082E+02  0.18678107165E+02  0.51100000000E-03 0. -1.
        -11    1    3    3    0    0 -0.31505937084E+01  0.22159135947E+02 -0.71533354183E+01  0.23497313772E+02  0.51100000000E-03 0.  1.
        -12    1    3    3    0    0  0.26778463088E+02 -0.28469998775E+01  0.13858501383E+02  0.30286128082E+02  0.00000000000E+00 0.  1.
</event>
<event>
 7    1  0.2688173E-013  0.7246157E+02  0.7816164E-02  0.1226708E+00
        -11   -1    0    0    0    0  0.00000000000E+00  0.00000000000E+00  0.45593999997E+02  0.45594000000E+02  0.51100000000E-03 0.  1.
         11   -1    0    0    0    0 -0.00000000000E+00 -0.00000000000E+00 -0.45593999997E+02  0.45594000000E+02  0.51100000000E-03 0. -1.
    9900012    2    1    2    0    0 -0.22152002898E+01  0.74928718124E+01 -0.17018487322E+02  0.72461570788E+02  0.70000000643E+02 0.  0.
        -12    1    1    2    0    0  0.22152002898E+01 -0.74928718124E+01  0.17018487322E+02  0.18726429212E+02  0.00000000000E+00 0.  1.
         11    1    3    3    0    0 -0.26600350315E+00  0.60201970937E+01 -0.86393896234E+01  0.10533403260E+02  0.51100000000E-03 0. -1.
        -11    1    3    3    0    0  0.11414623447E+01  0.21515680774E+02  0.18402130481E+02  0.28334887718E+02  0.51100000000E-03 0.  1.
         12    1    3    3    0    0 -0.30906591314E+01 -0.20043006055E+02 -0.26781228180E+02  0.33593279810E+02  0.00000000000E+00 0. -1.
</event>
<event>
 7    1  0.2688173E-013  0.7246157E+02  0.7816164E-02  0.1226708E+00
        -11   -1    0    0    0    0  0.00000000000E+00  0.00000000000E+00  0.45593999997E+02  0.45594000000E+02  0.51100000000E-03 0.  1.
         11   -1    0    0    0    0 -0.00000000000E+00 -0.00000000000E+00 -0.45593999997E+02  0.45594000000E+02  0.51100000000E-03 0. -1.
    9900012    2    1    2    0    0  0.26294840495E+01  0.36819433050E+01 -0.18171629638E+02  0.72461574378E+02  0.70000005319E+02 0.  0.
        -12    1    1    2    0    0 -0.26294840495E+01 -0.36819433050E+01  0.18171629638E+02  0.18726425622E+02  0.00000000000E+00 0.  1.
         11    1    3    3    0    0  0.11531371511E+02 -0.13375256353E+02 -0.53994552899E+01  0.18466838633E+02  0.51100000000E-03 0. -1.
        -11    1    3    3    0    0  0.14165052628E+02  0.89021208376E+01 -0.22180040820E+02  0.27782200820E+02  0.51100000000E-03 0.  1.
         12    1    3    3    0    0 -0.23066940089E+02  0.81550788204E+01  0.94078664712E+01  0.26212534925E+02  0.00000000000E+00 0. -1.
</event>
<event>
 7    1  0.2688173E-013  0.7246158E+02  0.7816164E-02  0.1226708E+00
        -11   -1    0    0    0    0  0.00000000000E+00  0.00000000000E+00  0.45593999997E+02  0.45594000000E+02  0.51100000000E-03 0.  1.
         11   -1    0    0    0    0 -0.00000000000E+00 -0.00000000000E+00 -0.45593999997E+02  0.45594000000E+02  0.51100000000E-03 0. -1.
    9900012    2    1    2    0    0 -0.14801292957E+02  0.33559649841E+01 -0.10969872669E+02  0.72461578010E+02  0.70000010051E+02 0.  0.
        -12    1    1    2    0    0  0.14801292957E+02 -0.33559649841E+01  0.10969872669E+02  0.18726421990E+02  0.00000000000E+00 0.  1.
         11    1    3    3    0    0 -0.76740416724E+01  0.37680341190E+01  0.22292099382E+01  0.88350650208E+01  0.51100000000E-03 0. -1.
        -11    1    3    3    0    0 -0.16870334391E+02 -0.27845151640E+02 -0.26594333266E+01  0.32665474713E+02  0.51100000000E-03 0.  1.
         12    1    3    3    0    0  0.97430831060E+01  0.27433082506E+02 -0.10539649281E+02  0.30961038276E+02  0.00000000000E+00 0. -1.
</event>
<event>
 7    1  0.2688173E-013  0.7246154E+02  0.7816164E-02  0.1226708E+00
        -11   -1    0    0    0    0  0.00000000000E+00  0.00000000000E+00  0.45593999997E+02  0.45594000000E+02  0.51100000000E-03 0. -1.
         11   -1    0    0    0    0 -0.00000000000E+00 -0.00000000000E+00 -0.45593999997E+02  0.45594000000E+02  0.51100000000E-03 0.  1.
    9900012    2    1    2    0    0  0.10276041980E+02  0.73135304758E+01  0.13841798734E+02  0.72461543876E+02  0.69999965585E+02 0.  0.
        -12    1    1    2    0    0 -0.10276041980E+02 -0.73135304758E+01 -0.13841798734E+02  0.18726456124E+02  0.00000000000E+00 0.  1.
         11    1    3    3    0    0 -0.12894116270E+02 -0.33810550637E+00  0.61643051182E+01  0.14295845815E+02  0.51100000000E-03 0. -1.
        -11    1    3    3    0    0 -0.13967557902E+02 -0.80168728786E+01  0.77164664115E+01  0.17857961212E+02  0.51100000000E-03 0.  1.
         12    1    3    3    0    0  0.37137716153E+02  0.15668508861E+02 -0.38972796144E-01  0.40307736848E+02  0.00000000000E+00 0. -1.
</event>
<event>
 7    1  0.2688173E-013  0.7246156E+02  0.7816164E-02  0.1226708E+00
        -11   -1    0    0    0    0  0.00000000000E+00  0.00000000000E+00  0.45593999997E+02  0.45594000000E+02  0.51100000000E-03 0.  1.
         11   -1    0    0    0    0 -0.00000000000E+00 -0.00000000000E+00 -0.45593999997E+02  0.45594000000E+02  0.51100000000E-03 0. -1.
    9900012    2    1    2    0    0  0.12095128267E+02 -0.14262269249E+02 -0.98742872176E+00  0.72461562341E+02  0.69999989640E+02 0.  0.
        -12    1    1    2    0    0 -0.12095128267E+02  0.14262269249E+02  0.98742872176E+00  0.18726437659E+02  0.00000000000E+00 0.  1.
         11    1    3    3    0    0 -0.19638543070E+02 -0.18985339735E+01 -0.10136637799E+01  0.19756121069E+02  0.51100000000E-03 0. -1.
        -11    1    3    3    0    0 -0.50572902186E+01  0.38527949549E+01 -0.94574266118E+01  0.11395750598E+02  0.51100000000E-03 0.  1.
        -12    1    3    3    0    0  0.36790961556E+02 -0.16216530230E+02  0.94836616700E+01  0.41309690674E+02  0.00000000000E+00 0.  1.
</event>
<event>
 7    1  0.2688173E-013  0.7246166E+02  0.7816164E-02  0.1226708E+00
        -11   -1    0    0    0    0  0.00000000000E+00  0.00000000000E+00  0.45593999997E+02  0.45594000000E+02  0.51100000000E-03 0.  1.
         11   -1    0    0    0    0 -0.00000000000E+00 -0.00000000000E+00 -0.45593999997E+02  0.45594000000E+02  0.51100000000E-03 0. -1.
    9900012    2    1    2    0    0  0.17874844445E+02  0.34656497429E+01  0.43766401817E+01  0.72461661026E+02  0.70000118195E+02 0.  0.
        -12    1    1    2    0    0 -0.17874844445E+02 -0.34656497429E+01 -0.43766401817E+01  0.18726338974E+02  0.00000000000E+00 0.  1.
         11    1    3    3    0    0  0.16945852556E+02  0.82819555678E+01  0.64025532911E+01  0.19918468711E+02  0.51100000000E-03 0. -1.
        -11    1    3    3    0    0  0.20550751381E+02  0.10755790213E+02  0.93782229256E+01  0.25019421874E+02  0.51100000000E-03 0.  1.
        -12    1    3    3    0    0 -0.19621759492E+02 -0.15572096038E+02 -0.11404136035E+02  0.27523770441E+02  0.00000000000E+00 0.  1.
</event>
<event>
 7    1  0.2688173E-013  0.7246168E+02  0.7816164E-02  0.1226708E+00
        -11   -1    0    0    0    0  0.00000000000E+00  0.00000000000E+00  0.45593999997E+02  0.45594000000E+02  0.51100000000E-03 0.  1.
         11   -1    0    0    0    0 -0.00000000000E+00 -0.00000000000E+00 -0.45593999997E+02  0.45594000000E+02  0.51100000000E-03 0. -1.
    9900012    2    1    2    0    0 -0.93831812476E+01 -0.24694153474E+00 -0.16204010691E+02  0.72461680743E+02  0.70000143880E+02 0.  0.
        -12    1    1    2    0    0  0.93831812476E+01  0.24694153474E+00  0.16204010691E+02  0.18726319257E+02  0.00000000000E+00 0.  1.
         11    1    3    3    0    0 -0.88914739429E+01  0.20331936861E+02 -0.10389227432E+02  0.24502693981E+02  0.51100000000E-03 0.  1.
        -11    1    3    3    0    0  0.24806191881E+01 -0.25818594089E+01 -0.22773149222E+02  0.23052891257E+02  0.51100000000E-03 0. -1.
        -12    1    3    3    0    0 -0.29723264928E+01 -0.17997018987E+02  0.16958365963E+02  0.24906095506E+02  0.00000000000E+00 0.  1.
</event>
<event>
 7    1  0.2688173E-013  0.7246157E+02  0.7816164E-02  0.1226708E+00
        -11   -1    0    0    0    0  0.00000000000E+00  0.00000000000E+00  0.45593999997E+02  0.45594000000E+02  0.51100000000E-03 0. -1.
         11   -1    0    0    0    0 -0.00000000000E+00 -0.00000000000E+00 -0.45593999997E+02  0.45594000000E+02  0.51100000000E-03 0.  1.
    9900012    2    1    2    0    0 -0.15597993646E+02 -0.94849181713E+01  0.41734997675E+01  0.72461570046E+02  0.69999999677E+02 0.  0.
        -12    1    1    2    0    0  0.15597993646E+02  0.94849181713E+01 -0.41734997675E+01  0.18726429954E+02  0.00000000000E+00 0.  1.
         11    1    3    3    0    0  0.12363956429E+02 -0.98070424744E+01  0.90176142416E+00  0.15806918568E+02  0.51100000000E-03 0. -1.
        -11    1    3    3    0    0  0.52346714047E+01  0.18010189966E+02 -0.10930411502E+01  0.18787321963E+02  0.51100000000E-03 0.  1.
         12    1    3    3    0    0 -0.33196621481E+02 -0.17688065663E+02  0.43647794935E+01  0.37867329515E+02  0.00000000000E+00 0. -1.
</event>
<event>
 7    1  0.2688173E-013  0.7246158E+02  0.7816164E-02  0.1226708E+00
        -11   -1    0    0    0    0  0.00000000000E+00  0.00000000000E+00  0.45593999997E+02  0.45594000000E+02  0.51100000000E-03 0. -1.
         11   -1    0    0    0    0 -0.00000000000E+00 -0.00000000000E+00 -0.45593999997E+02  0.45594000000E+02  0.51100000000E-03 0.  1.
    9900012    2    1    2    0    0 -0.13232564185E+02 -0.11860182133E+02  0.59088091598E+01  0.72461582809E+02  0.70000016302E+02 0.  0.
        -12    1    1    2    0    0  0.13232564185E+02  0.11860182133E+02 -0.59088091598E+01  0.18726417191E+02  0.00000000000E+00 0.  1.
         11    1    3    3    0    0 -0.17110486335E+02 -0.16708736284E+02  0.14220405370E+02  0.27823920284E+02  0.51100000000E-03 0. -1.
        -11    1    3    3    0    0 -0.91091148881E+01 -0.94683531802E+01  0.11132108006E+02  0.17220613081E+02  0.51100000000E-03 0.  1.
        -12    1    3    3    0    0  0.12987037038E+02  0.14316907331E+02 -0.19443704216E+02  0.27417049443E+02  0.00000000000E+00 0.  1.
</event>
<event>
 7    1  0.2688173E-013  0.7246153E+02  0.7816164E-02  0.1226708E+00
        -11   -1    0    0    0    0  0.00000000000E+00  0.00000000000E+00  0.45593999997E+02  0.45594000000E+02  0.51100000000E-03 0.  1.
         11   -1    0    0    0    0 -0.00000000000E+00 -0.00000000000E+00 -0.45593999997E+02  0.45594000000E+02  0.51100000000E-03 0. -1.
    9900012    2    1    2    0    0  0.12200255653E+02 -0.82012896197E+01 -0.11600576613E+02  0.72461527637E+02  0.69999944431E+02 0.  0.
        -12    1    1    2    0    0 -0.12200255653E+02  0.82012896197E+01  0.11600576613E+02  0.18726472363E+02  0.00000000000E+00 0.  1.
         11    1    3    3    0    0 -0.48884126075E+01  0.88427889638E+00 -0.11280995396E+02  0.12326369473E+02  0.51100000000E-03 0. -1.
        -11    1    3    3    0    0 -0.11965112329E+02  0.51038403144E+01 -0.18823708922E+02  0.22881108296E+02  0.51100000000E-03 0.  1.
        -12    1    3    3    0    0  0.29053780589E+02 -0.14189408830E+02  0.18504127705E+02  0.37254049868E+02  0.00000000000E+00 0.  1.
</event>
<event>
 7    1  0.2688173E-013  0.7246173E+02  0.7816164E-02  0.1226708E+00
        -11   -1    0    0    0    0  0.00000000000E+00  0.00000000000E+00  0.45593999997E+02  0.45594000000E+02  0.51100000000E-03 0.  1.
         11   -1    0    0    0    0 -0.00000000000E+00 -0.00000000000E+00 -0.45593999997E+02  0.45594000000E+02  0.51100000000E-03 0. -1.
    9900012    2    1    2    0    0 -0.37043572608E+00 -0.13207033650E+02  0.13270659222E+02  0.72461725500E+02  0.70000202184E+02 0.  0.
        -12    1    1    2    0    0  0.37043572608E+00  0.13207033650E+02 -0.13270659222E+02  0.18726274500E+02  0.00000000000E+00 0.  1.
         11    1    3    3    0    0 -0.48571821909E+00  0.30080019472E+01  0.36759307913E+01  0.47745644143E+01  0.51100000000E-03 0. -1.
        -11    1    3    3    0    0  0.17722398112E+02  0.18999832033E+02  0.11176517848E+02  0.28284122111E+02  0.51100000000E-03 0.  1.
         12    1    3    3    0    0 -0.17607115619E+02 -0.35214867631E+02 -0.15817894175E+01  0.39403038974E+02  0.00000000000E+00 0. -1.
</event>
<event>
 7    1  0.2688173E-013  0.7246159E+02  0.7816164E-02  0.1226708E+00
        -11   -1    0    0    0    0  0.00000000000E+00  0.00000000000E+00  0.45593999997E+02  0.45594000000E+02  0.51100000000E-03 0.  1.
         11   -1    0    0    0    0 -0.00000000000E+00 -0.00000000000E+00 -0.45593999997E+02  0.45594000000E+02  0.51100000000E-03 0. -1.
    9900012    2    1    2    0    0 -0.76465556753E+01  0.17040800459E+02  0.13490058981E+01  0.72461587880E+02  0.70000022909E+02 0.  0.
        -12    1    1    2    0    0  0.76465556753E+01 -0.17040800459E+02 -0.13490058981E+01  0.18726412120E+02  0.00000000000E+00 0.  1.
         11    1    3    3    0    0  0.12825358035E+02 -0.11417129999E+02 -0.41395783072E+01  0.17662864291E+02  0.51100000000E-03 0. -1.
        -11    1    3    3    0    0 -0.13085505392E+02 -0.92892537058E+01  0.21538621428E+01  0.16191349795E+02  0.51100000000E-03 0.  1.
        -12    1    3    3    0    0 -0.73864083181E+01  0.37747184163E+02  0.33347220625E+01  0.38607373795E+02  0.00000000000E+00 0.  1.
</event>
<event>
 7    1  0.2688173E-013  0.7246154E+02  0.7816164E-02  0.1226708E+00
        -11   -1    0    0    0    0  0.00000000000E+00  0.00000000000E+00  0.45593999997E+02  0.45594000000E+02  0.51100000000E-03 0.  1.
         11   -1    0    0    0    0 -0.00000000000E+00 -0.00000000000E+00 -0.45593999997E+02  0.45594000000E+02  0.51100000000E-03 0. -1.
    9900012    2    1    2    0    0  0.17001022132E+02 -0.21962594694E+01  0.75380259439E+01  0.72461544267E+02  0.69999966095E+02 0.  0.
        -12    1    1    2    0    0 -0.17001022132E+02  0.21962594694E+01 -0.75380259439E+01  0.18726455733E+02  0.00000000000E+00 0.  1.
         11    1    3    3    0    0  0.10385869851E+02 -0.21027878077E+02 -0.21512375278E+02  0.31824836831E+02  0.51100000000E-03 0. -1.
        -11    1    3    3    0    0 -0.19487789645E-01 -0.34865406522E+01  0.10394971772E+00  0.34881443918E+01  0.51100000000E-03 0.  1.
        -12    1    3    3    0    0  0.66346400708E+01  0.22318159259E+02  0.28946451504E+02  0.37148563044E+02  0.00000000000E+00 0.  1.
</event>
<event>
 7    1  0.2688173E-013  0.7246144E+02  0.7816164E-02  0.1226708E+00
        -11   -1    0    0    0    0  0.00000000000E+00  0.00000000000E+00  0.45593999997E+02  0.45594000000E+02  0.51100000000E-03 0.  1.
         11   -1    0    0    0    0 -0.00000000000E+00 -0.00000000000E+00 -0.45593999997E+02  0.45594000000E+02  0.51100000000E-03 0. -1.
    9900012    2    1    2    0    0 -0.59290305266E+01 -0.43213957315E+01 -0.17229515313E+02  0.72461439665E+02  0.69999829831E+02 0.  0.
        -12    1    1    2    0    0  0.59290305266E+01  0.43213957315E+01  0.17229515313E+02  0.18726560335E+02  0.00000000000E+00 0.  1.
         11    1    3    3    0    0 -0.27226429429E+02 -0.38295916396E+01 -0.24038582888E+02  0.36521195203E+02  0.51100000000E-03 0. -1.
        -11    1    3    3    0    0 -0.46588857083E+01  0.47038457406E+01 -0.35524618446E+01  0.75134124213E+01  0.51100000000E-03 0.  1.
        -12    1    3    3    0    0  0.25956284610E+02 -0.51956498325E+01  0.10361529420E+02  0.28426832041E+02  0.00000000000E+00 0.  1.
</event>
<event>
 7    1  0.2688173E-013  0.7246153E+02  0.7816164E-02  0.1226708E+00
        -11   -1    0    0    0    0  0.00000000000E+00  0.00000000000E+00  0.45593999997E+02  0.45594000000E+02  0.51100000000E-03 0. -1.
         11   -1    0    0    0    0 -0.00000000000E+00 -0.00000000000E+00 -0.45593999997E+02  0.45594000000E+02  0.51100000000E-03 0.  1.
    9900012    2    1    2    0    0  0.18426993455E+02 -0.65931708101E-01  0.33349853962E+01  0.72461533105E+02  0.69999951554E+02 0.  0.
        -12    1    1    2    0    0 -0.18426993455E+02  0.65931708101E-01 -0.33349853962E+01  0.18726466895E+02  0.00000000000E+00 0.  1.
         11    1    3    3    0    0 -0.83509104266E+01 -0.26290550917E+02  0.21137016834E+01  0.27665836469E+02  0.51100000000E-03 0. -1.
        -11    1    3    3    0    0 -0.24093637851E+01  0.11400798383E+02 -0.22782306706E+01  0.11873229252E+02  0.51100000000E-03 0.  1.
        -12    1    3    3    0    0  0.29187267667E+02  0.14823820825E+02  0.34995143834E+01  0.32922467384E+02  0.00000000000E+00 0.  1.
</event>
<event>
 7    1  0.2688173E-013  0.7246158E+02  0.7816164E-02  0.1226708E+00
        -11   -1    0    0    0    0  0.00000000000E+00  0.00000000000E+00  0.45593999997E+02  0.45594000000E+02  0.51100000000E-03 0.  1.
         11   -1    0    0    0    0 -0.00000000000E+00 -0.00000000000E+00 -0.45593999997E+02  0.45594000000E+02  0.51100000000E-03 0. -1.
    9900012    2    1    2    0    0 -0.13719670803E+02  0.83937530296E+01 -0.95913617005E+01  0.72461583468E+02  0.70000017161E+02 0.  0.
        -12    1    1    2    0    0  0.13719670803E+02 -0.83937530296E+01  0.95913617005E+01  0.18726416532E+02  0.00000000000E+00 0.  1.
         11    1    3    3    0    0 -0.30148332632E+01 -0.88628622189E+01 -0.94558752899E+01  0.13306131071E+02  0.51100000000E-03 0. -1.
        -11    1    3    3    0    0 -0.18492052776E+02 -0.11625219456E+02 -0.14249498164E+02  0.26079684458E+02  0.51100000000E-03 0.  1.
        -12    1    3    3    0    0  0.77872152353E+01  0.28881834704E+02  0.14114011753E+02  0.33075767939E+02  0.00000000000E+00 0.  1.
</event>
<event>
 7    1  0.2688173E-013  0.7246156E+02  0.7816164E-02  0.1226708E+00
        -11   -1    0    0    0    0  0.00000000000E+00  0.00000000000E+00  0.45593999997E+02  0.45594000000E+02  0.51100000000E-03 0.  1.
         11   -1    0    0    0    0 -0.00000000000E+00 -0.00000000000E+00 -0.45593999997E+02  0.45594000000E+02  0.51100000000E-03 0. -1.
    9900012    2    1    2    0    0  0.10065726647E+02 -0.99896777422E+00 -0.15759526867E+02  0.72461562095E+02  0.69999989319E+02 0.  0.
        -12    1    1    2    0    0 -0.10065726647E+02  0.99896777422E+00  0.15759526867E+02  0.18726437905E+02  0.00000000000E+00 0.  1.
         11    1    3    3    0    0 -0.15540485845E+02  0.11024570559E+02 -0.47775367640E+01  0.19643643096E+02  0.51100000000E-03 0. -1.
        -11    1    3    3    0    0  0.80305478407E+01  0.15223563666E+02 -0.10939320778E+02  0.20394002272E+02  0.51100000000E-03 0.  1.
         12    1    3    3    0    0  0.17575664651E+02 -0.27247101999E+02 -0.42669325109E-01  0.32423916727E+02  0.00000000000E+00 0. -1.
</event>
<event>
 7    1  0.2688173E-013  0.7246159E+02  0.7816164E-02  0.1226708E+00
        -11   -1    0    0    0    0  0.00000000000E+00  0.00000000000E+00  0.45593999997E+02  0.45594000000E+02  0.51100000000E-03 0. -1.
         11   -1    0    0    0    0 -0.00000000000E+00 -0.00000000000E+00 -0.45593999997E+02  0.45594000000E+02  0.51100000000E-03 0.  1.
    9900012    2    1    2    0    0  0.37552720421E+01 -0.13120084857E+02  0.12823409113E+02  0.72461587742E+02  0.70000022729E+02 0.  0.
        -12    1    1    2    0    0 -0.37552720421E+01  0.13120084857E+02 -0.12823409113E+02  0.18726412258E+02  0.00000000000E+00 0.  1.
         11    1    3    3    0    0 -0.60686640317E+01  0.64619134988E+01 -0.91693378498E+01  0.12753892193E+02  0.51100000000E-03 0. -1.
        -11    1    3    3    0    0  0.17452497818E+02 -0.16444174968E+02 -0.10505098540E+02  0.26179336624E+02  0.51100000000E-03 0.  1.
         12    1    3    3    0    0 -0.76285617442E+01 -0.31378233877E+01  0.32497845503E+02  0.33528358925E+02  0.00000000000E+00 0. -1.
</event>
<event>
 7    1  0.2688173E-013  0.7246159E+02  0.7816164E-02  0.1226708E+00
        -11   -1    0    0    0    0  0.00000000000E+00  0.00000000000E+00  0.45593999997E+02  0.45594000000E+02  0.51100000000E-03 0. -1.
         11   -1    0    0    0    0 -0.00000000000E+00 -0.00000000000E+00 -0.45593999997E+02  0.45594000000E+02  0.51100000000E-03 0.  1.
    9900012    2    1    2    0    0  0.20176407799E+01 -0.90801824522E+01  0.16252935608E+02  0.72461588076E+02  0.70000023163E+02 0.  0.
        -12    1    1    2    0    0 -0.20176407799E+01  0.90801824522E+01 -0.16252935608E+02  0.18726411924E+02  0.00000000000E+00 0.  1.
         11    1    3    3    0    0  0.26924473461E+02 -0.41077042365E+01  0.50231919680E+00  0.27240646654E+02  0.51100000000E-03 0. -1.
        -11    1    3    3    0    0  0.70639491520E+01  0.52703621846E+01  0.35395128940E+01  0.94975916403E+01  0.51100000000E-03 0.  1.
         12    1    3    3    0    0 -0.31970781834E+02 -0.10242840400E+02  0.12211103517E+02  0.35723349782E+02  0.00000000000E+00 0. -1.
</event>
<event>
 7    1  0.2688173E-013  0.7246155E+02  0.7816164E-02  0.1226708E+00
        -11   -1    0    0    0    0  0.00000000000E+00  0.00000000000E+00  0.45593999997E+02  0.45594000000E+02  0.51100000000E-03 0. -1.
         11   -1    0    0    0    0 -0.00000000000E+00 -0.00000000000E+00 -0.45593999997E+02  0.45594000000E+02  0.51100000000E-03 0.  1.
    9900012    2    1    2    0    0  0.13486752522E+02 -0.73411230602E+01 -0.10718922577E+02  0.72461551255E+02  0.69999975198E+02 0.  0.
        -12    1    1    2    0    0 -0.13486752522E+02  0.73411230602E+01  0.10718922577E+02  0.18726448745E+02  0.00000000000E+00 0.  1.
         11    1    3    3    0    0  0.18060585088E+02 -0.75647017063E+01  0.17259773538E+02  0.26101900859E+02  0.51100000000E-03 0. -1.
        -11    1    3    3    0    0  0.55155179254E+01 -0.16271500936E+02 -0.16775608157E+02  0.24012573998E+02  0.51100000000E-03 0.  1.
        -12    1    3    3    0    0 -0.10089350491E+02  0.16495079582E+02 -0.11203087958E+02  0.22347076398E+02  0.00000000000E+00 0.  1.
</event>
<event>
 7    1  0.2688173E-013  0.7246162E+02  0.7816164E-02  0.1226708E+00
        -11   -1    0    0    0    0  0.00000000000E+00  0.00000000000E+00  0.45593999997E+02  0.45594000000E+02  0.51100000000E-03 0. -1.
         11   -1    0    0    0    0 -0.00000000000E+00 -0.00000000000E+00 -0.45593999997E+02  0.45594000000E+02  0.51100000000E-03 0.  1.
    9900012    2    1    2    0    0 -0.13376986471E+02 -0.12985021613E+02  0.17671448589E+01  0.72461618762E+02  0.70000063138E+02 0.  0.
        -12    1    1    2    0    0  0.13376986471E+02  0.12985021613E+02 -0.17671448589E+01  0.18726381238E+02  0.00000000000E+00 0.  1.
         11    1    3    3    0    0  0.65481895135E+01  0.43986651449E+01  0.17102011001E+02  0.18833635377E+02  0.51100000000E-03 0. -1.
        -11    1    3    3    0    0 -0.10274345289E+02  0.13666817534E+02 -0.12111033957E+02  0.20952833135E+02  0.51100000000E-03 0.  1.
         12    1    3    3    0    0 -0.96508306957E+01 -0.31050504292E+02 -0.32238321847E+01  0.32675150250E+02  0.00000000000E+00 0. -1.
</event>
<event>
 7    1  0.2688173E-013  0.7246157E+02  0.7816164E-02  0.1226708E+00
        -11   -1    0    0    0    0  0.00000000000E+00  0.00000000000E+00  0.45593999997E+02  0.45594000000E+02  0.51100000000E-03 0.  1.
         11   -1    0    0    0    0 -0.00000000000E+00 -0.00000000000E+00 -0.45593999997E+02  0.45594000000E+02  0.51100000000E-03 0. -1.
    9900012    2    1    2    0    0 -0.88223631983E+01  0.16387447232E+02 -0.20728658421E+01  0.72461567024E+02  0.69999995740E+02 0.  0.
        -12    1    1    2    0    0  0.88223631983E+01 -0.16387447232E+02  0.20728658421E+01  0.18726432976E+02  0.00000000000E+00 0.  1.
         11    1    3    3    0    0 -0.12155839107E+02  0.77354914321E+01 -0.14167276232E+01  0.14477892440E+02  0.51100000000E-03 0. -1.
        -11    1    3    3    0    0  0.13885041564E+02 -0.21100802234E+02  0.54237516351E+01  0.25835156593E+02  0.51100000000E-03 0.  1.
         12    1    3    3    0    0 -0.10551565655E+02  0.29752758034E+02 -0.60798898540E+01  0.32148517991E+02  0.00000000000E+00 0. -1.
</event>
<event>
 7    1  0.2688173E-013  0.7246156E+02  0.7816164E-02  0.1226708E+00
        -11   -1    0    0    0    0  0.00000000000E+00  0.00000000000E+00  0.45593999997E+02  0.45594000000E+02  0.51100000000E-03 0.  1.
         11   -1    0    0    0    0 -0.00000000000E+00 -0.00000000000E+00 -0.45593999997E+02  0.45594000000E+02  0.51100000000E-03 0. -1.
    9900012    2    1    2    0    0 -0.38912458728E+01  0.15863941683E+02  0.91582230758E+01  0.72461561735E+02  0.69999988850E+02 0.  0.
        -12    1    1    2    0    0  0.38912458728E+01 -0.15863941683E+02 -0.91582230758E+01  0.18726438265E+02  0.00000000000E+00 0.  1.
         11    1    3    3    0    0 -0.25206876440E+02  0.29231771132E+02  0.52307261481E+01  0.38951810736E+02  0.51100000000E-03 0. -1.
        -11    1    3    3    0    0 -0.99938971904E+00 -0.97974651612E+01 -0.22080979952E+01  0.10092809342E+02  0.51100000000E-03 0.  1.
        -12    1    3    3    0    0  0.22315020286E+02 -0.35703642872E+01  0.61355949229E+01  0.23416941657E+02  0.00000000000E+00 0.  1.
</event>
<event>
 7    1  0.2688173E-013  0.7246152E+02  0.7816164E-02  0.1226708E+00
        -11   -1    0    0    0    0  0.00000000000E+00  0.00000000000E+00  0.45593999997E+02  0.45594000000E+02  0.51100000000E-03 0. -1.
         11   -1    0    0    0    0 -0.00000000000E+00 -0.00000000000E+00 -0.45593999997E+02  0.45594000000E+02  0.51100000000E-03 0.  1.
    9900012    2    1    2    0    0  0.90747770970E+01  0.16339955743E+02  0.11554874399E+01  0.72461524510E+02  0.69999940358E+02 0.  0.
        -12    1    1    2    0    0 -0.90747770970E+01 -0.16339955743E+02 -0.11554874399E+01  0.18726475490E+02  0.00000000000E+00 0.  1.
         11    1    3    3    0    0  0.73002912295E+01  0.73528172015E+01 -0.81502370461E+01  0.13182736325E+02  0.51100000000E-03 0. -1.
        -11    1    3    3    0    0  0.24052356954E+02  0.18143244990E+02 -0.60292853767E+01  0.30725323371E+02  0.51100000000E-03 0.  1.
         12    1    3    3    0    0 -0.22277871087E+02 -0.91561064488E+01  0.15335009863E+02  0.28553464815E+02  0.00000000000E+00 0. -1.
</event>
<event>
 8    1  0.2688173E-013  0.7246154E+02  0.7816164E-02  0.1226708E+00
        -11   -1    0    0    0    0  0.00000000000E+00  0.00000000000E+00  0.45593999997E+02  0.45594000000E+02  0.51100000000E-03 0. -1.
         11   -1    0    0    0    0 -0.00000000000E+00 -0.00000000000E+00 -0.45593999997E+02  0.45594000000E+02  0.51100000000E-03 0.  1.
    9900012    2    1    2    0    0  0.16120970887E+02 -0.95855344907E+00  0.94802913655E+01  0.72461536067E+02  0.69999955413E+02 0.  0.
         23    2    3    3    0    0  0.21527036215E+02  0.93410034885E+01  0.11649161224E+02  0.60628936526E+02  0.54676296076E+02 0.  0.
        -12    1    1    2    0    0 -0.16120970887E+02  0.95855344907E+00 -0.94802913655E+01  0.18726463933E+02  0.00000000000E+00 0.  1.
         11    1    4    4    0    0  0.23651325840E+02  0.15342754350E+02  0.30022281250E+02  0.41184010207E+02  0.51100000000E-03 0. -1.
        -11    1    4    4    0    0 -0.21242896241E+01 -0.60017508617E+01 -0.18373120025E+02  0.19444926319E+02  0.51100000000E-03 0.  1.
        -12    1    3    3    0    0 -0.54060653287E+01 -0.10299556938E+02 -0.21688698587E+01  0.11832599542E+02  0.00000000000E+00 0.  1.
</event>
<event>
 7    1  0.2688173E-013  0.7246146E+02  0.7816164E-02  0.1226708E+00
        -11   -1    0    0    0    0  0.00000000000E+00  0.00000000000E+00  0.45593999997E+02  0.45594000000E+02  0.51100000000E-03 0.  1.
         11   -1    0    0    0    0 -0.00000000000E+00 -0.00000000000E+00 -0.45593999997E+02  0.45594000000E+02  0.51100000000E-03 0. -1.
    9900012    2    1    2    0    0  0.51658561576E+01  0.14431055113E+02 -0.10758332613E+02  0.72461464226E+02  0.69999861826E+02 0.  0.
        -12    1    1    2    0    0 -0.51658561576E+01 -0.14431055113E+02  0.10758332613E+02  0.18726535774E+02  0.00000000000E+00 0.  1.
         11    1    3    3    0    0 -0.22012421895E+02 -0.11557040173E+02 -0.18050503745E+02  0.30723485821E+02  0.51100000000E-03 0. -1.
        -11    1    3    3    0    0 -0.14630336899E+01  0.84575260674E-01 -0.15372905171E+01  0.21238839299E+01  0.51100000000E-03 0.  1.
        -12    1    3    3    0    0  0.28641311743E+02  0.25903520025E+02  0.88294616500E+01  0.39614094475E+02  0.00000000000E+00 0.  1.
</event>
<event>
 7    1  0.2688173E-013  0.7246147E+02  0.7816164E-02  0.1226708E+00
        -11   -1    0    0    0    0  0.00000000000E+00  0.00000000000E+00  0.45593999997E+02  0.45594000000E+02  0.51100000000E-03 0.  1.
         11   -1    0    0    0    0 -0.00000000000E+00 -0.00000000000E+00 -0.45593999997E+02  0.45594000000E+02  0.51100000000E-03 0. -1.
    9900012    2    1    2    0    0 -0.10099349220E+02  0.12693265461E+02 -0.93577340525E+01  0.72461467237E+02  0.69999865749E+02 0.  0.
        -12    1    1    2    0    0  0.10099349220E+02 -0.12693265461E+02  0.93577340525E+01  0.18726532763E+02  0.00000000000E+00 0.  1.
         11    1    3    3    0    0 -0.10723976011E+02 -0.37823558034E+01 -0.19762474626E+02  0.22800554391E+02  0.51100000000E-03 0. -1.
        -11    1    3    3    0    0 -0.14047129929E+02  0.23902289463E+02  0.16336396087E+02  0.32179483187E+02  0.51100000000E-03 0.  1.
        -12    1    3    3    0    0  0.14671756720E+02 -0.74266681994E+01 -0.59316555134E+01  0.17481429659E+02  0.00000000000E+00 0.  1.
</event>
<event>
 7    1  0.2688173E-013  0.7246161E+02  0.7816164E-02  0.1226708E+00
        -11   -1    0    0    0    0  0.00000000000E+00  0.00000000000E+00  0.45593999997E+02  0.45594000000E+02  0.51100000000E-03 0.  1.
         11   -1    0    0    0    0 -0.00000000000E+00 -0.00000000000E+00 -0.45593999997E+02  0.45594000000E+02  0.51100000000E-03 0. -1.
    9900012    2    1    2    0    0  0.11513891135E+02 -0.14287566571E+02  0.37381247140E+01  0.72461606220E+02  0.70000046800E+02 0.  0.
        -12    1    1    2    0    0 -0.11513891135E+02  0.14287566571E+02 -0.37381247140E+01  0.18726393780E+02  0.00000000000E+00 0.  1.
         11    1    3    3    0    0  0.57457303585E+01  0.81643941216E+01  0.16223525040E+02  0.19049239190E+02  0.51100000000E-03 0. -1.
        -11    1    3    3    0    0 -0.39612390847E+01  0.46600777755E+00  0.15470700294E+02  0.15976581179E+02  0.51100000000E-03 0.  1.
         12    1    3    3    0    0  0.97293998616E+01 -0.22917968471E+02 -0.27956100619E+02  0.37435785852E+02  0.00000000000E+00 0. -1.
</event>
<event>
 7    1  0.2688173E-013  0.7246149E+02  0.7816164E-02  0.1226708E+00
        -11   -1    0    0    0    0  0.00000000000E+00  0.00000000000E+00  0.45593999997E+02  0.45594000000E+02  0.51100000000E-03 0.  1.
         11   -1    0    0    0    0 -0.00000000000E+00 -0.00000000000E+00 -0.45593999997E+02  0.45594000000E+02  0.51100000000E-03 0. -1.
    9900012    2    1    2    0    0  0.25145241632E+01  0.17795434251E+01 -0.18471403257E+02  0.72461485512E+02  0.69999889556E+02 0.  0.
        -12    1    1    2    0    0 -0.25145241632E+01 -0.17795434251E+01  0.18471403257E+02  0.18726514488E+02  0.00000000000E+00 0.  1.
         11    1    3    3    0    0  0.62229901670E+01 -0.28154673667E+02 -0.52097572165E+01  0.29301072104E+02  0.51100000000E-03 0. -1.
        -11    1    3    3    0    0  0.54281704112E+01  0.12084319545E+02 -0.18198208872E+02  0.22509345155E+02  0.51100000000E-03 0.  1.
        -12    1    3    3    0    0 -0.91366364150E+01  0.17849897547E+02  0.49365628318E+01  0.20651068253E+02  0.00000000000E+00 0.  1.
</event>
<event>
 7    1  0.2688173E-013  0.7246153E+02  0.7816164E-02  0.1226708E+00
        -11   -1    0    0    0    0  0.00000000000E+00  0.00000000000E+00  0.45593999997E+02  0.45594000000E+02  0.51100000000E-03 0.  1.
         11   -1    0    0    0    0 -0.00000000000E+00 -0.00000000000E+00 -0.45593999997E+02  0.45594000000E+02  0.51100000000E-03 0. -1.
    9900012    2    1    2    0    0  0.66013481747E+01 -0.16633888115E+02 -0.55151120935E+01  0.72461534958E+02  0.69999953968E+02 0.  0.
        -12    1    1    2    0    0 -0.66013481747E+01  0.16633888115E+02  0.55151120935E+01  0.18726465042E+02  0.00000000000E+00 0.  1.
         11    1    3    3    0    0 -0.13662395674E+02 -0.43816737226E+00  0.19088128537E+02  0.23477855470E+02  0.51100000000E-03 0.  1.
        -11    1    3    3    0    0  0.52327223184E+01  0.92775804454E+01 -0.22387620003E+00  0.10653872657E+02  0.51100000000E-03 0. -1.
        -12    1    3    3    0    0  0.15031021530E+02 -0.25473301189E+02 -0.24379364430E+02  0.38329806831E+02  0.00000000000E+00 0.  1.
</event>
<event>
 7    1  0.2688173E-013  0.7246157E+02  0.7816164E-02  0.1226708E+00
        -11   -1    0    0    0    0  0.00000000000E+00  0.00000000000E+00  0.45593999997E+02  0.45594000000E+02  0.51100000000E-03 0.  1.
         11   -1    0    0    0    0 -0.00000000000E+00 -0.00000000000E+00 -0.45593999997E+02  0.45594000000E+02  0.51100000000E-03 0. -1.
    9900012    2    1    2    0    0  0.68100091884E+01 -0.43398028910E+01 -0.16895827627E+02  0.72461572004E+02  0.70000002227E+02 0.  0.
        -12    1    1    2    0    0 -0.68100091884E+01  0.43398028910E+01  0.16895827627E+02  0.18726427996E+02  0.00000000000E+00 0.  1.
         11    1    3    3    0    0  0.12487178788E+02  0.17591081995E+02 -0.20474826547E+02  0.29742130425E+02  0.51100000000E-03 0. -1.
        -11    1    3    3    0    0  0.39509958314E+01  0.49594539862E+01  0.11453664101E+02  0.13091713925E+02  0.51100000000E-03 0.  1.
        -12    1    3    3    0    0 -0.96281654309E+01 -0.26890338872E+02 -0.78746651810E+01  0.29627727654E+02  0.00000000000E+00 0.  1.
</event>
<event>
 7    1  0.2688173E-013  0.7246139E+02  0.7816164E-02  0.1226708E+00
        -11   -1    0    0    0    0  0.00000000000E+00  0.00000000000E+00  0.45593999997E+02  0.45594000000E+02  0.51100000000E-03 0.  1.
         11   -1    0    0    0    0 -0.00000000000E+00 -0.00000000000E+00 -0.45593999997E+02  0.45594000000E+02  0.51100000000E-03 0. -1.
    9900012    2    1    2    0    0  0.63512251480E+00 -0.75949019756E+01  0.17105556136E+02  0.72461388791E+02  0.69999763558E+02 0.  0.
        -12    1    1    2    0    0 -0.63512251480E+00  0.75949019756E+01 -0.17105556136E+02  0.18726611209E+02  0.00000000000E+00 0.  1.
         11    1    3    3    0    0 -0.75976760502E+01 -0.15583872558E+02 -0.11061611435E+02  0.20565529730E+02  0.51100000000E-03 0. -1.
        -11    1    3    3    0    0 -0.86053216801E+01 -0.12368338353E+02  0.18276135849E+02  0.23686377871E+02  0.51100000000E-03 0.  1.
         12    1    3    3    0    0  0.16838120245E+02  0.20357308935E+02  0.98910317231E+01  0.28209481190E+02  0.00000000000E+00 0. -1.
</event>
<event>
 7    1  0.2688173E-013  0.7246164E+02  0.7816164E-02  0.1226708E+00
        -11   -1    0    0    0    0  0.00000000000E+00  0.00000000000E+00  0.45593999997E+02  0.45594000000E+02  0.51100000000E-03 0.  1.
         11   -1    0    0    0    0 -0.00000000000E+00 -0.00000000000E+00 -0.45593999997E+02  0.45594000000E+02  0.51100000000E-03 0. -1.
    9900012    2    1    2    0    0  0.17539070061E+02 -0.28985021679E+01 -0.58869457549E+01  0.72461643607E+02  0.70000095503E+02 0.  0.
        -12    1    1    2    0    0 -0.17539070061E+02  0.28985021679E+01  0.58869457549E+01  0.18726356393E+02  0.00000000000E+00 0.  1.
         11    1    3    3    0    0 -0.14979209846E+01  0.19812147094E+01 -0.87588600850E+01  0.91042083264E+01  0.51100000000E-03 0. -1.
        -11    1    3    3    0    0 -0.21310427187E+02 -0.77097293682E+01  0.33476000153E+01  0.22908091582E+02  0.51100000000E-03 0.  1.
         12    1    3    3    0    0  0.40347418233E+02  0.28300124909E+01 -0.47568568518E+00  0.40449343698E+02  0.00000000000E+00 0. -1.
</event>
<event>
 7    1  0.2688173E-013  0.7246158E+02  0.7816164E-02  0.1226708E+00
        -11   -1    0    0    0    0  0.00000000000E+00  0.00000000000E+00  0.45593999997E+02  0.45594000000E+02  0.51100000000E-03 0. -1.
         11   -1    0    0    0    0 -0.00000000000E+00 -0.00000000000E+00 -0.45593999997E+02  0.45594000000E+02  0.51100000000E-03 0.  1.
    9900012    2    1    2    0    0  0.47084812795E+01 -0.18124433215E+02  0.11727828916E+00  0.72461584712E+02  0.70000018782E+02 0.  0.
        -12    1    1    2    0    0 -0.47084812795E+01  0.18124433215E+02 -0.11727828916E+00  0.18726415288E+02  0.00000000000E+00 0.  1.
         11    1    3    3    0    0  0.12716181404E+02  0.11903874421E+02  0.29830432982E+01  0.17672069582E+02  0.51100000000E-03 0. -1.
        -11    1    3    3    0    0  0.46478529102E+01 -0.38920135515E+02 -0.31177644043E+01  0.39320477367E+02  0.51100000000E-03 0.  1.
         12    1    3    3    0    0 -0.12655553034E+02  0.88918278784E+01  0.25199939528E+00  0.15469037763E+02  0.00000000000E+00 0. -1.
</event>
<event>
 7    1  0.2688173E-013  0.7246154E+02  0.7816164E-02  0.1226708E+00
        -11   -1    0    0    0    0  0.00000000000E+00  0.00000000000E+00  0.45593999997E+02  0.45594000000E+02  0.51100000000E-03 0.  1.
         11   -1    0    0    0    0 -0.00000000000E+00 -0.00000000000E+00 -0.45593999997E+02  0.45594000000E+02  0.51100000000E-03 0. -1.
    9900012    2    1    2    0    0  0.41881555808E+01  0.18081609881E+02  0.24890156559E+01  0.72461535785E+02  0.69999955046E+02 0.  0.
        -12    1    1    2    0    0 -0.41881555808E+01 -0.18081609881E+02 -0.24890156559E+01  0.18726464215E+02  0.00000000000E+00 0.  1.
         11    1    3    3    0    0 -0.95001653832E+01  0.24263955895E+02  0.18625544590E+02  0.32029730088E+02  0.51100000000E-03 0. -1.
        -11    1    3    3    0    0  0.14832040456E+02  0.48658529052E+01  0.51368688032E+01  0.16433300641E+02  0.51100000000E-03 0.  1.
         12    1    3    3    0    0 -0.11437194920E+01 -0.11048198919E+02 -0.21273397738E+02  0.23998505056E+02  0.00000000000E+00 0. -1.
</event>
<event>
 7    1  0.2688173E-013  0.7246160E+02  0.7816164E-02  0.1226708E+00
        -11   -1    0    0    0    0  0.00000000000E+00  0.00000000000E+00  0.45593999997E+02  0.45594000000E+02  0.51100000000E-03 0.  1.
         11   -1    0    0    0    0 -0.00000000000E+00 -0.00000000000E+00 -0.45593999997E+02  0.45594000000E+02  0.51100000000E-03 0. -1.
    9900012    2    1    2    0    0  0.11324508633E+02  0.14893924825E+02 -0.77759114627E+00  0.72461597770E+02  0.70000035793E+02 0.  0.
        -12    1    1    2    0    0 -0.11324508633E+02 -0.14893924825E+02  0.77759114627E+00  0.18726402230E+02  0.00000000000E+00 0.  1.
         11    1    3    3    0    0  0.87688100143E+01  0.28620794356E+02  0.12172221976E+02  0.32314159230E+02  0.51100000000E-03 0. -1.
        -11    1    3    3    0    0  0.28736096759E+01  0.65424990060E+01 -0.17905426387E+02  0.19278646741E+02  0.51100000000E-03 0.  1.
        -12    1    3    3    0    0 -0.31791105713E+00 -0.20269368537E+02  0.49556132641E+01  0.20868791799E+02  0.00000000000E+00 0.  1.
</event>
<event>
 7    1  0.2688173E-013  0.7246171E+02  0.7816164E-02  0.1226708E+00
        -11   -1    0    0    0    0  0.00000000000E+00  0.00000000000E+00  0.45593999997E+02  0.45594000000E+02  0.51100000000E-03 0.  1.
         11   -1    0    0    0    0 -0.00000000000E+00 -0.00000000000E+00 -0.45593999997E+02  0.45594000000E+02  0.51100000000E-03 0. -1.
    9900012    2    1    2    0    0 -0.14646680736E+02  0.11633882966E+02  0.89527550988E+00  0.72461708117E+02  0.70000179539E+02 0.  0.
        -12    1    1    2    0    0  0.14646680736E+02 -0.11633882966E+02 -0.89527550988E+00  0.18726291883E+02  0.00000000000E+00 0.  1.
         11    1    3    3    0    0 -0.71410723326E+01  0.56288226695E+01 -0.12448565785E+02  0.15415750033E+02  0.51100000000E-03 0. -1.
        -11    1    3    3    0    0 -0.19243337505E+02  0.24167719150E+02 -0.13140663285E+01  0.30921052017E+02  0.51100000000E-03 0.  1.
         12    1    3    3    0    0  0.11737729101E+02 -0.18162658854E+02  0.14657907624E+02  0.26124906067E+02  0.00000000000E+00 0. -1.
</event>
<event>
 7    1  0.2688173E-013  0.7246161E+02  0.7816164E-02  0.1226708E+00
        -11   -1    0    0    0    0  0.00000000000E+00  0.00000000000E+00  0.45593999997E+02  0.45594000000E+02  0.51100000000E-03 0.  1.
         11   -1    0    0    0    0 -0.00000000000E+00 -0.00000000000E+00 -0.45593999997E+02  0.45594000000E+02  0.51100000000E-03 0. -1.
    9900012    2    1    2    0    0  0.18262015588E+02 -0.25094893254E+01 -0.32983464730E+01  0.72461605807E+02  0.70000046261E+02 0.  0.
        -12    1    1    2    0    0 -0.18262015588E+02  0.25094893254E+01  0.32983464730E+01  0.18726394193E+02  0.00000000000E+00 0.  1.
         11    1    3    3    0    0  0.18402797121E+02  0.42484170010E+01 -0.11465424254E+02  0.22094522907E+02  0.51100000000E-03 0. -1.
        -11    1    3    3    0    0  0.16975129514E+02  0.11427277798E+02  0.13908685617E+02  0.24742458159E+02  0.51100000000E-03 0.  1.
        -12    1    3    3    0    0 -0.17115911047E+02 -0.18185184124E+02 -0.57416078354E+01  0.25624624741E+02  0.00000000000E+00 0.  1.
</event>
<event>
 7    1  0.2688173E-013  0.7246156E+02  0.7816164E-02  0.1226708E+00
        -11   -1    0    0    0    0  0.00000000000E+00  0.00000000000E+00  0.45593999997E+02  0.45594000000E+02  0.51100000000E-03 0. -1.
         11   -1    0    0    0    0 -0.00000000000E+00 -0.00000000000E+00 -0.45593999997E+02  0.45594000000E+02  0.51100000000E-03 0.  1.
    9900012    2    1    2    0    0  0.51336609036E+01 -0.81054167424E+01  0.16081894309E+02  0.72461559350E+02  0.69999985743E+02 0.  0.
        -12    1    1    2    0    0 -0.51336609036E+01  0.81054167424E+01 -0.16081894309E+02  0.18726440650E+02  0.00000000000E+00 0.  1.
         11    1    3    3    0    0  0.14581032268E+02 -0.11758139010E+02 -0.45637912377E+01  0.19279225237E+02  0.51100000000E-03 0. -1.
        -11    1    3    3    0    0  0.16981449546E+02  0.11675525456E+02  0.41819740152E+01  0.21027991590E+02  0.51100000000E-03 0.  1.
         12    1    3    3    0    0 -0.26428820911E+02 -0.80228031879E+01  0.16463711532E+02  0.32154342524E+02  0.00000000000E+00 0. -1.
</event>
<event>
 7    1  0.2688173E-013  0.7246160E+02  0.7816164E-02  0.1226708E+00
        -11   -1    0    0    0    0  0.00000000000E+00  0.00000000000E+00  0.45593999997E+02  0.45594000000E+02  0.51100000000E-03 0.  1.
         11   -1    0    0    0    0 -0.00000000000E+00 -0.00000000000E+00 -0.45593999997E+02  0.45594000000E+02  0.51100000000E-03 0. -1.
    9900012    2    1    2    0    0  0.13046787210E+01 -0.14723039773E+02 -0.11498174704E+02  0.72461598631E+02  0.70000036914E+02 0.  0.
        -12    1    1    2    0    0 -0.13046787210E+01  0.14723039773E+02  0.11498174704E+02  0.18726401369E+02  0.00000000000E+00 0.  1.
         11    1    3    3    0    0 -0.25113253452E+01  0.59206310646E+01 -0.34057597043E+01  0.72773502470E+01  0.51100000000E-03 0. -1.
        -11    1    3    3    0    0 -0.23052394709E+02  0.88082917010E+01 -0.51490201448E+01  0.25209349718E+02  0.51100000000E-03 0.  1.
         12    1    3    3    0    0  0.26868398775E+02 -0.29451962539E+02 -0.29433948547E+01  0.39974898666E+02  0.00000000000E+00 0. -1.
</event>
<event>
 7    1  0.2688173E-013  0.7246157E+02  0.7816164E-02  0.1226708E+00
        -11   -1    0    0    0    0  0.00000000000E+00  0.00000000000E+00  0.45593999997E+02  0.45594000000E+02  0.51100000000E-03 0. -1.
         11   -1    0    0    0    0 -0.00000000000E+00 -0.00000000000E+00 -0.45593999997E+02  0.45594000000E+02  0.51100000000E-03 0.  1.
    9900012    2    1    2    0    0  0.16237482961E+02  0.69110474645E+01  0.62658407395E+01  0.72461569744E+02  0.69999999282E+02 0.  0.
        -12    1    1    2    0    0 -0.16237482961E+02 -0.69110474645E+01 -0.62658407395E+01  0.18726430256E+02  0.00000000000E+00 0.  1.
         11    1    3    3    0    0 -0.90483818743E+01  0.94831400655E+01  0.14447083270E+02  0.19506957100E+02  0.51100000000E-03 0. -1.
        -11    1    3    3    0    0  0.67886518907E+01  0.13848785066E+02  0.13168706930E+02  0.20280273292E+02  0.51100000000E-03 0.  1.
        -12    1    3    3    0    0  0.18497212945E+02 -0.16420877667E+02 -0.21349949460E+02  0.32674339352E+02  0.00000000000E+00 0.  1.
</event>
<event>
 7    1  0.2688173E-013  0.7246158E+02  0.7816164E-02  0.1226708E+00
        -11   -1    0    0    0    0  0.00000000000E+00  0.00000000000E+00  0.45593999997E+02  0.45594000000E+02  0.51100000000E-03 0.  1.
         11   -1    0    0    0    0 -0.00000000000E+00 -0.00000000000E+00 -0.45593999997E+02  0.45594000000E+02  0.51100000000E-03 0. -1.
    9900012    2    1    2    0    0  0.16585965690E+02 -0.76821629145E+01  0.40704797891E+01  0.72461583081E+02  0.70000016657E+02 0.  0.
        -12    1    1    2    0    0 -0.16585965690E+02  0.76821629145E+01 -0.40704797891E+01  0.18726416919E+02  0.00000000000E+00 0.  1.
         11    1    3    3    0    0 -0.20272945066E+02 -0.36259761874E+01  0.76112614074E+01  0.21956122277E+02  0.51100000000E-03 0. -1.
        -11    1    3    3    0    0 -0.82655935548E+00  0.68254471154E+01 -0.85394181138E+01  0.10963192540E+02  0.51100000000E-03 0.  1.
        -12    1    3    3    0    0  0.37685470112E+02 -0.10881633842E+02  0.49986364955E+01  0.39542268264E+02  0.00000000000E+00 0.  1.
</event>
<event>
 7    1  0.2688173E-013  0.7246153E+02  0.7816164E-02  0.1226708E+00
        -11   -1    0    0    0    0  0.00000000000E+00  0.00000000000E+00  0.45593999997E+02  0.45594000000E+02  0.51100000000E-03 0. -1.
         11   -1    0    0    0    0 -0.00000000000E+00 -0.00000000000E+00 -0.45593999997E+02  0.45594000000E+02  0.51100000000E-03 0.  1.
    9900012    2    1    2    0    0 -0.12282930327E+02  0.67638546017E+01  0.12412119572E+02  0.72461526260E+02  0.69999942637E+02 0.  0.
        -12    1    1    2    0    0  0.12282930327E+02 -0.67638546017E+01 -0.12412119572E+02  0.18726473740E+02  0.00000000000E+00 0.  1.
         11    1    3    3    0    0 -0.20466585066E+01 -0.67459949482E+01 -0.11440842998E+02  0.13438383372E+02  0.51100000000E-03 0. -1.
        -11    1    3    3    0    0 -0.90052200951E+01 -0.47657648665E+01 -0.13798585659E+02  0.17152477086E+02  0.51100000000E-03 0.  1.
         12    1    3    3    0    0 -0.12310517249E+01  0.18275614416E+02  0.37651548229E+02  0.41870665802E+02  0.00000000000E+00 0. -1.
</event>
<event>
 7    1  0.2688173E-013  0.7246160E+02  0.7816164E-02  0.1226708E+00
        -11   -1    0    0    0    0  0.00000000000E+00  0.00000000000E+00  0.45593999997E+02  0.45594000000E+02  0.51100000000E-03 0. -1.
         11   -1    0    0    0    0 -0.00000000000E+00 -0.00000000000E+00 -0.45593999997E+02  0.45594000000E+02  0.51100000000E-03 0.  1.
    9900012    2    1    2    0    0  0.11916288663E+02 -0.48096006931E+01  0.13621589183E+02  0.72461604559E+02  0.70000044636E+02 0.  0.
        -12    1    1    2    0    0 -0.11916288663E+02  0.48096006931E+01 -0.13621589183E+02  0.18726395441E+02  0.00000000000E+00 0.  1.
         11    1    3    3    0    0 -0.32430521928E+01  0.70139450412E+01  0.19674475866E+02  0.21137592423E+02  0.51100000000E-03 0. -1.
        -11    1    3    3    0    0 -0.14316375200E+02  0.39357535761E+01 -0.96483460614E+01  0.17707042019E+02  0.51100000000E-03 0.  1.
         12    1    3    3    0    0  0.29475716055E+02 -0.15759299310E+02  0.35954593784E+01  0.33616970117E+02  0.00000000000E+00 0. -1.
</event>
<event>
 7    1  0.2688173E-013  0.7246157E+02  0.7816164E-02  0.1226708E+00
        -11   -1    0    0    0    0  0.00000000000E+00  0.00000000000E+00  0.45593999997E+02  0.45594000000E+02  0.51100000000E-03 0. -1.
         11   -1    0    0    0    0 -0.00000000000E+00 -0.00000000000E+00 -0.45593999997E+02  0.45594000000E+02  0.51100000000E-03 0.  1.
    9900012    2    1    2    0    0 -0.13054828209E+02 -0.79734188486E+01  0.10801622597E+02  0.72461574862E+02  0.70000005951E+02 0.  0.
        -12    1    1    2    0    0  0.13054828209E+02  0.79734188486E+01 -0.10801622597E+02  0.18726425138E+02  0.00000000000E+00 0.  1.
         11    1    3    3    0    0  0.79449086655E+00  0.11935928055E+01  0.74248443021E+01  0.75620230556E+01  0.51100000000E-03 0. -1.
        -11    1    3    3    0    0 -0.32189476981E+02  0.13439769229E+02 -0.32836031796E+01  0.35036721812E+02  0.51100000000E-03 0.  1.
         12    1    3    3    0    0  0.18340157905E+02 -0.22606780883E+02  0.66603814743E+01  0.29862829995E+02  0.00000000000E+00 0. -1.
</event>
<event>
 7    1  0.2688173E-013  0.7246149E+02  0.7816164E-02  0.1226708E+00
        -11   -1    0    0    0    0  0.00000000000E+00  0.00000000000E+00  0.45593999997E+02  0.45594000000E+02  0.51100000000E-03 0.  1.
         11   -1    0    0    0    0 -0.00000000000E+00 -0.00000000000E+00 -0.45593999997E+02  0.45594000000E+02  0.51100000000E-03 0. -1.
    9900012    2    1    2    0    0 -0.14175545942E+02  0.11503178951E+02 -0.41728758928E+01  0.72461491464E+02  0.69999897309E+02 0.  0.
        -12    1    1    2    0    0  0.14175545942E+02 -0.11503178951E+02  0.41728758928E+01  0.18726508536E+02  0.00000000000E+00 0.  1.
         11    1    3    3    0    0  0.94208289898E+00 -0.47054011665E+01  0.47802105815E+01  0.67733842199E+01  0.51100000000E-03 0.  1.
        -11    1    3    3    0    0 -0.27154099053E+02 -0.15127074072E+02 -0.80469052345E+01  0.32108038705E+02  0.51100000000E-03 0. -1.
         12    1    3    3    0    0  0.12036470212E+02  0.31335654190E+02 -0.90618123971E+00  0.33580068540E+02  0.00000000000E+00 0. -1.
</event>
<event>
 7    1  0.2688173E-013  0.7246159E+02  0.7816164E-02  0.1226708E+00
        -11   -1    0    0    0    0  0.00000000000E+00  0.00000000000E+00  0.45593999997E+02  0.45594000000E+02  0.51100000000E-03 0.  1.
         11   -1    0    0    0    0 -0.00000000000E+00 -0.00000000000E+00 -0.45593999997E+02  0.45594000000E+02  0.51100000000E-03 0. -1.
    9900012    2    1    2    0    0 -0.30873243732E+01  0.18275542319E+02  0.26742316045E+01  0.72461587276E+02  0.70000022121E+02 0.  0.
        -12    1    1    2    0    0  0.30873243732E+01 -0.18275542319E+02 -0.26742316045E+01  0.18726412724E+02  0.00000000000E+00 0.  1.
         11    1    3    3    0    0  0.35512096748E+01 -0.22876694795E+01  0.43001247296E+01  0.60279013556E+01  0.51100000000E-03 0. -1.
        -11    1    3    3    0    0 -0.12113916021E-02 -0.18621230795E+02  0.14442589671E+02  0.23565623999E+02  0.51100000000E-03 0.  1.
         12    1    3    3    0    0 -0.66373226564E+01  0.39184442594E+02 -0.16068482796E+02  0.42868061921E+02  0.00000000000E+00 0. -1.
</event>
<event>
 7    1  0.2688173E-013  0.7246103E+02  0.7816164E-02  0.1226709E+00
        -11   -1    0    0    0    0  0.00000000000E+00  0.00000000000E+00  0.45593999997E+02  0.45594000000E+02  0.51100000000E-03 0. -1.
         11   -1    0    0    0    0 -0.00000000000E+00 -0.00000000000E+00 -0.45593999997E+02  0.45594000000E+02  0.51100000000E-03 0.  1.
    9900012    2    1    2    0    0  0.18726479752E+02 -0.11345821435E+00  0.75303515237E-01  0.72461025143E+02  0.69999289835E+02 0.  0.
        -12    1    1    2    0    0 -0.18726479752E+02  0.11345821435E+00 -0.75303515237E-01  0.18726974857E+02  0.00000000000E+00 0.  1.
         11    1    3    3    0    0 -0.48195322742E+01 -0.18569300582E+02  0.57883053662E+01  0.20038744839E+02  0.51100000000E-03 0. -1.
        -11    1    3    3    0    0  0.25305385488E+02 -0.72631612895E+01 -0.25683572613E+01  0.26452079425E+02  0.51100000000E-03 0.  1.
        -12    1    3    3    0    0 -0.17593734616E+01  0.25719003657E+02 -0.31446445897E+01  0.25970200879E+02  0.00000000000E+00 0.  1.
</event>
<event>
 7    1  0.2688173E-013  0.7246154E+02  0.7816164E-02  0.1226708E+00
        -11   -1    0    0    0    0  0.00000000000E+00  0.00000000000E+00  0.45593999997E+02  0.45594000000E+02  0.51100000000E-03 0.  1.
         11   -1    0    0    0    0 -0.00000000000E+00 -0.00000000000E+00 -0.45593999997E+02  0.45594000000E+02  0.51100000000E-03 0. -1.
    9900012    2    1    2    0    0 -0.65134067939E+01  0.15571631446E+02  0.81104992931E+01  0.72461538168E+02  0.69999958149E+02 0.  0.
        -12    1    1    2    0    0  0.65134067939E+01 -0.15571631446E+02 -0.81104992931E+01  0.18726461832E+02  0.00000000000E+00 0.  1.
         11    1    3    3    0    0 -0.84793618437E+01  0.89808609285E+01  0.18428586998E+02  0.22184865546E+02  0.51100000000E-03 0. -1.
        -11    1    3    3    0    0  0.16720652646E+02  0.13117167766E+02  0.10689425824E+02  0.23788739769E+02  0.51100000000E-03 0.  1.
        -12    1    3    3    0    0 -0.14754697596E+02 -0.65263972480E+01 -0.21007513528E+02  0.26487932853E+02  0.00000000000E+00 0.  1.
</event>
<event>
 7    1  0.2688173E-013  0.7246160E+02  0.7816164E-02  0.1226708E+00
        -11   -1    0    0    0    0  0.00000000000E+00  0.00000000000E+00  0.45593999997E+02  0.45594000000E+02  0.51100000000E-03 0. -1.
         11   -1    0    0    0    0 -0.00000000000E+00 -0.00000000000E+00 -0.45593999997E+02  0.45594000000E+02  0.51100000000E-03 0.  1.
    9900012    2    1    2    0    0  0.15980045941E+02  0.21490608036E+01 -0.95235255766E+01  0.72461604991E+02  0.70000045199E+02 0.  0.
        -12    1    1    2    0    0 -0.15980045941E+02 -0.21490608036E+01  0.95235255766E+01  0.18726395009E+02  0.00000000000E+00 0.  1.
         11    1    3    3    0    0  0.28673394838E+02  0.49860741969E+01  0.54026809342E+01  0.29600903178E+02  0.51100000000E-03 0. -1.
        -11    1    3    3    0    0 -0.11389592987E+02  0.15147938756E+02  0.75028303577E+00  0.18966966069E+02  0.51100000000E-03 0.  1.
        -12    1    3    3    0    0 -0.13037559092E+01 -0.17984952149E+02 -0.15676489547E+02  0.23893735744E+02  0.00000000000E+00 0.  1.
</event>
<event>
 7    1  0.2688173E-013  0.7246157E+02  0.7816164E-02  0.1226708E+00
        -11   -1    0    0    0    0  0.00000000000E+00  0.00000000000E+00  0.45593999997E+02  0.45594000000E+02  0.51100000000E-03 0. -1.
         11   -1    0    0    0    0 -0.00000000000E+00 -0.00000000000E+00 -0.45593999997E+02  0.45594000000E+02  0.51100000000E-03 0.  1.
    9900012    2    1    2    0    0 -0.74330430023E+01  0.11112091985E+02  0.13112983269E+02  0.72461573572E+02  0.70000004269E+02 0.  0.
        -12    1    1    2    0    0  0.74330430023E+01 -0.11112091985E+02 -0.13112983269E+02  0.18726426428E+02  0.00000000000E+00 0.  1.
         11    1    3    3    0    0 -0.13069482371E+02 -0.10705805867E+02  0.20233194170E+02  0.26359207031E+02  0.51100000000E-03 0. -1.
        -11    1    3    3    0    0 -0.16059828428E+02  0.10326609891E+02 -0.96993259543E+01  0.21415739194E+02  0.51100000000E-03 0.  1.
         12    1    3    3    0    0  0.21696267797E+02  0.11491287960E+02  0.25791150535E+01  0.24686627347E+02  0.00000000000E+00 0. -1.
</event>
<event>
 7    1  0.2688173E-013  0.7246158E+02  0.7816164E-02  0.1226708E+00
        -11   -1    0    0    0    0  0.00000000000E+00  0.00000000000E+00  0.45593999997E+02  0.45594000000E+02  0.51100000000E-03 0. -1.
         11   -1    0    0    0    0 -0.00000000000E+00 -0.00000000000E+00 -0.45593999997E+02  0.45594000000E+02  0.51100000000E-03 0.  1.
    9900012    2    1    2    0    0 -0.14721837733E+02  0.11555100408E+02  0.65262939244E+00  0.72461580780E+02  0.70000013659E+02 0.  0.
        -12    1    1    2    0    0  0.14721837733E+02 -0.11555100408E+02 -0.65262939244E+00  0.18726419220E+02  0.00000000000E+00 0.  1.
         11    1    3    3    0    0  0.24739059765E+01 -0.79530673071E+01  0.12245565530E+01  0.84184932965E+01  0.51100000000E-03 0. -1.
        -11    1    3    3    0    0 -0.22816373202E+02 -0.15133952562E+02 -0.72395044480E+01  0.28320201820E+02  0.51100000000E-03 0.  1.
         12    1    3    3    0    0  0.56206294919E+01  0.34642120277E+02  0.66675772874E+01  0.35722885663E+02  0.00000000000E+00 0. -1.
</event>
<event>
 7    1  0.2688173E-013  0.7246152E+02  0.7816164E-02  0.1226708E+00
        -11   -1    0    0    0    0  0.00000000000E+00  0.00000000000E+00  0.45593999997E+02  0.45594000000E+02  0.51100000000E-03 0.  1.
         11   -1    0    0    0    0 -0.00000000000E+00 -0.00000000000E+00 -0.45593999997E+02  0.45594000000E+02  0.51100000000E-03 0. -1.
    9900012    2    1    2    0    0 -0.37121741507E+01 -0.17517341883E+02 -0.54812153358E+01  0.72461515409E+02  0.69999928502E+02 0.  0.
        -12    1    1    2    0    0  0.37121741507E+01  0.17517341883E+02  0.54812153358E+01  0.18726484591E+02  0.00000000000E+00 0.  1.
         11    1    3    3    0    0 -0.18733635943E+02 -0.18444129205E+02 -0.11942631148E+02  0.28874927823E+02  0.51100000000E-03 0. -1.
        -11    1    3    3    0    0  0.12442067960E+02 -0.11959320889E+02  0.18828369532E+02  0.25540906616E+02  0.51100000000E-03 0.  1.
         12    1    3    3    0    0  0.25793938322E+01  0.12886108211E+02 -0.12366953720E+02  0.18045680971E+02  0.00000000000E+00 0. -1.
</event>
<event>
 7    1  0.2688173E-013  0.7246154E+02  0.7816164E-02  0.1226708E+00
        -11   -1    0    0    0    0  0.00000000000E+00  0.00000000000E+00  0.45593999997E+02  0.45594000000E+02  0.51100000000E-03 0. -1.
         11   -1    0    0    0    0 -0.00000000000E+00 -0.00000000000E+00 -0.45593999997E+02  0.45594000000E+02  0.51100000000E-03 0.  1.
    9900012    2    1    2    0    0 -0.49168714083E+01  0.16295702987E+02  0.78073514642E+01  0.72461540186E+02  0.69999960778E+02 0.  0.
        -12    1    1    2    0    0  0.49168714083E+01 -0.16295702987E+02 -0.78073514642E+01  0.18726459814E+02  0.00000000000E+00 0.  1.
         11    1    3    3    0    0  0.10841837708E+02  0.15169008058E+02 -0.36758454639E+01  0.19004107200E+02  0.51100000000E-03 0. -1.
        -11    1    3    3    0    0  0.16622473614E+02  0.74300948803E+01 -0.87778090224E+00  0.18228643354E+02  0.51100000000E-03 0.  1.
         12    1    3    3    0    0 -0.32381182730E+02 -0.63033999512E+01  0.12360977830E+02  0.35228789631E+02  0.00000000000E+00 0. -1.
</event>
<event>
 7    1  0.2688173E-013  0.7246158E+02  0.7816164E-02  0.1226708E+00
        -11   -1    0    0    0    0  0.00000000000E+00  0.00000000000E+00  0.45593999997E+02  0.45594000000E+02  0.51100000000E-03 0.  1.
         11   -1    0    0    0    0 -0.00000000000E+00 -0.00000000000E+00 -0.45593999997E+02  0.45594000000E+02  0.51100000000E-03 0. -1.
    9900012    2    1    2    0    0  0.11039293389E+02  0.12925351862E+02 -0.78579972418E+01  0.72461579094E+02  0.70000011463E+02 0.  0.
        -12    1    1    2    0    0 -0.11039293389E+02 -0.12925351862E+02  0.78579972418E+01  0.18726420906E+02  0.00000000000E+00 0.  1.
         11    1    3    3    0    0 -0.14698283242E+02 -0.84815808090E+00  0.35903970306E+01  0.15154202502E+02  0.51100000000E-03 0. -1.
        -11    1    3    3    0    0  0.19531989321E+02 -0.13030682373E+02  0.66158507085E+01  0.24393990465E+02  0.51100000000E-03 0.  1.
         12    1    3    3    0    0  0.62055873103E+01  0.26804192316E+02 -0.18064244981E+02  0.32913386127E+02  0.00000000000E+00 0. -1.
</event>
<event>
 7    1  0.2688173E-013  0.7246159E+02  0.7816164E-02  0.1226708E+00
        -11   -1    0    0    0    0  0.00000000000E+00  0.00000000000E+00  0.45593999997E+02  0.45594000000E+02  0.51100000000E-03 0.  1.
         11   -1    0    0    0    0 -0.00000000000E+00 -0.00000000000E+00 -0.45593999997E+02  0.45594000000E+02  0.51100000000E-03 0. -1.
    9900012    2    1    2    0    0  0.15149271340E+02 -0.11001229707E+02 -0.38862175165E+00  0.72461588062E+02  0.70000023146E+02 0.  0.
        -12    1    1    2    0    0 -0.15149271340E+02  0.11001229707E+02  0.38862175165E+00  0.18726411938E+02  0.00000000000E+00 0.  1.
         11    1    3    3    0    0 -0.20134630975E+01 -0.71554126120E+01  0.15658262549E+02  0.17333065211E+02  0.51100000000E-03 0. -1.
        -11    1    3    3    0    0 -0.11051131647E+01  0.33130420295E+01  0.16641378193E+02  0.17003911051E+02  0.51100000000E-03 0.  1.
         12    1    3    3    0    0  0.18267847602E+02 -0.71588591250E+01 -0.32688262495E+02  0.38124611800E+02  0.00000000000E+00 0. -1.
</event>
<event>
 7    1  0.2688173E-013  0.7246151E+02  0.7816164E-02  0.1226708E+00
        -11   -1    0    0    0    0  0.00000000000E+00  0.00000000000E+00  0.45593999997E+02  0.45594000000E+02  0.51100000000E-03 0.  1.
         11   -1    0    0    0    0 -0.00000000000E+00 -0.00000000000E+00 -0.45593999997E+02  0.45594000000E+02  0.51100000000E-03 0. -1.
    9900012    2    1    2    0    0 -0.13425409852E+02 -0.93428080778E+01 -0.91187522258E+01  0.72461512486E+02  0.69999924694E+02 0.  0.
        -12    1    1    2    0    0  0.13425409852E+02  0.93428080778E+01  0.91187522258E+01  0.18726487514E+02  0.00000000000E+00 0.  1.
         11    1    3    3    0    0 -0.30401114932E+01 -0.28015674922E+00  0.16217163404E+01  0.34569827661E+01  0.51100000000E-03 0. -1.
        -11    1    3    3    0    0  0.65074641290E+01  0.17881543954E+02  0.17960599769E+02  0.26166387750E+02  0.51100000000E-03 0.  1.
         12    1    3    3    0    0 -0.16892762487E+02 -0.26944195282E+02 -0.28701068335E+02  0.42838141970E+02  0.00000000000E+00 0. -1.
</event>
<event>
 7    1  0.2688173E-013  0.7246158E+02  0.7816164E-02  0.1226708E+00
        -11   -1    0    0    0    0  0.00000000000E+00  0.00000000000E+00  0.45593999997E+02  0.45594000000E+02  0.51100000000E-03 0. -1.
         11   -1    0    0    0    0 -0.00000000000E+00 -0.00000000000E+00 -0.45593999997E+02  0.45594000000E+02  0.51100000000E-03 0.  1.
    9900012    2    1    2    0    0 -0.84112590290E+01 -0.15207736042E+02  0.69752668079E+01  0.72461578531E+02  0.70000010730E+02 0.  0.
        -12    1    1    2    0    0  0.84112590290E+01  0.15207736042E+02 -0.69752668079E+01  0.18726421469E+02  0.00000000000E+00 0.  1.
         11    1    3    3    0    0  0.10437510661E+02 -0.34621089820E+01  0.27585877347E+02  0.29696943558E+02  0.51100000000E-03 0. -1.
        -11    1    3    3    0    0 -0.37369841769E+01 -0.16292449339E+02  0.11367612188E+00  0.16715916927E+02  0.51100000000E-03 0.  1.
        -12    1    3    3    0    0 -0.15111785513E+02  0.45468222786E+01 -0.20724286661E+02  0.26048718046E+02  0.00000000000E+00 0.  1.
</event>
<event>
 7    1  0.2688173E-013  0.7246156E+02  0.7816164E-02  0.1226708E+00
        -11   -1    0    0    0    0  0.00000000000E+00  0.00000000000E+00  0.45593999997E+02  0.45594000000E+02  0.51100000000E-03 0.  1.
         11   -1    0    0    0    0 -0.00000000000E+00 -0.00000000000E+00 -0.45593999997E+02  0.45594000000E+02  0.51100000000E-03 0. -1.
    9900012    2    1    2    0    0  0.12101714942E+02  0.12852813463E+02 -0.62476448994E+01  0.72461564535E+02  0.69999992497E+02 0.  0.
        -12    1    1    2    0    0 -0.12101714942E+02 -0.12852813463E+02  0.62476448994E+01  0.18726435465E+02  0.00000000000E+00 0.  1.
         11    1    3    3    0    0  0.16307311978E+02  0.40021848229E+01  0.62317640303E+00  0.16802805016E+02  0.51100000000E-03 0. -1.
        -11    1    3    3    0    0 -0.21532512326E+01 -0.22868917656E+02  0.71134220500E+00  0.22981076859E+02  0.51100000000E-03 0.  1.
         12    1    3    3    0    0 -0.20523458039E+01  0.31719546296E+02 -0.75821635074E+01  0.32677682659E+02  0.00000000000E+00 0. -1.
</event>
<event>
 7    1  0.2688173E-013  0.7246159E+02  0.7816164E-02  0.1226708E+00
        -11   -1    0    0    0    0  0.00000000000E+00  0.00000000000E+00  0.45593999997E+02  0.45594000000E+02  0.51100000000E-03 0. -1.
         11   -1    0    0    0    0 -0.00000000000E+00 -0.00000000000E+00 -0.45593999997E+02  0.45594000000E+02  0.51100000000E-03 0.  1.
    9900012    2    1    2    0    0  0.10178520143E+02 -0.76761212728E+01  0.13716894194E+02  0.72461593606E+02  0.70000030368E+02 0.  0.
        -12    1    1    2    0    0 -0.10178520143E+02  0.76761212728E+01 -0.13716894194E+02  0.18726406394E+02  0.00000000000E+00 0.  1.
         11    1    3    3    0    0 -0.55489392034E+01  0.10985080091E+02  0.48071811839E+01  0.13212558499E+02  0.51100000000E-03 0. -1.
        -11    1    3    3    0    0  0.28928750575E+02  0.58281079496E+01 -0.14909234499E+01  0.29547627741E+02  0.51100000000E-03 0.  1.
         12    1    3    3    0    0 -0.13201291229E+02 -0.24489309313E+02  0.10400636461E+02  0.29701407366E+02  0.00000000000E+00 0. -1.
</event>
<event>
 7    1  0.2688173E-013  0.7246132E+02  0.7816164E-02  0.1226709E+00
        -11   -1    0    0    0    0  0.00000000000E+00  0.00000000000E+00  0.45593999997E+02  0.45594000000E+02  0.51100000000E-03 0. -1.
         11   -1    0    0    0    0 -0.00000000000E+00 -0.00000000000E+00 -0.45593999997E+02  0.45594000000E+02  0.51100000000E-03 0.  1.
    9900012    2    1    2    0    0 -0.14138900142E+02  0.12038469770E+02 -0.24197570595E+01  0.72461321815E+02  0.69999676308E+02 0.  0.
        -12    1    1    2    0    0  0.14138900142E+02 -0.12038469770E+02  0.24197570595E+01  0.18726678185E+02  0.00000000000E+00 0.  1.
         11    1    3    3    0    0 -0.14019505163E+02 -0.10114144043E+02  0.78349524079E+01  0.18979697423E+02  0.51100000000E-03 0. -1.
        -11    1    3    3    0    0 -0.92784096170E-01 -0.15032147728E+02 -0.50948653774E+00  0.15041065487E+02  0.51100000000E-03 0.  1.
        -12    1    3    3    0    0 -0.26610882741E-01  0.37184761541E+02 -0.97452229296E+01  0.38440558905E+02  0.00000000000E+00 0.  1.
</event>
<event>
 7    1  0.2688173E-013  0.7246156E+02  0.7816164E-02  0.1226708E+00
        -11   -1    0    0    0    0  0.00000000000E+00  0.00000000000E+00  0.45593999997E+02  0.45594000000E+02  0.51100000000E-03 0. -1.
         11   -1    0    0    0    0 -0.00000000000E+00 -0.00000000000E+00 -0.45593999997E+02  0.45594000000E+02  0.51100000000E-03 0.  1.
    9900012    2    1    2    0    0 -0.62255622517E+01 -0.52976626852E+01  0.16848046294E+02  0.72461560958E+02  0.69999987837E+02 0.  0.
        -12    1    1    2    0    0  0.62255622517E+01  0.52976626852E+01 -0.16848046294E+02  0.18726439042E+02  0.00000000000E+00 0.  1.
         11    1    3    3    0    0 -0.16113865648E+02  0.90839445057E+00  0.13511343692E+02  0.21048473940E+02  0.51100000000E-03 0. -1.
        -11    1    3    3    0    0 -0.17735928562E+02 -0.13837149432E+02 -0.48612864448E+00  0.22500359723E+02  0.51100000000E-03 0.  1.
         12    1    3    3    0    0  0.27624231957E+02  0.76310922957E+01  0.38228312468E+01  0.28912727295E+02  0.00000000000E+00 0. -1.
</event>
<event>
 7    1  0.2688173E-013  0.7246163E+02  0.7816164E-02  0.1226708E+00
        -11   -1    0    0    0    0  0.00000000000E+00  0.00000000000E+00  0.45593999997E+02  0.45594000000E+02  0.51100000000E-03 0.  1.
         11   -1    0    0    0    0 -0.00000000000E+00 -0.00000000000E+00 -0.45593999997E+02  0.45594000000E+02  0.51100000000E-03 0. -1.
    9900012    2    1    2    0    0 -0.14273717217E+02  0.12108129541E+02  0.57543586852E+00  0.72461630074E+02  0.70000077874E+02 0.  0.
        -12    1    1    2    0    0  0.14273717217E+02 -0.12108129541E+02 -0.57543586852E+00  0.18726369926E+02  0.00000000000E+00 0.  1.
         11    1    3    3    0    0 -0.21753548930E+01 -0.14688905780E+02  0.99556179956E+01  0.17877652302E+02  0.51100000000E-03 0. -1.
        -11    1    3    3    0    0 -0.90103029900E+01 -0.10737524678E+02  0.40648571657E+01  0.14594624360E+02  0.51100000000E-03 0.  1.
         12    1    3    3    0    0 -0.30880593336E+01  0.37534559998E+02 -0.13445039293E+02  0.39989353412E+02  0.00000000000E+00 0. -1.
</event>
<event>
 7    1  0.2688173E-013  0.7246187E+02  0.7816164E-02  0.1226707E+00
        -11   -1    0    0    0    0  0.00000000000E+00  0.00000000000E+00  0.45593999997E+02  0.45594000000E+02  0.51100000000E-03 0.  1.
         11   -1    0    0    0    0 -0.00000000000E+00 -0.00000000000E+00 -0.45593999997E+02  0.45594000000E+02  0.51100000000E-03 0. -1.
    9900012    2    1    2    0    0 -0.94393048278E+01  0.31601853647E+01 -0.15861298110E+02  0.72461867860E+02  0.70000387634E+02 0.  0.
        -12    1    1    2    0    0  0.94393048278E+01 -0.31601853647E+01  0.15861298110E+02  0.18726132140E+02  0.00000000000E+00 0.  1.
         11    1    3    3    0    0 -0.49401646296E+01  0.87669701140E+01  0.48723760934E+01  0.11180565308E+02  0.51100000000E-03 0. -1.
        -11    1    3    3    0    0  0.15259911537E+02 -0.16301555466E+02  0.89474514483E+01  0.24055404765E+02  0.51100000000E-03 0.  1.
         12    1    3    3    0    0 -0.19759051735E+02  0.10694770717E+02 -0.29681125652E+02  0.37225897788E+02  0.00000000000E+00 0. -1.
</event>
<event>
 7    1  0.2688173E-013  0.7246157E+02  0.7816164E-02  0.1226708E+00
        -11   -1    0    0    0    0  0.00000000000E+00  0.00000000000E+00  0.45593999997E+02  0.45594000000E+02  0.51100000000E-03 0. -1.
         11   -1    0    0    0    0 -0.00000000000E+00 -0.00000000000E+00 -0.45593999997E+02  0.45594000000E+02  0.51100000000E-03 0.  1.
    9900012    2    1    2    0    0  0.18096585812E+01  0.12522997054E+02  0.13805028370E+02  0.72461571411E+02  0.70000001455E+02 0.  0.
        -12    1    1    2    0    0 -0.18096585812E+01 -0.12522997054E+02 -0.13805028370E+02  0.18726428589E+02  0.00000000000E+00 0.  1.
         11    1    3    3    0    0  0.10094902605E+01  0.33756408923E+02  0.68251403912E+01  0.34454270498E+02  0.51100000000E-03 0. -1.
        -11    1    3    3    0    0 -0.24466834611E+01  0.77777046156E+01  0.10777567571E+01  0.82243850187E+01  0.51100000000E-03 0.  1.
        -12    1    3    3    0    0  0.32468517818E+01 -0.29011116485E+02  0.59021312220E+01  0.29782915894E+02  0.00000000000E+00 0.  1.
</event>
<event>
 7    1  0.2688173E-013  0.7246162E+02  0.7816164E-02  0.1226708E+00
        -11   -1    0    0    0    0  0.00000000000E+00  0.00000000000E+00  0.45593999997E+02  0.45594000000E+02  0.51100000000E-03 0.  1.
         11   -1    0    0    0    0 -0.00000000000E+00 -0.00000000000E+00 -0.45593999997E+02  0.45594000000E+02  0.51100000000E-03 0. -1.
    9900012    2    1    2    0    0 -0.85872390099E+01 -0.16107100274E+02  0.41830372840E+01  0.72461624110E+02  0.70000070105E+02 0.  0.
        -12    1    1    2    0    0  0.85872390099E+01  0.16107100274E+02 -0.41830372840E+01  0.18726375890E+02  0.00000000000E+00 0.  1.
         11    1    3    3    0    0 -0.70547980096E+01  0.11380225102E+02 -0.32454353273E+01  0.13777247513E+02  0.51100000000E-03 0. -1.
        -11    1    3    3    0    0 -0.54237217782E+01  0.14022447594E+02 -0.37988934697E+01  0.15507333307E+02  0.51100000000E-03 0.  1.
        -12    1    3    3    0    0  0.38912807779E+01 -0.41509772970E+02  0.11227366081E+02  0.43177043289E+02  0.00000000000E+00 0.  1.
</event>
<event>
 7    1  0.2688173E-013  0.7246168E+02  0.7816164E-02  0.1226708E+00
        -11   -1    0    0    0    0  0.00000000000E+00  0.00000000000E+00  0.45593999997E+02  0.45594000000E+02  0.51100000000E-03 0.  1.
         11   -1    0    0    0    0 -0.00000000000E+00 -0.00000000000E+00 -0.45593999997E+02  0.45594000000E+02  0.51100000000E-03 0. -1.
    9900012    2    1    2    0    0 -0.92746281594E+01  0.14834314134E+02 -0.66782962592E+01  0.72461675101E+02  0.70000136529E+02 0.  0.
        -12    1    1    2    0    0  0.92746281594E+01 -0.14834314134E+02  0.66782962592E+01  0.18726324899E+02  0.00000000000E+00 0.  1.
         11    1    3    3    0    0 -0.97913708251E+01  0.15172613356E+02 -0.28777316864E+02  0.33973711967E+02  0.51100000000E-03 0. -1.
        -11    1    3    3    0    0  0.27150589092E+01  0.10444609386E+02 -0.28994660328E+01  0.11174449143E+02  0.51100000000E-03 0.  1.
        -12    1    3    3    0    0 -0.21983162435E+01 -0.10782908609E+02  0.24998486637E+02  0.27313513991E+02  0.00000000000E+00 0.  1.
</event>
<event>
 7    1  0.2688173E-013  0.7246152E+02  0.7816164E-02  0.1226708E+00
        -11   -1    0    0    0    0  0.00000000000E+00  0.00000000000E+00  0.45593999997E+02  0.45594000000E+02  0.51100000000E-03 0. -1.
         11   -1    0    0    0    0 -0.00000000000E+00 -0.00000000000E+00 -0.45593999997E+02  0.45594000000E+02  0.51100000000E-03 0.  1.
    9900012    2    1    2    0    0 -0.94305564393E+01 -0.12994429192E+02  0.96379608703E+01  0.72461524770E+02  0.69999940696E+02 0.  0.
        -12    1    1    2    0    0  0.94305564393E+01  0.12994429192E+02 -0.96379608703E+01  0.18726475230E+02  0.00000000000E+00 0.  1.
         11    1    3    3    0    0 -0.31974151117E+01  0.17572244920E+01  0.12133413771E+02  0.12670084109E+02  0.51100000000E-03 0. -1.
        -11    1    3    3    0    0 -0.88579182139E+01  0.19990207065E+02  0.81906579992E+01  0.23348618210E+02  0.51100000000E-03 0.  1.
        -12    1    3    3    0    0  0.26247768863E+01 -0.34741860750E+02 -0.10686110900E+02  0.36442822452E+02  0.00000000000E+00 0.  1.
</event>
<event>
 7    1  0.2688173E-013  0.7246212E+02  0.7816164E-02  0.1226707E+00
        -11   -1    0    0    0    0  0.00000000000E+00  0.00000000000E+00  0.45593999997E+02  0.45594000000E+02  0.51100000000E-03 0.  1.
         11   -1    0    0    0    0 -0.00000000000E+00 -0.00000000000E+00 -0.45593999997E+02  0.45594000000E+02  0.51100000000E-03 0. -1.
    9900012    2    1    2    0    0 -0.14022278071E+02 -0.64086384152E+01 -0.10628437968E+02  0.72462118919E+02  0.70000714682E+02 0.  0.
        -12    1    1    2    0    0  0.14022278071E+02  0.64086384152E+01  0.10628437968E+02  0.18725881081E+02  0.00000000000E+00 0.  1.
         11    1    3    3    0    0 -0.17414995172E+02 -0.11706951705E+01 -0.13752447143E+02  0.22221214789E+02  0.51100000000E-03 0. -1.
        -11    1    3    3    0    0 -0.52017899342E+01  0.12606161691E+02 -0.17141336330E+02  0.21904322463E+02  0.51100000000E-03 0.  1.
        -12    1    3    3    0    0  0.85945070354E+01 -0.17844104936E+02  0.20265345505E+02  0.28336581667E+02  0.00000000000E+00 0.  1.
</event>
<event>
 7    1  0.2688173E-013  0.7246155E+02  0.7816164E-02  0.1226708E+00
        -11   -1    0    0    0    0  0.00000000000E+00  0.00000000000E+00  0.45593999997E+02  0.45594000000E+02  0.51100000000E-03 0.  1.
         11   -1    0    0    0    0 -0.00000000000E+00 -0.00000000000E+00 -0.45593999997E+02  0.45594000000E+02  0.51100000000E-03 0. -1.
    9900012    2    1    2    0    0 -0.27987261247E+01  0.65516750937E+01 -0.17318274094E+02  0.72461549934E+02  0.69999973478E+02 0.  0.
        -12    1    1    2    0    0  0.27987261247E+01 -0.65516750937E+01  0.17318274094E+02  0.18726450066E+02  0.00000000000E+00 0.  1.
         11    1    3    3    0    0  0.67487954925E+01 -0.14731607143E+02 -0.39239098982E+01  0.16672239164E+02  0.51100000000E-03 0. -1.
        -11    1    3    3    0    0 -0.13881630023E+02  0.20994879514E+02  0.13489972711E+02  0.28556329979E+02  0.51100000000E-03 0.  1.
         12    1    3    3    0    0  0.43341084053E+01  0.28840272264E+00 -0.26884336907E+02  0.27232980791E+02  0.00000000000E+00 0. -1.
</event>
<event>
 7    1  0.2688173E-013  0.7246164E+02  0.7816164E-02  0.1226708E+00
        -11   -1    0    0    0    0  0.00000000000E+00  0.00000000000E+00  0.45593999997E+02  0.45594000000E+02  0.51100000000E-03 0.  1.
         11   -1    0    0    0    0 -0.00000000000E+00 -0.00000000000E+00 -0.45593999997E+02  0.45594000000E+02  0.51100000000E-03 0. -1.
    9900012    2    1    2    0    0 -0.35471849978E+01 -0.65000017809E+01  0.17200122062E+02  0.72461635070E+02  0.70000084382E+02 0.  0.
        -12    1    1    2    0    0  0.35471849978E+01  0.65000017809E+01 -0.17200122062E+02  0.18726364930E+02  0.00000000000E+00 0.  1.
         11    1    3    3    0    0  0.26112642222E+02 -0.24389982801E+01  0.25541314904E+01  0.26350377309E+02  0.51100000000E-03 0. -1.
        -11    1    3    3    0    0  0.14933397509E+01 -0.11508951508E+02  0.26238742309E+01  0.11898350502E+02  0.51100000000E-03 0.  1.
         12    1    3    3    0    0 -0.31153166971E+02  0.74479480068E+01  0.12022116340E+02  0.34212907259E+02  0.00000000000E+00 0. -1.
</event>
<event>
 7    1  0.2688173E-013  0.7246160E+02  0.7816164E-02  0.1226708E+00
        -11   -1    0    0    0    0  0.00000000000E+00  0.00000000000E+00  0.45593999997E+02  0.45594000000E+02  0.51100000000E-03 0.  1.
         11   -1    0    0    0    0 -0.00000000000E+00 -0.00000000000E+00 -0.45593999997E+02  0.45594000000E+02  0.51100000000E-03 0. -1.
    9900012    2    1    2    0    0  0.16892630876E+02 -0.70179193903E+01  0.40082473151E+01  0.72461595727E+02  0.70000033130E+02 0.  0.
        -12    1    1    2    0    0 -0.16892630876E+02  0.70179193903E+01 -0.40082473151E+01  0.18726404273E+02  0.00000000000E+00 0.  1.
         11    1    3    3    0    0  0.91885716875E+01 -0.49619049846E+01 -0.14343148682E+02  0.17741935213E+02  0.51100000000E-03 0. -1.
        -11    1    3    3    0    0 -0.12072091517E+02  0.87290825422E+00 -0.12856474070E+02  0.17657471172E+02  0.51100000000E-03 0.  1.
        -12    1    3    3    0    0  0.19776150705E+02 -0.29289226600E+01  0.31207870067E+02  0.37062189342E+02  0.00000000000E+00 0.  1.
</event>
<event>
 7    1  0.2688173E-013  0.7246157E+02  0.7816164E-02  0.1226708E+00
        -11   -1    0    0    0    0  0.00000000000E+00  0.00000000000E+00  0.45593999997E+02  0.45594000000E+02  0.51100000000E-03 0. -1.
         11   -1    0    0    0    0 -0.00000000000E+00 -0.00000000000E+00 -0.45593999997E+02  0.45594000000E+02  0.51100000000E-03 0.  1.
    9900012    2    1    2    0    0 -0.75020633154E+01  0.13370662611E+02  0.10752846175E+02  0.72461567517E+02  0.69999996383E+02 0.  0.
        -12    1    1    2    0    0  0.75020633154E+01 -0.13370662611E+02 -0.10752846175E+02  0.18726432483E+02  0.00000000000E+00 0.  1.
         11    1    3    3    0    0  0.63695521717E+01 -0.45835325948E+01 -0.13815657392E+02  0.15888749333E+02  0.51100000000E-03 0.  1.
        -11    1    3    3    0    0 -0.18446056274E+02  0.27578390208E+02  0.29894537375E+02  0.44659914506E+02  0.51100000000E-03 0. -1.
         12    1    3    3    0    0  0.45744407874E+01 -0.96241950015E+01 -0.53260338075E+01  0.11912903679E+02  0.00000000000E+00 0. -1.
</event>
<event>
 7    1  0.2688173E-013  0.7246156E+02  0.7816164E-02  0.1226708E+00
        -11   -1    0    0    0    0  0.00000000000E+00  0.00000000000E+00  0.45593999997E+02  0.45594000000E+02  0.51100000000E-03 0. -1.
         11   -1    0    0    0    0 -0.00000000000E+00 -0.00000000000E+00 -0.45593999997E+02  0.45594000000E+02  0.51100000000E-03 0.  1.
    9900012    2    1    2    0    0  0.31829970270E+01  0.50433578059E+01  0.17751416258E+02  0.72461555938E+02  0.69999981299E+02 0.  0.
        -12    1    1    2    0    0 -0.31829970270E+01 -0.50433578059E+01 -0.17751416258E+02  0.18726444062E+02  0.00000000000E+00 0.  1.
         11    1    3    3    0    0  0.95812069779E+01 -0.18370819313E+02  0.11622527519E+02  0.23756465974E+02  0.51100000000E-03 0. -1.
        -11    1    3    3    0    0 -0.16276788169E+02 -0.14196578241E+01  0.13261496966E+02  0.21043207062E+02  0.51100000000E-03 0.  1.
        -12    1    3    3    0    0  0.98785782177E+01  0.24833834943E+02 -0.71326082271E+01  0.27661882902E+02  0.00000000000E+00 0.  1.
</event>
<event>
 7    1  0.2688173E-013  0.7246156E+02  0.7816164E-02  0.1226708E+00
        -11   -1    0    0    0    0  0.00000000000E+00  0.00000000000E+00  0.45593999997E+02  0.45594000000E+02  0.51100000000E-03 0.  1.
         11   -1    0    0    0    0 -0.00000000000E+00 -0.00000000000E+00 -0.45593999997E+02  0.45594000000E+02  0.51100000000E-03 0. -1.
    9900012    2    1    2    0    0 -0.28802057360E+01 -0.64280428819E+01 -0.17351207849E+02  0.72461555217E+02  0.69999980360E+02 0.  0.
        -12    1    1    2    0    0  0.28802057360E+01  0.64280428819E+01  0.17351207849E+02  0.18726444783E+02  0.00000000000E+00 0.  1.
         11    1    3    3    0    0 -0.14011010313E+02 -0.14539083149E+02 -0.99976856867E+01  0.22531024570E+02  0.51100000000E-03 0. -1.
        -11    1    3    3    0    0 -0.10892038962E+02 -0.10901358873E+02 -0.13157287320E+02  0.20263029091E+02  0.51100000000E-03 0.  1.
        -12    1    3    3    0    0  0.22022843539E+02  0.19012399141E+02  0.58037651580E+01  0.29667501557E+02  0.00000000000E+00 0.  1.
</event>
<event>
 7    1  0.2688173E-013  0.7246149E+02  0.7816164E-02  0.1226708E+00
        -11   -1    0    0    0    0  0.00000000000E+00  0.00000000000E+00  0.45593999997E+02  0.45594000000E+02  0.51100000000E-03 0. -1.
         11   -1    0    0    0    0 -0.00000000000E+00 -0.00000000000E+00 -0.45593999997E+02  0.45594000000E+02  0.51100000000E-03 0.  1.
    9900012    2    1    2    0    0  0.95579144863E+01  0.60908242712E+01  0.14907396905E+02  0.72461485318E+02  0.69999889303E+02 0.  0.
        -12    1    1    2    0    0 -0.95579144863E+01 -0.60908242712E+01 -0.14907396905E+02  0.18726514682E+02  0.00000000000E+00 0.  1.
         11    1    3    3    0    0  0.89418367577E+01  0.13343830440E+02  0.32531455634E+02  0.36280984845E+02  0.51100000000E-03 0. -1.
        -11    1    3    3    0    0  0.51225898083E+01  0.32397605456E+01  0.68661826050E+01  0.91586810493E+01  0.51100000000E-03 0.  1.
        -12    1    3    3    0    0 -0.45065120797E+01 -0.10492766714E+02 -0.24490241333E+02  0.27021819424E+02  0.00000000000E+00 0.  1.
</event>
<event>
 7    1  0.2688173E-013  0.7246154E+02  0.7816164E-02  0.1226708E+00
        -11   -1    0    0    0    0  0.00000000000E+00  0.00000000000E+00  0.45593999997E+02  0.45594000000E+02  0.51100000000E-03 0.  1.
         11   -1    0    0    0    0 -0.00000000000E+00 -0.00000000000E+00 -0.45593999997E+02  0.45594000000E+02  0.51100000000E-03 0. -1.
    9900012    2    1    2    0    0 -0.11243777699E+02  0.14300947154E+02  0.44430569826E+01  0.72461537926E+02  0.69999957834E+02 0.  0.
        -12    1    1    2    0    0  0.11243777699E+02 -0.14300947154E+02 -0.44430569826E+01  0.18726462074E+02  0.00000000000E+00 0.  1.
         11    1    3    3    0    0 -0.10754380346E+02 -0.76182175310E+01 -0.40284866985E+01  0.13781242336E+02  0.51100000000E-03 0. -1.
        -11    1    3    3    0    0 -0.38458819833E+01 -0.16833887401E+02  0.96174759249E+01  0.19765283117E+02  0.51100000000E-03 0.  1.
        -12    1    3    3    0    0  0.33564846301E+01  0.38753052086E+02 -0.11459322439E+01  0.38915012473E+02  0.00000000000E+00 0.  1.
</event>
<event>
 7    1  0.2688173E-013  0.7246156E+02  0.7816164E-02  0.1226708E+00
        -11   -1    0    0    0    0  0.00000000000E+00  0.00000000000E+00  0.45593999997E+02  0.45594000000E+02  0.51100000000E-03 0.  1.
         11   -1    0    0    0    0 -0.00000000000E+00 -0.00000000000E+00 -0.45593999997E+02  0.45594000000E+02  0.51100000000E-03 0. -1.
    9900012    2    1    2    0    0  0.16576037152E+02  0.76114542131E+01  0.42403019047E+01  0.72461564056E+02  0.69999991874E+02 0.  0.
        -12    1    1    2    0    0 -0.16576037152E+02 -0.76114542131E+01 -0.42403019047E+01  0.18726435944E+02  0.00000000000E+00 0.  1.
         11    1    3    3    0    0  0.18694425474E+02  0.35827442081E+01 -0.54522738571E+01  0.19800123493E+02  0.51100000000E-03 0. -1.
        -11    1    3    3    0    0  0.20511600644E+02  0.13446707083E+02  0.13276707820E+02  0.27889257128E+02  0.51100000000E-03 0.  1.
         12    1    3    3    0    0 -0.22629988966E+02 -0.94179970777E+01 -0.35841320582E+01  0.24772183435E+02  0.00000000000E+00 0. -1.
</event>
<event>
 7    1  0.2688173E-013  0.7246125E+02  0.7816164E-02  0.1226709E+00
        -11   -1    0    0    0    0  0.00000000000E+00  0.00000000000E+00  0.45593999997E+02  0.45594000000E+02  0.51100000000E-03 0.  1.
         11   -1    0    0    0    0 -0.00000000000E+00 -0.00000000000E+00 -0.45593999997E+02  0.45594000000E+02  0.51100000000E-03 0. -1.
    9900012    2    1    2    0    0  0.88642503710E+01 -0.13927066962E+02  0.88404191169E+01  0.72461250710E+02  0.69999583681E+02 0.  0.
        -12    1    1    2    0    0 -0.88642503710E+01  0.13927066962E+02 -0.88404191169E+01  0.18726749290E+02  0.00000000000E+00 0.  1.
         11    1    3    3    0    0 -0.16141206327E+01  0.55219851160E+01 -0.25824678383E+02  0.26457734576E+02  0.51100000000E-03 0. -1.
        -11    1    3    3    0    0  0.64560634012E+01 -0.24075212659E+00  0.34637609736E+00  0.64698294327E+01  0.51100000000E-03 0.  1.
        -12    1    3    3    0    0  0.40223076025E+01 -0.19208299951E+02  0.34318721403E+02  0.39533686701E+02  0.00000000000E+00 0.  1.
</event>
<event>
 7    1  0.2688173E-013  0.7246157E+02  0.7816164E-02  0.1226708E+00
        -11   -1    0    0    0    0  0.00000000000E+00  0.00000000000E+00  0.45593999997E+02  0.45594000000E+02  0.51100000000E-03 0.  1.
         11   -1    0    0    0    0 -0.00000000000E+00 -0.00000000000E+00 -0.45593999997E+02  0.45594000000E+02  0.51100000000E-03 0. -1.
    9900012    2    1    2    0    0 -0.12548470425E+02  0.23559076484E+01 -0.13699078355E+02  0.72461570585E+02  0.70000000378E+02 0.  0.
        -12    1    1    2    0    0  0.12548470425E+02 -0.23559076484E+01  0.13699078355E+02  0.18726429415E+02  0.00000000000E+00 0.  1.
         11    1    3    3    0    0 -0.96199424609E+01 -0.15339270187E+02 -0.44029231779E+01  0.18633900172E+02  0.51100000000E-03 0. -1.
        -11    1    3    3    0    0  0.25388984305E+01  0.18504047287E+01  0.19908473596E+02  0.20154833764E+02  0.51100000000E-03 0.  1.
         12    1    3    3    0    0 -0.54674263947E+01  0.15844773107E+02 -0.29204628773E+02  0.33672836649E+02  0.00000000000E+00 0. -1.
</event>
<event>
 7    1  0.2688173E-013  0.7246153E+02  0.7816164E-02  0.1226708E+00
        -11   -1    0    0    0    0  0.00000000000E+00  0.00000000000E+00  0.45593999997E+02  0.45594000000E+02  0.51100000000E-03 0.  1.
         11   -1    0    0    0    0 -0.00000000000E+00 -0.00000000000E+00 -0.45593999997E+02  0.45594000000E+02  0.51100000000E-03 0. -1.
    9900012    2    1    2    0    0  0.13135448489E+02  0.87068743807E+01 -0.10115870214E+02  0.72461534805E+02  0.69999953769E+02 0.  0.
        -12    1    1    2    0    0 -0.13135448489E+02 -0.87068743807E+01  0.10115870214E+02  0.18726465195E+02  0.00000000000E+00 0.  1.
         11    1    3    3    0    0 -0.18256216941E+02 -0.73588985369E+01 -0.17332867377E+02  0.26227297544E+02  0.51100000000E-03 0. -1.
        -11    1    3    3    0    0 -0.24708508301E+01 -0.43923358828E+01 -0.23051455347E+01  0.55417880264E+01  0.51100000000E-03 0.  1.
        -12    1    3    3    0    0  0.33862516261E+02  0.20458108800E+02  0.95221426978E+01  0.40692449235E+02  0.00000000000E+00 0.  1.
</event>
<event>
 7    1  0.2688173E-013  0.7246141E+02  0.7816164E-02  0.1226708E+00
        -11   -1    0    0    0    0  0.00000000000E+00  0.00000000000E+00  0.45593999997E+02  0.45594000000E+02  0.51100000000E-03 0.  1.
         11   -1    0    0    0    0 -0.00000000000E+00 -0.00000000000E+00 -0.45593999997E+02  0.45594000000E+02  0.51100000000E-03 0. -1.
    9900012    2    1    2    0    0 -0.23878498375E+01 -0.20871459927E+01 -0.18456087630E+02  0.72461409925E+02  0.69999791089E+02 0.  0.
        -12    1    1    2    0    0  0.23878498375E+01  0.20871459927E+01  0.18456087630E+02  0.18726590075E+02  0.00000000000E+00 0.  1.
         11    1    3    3    0    0  0.65118826112E+01  0.84799732656E+01 -0.51951409095E+01  0.11887138052E+02  0.51100000000E-03 0. -1.
        -11    1    3    3    0    0 -0.19256104726E+02  0.17530694807E+02  0.34711878558E+01  0.26271124358E+02  0.51100000000E-03 0.  1.
         12    1    3    3    0    0  0.10356372277E+02 -0.28097814065E+02 -0.16732134576E+02  0.34303147515E+02  0.00000000000E+00 0. -1.
</event>
<event>
 7    1  0.2688173E-013  0.7246152E+02  0.7816164E-02  0.1226708E+00
        -11   -1    0    0    0    0  0.00000000000E+00  0.00000000000E+00  0.45593999997E+02  0.45594000000E+02  0.51100000000E-03 0.  1.
         11   -1    0    0    0    0 -0.00000000000E+00 -0.00000000000E+00 -0.45593999997E+02  0.45594000000E+02  0.51100000000E-03 0. -1.
    9900012    2    1    2    0    0  0.98159455071E+00  0.17348090029E+02 -0.69829243393E+01  0.72461521745E+02  0.69999936755E+02 0.  0.
        -12    1    1    2    0    0 -0.98159455071E+00 -0.17348090029E+02  0.69829243393E+01  0.18726478255E+02  0.00000000000E+00 0.  1.
         11    1    3    3    0    0  0.60414427465E+01 -0.36999409365E+01 -0.78597505704E+00  0.71278573530E+01  0.51100000000E-03 0. -1.
        -11    1    3    3    0    0 -0.18105128639E+02  0.14302732075E+02  0.23045423729E+02  0.32610663639E+02  0.51100000000E-03 0.  1.
         12    1    3    3    0    0  0.13045280444E+02  0.67452988903E+01 -0.29242373011E+02  0.32723000753E+02  0.00000000000E+00 0. -1.
</event>
<event>
 7    1  0.2688173E-013  0.7246156E+02  0.7816164E-02  0.1226708E+00
        -11   -1    0    0    0    0  0.00000000000E+00  0.00000000000E+00  0.45593999997E+02  0.45594000000E+02  0.51100000000E-03 0.  1.
         11   -1    0    0    0    0 -0.00000000000E+00 -0.00000000000E+00 -0.45593999997E+02  0.45594000000E+02  0.51100000000E-03 0. -1.
    9900012    2    1    2    0    0  0.14631961295E+02  0.39812565823E+01 -0.10987940733E+02  0.72461560486E+02  0.69999987223E+02 0.  0.
        -12    1    1    2    0    0 -0.14631961295E+02 -0.39812565823E+01  0.10987940733E+02  0.18726439514E+02  0.00000000000E+00 0.  1.
         11    1    3    3    0    0  0.44085781837E+01  0.21889772970E+01  0.21989590146E+01  0.53909743292E+01  0.51100000000E-03 0. -1.
        -11    1    3    3    0    0  0.10645949732E+02  0.28527141897E+02  0.96140946796E+01  0.31930626165E+02  0.51100000000E-03 0.  1.
         12    1    3    3    0    0 -0.42256662094E+00 -0.26734862612E+02 -0.22800994427E+02  0.35139959992E+02  0.00000000000E+00 0. -1.
</event>
<event>
 7    1  0.2688173E-013  0.7246168E+02  0.7816164E-02  0.1226708E+00
        -11   -1    0    0    0    0  0.00000000000E+00  0.00000000000E+00  0.45593999997E+02  0.45594000000E+02  0.51100000000E-03 0. -1.
         11   -1    0    0    0    0 -0.00000000000E+00 -0.00000000000E+00 -0.45593999997E+02  0.45594000000E+02  0.51100000000E-03 0.  1.
    9900012    2    1    2    0    0 -0.97843071511E+01  0.22403702039E+01  0.15808952776E+02  0.72461683946E+02  0.70000148052E+02 0.  0.
        -12    1    1    2    0    0  0.97843071511E+01 -0.22403702039E+01 -0.15808952776E+02  0.18726316054E+02  0.00000000000E+00 0.  1.
         11    1    3    3    0    0  0.22979225502E+01  0.15696440568E+02  0.54024160502E+01  0.16758424568E+02  0.51100000000E-03 0. -1.
        -11    1    3    3    0    0  0.21382504820E+00  0.94616321095E+01 -0.16031822600E+02  0.18616861697E+02  0.51100000000E-03 0.  1.
         12    1    3    3    0    0 -0.12296054750E+02 -0.22917702474E+02  0.26438359326E+02  0.37086397681E+02  0.00000000000E+00 0. -1.
</event>
<event>
 7    1  0.2688173E-013  0.7246160E+02  0.7816164E-02  0.1226708E+00
        -11   -1    0    0    0    0  0.00000000000E+00  0.00000000000E+00  0.45593999997E+02  0.45594000000E+02  0.51100000000E-03 0.  1.
         11   -1    0    0    0    0 -0.00000000000E+00 -0.00000000000E+00 -0.45593999997E+02  0.45594000000E+02  0.51100000000E-03 0. -1.
    9900012    2    1    2    0    0 -0.27598419844E+01  0.17617658465E+02  0.57165858574E+01  0.72461602284E+02  0.70000041672E+02 0.  0.
        -12    1    1    2    0    0  0.27598419844E+01 -0.17617658465E+02 -0.57165858574E+01  0.18726397716E+02  0.00000000000E+00 0.  1.
         11    1    3    3    0    0 -0.41035696173E+01 -0.18158056339E+02  0.35986186760E+01  0.18960599944E+02  0.51100000000E-03 0. -1.
        -11    1    3    3    0    0 -0.45033221772E+01  0.11388595924E+01  0.15294299681E+02  0.15984133220E+02  0.51100000000E-03 0.  1.
         12    1    3    3    0    0  0.58470498101E+01  0.34636855211E+02 -0.13176332499E+02  0.37516869120E+02  0.00000000000E+00 0. -1.
</event>
<event>
 7    1  0.2688173E-013  0.7246155E+02  0.7816164E-02  0.1226708E+00
        -11   -1    0    0    0    0  0.00000000000E+00  0.00000000000E+00  0.45593999997E+02  0.45594000000E+02  0.51100000000E-03 0.  1.
         11   -1    0    0    0    0 -0.00000000000E+00 -0.00000000000E+00 -0.45593999997E+02  0.45594000000E+02  0.51100000000E-03 0. -1.
    9900012    2    1    2    0    0 -0.13449481416E+02  0.52529302467E+01 -0.11924679045E+02  0.72461553544E+02  0.69999978180E+02 0.  0.
        -12    1    1    2    0    0  0.13449481416E+02 -0.52529302467E+01  0.11924679045E+02  0.18726446456E+02  0.00000000000E+00 0.  1.
         11    1    3    3    0    0  0.10314850457E+02  0.13685783211E+02 -0.21041689379E+02  0.27137602957E+02  0.51100000000E-03 0. -1.
        -11    1    3    3    0    0  0.47786523189E+01  0.89148639007E+01 -0.16104950894E+01  0.10242265914E+02  0.51100000000E-03 0.  1.
        -12    1    3    3    0    0 -0.28542984191E+02 -0.17347716865E+02  0.10727505424E+02  0.35081684674E+02  0.00000000000E+00 0.  1.
</event>
<event>
 7    1  0.2688173E-013  0.7246153E+02  0.7816164E-02  0.1226708E+00
        -11   -1    0    0    0    0  0.00000000000E+00  0.00000000000E+00  0.45593999997E+02  0.45594000000E+02  0.51100000000E-03 0. -1.
         11   -1    0    0    0    0 -0.00000000000E+00 -0.00000000000E+00 -0.45593999997E+02  0.45594000000E+02  0.51100000000E-03 0.  1.
    9900012    2    1    2    0    0 -0.27677559108E+01 -0.13796185189E+02  0.12356595116E+02  0.72461530994E+02  0.69999948804E+02 0.  0.
        -12    1    1    2    0    0  0.27677559108E+01  0.13796185189E+02 -0.12356595116E+02  0.18726469006E+02  0.00000000000E+00 0.  1.
         11    1    3    3    0    0  0.15571596980E+01 -0.73918549160E+01  0.37838872538E+01  0.84487909451E+01  0.51100000000E-03 0. -1.
        -11    1    3    3    0    0 -0.21492883640E+02 -0.16694330415E+02  0.25877431915E+02  0.37553777413E+02  0.51100000000E-03 0.  1.
        -12    1    3    3    0    0  0.17167968031E+02  0.10290000142E+02 -0.17304724053E+02  0.26458962636E+02  0.00000000000E+00 0.  1.
</event>
<event>
 7    1  0.2688173E-013  0.7246157E+02  0.7816164E-02  0.1226708E+00
        -11   -1    0    0    0    0  0.00000000000E+00  0.00000000000E+00  0.45593999997E+02  0.45594000000E+02  0.51100000000E-03 0. -1.
         11   -1    0    0    0    0 -0.00000000000E+00 -0.00000000000E+00 -0.45593999997E+02  0.45594000000E+02  0.51100000000E-03 0.  1.
    9900012    2    1    2    0    0 -0.16186725995E+02 -0.94153743786E+01  0.14080004460E+00  0.72461569540E+02  0.69999999017E+02 0.  0.
        -12    1    1    2    0    0  0.16186725995E+02  0.94153743786E+01 -0.14080004460E+00  0.18726430460E+02  0.00000000000E+00 0.  1.
         11    1    3    3    0    0 -0.32350449357E+01 -0.21156692214E+01 -0.29154294935E+01  0.48416217720E+01  0.51100000000E-03 0. -1.
        -11    1    3    3    0    0 -0.12262515459E+01 -0.30817396818E+02 -0.16392156048E+02  0.34927330555E+02  0.51100000000E-03 0.  1.
         12    1    3    3    0    0 -0.11725429514E+02  0.23517691661E+02  0.19448385586E+02  0.32692617213E+02  0.00000000000E+00 0. -1.
</event>
<event>
 7    1  0.2688173E-013  0.7246158E+02  0.7816164E-02  0.1226708E+00
        -11   -1    0    0    0    0  0.00000000000E+00  0.00000000000E+00  0.45593999997E+02  0.45594000000E+02  0.51100000000E-03 0.  1.
         11   -1    0    0    0    0 -0.00000000000E+00 -0.00000000000E+00 -0.45593999997E+02  0.45594000000E+02  0.51100000000E-03 0. -1.
    9900012    2    1    2    0    0 -0.10289920629E+02  0.26525629726E+01 -0.15419478405E+02  0.72461578261E+02  0.70000010377E+02 0.  0.
        -12    1    1    2    0    0  0.10289920629E+02 -0.26525629726E+01  0.15419478405E+02  0.18726421739E+02  0.00000000000E+00 0.  1.
         11    1    3    3    0    0 -0.20967852767E+02  0.12930598176E+02  0.97916897272E+01  0.26509025007E+02  0.51100000000E-03 0. -1.
        -11    1    3    3    0    0 -0.10202625720E+02  0.40427311313E+01 -0.11683968915E+01  0.11036412376E+02  0.51100000000E-03 0.  1.
        -12    1    3    3    0    0  0.20880557857E+02 -0.14320766335E+02 -0.24042771241E+02  0.34916140878E+02  0.00000000000E+00 0.  1.
</event>
<event>
 7    1  0.2688173E-013  0.7246158E+02  0.7816164E-02  0.1226708E+00
        -11   -1    0    0    0    0  0.00000000000E+00  0.00000000000E+00  0.45593999997E+02  0.45594000000E+02  0.51100000000E-03 0.  1.
         11   -1    0    0    0    0 -0.00000000000E+00 -0.00000000000E+00 -0.45593999997E+02  0.45594000000E+02  0.51100000000E-03 0. -1.
    9900012    2    1    2    0    0 -0.82491189606E+01  0.71237834868E+01 -0.15227685914E+02  0.72461583549E+02  0.70000017267E+02 0.  0.
        -12    1    1    2    0    0  0.82491189606E+01 -0.71237834868E+01  0.15227685914E+02  0.18726416451E+02  0.00000000000E+00 0.  1.
         11    1    3    3    0    0 -0.22588396057E+02 -0.24296447598E+01 -0.96621517903E+01  0.24687972529E+02  0.51100000000E-03 0. -1.
        -11    1    3    3    0    0 -0.44589785739E+01  0.23534772176E+02 -0.40849270534E+01  0.24299272018E+02  0.51100000000E-03 0.  1.
        -12    1    3    3    0    0  0.18798255671E+02 -0.13981343929E+02 -0.14806070702E+01  0.23474339003E+02  0.00000000000E+00 0.  1.
</event>
<event>
 7    1  0.2688173E-013  0.7246110E+02  0.7816164E-02  0.1226709E+00
        -11   -1    0    0    0    0  0.00000000000E+00  0.00000000000E+00  0.45593999997E+02  0.45594000000E+02  0.51100000000E-03 0. -1.
         11   -1    0    0    0    0 -0.00000000000E+00 -0.00000000000E+00 -0.45593999997E+02  0.45594000000E+02  0.51100000000E-03 0.  1.
    9900012    2    1    2    0    0  0.61892058864E+01  0.17105007693E+02  0.44507408935E+01  0.72461103509E+02  0.69999391923E+02 0.  0.
        -12    1    1    2    0    0 -0.61892058864E+01 -0.17105007693E+02 -0.44507408935E+01  0.18726896491E+02  0.00000000000E+00 0.  1.
         11    1    3    3    0    0 -0.22332059563E+01  0.60985695833E+01  0.48879838599E+01  0.81284774885E+01  0.51100000000E-03 0. -1.
        -11    1    3    3    0    0  0.23911846743E+02  0.30734664357E+02  0.28037164861E+01  0.39041731957E+02  0.51100000000E-03 0.  1.
        -12    1    3    3    0    0 -0.15489434900E+02 -0.19728226248E+02 -0.32409594525E+01  0.25290894064E+02  0.00000000000E+00 0.  1.
</event>
<event>
 7    1  0.2688173E-013  0.7246161E+02  0.7816164E-02  0.1226708E+00
        -11   -1    0    0    0    0  0.00000000000E+00  0.00000000000E+00  0.45593999997E+02  0.45594000000E+02  0.51100000000E-03 0.  1.
         11   -1    0    0    0    0 -0.00000000000E+00 -0.00000000000E+00 -0.45593999997E+02  0.45594000000E+02  0.51100000000E-03 0. -1.
    9900012    2    1    2    0    0  0.10597432678E+02 -0.10266270554E+02 -0.11531519654E+02  0.72461605900E+02  0.70000046382E+02 0.  0.
        -12    1    1    2    0    0 -0.10597432678E+02  0.10266270554E+02  0.11531519654E+02  0.18726394100E+02  0.00000000000E+00 0.  1.
         11    1    3    3    0    0  0.73316187652E+01 -0.33041193742E+01 -0.40384345972E+01  0.89988217459E+01  0.51100000000E-03 0. -1.
        -11    1    3    3    0    0 -0.51166714252E+01 -0.14220777171E+02 -0.32645772407E+02  0.35974397648E+02  0.51100000000E-03 0.  1.
        -12    1    3    3    0    0  0.83824853381E+01  0.72586259910E+01  0.25152687350E+02  0.27488386505E+02  0.00000000000E+00 0.  1.
</event>
<event>
 7    1  0.2688173E-013  0.7246157E+02  0.7816164E-02  0.1226708E+00
        -11   -1    0    0    0    0  0.00000000000E+00  0.00000000000E+00  0.45593999997E+02  0.45594000000E+02  0.51100000000E-03 0.  1.
         11   -1    0    0    0    0 -0.00000000000E+00 -0.00000000000E+00 -0.45593999997E+02  0.45594000000E+02  0.51100000000E-03 0. -1.
    9900012    2    1    2    0    0 -0.79469925812E+01  0.14368987175E+01 -0.16895556037E+02  0.72461569940E+02  0.69999999538E+02 0.  0.
        -12    1    1    2    0    0  0.79469925812E+01 -0.14368987175E+01  0.16895556037E+02  0.18726430060E+02  0.00000000000E+00 0.  1.
         11    1    3    3    0    0 -0.12100486214E+02  0.22454897765E+01 -0.75283925199E+01  0.14427081657E+02  0.51100000000E-03 0. -1.
        -11    1    3    3    0    0 -0.18427531579E+02  0.18451347098E+02  0.22245848584E+01  0.26172025292E+02  0.51100000000E-03 0.  1.
         12    1    3    3    0    0  0.22581025212E+02 -0.19259938158E+02 -0.11591748375E+02  0.31862462991E+02  0.00000000000E+00 0. -1.
</event>
<event>
 7    1  0.2688173E-013  0.7246156E+02  0.7816164E-02  0.1226708E+00
        -11   -1    0    0    0    0  0.00000000000E+00  0.00000000000E+00  0.45593999997E+02  0.45594000000E+02  0.51100000000E-03 0.  1.
         11   -1    0    0    0    0 -0.00000000000E+00 -0.00000000000E+00 -0.45593999997E+02  0.45594000000E+02  0.51100000000E-03 0. -1.
    9900012    2    1    2    0    0 -0.12837186880E+02 -0.10701437142E+02 -0.84478057736E+01  0.72461560235E+02  0.69999986895E+02 0.  0.
        -12    1    1    2    0    0  0.12837186880E+02  0.10701437142E+02  0.84478057736E+01  0.18726439765E+02  0.00000000000E+00 0.  1.
         11    1    3    3    0    0 -0.15817294746E+02 -0.61962764070E+01 -0.16035599131E+02  0.23360674094E+02  0.51100000000E-03 0. -1.
        -11    1    3    3    0    0 -0.92290515242E+01  0.14629511972E+02  0.17252956152E+02  0.24430769714E+02  0.51100000000E-03 0.  1.
         12    1    3    3    0    0  0.12209159390E+02 -0.19134672707E+02 -0.96651627945E+01  0.24670116426E+02  0.00000000000E+00 0. -1.
</event>
<event>
 7    1  0.2688173E-013  0.7246162E+02  0.7816164E-02  0.1226708E+00
        -11   -1    0    0    0    0  0.00000000000E+00  0.00000000000E+00  0.45593999997E+02  0.45594000000E+02  0.51100000000E-03 0.  1.
         11   -1    0    0    0    0 -0.00000000000E+00 -0.00000000000E+00 -0.45593999997E+02  0.45594000000E+02  0.51100000000E-03 0. -1.
    9900012    2    1    2    0    0  0.60664628858E+00 -0.20672625623E+01 -0.18602032344E+02  0.72461622840E+02  0.70000068450E+02 0.  0.
        -12    1    1    2    0    0 -0.60664628858E+00  0.20672625623E+01  0.18602032344E+02  0.18726377160E+02  0.00000000000E+00 0.  1.
         11    1    3    3    0    0  0.98241243431E+01 -0.35145349401E+01 -0.33667723339E+01  0.10963600283E+02  0.51100000000E-03 0. -1.
        -11    1    3    3    0    0  0.16022736480E+02  0.20970349744E+02 -0.61388931197E+00  0.26398115710E+02  0.51100000000E-03 0.  1.
         12    1    3    3    0    0 -0.25240214534E+02 -0.19523077366E+02 -0.14621370698E+02  0.35099906847E+02  0.00000000000E+00 0. -1.
</event>
<event>
 7    1  0.2688173E-013  0.7246156E+02  0.7816164E-02  0.1226708E+00
        -11   -1    0    0    0    0  0.00000000000E+00  0.00000000000E+00  0.45593999997E+02  0.45594000000E+02  0.51100000000E-03 0.  1.
         11   -1    0    0    0    0 -0.00000000000E+00 -0.00000000000E+00 -0.45593999997E+02  0.45594000000E+02  0.51100000000E-03 0. -1.
    9900012    2    1    2    0    0 -0.50798340156E+01 -0.47030974775E+01 -0.17399881148E+02  0.72461556038E+02  0.69999981429E+02 0.  0.
        -12    1    1    2    0    0  0.50798340156E+01  0.47030974775E+01  0.17399881148E+02  0.18726443962E+02  0.00000000000E+00 0.  1.
         11    1    3    3    0    0 -0.14460832506E+02  0.34821088976E+01  0.18566264878E+02  0.23789639571E+02  0.51100000000E-03 0. -1.
        -11    1    3    3    0    0 -0.70798756200E+01  0.28652382260E+00  0.11656809496E+01  0.71809154732E+01  0.51100000000E-03 0.  1.
        -12    1    3    3    0    0  0.16460874110E+02 -0.84717301978E+01 -0.37131826975E+02  0.41491000994E+02  0.00000000000E+00 0.  1.
</event>
<event>
 7    1  0.2688173E-013  0.7246156E+02  0.7816164E-02  0.1226708E+00
        -11   -1    0    0    0    0  0.00000000000E+00  0.00000000000E+00  0.45593999997E+02  0.45594000000E+02  0.51100000000E-03 0. -1.
         11   -1    0    0    0    0 -0.00000000000E+00 -0.00000000000E+00 -0.45593999997E+02  0.45594000000E+02  0.51100000000E-03 0.  1.
    9900012    2    1    2    0    0 -0.16181317493E+02 -0.94175856356E+01  0.39191056216E+00  0.72461560165E+02  0.69999986804E+02 0.  0.
        -12    1    1    2    0    0  0.16181317493E+02  0.94175856356E+01 -0.39191056216E+00  0.18726439835E+02  0.00000000000E+00 0.  1.
         11    1    3    3    0    0 -0.36886826493E+01 -0.29492770039E+02  0.12499200877E+01  0.29748817872E+02  0.51100000000E-03 0. -1.
        -11    1    3    3    0    0  0.45322634621E+00 -0.73340330221E+00 -0.14593561440E+02  0.14619005790E+02  0.51100000000E-03 0.  1.
        -12    1    3    3    0    0 -0.12945861190E+02  0.20808587706E+02  0.13735551915E+02  0.28093736503E+02  0.00000000000E+00 0.  1.
</event>
<event>
 7    1  0.2688173E-013  0.7246172E+02  0.7816164E-02  0.1226708E+00
        -11   -1    0    0    0    0  0.00000000000E+00  0.00000000000E+00  0.45593999997E+02  0.45594000000E+02  0.51100000000E-03 0.  1.
         11   -1    0    0    0    0 -0.00000000000E+00 -0.00000000000E+00 -0.45593999997E+02  0.45594000000E+02  0.51100000000E-03 0. -1.
    9900012    2    1    2    0    0 -0.20746175573E+01  0.18146152624E+02 -0.41335997103E+01  0.72461720614E+02  0.70000195819E+02 0.  0.
        -12    1    1    2    0    0  0.20746175573E+01 -0.18146152624E+02  0.41335997103E+01  0.18726279386E+02  0.00000000000E+00 0.  1.
         11    1    3    3    0    0 -0.68877349441E+01 -0.16332153003E+02  0.41567161201E+01  0.18205999108E+02  0.51100000000E-03 0. -1.
        -11    1    3    3    0    0 -0.61941496059E+01 -0.51197081388E+01  0.67458561341E+01  0.10492162599E+02  0.51100000000E-03 0.  1.
         12    1    3    3    0    0  0.11007266993E+02  0.39598013766E+02 -0.15036171964E+02  0.43763558907E+02  0.00000000000E+00 0. -1.
</event>
<event>
 7    1  0.2688173E-013  0.7246155E+02  0.7816164E-02  0.1226708E+00
        -11   -1    0    0    0    0  0.00000000000E+00  0.00000000000E+00  0.45593999997E+02  0.45594000000E+02  0.51100000000E-03 0.  1.
         11   -1    0    0    0    0 -0.00000000000E+00 -0.00000000000E+00 -0.45593999997E+02  0.45594000000E+02  0.51100000000E-03 0. -1.
    9900012    2    1    2    0    0  0.90887757831E+01 -0.16717893839E+01 -0.16287389897E+02  0.72461553604E+02  0.69999978258E+02 0.  0.
        -12    1    1    2    0    0 -0.90887757831E+01  0.16717893839E+01  0.16287389897E+02  0.18726446396E+02  0.00000000000E+00 0.  1.
         11    1    3    3    0    0  0.62538789062E+01 -0.50584361501E+01  0.66378426886E+01  0.10428793481E+02  0.51100000000E-03 0. -1.
        -11    1    3    3    0    0  0.23795311282E+02 -0.62182150272E+01  0.57304493021E+01  0.25253140133E+02  0.51100000000E-03 0.  1.
         12    1    3    3    0    0 -0.20960414405E+02  0.96048617934E+01 -0.28655681887E+02  0.36779619989E+02  0.00000000000E+00 0. -1.
</event>
<event>
 7    1  0.2688173E-013  0.7246162E+02  0.7816164E-02  0.1226708E+00
        -11   -1    0    0    0    0  0.00000000000E+00  0.00000000000E+00  0.45593999997E+02  0.45594000000E+02  0.51100000000E-03 0. -1.
         11   -1    0    0    0    0 -0.00000000000E+00 -0.00000000000E+00 -0.45593999997E+02  0.45594000000E+02  0.51100000000E-03 0.  1.
    9900012    2    1    2    0    0 -0.16709214709E+02  0.45802961061E+01  0.71063489517E+01  0.72461623842E+02  0.70000069755E+02 0.  0.
        -12    1    1    2    0    0  0.16709214709E+02 -0.45802961061E+01 -0.71063489517E+01  0.18726376158E+02  0.00000000000E+00 0.  1.
         11    1    3    3    0    0  0.67538060683E+01  0.13775276551E+02 -0.77136959566E+01  0.17171873690E+02  0.51100000000E-03 0. -1.
        -11    1    3    3    0    0 -0.62886341197E+01  0.55683870874E+01 -0.15390071673E+02  0.17533059066E+02  0.51100000000E-03 0.  1.
         12    1    3    3    0    0 -0.17174386657E+02 -0.14763367532E+02  0.30210116581E+02  0.37756691086E+02  0.00000000000E+00 0. -1.
</event>
<event>
 7    1  0.2688173E-013  0.7246161E+02  0.7816164E-02  0.1226708E+00
        -11   -1    0    0    0    0  0.00000000000E+00  0.00000000000E+00  0.45593999997E+02  0.45594000000E+02  0.51100000000E-03 0. -1.
         11   -1    0    0    0    0 -0.00000000000E+00 -0.00000000000E+00 -0.45593999997E+02  0.45594000000E+02  0.51100000000E-03 0.  1.
    9900012    2    1    2    0    0 -0.51111185730E+01 -0.37345800428E+01  0.17624051215E+02  0.72461606797E+02  0.70000047552E+02 0.  0.
        -12    1    1    2    0    0  0.51111185730E+01  0.37345800428E+01 -0.17624051215E+02  0.18726393203E+02  0.00000000000E+00 0.  1.
         11    1    3    3    0    0 -0.16842067752E+02  0.92932664985E+01 -0.88451516799E+01  0.21172074931E+02  0.51100000000E-03 0. -1.
        -11    1    3    3    0    0 -0.10449257462E+02 -0.14514211835E+01 -0.45063131191E+01  0.11471724506E+02  0.51100000000E-03 0.  1.
         12    1    3    3    0    0  0.22180206641E+02 -0.11576425358E+02  0.30975516014E+02  0.39817807361E+02  0.00000000000E+00 0. -1.
</event>
<event>
 7    1  0.2688173E-013  0.7246161E+02  0.7816164E-02  0.1226708E+00
        -11   -1    0    0    0    0  0.00000000000E+00  0.00000000000E+00  0.45593999997E+02  0.45594000000E+02  0.51100000000E-03 0. -1.
         11   -1    0    0    0    0 -0.00000000000E+00 -0.00000000000E+00 -0.45593999997E+02  0.45594000000E+02  0.51100000000E-03 0.  1.
    9900012    2    1    2    0    0 -0.17117852841E+01  0.62958278053E+01  0.17553059127E+02  0.72461613768E+02  0.70000056632E+02 0.  0.
        -12    1    1    2    0    0  0.17117852841E+01 -0.62958278053E+01 -0.17553059127E+02  0.18726386232E+02  0.00000000000E+00 0.  1.
         11    1    3    3    0    0 -0.33701509818E+01 -0.43875855155E+01 -0.72982471096E+00  0.55804541630E+01  0.51100000000E-03 0. -1.
        -11    1    3    3    0    0  0.16865149308E+02 -0.18355468598E+02 -0.65313863028E+01  0.25768498131E+02  0.51100000000E-03 0.  1.
         12    1    3    3    0    0 -0.15206783610E+02  0.29038881919E+02  0.24814270141E+02  0.41112661474E+02  0.00000000000E+00 0. -1.
</event>
<event>
 7    1  0.2688173E-013  0.7246153E+02  0.7816164E-02  0.1226708E+00
        -11   -1    0    0    0    0  0.00000000000E+00  0.00000000000E+00  0.45593999997E+02  0.45594000000E+02  0.51100000000E-03 0. -1.
         11   -1    0    0    0    0 -0.00000000000E+00 -0.00000000000E+00 -0.45593999997E+02  0.45594000000E+02  0.51100000000E-03 0.  1.
    9900012    2    1    2    0    0 -0.19543954836E+01 -0.84630198924E+01  0.16590306863E+02  0.72461530786E+02  0.69999948534E+02 0.  0.
        -12    1    1    2    0    0  0.19543954836E+01  0.84630198924E+01 -0.16590306863E+02  0.18726469214E+02  0.00000000000E+00 0.  1.
         11    1    3    3    0    0 -0.16810510848E+02 -0.41109081192E+01 -0.47935049553E+01  0.17957464480E+02  0.51100000000E-03 0. -1.
        -11    1    3    3    0    0  0.78929622638E+01 -0.25974911759E+02  0.88178200127E+01  0.28543805707E+02  0.51100000000E-03 0.  1.
         12    1    3    3    0    0  0.69631531006E+01  0.21622799986E+02  0.12565991805E+02  0.25960260599E+02  0.00000000000E+00 0. -1.
</event>
<event>
 7    1  0.2688173E-013  0.7246156E+02  0.7816164E-02  0.1226708E+00
        -11   -1    0    0    0    0  0.00000000000E+00  0.00000000000E+00  0.45593999997E+02  0.45594000000E+02  0.51100000000E-03 0. -1.
         11   -1    0    0    0    0 -0.00000000000E+00 -0.00000000000E+00 -0.45593999997E+02  0.45594000000E+02  0.51100000000E-03 0.  1.
    9900012    2    1    2    0    0  0.67197220140E+01  0.87135451659E+01  0.15152528559E+02  0.72461557331E+02  0.69999983113E+02 0.  0.
        -12    1    1    2    0    0 -0.67197220140E+01 -0.87135451659E+01 -0.15152528559E+02  0.18726442669E+02  0.00000000000E+00 0.  1.
         11    1    3    3    0    0 -0.15157564273E+01  0.10879792880E+02 -0.11895238114E+02  0.16191482351E+02  0.51100000000E-03 0. -1.
        -11    1    3    3    0    0  0.88605463459E+01 -0.59902207166E+01 -0.12546561290E+02  0.16486607482E+02  0.51100000000E-03 0.  1.
         12    1    3    3    0    0 -0.62506790460E+00  0.38239730022E+01  0.39594327963E+02  0.39783467499E+02  0.00000000000E+00 0. -1.
</event>
<event>
 7    1  0.2688173E-013  0.7246162E+02  0.7816164E-02  0.1226708E+00
        -11   -1    0    0    0    0  0.00000000000E+00  0.00000000000E+00  0.45593999997E+02  0.45594000000E+02  0.51100000000E-03 0.  1.
         11   -1    0    0    0    0 -0.00000000000E+00 -0.00000000000E+00 -0.45593999997E+02  0.45594000000E+02  0.51100000000E-03 0. -1.
    9900012    2    1    2    0    0  0.70631949349E+01  0.60907486930E+01 -0.16238577957E+02  0.72461618706E+02  0.70000063065E+02 0.  0.
        -12    1    1    2    0    0 -0.70631949349E+01 -0.60907486930E+01  0.16238577957E+02  0.18726381294E+02  0.00000000000E+00 0.  1.
         11    1    3    3    0    0 -0.20684330366E+02 -0.48748752036E+01 -0.28658157788E+02  0.35677667230E+02  0.51100000000E-03 0. -1.
        -11    1    3    3    0    0  0.12366403699E+02  0.13782692620E+02  0.97277865914E+01  0.20916988037E+02  0.51100000000E-03 0.  1.
        -12    1    3    3    0    0  0.15381121601E+02 -0.28170687236E+01  0.26917932394E+01  0.15866963438E+02  0.00000000000E+00 0.  1.
</event>
<event>
 7    1  0.2688173E-013  0.7246181E+02  0.7816164E-02  0.1226707E+00
        -11   -1    0    0    0    0  0.00000000000E+00  0.00000000000E+00  0.45593999997E+02  0.45594000000E+02  0.51100000000E-03 0.  1.
         11   -1    0    0    0    0 -0.00000000000E+00 -0.00000000000E+00 -0.45593999997E+02  0.45594000000E+02  0.51100000000E-03 0. -1.
    9900012    2    1    2    0    0 -0.12389463833E+02 -0.54855396785E+01 -0.12925957110E+02  0.72461806397E+02  0.70000307567E+02 0.  0.
        -12    1    1    2    0    0  0.12389463833E+02  0.54855396785E+01  0.12925957110E+02  0.18726193603E+02  0.00000000000E+00 0.  1.
         11    1    3    3    0    0 -0.99934805761E+01 -0.16009429474E+02  0.61345125649E+01  0.19844488675E+02  0.51100000000E-03 0. -1.
        -11    1    3    3    0    0  0.10281042087E+02 -0.11797654616E+02  0.59840246923E+01  0.16753896043E+02  0.51100000000E-03 0.  1.
         12    1    3    3    0    0 -0.12677025344E+02  0.22321544411E+02 -0.25044494368E+02  0.35863421680E+02  0.00000000000E+00 0. -1.
</event>
<event>
 7    1  0.2688173E-013  0.7246155E+02  0.7816164E-02  0.1226708E+00
        -11   -1    0    0    0    0  0.00000000000E+00  0.00000000000E+00  0.45593999997E+02  0.45594000000E+02  0.51100000000E-03 0.  1.
         11   -1    0    0    0    0 -0.00000000000E+00 -0.00000000000E+00 -0.45593999997E+02  0.45594000000E+02  0.51100000000E-03 0. -1.
    9900012    2    1    2    0    0 -0.11409384769E+01  0.77203488379E+01 -0.17022757811E+02  0.72461553186E+02  0.69999977713E+02 0.  0.
        -12    1    1    2    0    0  0.11409384769E+01 -0.77203488379E+01  0.17022757811E+02  0.18726446814E+02  0.00000000000E+00 0.  1.
         11    1    3    3    0    0 -0.13839110940E+01 -0.60330399119E+00  0.37000800568E+01  0.39962205031E+01  0.51100000000E-03 0. -1.
        -11    1    3    3    0    0 -0.12459544656E+02  0.83827453417E+01  0.20453412819E+02  0.25374254052E+02  0.51100000000E-03 0.  1.
         12    1    3    3    0    0  0.12702517273E+02 -0.59092512627E-01 -0.41176250686E+02  0.43091078631E+02  0.00000000000E+00 0. -1.
</event>
<event>
 7    1  0.2688173E-013  0.7246153E+02  0.7816164E-02  0.1226708E+00
        -11   -1    0    0    0    0  0.00000000000E+00  0.00000000000E+00  0.45593999997E+02  0.45594000000E+02  0.51100000000E-03 0. -1.
         11   -1    0    0    0    0 -0.00000000000E+00 -0.00000000000E+00 -0.45593999997E+02  0.45594000000E+02  0.51100000000E-03 0.  1.
    9900012    2    1    2    0    0  0.18174515573E+02 -0.29805962693E+01 -0.33887393571E+01  0.72461534106E+02  0.69999952859E+02 0.  0.
        -12    1    1    2    0    0 -0.18174515573E+02  0.29805962693E+01  0.33887393571E+01  0.18726465894E+02  0.00000000000E+00 0.  1.
         11    1    3    3    0    0  0.12768835600E+02  0.57436188915E+01 -0.29796282753E+02  0.32921889173E+02  0.51100000000E-03 0. -1.
        -11    1    3    3    0    0 -0.39730575351E+01 -0.10224386373E+02 -0.52464828780E+00  0.10981735700E+02  0.51100000000E-03 0.  1.
         12    1    3    3    0    0  0.93787375078E+01  0.15001712126E+01  0.26932191684E+02  0.28557909234E+02  0.00000000000E+00 0. -1.
</event>
<event>
 7    1  0.2688173E-013  0.7246158E+02  0.7816164E-02  0.1226708E+00
        -11   -1    0    0    0    0  0.00000000000E+00  0.00000000000E+00  0.45593999997E+02  0.45594000000E+02  0.51100000000E-03 0.  1.
         11   -1    0    0    0    0 -0.00000000000E+00 -0.00000000000E+00 -0.45593999997E+02  0.45594000000E+02  0.51100000000E-03 0. -1.
    9900012    2    1    2    0    0 -0.53323694606E+01 -0.12144374514E+02 -0.13219644055E+02  0.72461575212E+02  0.70000006407E+02 0.  0.
        -12    1    1    2    0    0  0.53323694606E+01  0.12144374514E+02  0.13219644055E+02  0.18726424788E+02  0.00000000000E+00 0.  1.
         11    1    3    3    0    0 -0.30576335462E+02 -0.48176192492E+01 -0.18953117423E+02  0.36295211886E+02  0.51100000000E-03 0. -1.
        -11    1    3    3    0    0 -0.44319744622E+01  0.61709241079E+00 -0.12819542578E+01  0.46547403426E+01  0.51100000000E-03 0.  1.
        -12    1    3    3    0    0  0.29675940464E+02 -0.79438476754E+01  0.70154276256E+01  0.31511622984E+02  0.00000000000E+00 0.  1.
</event>
<event>
 7    1  0.2688173E-013  0.7246149E+02  0.7816164E-02  0.1226708E+00
        -11   -1    0    0    0    0  0.00000000000E+00  0.00000000000E+00  0.45593999997E+02  0.45594000000E+02  0.51100000000E-03 0.  1.
         11   -1    0    0    0    0 -0.00000000000E+00 -0.00000000000E+00 -0.45593999997E+02  0.45594000000E+02  0.51100000000E-03 0. -1.
    9900012    2    1    2    0    0  0.63142485441E+01  0.17971442935E+00 -0.17628962277E+02  0.72461485564E+02  0.69999889623E+02 0.  0.
        -12    1    1    2    0    0 -0.63142485441E+01 -0.17971442935E+00  0.17628962277E+02  0.18726514436E+02  0.00000000000E+00 0.  1.
         11    1    3    3    0    0 -0.17869253034E+02  0.90868559909E+01 -0.25883959751E+02  0.32739281123E+02  0.51100000000E-03 0. -1.
        -11    1    3    3    0    0 -0.40083307729E+01  0.12539792324E+00 -0.57200989476E+01  0.69858408553E+01  0.51100000000E-03 0.  1.
        -12    1    3    3    0    0  0.28191832351E+02 -0.90325394848E+01  0.13975096421E+02  0.32736363586E+02  0.00000000000E+00 0.  1.
</event>
<event>
 7    1  0.2688173E-013  0.7246202E+02  0.7816164E-02  0.1226707E+00
        -11   -1    0    0    0    0  0.00000000000E+00  0.00000000000E+00  0.45593999997E+02  0.45594000000E+02  0.51100000000E-03 0.  1.
         11   -1    0    0    0    0 -0.00000000000E+00 -0.00000000000E+00 -0.45593999997E+02  0.45594000000E+02  0.51100000000E-03 0. -1.
    9900012    2    1    2    0    0  0.16226673726E+01 -0.94968709744E+01 -0.16057358808E+02  0.72462018595E+02  0.70000583992E+02 0.  0.
        -12    1    1    2    0    0 -0.16226673726E+01  0.94968709744E+01  0.16057358808E+02  0.18725981405E+02  0.00000000000E+00 0.  1.
         11    1    3    3    0    0  0.11080408576E+02  0.20783161127E+01  0.33258946446E+00  0.11278540158E+02  0.51100000000E-03 0. -1.
        -11    1    3    3    0    0 -0.39376215533E+01  0.23271672197E+02 -0.51815909903E+01  0.24164529290E+02  0.51100000000E-03 0.  1.
        -12    1    3    3    0    0 -0.55201196505E+01 -0.34846859285E+02 -0.11208357282E+02  0.37018949147E+02  0.00000000000E+00 0.  1.
</event>
<event>
 7    1  0.2688173E-013  0.7246155E+02  0.7816164E-02  0.1226708E+00
        -11   -1    0    0    0    0  0.00000000000E+00  0.00000000000E+00  0.45593999997E+02  0.45594000000E+02  0.51100000000E-03 0. -1.
         11   -1    0    0    0    0 -0.00000000000E+00 -0.00000000000E+00 -0.45593999997E+02  0.45594000000E+02  0.51100000000E-03 0.  1.
    9900012    2    1    2    0    0 -0.11828496219E+02 -0.14163984847E+02  0.31856375186E+01  0.72461546093E+02  0.69999968473E+02 0.  0.
        -12    1    1    2    0    0  0.11828496219E+02  0.14163984847E+02 -0.31856375186E+01  0.18726453907E+02  0.00000000000E+00 0.  1.
         11    1    3    3    0    0 -0.31394428489E+02 -0.19612529439E+01  0.92472509456E+01  0.32786709252E+02  0.51100000000E-03 0. -1.
        -11    1    3    3    0    0 -0.39575698354E+01 -0.41131815582E+01  0.89540010134E+01  0.10618604237E+02  0.51100000000E-03 0.  1.
        -12    1    3    3    0    0  0.23523502105E+02 -0.80895503446E+01 -0.15015614440E+02  0.29056232603E+02  0.00000000000E+00 0.  1.
</event>
<event>
 7    1  0.2688173E-013  0.7246159E+02  0.7816164E-02  0.1226708E+00
        -11   -1    0    0    0    0  0.00000000000E+00  0.00000000000E+00  0.45593999997E+02  0.45594000000E+02  0.51100000000E-03 0.  1.
         11   -1    0    0    0    0 -0.00000000000E+00 -0.00000000000E+00 -0.45593999997E+02  0.45594000000E+02  0.51100000000E-03 0. -1.
    9900012    2    1    2    0    0  0.75549459038E+00  0.17641349313E+02 -0.62362198022E+01  0.72461590438E+02  0.70000026241E+02 0.  0.
        -12    1    1    2    0    0 -0.75549459038E+00 -0.17641349313E+02  0.62362198022E+01  0.18726409562E+02  0.00000000000E+00 0.  1.
         11    1    3    3    0    0 -0.66726648170E+01  0.16300789419E+00  0.16093289052E+01  0.68659279868E+01  0.51100000000E-03 0. -1.
        -11    1    3    3    0    0 -0.21152803588E+02  0.49671761898E+01  0.15447968328E+02  0.26659963703E+02  0.51100000000E-03 0.  1.
         12    1    3    3    0    0  0.28580962995E+02  0.12511165229E+02 -0.23293517035E+02  0.38935698748E+02  0.00000000000E+00 0. -1.
</event>
<event>
 7    1  0.2688173E-013  0.7246156E+02  0.7816164E-02  0.1226708E+00
        -11   -1    0    0    0    0  0.00000000000E+00  0.00000000000E+00  0.45593999997E+02  0.45594000000E+02  0.51100000000E-03 0. -1.
         11   -1    0    0    0    0 -0.00000000000E+00 -0.00000000000E+00 -0.45593999997E+02  0.45594000000E+02  0.51100000000E-03 0.  1.
    9900012    2    1    2    0    0 -0.74390862167E+01 -0.16925631388E+02  0.29769952995E+01  0.72461561400E+02  0.69999988414E+02 0.  0.
        -12    1    1    2    0    0  0.74390862167E+01  0.16925631388E+02 -0.29769952995E+01  0.18726438600E+02  0.00000000000E+00 0.  1.
         11    1    3    3    0    0  0.63728621837E+01  0.68438646918E+01  0.86953878632E+01  0.12769558594E+02  0.51100000000E-03 0. -1.
        -11    1    3    3    0    0  0.19215731019E+02 -0.14830900494E+02 -0.75688768869E+01  0.25426124865E+02  0.51100000000E-03 0.  1.
         12    1    3    3    0    0 -0.33027679419E+02 -0.89385955858E+01  0.18504843233E+01  0.34265877942E+02  0.00000000000E+00 0. -1.
</event>
<event>
 7    1  0.2688173E-013  0.7246150E+02  0.7816164E-02  0.1226708E+00
        -11   -1    0    0    0    0  0.00000000000E+00  0.00000000000E+00  0.45593999997E+02  0.45594000000E+02  0.51100000000E-03 0.  1.
         11   -1    0    0    0    0 -0.00000000000E+00 -0.00000000000E+00 -0.45593999997E+02  0.45594000000E+02  0.51100000000E-03 0. -1.
    9900012    2    1    2    0    0 -0.18650419248E+02 -0.11533191950E+01 -0.12302620421E+01  0.72461499313E+02  0.69999907534E+02 0.  0.
        -12    1    1    2    0    0  0.18650419248E+02  0.11533191950E+01  0.12302620421E+01  0.18726500687E+02  0.00000000000E+00 0.  1.
         11    1    3    3    0    0  0.14501675674E+02  0.73493099269E+01  0.11088393534E+02  0.19679009761E+02  0.51100000000E-03 0.  1.
        -11    1    3    3    0    0 -0.27576980414E+02  0.11652656871E+02 -0.37064749639E+01  0.30166408766E+02  0.51100000000E-03 0. -1.
         12    1    3    3    0    0 -0.55751145083E+01 -0.20155285993E+02 -0.86121806121E+01  0.22616080786E+02  0.00000000000E+00 0. -1.
</event>
<event>
 7    1  0.2688173E-013  0.7246157E+02  0.7816164E-02  0.1226708E+00
        -11   -1    0    0    0    0  0.00000000000E+00  0.00000000000E+00  0.45593999997E+02  0.45594000000E+02  0.51100000000E-03 0.  1.
         11   -1    0    0    0    0 -0.00000000000E+00 -0.00000000000E+00 -0.45593999997E+02  0.45594000000E+02  0.51100000000E-03 0. -1.
    9900012    2    1    2    0    0  0.13169054185E+02  0.77411505276E+01  0.10831892822E+02  0.72461566764E+02  0.69999995401E+02 0.  0.
        -12    1    1    2    0    0 -0.13169054185E+02 -0.77411505276E+01 -0.10831892822E+02  0.18726433236E+02  0.00000000000E+00 0.  1.
         11    1    3    3    0    0 -0.15411095128E+02 -0.14127643094E+02 -0.49601911613E+01  0.21487104250E+02  0.51100000000E-03 0. -1.
        -11    1    3    3    0    0 -0.70638412897E+01  0.48698060524E+01  0.54081980800E+01  0.10142064459E+02  0.51100000000E-03 0.  1.
         12    1    3    3    0    0  0.35643990603E+02  0.16998987570E+02  0.10383885903E+02  0.40832398055E+02  0.00000000000E+00 0. -1.
</event>
<event>
 7    1  0.2688173E-013  0.7246170E+02  0.7816164E-02  0.1226708E+00
        -11   -1    0    0    0    0  0.00000000000E+00  0.00000000000E+00  0.45593999997E+02  0.45594000000E+02  0.51100000000E-03 0. -1.
         11   -1    0    0    0    0 -0.00000000000E+00 -0.00000000000E+00 -0.45593999997E+02  0.45594000000E+02  0.51100000000E-03 0.  1.
    9900012    2    1    2    0    0  0.70864199550E+01  0.13347029501E+02 -0.11059552594E+02  0.72461701704E+02  0.70000171185E+02 0.  0.
        -12    1    1    2    0    0 -0.70864199550E+01 -0.13347029501E+02  0.11059552594E+02  0.18726298296E+02  0.00000000000E+00 0.  1.
         11    1    3    3    0    0 -0.77201909121E+01  0.20129633600E+02  0.66240369012E+01  0.22553965543E+02  0.51100000000E-03 0. -1.
        -11    1    3    3    0    0  0.20548775674E+02  0.12051684014E+02 -0.58445124542E+00  0.23829327577E+02  0.51100000000E-03 0.  1.
        -12    1    3    3    0    0 -0.57421648069E+01 -0.18834288112E+02 -0.17099138250E+02  0.26078408584E+02  0.00000000000E+00 0.  1.
</event>
<event>
 7    1  0.2688173E-013  0.7246150E+02  0.7816164E-02  0.1226708E+00
        -11   -1    0    0    0    0  0.00000000000E+00  0.00000000000E+00  0.45593999997E+02  0.45594000000E+02  0.51100000000E-03 0. -1.
         11   -1    0    0    0    0 -0.00000000000E+00 -0.00000000000E+00 -0.45593999997E+02  0.45594000000E+02  0.51100000000E-03 0.  1.
    9900012    2    1    2    0    0  0.91516682041E+01  0.29890801865E+01 -0.16062202029E+02  0.72461495647E+02  0.69999902758E+02 0.  0.
        -12    1    1    2    0    0 -0.91516682041E+01 -0.29890801865E+01  0.16062202029E+02  0.18726504353E+02  0.00000000000E+00 0.  1.
         11    1    3    3    0    0  0.57822801320E+01  0.73965597836E+01  0.71418078858E+01  0.11796155318E+02  0.51100000000E-03 0. -1.
        -11    1    3    3    0    0 -0.12791887712E+02 -0.13497553379E+02  0.11109832930E+02  0.21662057299E+02  0.51100000000E-03 0.  1.
         12    1    3    3    0    0  0.16161275784E+02  0.90900737817E+01 -0.34313842844E+02  0.39003283029E+02  0.00000000000E+00 0. -1.
</event>
<event>
 7    1  0.2688173E-013  0.7246154E+02  0.7816164E-02  0.1226708E+00
        -11   -1    0    0    0    0  0.00000000000E+00  0.00000000000E+00  0.45593999997E+02  0.45594000000E+02  0.51100000000E-03 0. -1.
         11   -1    0    0    0    0 -0.00000000000E+00 -0.00000000000E+00 -0.45593999997E+02  0.45594000000E+02  0.51100000000E-03 0.  1.
    9900012    2    1    2    0    0 -0.76628193970E+01  0.15043306567E+02 -0.81031068913E+01  0.72461542383E+02  0.69999963640E+02 0.  0.
        -12    1    1    2    0    0  0.76628193970E+01 -0.15043306567E+02  0.81031068913E+01  0.18726457617E+02  0.00000000000E+00 0.  1.
         11    1    3    3    0    0 -0.19234764735E+01 -0.94403441199E+01 -0.90688098797E+01  0.13231144007E+02  0.51100000000E-03 0. -1.
        -11    1    3    3    0    0  0.15516351592E+02 -0.10056888979E+02 -0.18091893972E+01  0.18578787614E+02  0.51100000000E-03 0.  1.
         12    1    3    3    0    0 -0.21255694515E+02  0.34540539667E+02  0.27748923856E+01  0.40651610762E+02  0.00000000000E+00 0. -1.
</event>
<event>
 7    1  0.2688173E-013  0.7246150E+02  0.7816164E-02  0.1226708E+00
        -11   -1    0    0    0    0  0.00000000000E+00  0.00000000000E+00  0.45593999997E+02  0.45594000000E+02  0.51100000000E-03 0. -1.
         11   -1    0    0    0    0 -0.00000000000E+00 -0.00000000000E+00 -0.45593999997E+02  0.45594000000E+02  0.51100000000E-03 0.  1.
    9900012    2    1    2    0    0  0.51938878508E+01 -0.10346816020E+02  0.14718992507E+02  0.72461499708E+02  0.69999908048E+02 0.  0.
        -12    1    1    2    0    0 -0.51938878508E+01  0.10346816020E+02 -0.14718992507E+02  0.18726500292E+02  0.00000000000E+00 0.  1.
         11    1    3    3    0    0  0.62995083151E+01  0.34933555418E+00  0.57132083843E+01  0.85115562998E+01  0.51100000000E-03 0. -1.
        -11    1    3    3    0    0  0.14025943335E+02  0.22444871048E+02  0.74025605774E+01  0.27482671380E+02  0.51100000000E-03 0.  1.
        -12    1    3    3    0    0 -0.15131563799E+02 -0.33141022623E+02  0.16032235450E+01  0.36467272029E+02  0.00000000000E+00 0.  1.
</event>
<event>
 7    1  0.2688173E-013  0.7246156E+02  0.7816164E-02  0.1226708E+00
        -11   -1    0    0    0    0  0.00000000000E+00  0.00000000000E+00  0.45593999997E+02  0.45594000000E+02  0.51100000000E-03 0.  1.
         11   -1    0    0    0    0 -0.00000000000E+00 -0.00000000000E+00 -0.45593999997E+02  0.45594000000E+02  0.51100000000E-03 0. -1.
    9900012    2    1    2    0    0  0.33146465487E+01  0.87700757111E+01 -0.16210441311E+02  0.72461561011E+02  0.69999987906E+02 0.  0.
        -12    1    1    2    0    0 -0.33146465487E+01 -0.87700757111E+01  0.16210441311E+02  0.18726438989E+02  0.00000000000E+00 0.  1.
         11    1    3    3    0    0 -0.12740832424E+02  0.84752643735E+01  0.29700125853E+01  0.15587812292E+02  0.51100000000E-03 0. -1.
        -11    1    3    3    0    0  0.95217605342E+00  0.50318409336E+00  0.17329333657E+02  0.17362765872E+02  0.51100000000E-03 0.  1.
         12    1    3    3    0    0  0.15103302919E+02 -0.20837275574E+00 -0.36509787554E+02  0.39510982846E+02  0.00000000000E+00 0. -1.
</event>
<event>
 7    1  0.2688173E-013  0.7246157E+02  0.7816164E-02  0.1226708E+00
        -11   -1    0    0    0    0  0.00000000000E+00  0.00000000000E+00  0.45593999997E+02  0.45594000000E+02  0.51100000000E-03 0.  1.
         11   -1    0    0    0    0 -0.00000000000E+00 -0.00000000000E+00 -0.45593999997E+02  0.45594000000E+02  0.51100000000E-03 0. -1.
    9900012    2    1    2    0    0  0.12305952314E+02  0.26999607584E+01 -0.13854714621E+02  0.72461565004E+02  0.69999993108E+02 0.  0.
        -12    1    1    2    0    0 -0.12305952314E+02 -0.26999607584E+01  0.13854714621E+02  0.18726434996E+02  0.00000000000E+00 0.  1.
         11    1    3    3    0    0  0.28948641486E+01  0.62155036627E+00 -0.22467325707E+02  0.22661581763E+02  0.51100000000E-03 0. -1.
        -11    1    3    3    0    0  0.73928242918E+01 -0.19883597951E+02  0.15967568981E+02  0.26551357364E+02  0.51100000000E-03 0.  1.
         12    1    3    3    0    0  0.20182638735E+01  0.21962008343E+02 -0.73549578944E+01  0.23248625876E+02  0.00000000000E+00 0. -1.
</event>
<event>
 7    1  0.2688173E-013  0.7246149E+02  0.7816164E-02  0.1226708E+00
        -11   -1    0    0    0    0  0.00000000000E+00  0.00000000000E+00  0.45593999997E+02  0.45594000000E+02  0.51100000000E-03 0.  1.
         11   -1    0    0    0    0 -0.00000000000E+00 -0.00000000000E+00 -0.45593999997E+02  0.45594000000E+02  0.51100000000E-03 0. -1.
    9900012    2    1    2    0    0  0.69184048253E+01 -0.39567527863E+01 -0.16945849382E+02  0.72461493940E+02  0.69999900534E+02 0.  0.
        -12    1    1    2    0    0 -0.69184048253E+01  0.39567527863E+01  0.16945849382E+02  0.18726506060E+02  0.00000000000E+00 0.  1.
         11    1    3    3    0    0  0.21492575574E+01 -0.61683832263E+00  0.19472931057E+00  0.22444859834E+01  0.51100000000E-03 0. -1.
        -11    1    3    3    0    0  0.20632630709E+02 -0.91919182028E+01  0.19514642579E+02  0.29849926055E+02  0.51100000000E-03 0.  1.
         12    1    3    3    0    0 -0.15863483441E+02  0.58520037391E+01 -0.36655221273E+02  0.40367081901E+02  0.00000000000E+00 0. -1.
</event>
<event>
 7    1  0.2688173E-013  0.7246157E+02  0.7816164E-02  0.1226708E+00
        -11   -1    0    0    0    0  0.00000000000E+00  0.00000000000E+00  0.45593999997E+02  0.45594000000E+02  0.51100000000E-03 0. -1.
         11   -1    0    0    0    0 -0.00000000000E+00 -0.00000000000E+00 -0.45593999997E+02  0.45594000000E+02  0.51100000000E-03 0.  1.
    9900012    2    1    2    0    0 -0.15890018948E+02  0.27416889488E+01  0.95220602489E+01  0.72461569698E+02  0.69999999223E+02 0.  0.
        -12    1    1    2    0    0  0.15890018948E+02 -0.27416889488E+01 -0.95220602489E+01  0.18726430302E+02  0.00000000000E+00 0.  1.
         11    1    3    3    0    0  0.58796753693E+01 -0.82635143520E+01  0.26928579419E+02  0.28775069795E+02  0.51100000000E-03 0. -1.
        -11    1    3    3    0    0  0.41769722474E+01 -0.71597689639E+01 -0.23445499430E+01  0.86143080667E+01  0.51100000000E-03 0.  1.
        -12    1    3    3    0    0 -0.25946666565E+02  0.18164972265E+02 -0.15061969227E+02  0.35072191837E+02  0.00000000000E+00 0.  1.
</event>
<event>
 7    1  0.2688173E-013  0.7246162E+02  0.7816164E-02  0.1226708E+00
        -11   -1    0    0    0    0  0.00000000000E+00  0.00000000000E+00  0.45593999997E+02  0.45594000000E+02  0.51100000000E-03 0. -1.
         11   -1    0    0    0    0 -0.00000000000E+00 -0.00000000000E+00 -0.45593999997E+02  0.45594000000E+02  0.51100000000E-03 0.  1.
    9900012    2    1    2    0    0  0.83522437533E+01  0.16252990919E+02 -0.40936270306E+01  0.72461615624E+02  0.70000059050E+02 0.  0.
        -12    1    1    2    0    0 -0.83522437533E+01 -0.16252990919E+02  0.40936270306E+01  0.18726384376E+02  0.00000000000E+00 0.  1.
         11    1    3    3    0    0 -0.10055925827E+02  0.29475106491E+01 -0.12186091480E+02  0.16072034379E+02  0.51100000000E-03 0. -1.
        -11    1    3    3    0    0  0.78904685775E+01  0.17168645127E+02 -0.19168554052E+02  0.26915707952E+02  0.51100000000E-03 0.  1.
         12    1    3    3    0    0  0.10517701003E+02 -0.38631648564E+01  0.27261018502E+02  0.29473873292E+02  0.00000000000E+00 0. -1.
</event>
<event>
 7    1  0.2688173E-013  0.7246156E+02  0.7816164E-02  0.1226708E+00
        -11   -1    0    0    0    0  0.00000000000E+00  0.00000000000E+00  0.45593999997E+02  0.45594000000E+02  0.51100000000E-03 0.  1.
         11   -1    0    0    0    0 -0.00000000000E+00 -0.00000000000E+00 -0.45593999997E+02  0.45594000000E+02  0.51100000000E-03 0. -1.
    9900012    2    1    2    0    0  0.16895615028E+02  0.45720943716E+01 -0.66568484203E+01  0.72461561871E+02  0.69999989027E+02 0.  0.
        -12    1    1    2    0    0 -0.16895615028E+02 -0.45720943716E+01  0.66568484203E+01  0.18726438129E+02  0.00000000000E+00 0.  1.
         11    1    3    3    0    0  0.13516943940E+02 -0.24139837603E+02 -0.24918729053E+01  0.27778570226E+02  0.51100000000E-03 0. -1.
        -11    1    3    3    0    0 -0.65381268232E+01 -0.53012413210E+01 -0.38408575697E+01  0.92521591551E+01  0.51100000000E-03 0.  1.
         12    1    3    3    0    0  0.99167979106E+01  0.34013173296E+02 -0.32411794526E+00  0.35430832489E+02  0.00000000000E+00 0. -1.
</event>
<event>
 7    1  0.2688173E-013  0.7246154E+02  0.7816164E-02  0.1226708E+00
        -11   -1    0    0    0    0  0.00000000000E+00  0.00000000000E+00  0.45593999997E+02  0.45594000000E+02  0.51100000000E-03 0. -1.
         11   -1    0    0    0    0 -0.00000000000E+00 -0.00000000000E+00 -0.45593999997E+02  0.45594000000E+02  0.51100000000E-03 0.  1.
    9900012    2    1    2    0    0  0.38420605110E+01 -0.17698492141E+02  0.47625715176E+01  0.72461544369E+02  0.69999966227E+02 0.  0.
        -12    1    1    2    0    0 -0.38420605110E+01  0.17698492141E+02 -0.47625715176E+01  0.18726455631E+02  0.00000000000E+00 0.  1.
         11    1    3    3    0    0  0.14368203482E+02 -0.30590448071E+02  0.37371398152E+01  0.34002749871E+02  0.51100000000E-03 0. -1.
        -11    1    3    3    0    0  0.88363385502E+00 -0.11203350864E+02  0.32701194188E+01  0.11704253955E+02  0.51100000000E-03 0.  1.
         12    1    3    3    0    0 -0.11409776826E+02  0.24095306794E+02 -0.22446877164E+01  0.26754540543E+02  0.00000000000E+00 0. -1.
</event>
<event>
 7    1  0.2688173E-013  0.7246157E+02  0.7816164E-02  0.1226708E+00
        -11   -1    0    0    0    0  0.00000000000E+00  0.00000000000E+00  0.45593999997E+02  0.45594000000E+02  0.51100000000E-03 0.  1.
         11   -1    0    0    0    0 -0.00000000000E+00 -0.00000000000E+00 -0.45593999997E+02  0.45594000000E+02  0.51100000000E-03 0. -1.
    9900012    2    1    2    0    0 -0.13913591036E+02  0.94326033445E+01 -0.82533101782E+01  0.72461570808E+02  0.70000000670E+02 0.  0.
        -12    1    1    2    0    0  0.13913591036E+02 -0.94326033445E+01  0.82533101782E+01  0.18726429192E+02  0.00000000000E+00 0.  1.
         11    1    3    3    0    0 -0.97819310989E+00  0.85372924660E+01  0.79438239408E+01  0.11702416993E+02  0.51100000000E-03 0.  1.
        -11    1    3    3    0    0 -0.93484261834E+01 -0.21295993020E+02  0.10787957221E+02  0.25637714642E+02  0.51100000000E-03 0. -1.
         12    1    3    3    0    0 -0.35869717429E+01  0.22191303899E+02 -0.26985091340E+02  0.35121439173E+02  0.00000000000E+00 0. -1.
</event>
<event>
 7    1  0.2688173E-013  0.7246152E+02  0.7816164E-02  0.1226708E+00
        -11   -1    0    0    0    0  0.00000000000E+00  0.00000000000E+00  0.45593999997E+02  0.45594000000E+02  0.51100000000E-03 0.  1.
         11   -1    0    0    0    0 -0.00000000000E+00 -0.00000000000E+00 -0.45593999997E+02  0.45594000000E+02  0.51100000000E-03 0. -1.
    9900012    2    1    2    0    0 -0.14848286297E+02  0.58769357979E+01  0.97811539373E+01  0.72461522684E+02  0.69999937979E+02 0.  0.
        -12    1    1    2    0    0  0.14848286297E+02 -0.58769357979E+01 -0.97811539373E+01  0.18726477316E+02  0.00000000000E+00 0.  1.
         11    1    3    3    0    0  0.13004153035E+01  0.82217630820E+00 -0.76986721335E+01  0.78508984660E+01  0.51100000000E-03 0. -1.
        -11    1    3    3    0    0  0.22341040883E+02 -0.38109277082E+01  0.52630960049E+01  0.23266831704E+02  0.51100000000E-03 0.  1.
         12    1    3    3    0    0 -0.38489742483E+02  0.88656871979E+01  0.12216730066E+02  0.41343792514E+02  0.00000000000E+00 0. -1.
</event>
<event>
 7    1  0.2688173E-013  0.7246159E+02  0.7816164E-02  0.1226708E+00
        -11   -1    0    0    0    0  0.00000000000E+00  0.00000000000E+00  0.45593999997E+02  0.45594000000E+02  0.51100000000E-03 0.  1.
         11   -1    0    0    0    0 -0.00000000000E+00 -0.00000000000E+00 -0.45593999997E+02  0.45594000000E+02  0.51100000000E-03 0. -1.
    9900012    2    1    2    0    0  0.95899429582E+01 -0.11079025238E+02 -0.11660479905E+02  0.72461585560E+02  0.70000019887E+02 0.  0.
        -12    1    1    2    0    0 -0.95899429582E+01  0.11079025238E+02  0.11660479905E+02  0.18726414440E+02  0.00000000000E+00 0.  1.
         11    1    3    3    0    0 -0.43479985488E+01  0.11138953310E+01 -0.34629872070E+02  0.34919534562E+02  0.51100000000E-03 0. -1.
        -11    1    3    3    0    0 -0.49189217864E+01  0.44250857570E+00 -0.41065273676E+00  0.49558290237E+01  0.51100000000E-03 0.  1.
        -12    1    3    3    0    0  0.18856863293E+02 -0.12635429144E+02  0.23380044902E+02  0.32586221974E+02  0.00000000000E+00 0.  1.
</event>
<event>
 7    1  0.2688173E-013  0.7246164E+02  0.7816164E-02  0.1226708E+00
        -11   -1    0    0    0    0  0.00000000000E+00  0.00000000000E+00  0.45593999997E+02  0.45594000000E+02  0.51100000000E-03 0. -1.
         11   -1    0    0    0    0 -0.00000000000E+00 -0.00000000000E+00 -0.45593999997E+02  0.45594000000E+02  0.51100000000E-03 0.  1.
    9900012    2    1    2    0    0 -0.13204217801E+02  0.71215164695E+01  0.11207551213E+02  0.72461639736E+02  0.70000090460E+02 0.  0.
        -12    1    1    2    0    0  0.13204217801E+02 -0.71215164695E+01 -0.11207551213E+02  0.18726360264E+02  0.00000000000E+00 0.  1.
         11    1    3    3    0    0  0.16466334817E+02  0.17919338374E+02  0.20004657037E+02  0.31502843895E+02  0.51100000000E-03 0. -1.
        -11    1    3    3    0    0 -0.64892371578E+01  0.78979493910E+01 -0.22222332761E+01  0.10460694263E+02  0.51100000000E-03 0.  1.
        -12    1    3    3    0    0 -0.23181315460E+02 -0.18695771295E+02 -0.65748725480E+01  0.30498101577E+02  0.00000000000E+00 0.  1.
</event>
<event>
 7    1  0.2688173E-013  0.7246152E+02  0.7816164E-02  0.1226708E+00
        -11   -1    0    0    0    0  0.00000000000E+00  0.00000000000E+00  0.45593999997E+02  0.45594000000E+02  0.51100000000E-03 0.  1.
         11   -1    0    0    0    0 -0.00000000000E+00 -0.00000000000E+00 -0.45593999997E+02  0.45594000000E+02  0.51100000000E-03 0. -1.
    9900012    2    1    2    0    0 -0.50728527030E+01  0.17081346784E+02  0.57597562085E+01  0.72461520510E+02  0.69999935146E+02 0.  0.
        -12    1    1    2    0    0  0.50728527030E+01 -0.17081346784E+02 -0.57597562085E+01  0.18726479490E+02  0.00000000000E+00 0.  1.
         11    1    3    3    0    0  0.75038550608E+01 -0.86264317896E+01  0.86280613304E+01  0.14323638113E+02  0.51100000000E-03 0. -1.
        -11    1    3    3    0    0 -0.10333610086E+02 -0.11605912894E+02  0.10143165291E+02  0.18557061025E+02  0.51100000000E-03 0.  1.
         12    1    3    3    0    0 -0.22430976777E+01  0.37313691468E+02 -0.13011470413E+02  0.39580821372E+02  0.00000000000E+00 0. -1.
</event>
<event>
 7    1  0.2688173E-013  0.7246133E+02  0.7816164E-02  0.1226709E+00
        -11   -1    0    0    0    0  0.00000000000E+00  0.00000000000E+00  0.45593999997E+02  0.45594000000E+02  0.51100000000E-03 0. -1.
         11   -1    0    0    0    0 -0.00000000000E+00 -0.00000000000E+00 -0.45593999997E+02  0.45594000000E+02  0.51100000000E-03 0.  1.
    9900012    2    1    2    0    0 -0.18358659117E+02 -0.31813580273E+01  0.18779959768E+01  0.72461327248E+02  0.69999683386E+02 0.  0.
        -12    1    1    2    0    0  0.18358659117E+02  0.31813580273E+01 -0.18779959768E+01  0.18726672752E+02  0.00000000000E+00 0.  1.
         11    1    3    3    0    0  0.77726269314E+01 -0.86419356339E+01  0.59091664414E+01  0.13038981142E+02  0.51100000000E-03 0. -1.
        -11    1    3    3    0    0 -0.41733846434E+02 -0.24187127464E+01 -0.30841222497E+01  0.41917489427E+02  0.51100000000E-03 0.  1.
         12    1    3    3    0    0  0.15602560385E+02  0.78792903531E+01 -0.94704821486E+00  0.17504856680E+02  0.00000000000E+00 0. -1.
</event>
<event>
 7    1  0.2688173E-013  0.7246157E+02  0.7816164E-02  0.1226708E+00
        -11   -1    0    0    0    0  0.00000000000E+00  0.00000000000E+00  0.45593999997E+02  0.45594000000E+02  0.51100000000E-03 0. -1.
         11   -1    0    0    0    0 -0.00000000000E+00 -0.00000000000E+00 -0.45593999997E+02  0.45594000000E+02  0.51100000000E-03 0.  1.
    9900012    2    1    2    0    0  0.14864099524E+02  0.97350229155E+00  0.11348568186E+02  0.72461570516E+02  0.70000000288E+02 0.  0.
        -12    1    1    2    0    0 -0.14864099524E+02 -0.97350229155E+00 -0.11348568186E+02  0.18726429484E+02  0.00000000000E+00 0.  1.
         11    1    3    3    0    0 -0.77022861181E+01 -0.99569818971E+01 -0.19631705651E+02  0.23321032716E+02  0.51100000000E-03 0. -1.
        -11    1    3    3    0    0  0.77209724071E+01  0.72664983363E+01 -0.37074351891E+01  0.11232118630E+02  0.51100000000E-03 0.  1.
         12    1    3    3    0    0  0.14845413234E+02  0.36639858524E+01  0.34687709026E+02  0.37908419169E+02  0.00000000000E+00 0. -1.
</event>
<event>
 7    1  0.2688173E-013  0.7246158E+02  0.7816164E-02  0.1226708E+00
        -11   -1    0    0    0    0  0.00000000000E+00  0.00000000000E+00  0.45593999997E+02  0.45594000000E+02  0.51100000000E-03 0. -1.
         11   -1    0    0    0    0 -0.00000000000E+00 -0.00000000000E+00 -0.45593999997E+02  0.45594000000E+02  0.51100000000E-03 0.  1.
    9900012    2    1    2    0    0 -0.11981686858E+02 -0.76130190235E+01  0.12213103472E+02  0.72461580827E+02  0.70000013721E+02 0.  0.
        -12    1    1    2    0    0  0.11981686858E+02  0.76130190235E+01 -0.12213103472E+02  0.18726419173E+02  0.00000000000E+00 0.  1.
         11    1    3    3    0    0  0.60280136862E+01 -0.72998052519E+01 -0.88265235036E+01  0.12943400756E+02  0.51100000000E-03 0. -1.
        -11    1    3    3    0    0 -0.10473293103E+02 -0.24747625243E+02  0.20741476176E+02  0.33946187677E+02  0.51100000000E-03 0.  1.
         12    1    3    3    0    0 -0.75364074415E+01  0.24434411472E+02  0.29815079966E+00  0.25571992394E+02  0.00000000000E+00 0. -1.
</event>
<event>
 7    1  0.2688173E-013  0.7246155E+02  0.7816164E-02  0.1226708E+00
        -11   -1    0    0    0    0  0.00000000000E+00  0.00000000000E+00  0.45593999997E+02  0.45594000000E+02  0.51100000000E-03 0. -1.
         11   -1    0    0    0    0 -0.00000000000E+00 -0.00000000000E+00 -0.45593999997E+02  0.45594000000E+02  0.51100000000E-03 0.  1.
    9900012    2    1    2    0    0  0.16695365634E+02 -0.46867820099E+01  0.70695673993E+01  0.72461549656E+02  0.69999973115E+02 0.  0.
        -12    1    1    2    0    0 -0.16695365634E+02  0.46867820099E+01 -0.70695673993E+01  0.18726450344E+02  0.00000000000E+00 0.  1.
         11    1    3    3    0    0  0.13651553180E+02  0.85537140220E+01  0.16502849371E+02  0.23062414562E+02  0.51100000000E-03 0. -1.
        -11    1    3    3    0    0 -0.30454998999E+01  0.17180234096E+02 -0.27540532260E+01  0.17664096996E+02  0.51100000000E-03 0.  1.
        -12    1    3    3    0    0  0.60893123539E+01 -0.30420730128E+02 -0.66792287461E+01  0.31735038099E+02  0.00000000000E+00 0.  1.
</event>
<event>
 7    1  0.2688173E-013  0.7246155E+02  0.7816164E-02  0.1226708E+00
        -11   -1    0    0    0    0  0.00000000000E+00  0.00000000000E+00  0.45593999997E+02  0.45594000000E+02  0.51100000000E-03 0. -1.
         11   -1    0    0    0    0 -0.00000000000E+00 -0.00000000000E+00 -0.45593999997E+02  0.45594000000E+02  0.51100000000E-03 0.  1.
    9900012    2    1    2    0    0 -0.13518705842E+02  0.90794313513E+00  0.12926727643E+02  0.72461546627E+02  0.69999969169E+02 0.  0.
        -12    1    1    2    0    0  0.13518705842E+02 -0.90794313513E+00 -0.12926727643E+02  0.18726453373E+02  0.00000000000E+00 0.  1.
         11    1    3    3    0    0 -0.91659363687E+01 -0.17576705585E+01  0.14130551432E+02  0.16934470152E+02  0.51100000000E-03 0. -1.
        -11    1    3    3    0    0 -0.22816909668E+02 -0.15454633572E+02  0.69154476668E+01  0.28412681717E+02  0.51100000000E-03 0.  1.
         12    1    3    3    0    0  0.18464140195E+02  0.18120247266E+02 -0.81192714556E+01  0.27114394758E+02  0.00000000000E+00 0. -1.
</event>
<event>
 7    1  0.2688173E-013  0.7246161E+02  0.7816164E-02  0.1226708E+00
        -11   -1    0    0    0    0  0.00000000000E+00  0.00000000000E+00  0.45593999997E+02  0.45594000000E+02  0.51100000000E-03 0. -1.
         11   -1    0    0    0    0 -0.00000000000E+00 -0.00000000000E+00 -0.45593999997E+02  0.45594000000E+02  0.51100000000E-03 0.  1.
    9900012    2    1    2    0    0 -0.37178996255E+01 -0.12519595515E+02  0.13420674501E+02  0.72461613441E+02  0.70000056206E+02 0.  0.
        -12    1    1    2    0    0  0.37178996255E+01  0.12519595515E+02 -0.13420674501E+02  0.18726386559E+02  0.00000000000E+00 0.  1.
         11    1    3    3    0    0 -0.18694845217E+02 -0.14311744235E+01  0.19915182509E+02  0.27352513459E+02  0.51100000000E-03 0. -1.
        -11    1    3    3    0    0  0.62983990930E+01 -0.25793726155E+02  0.74631123759E+00  0.26562061682E+02  0.51100000000E-03 0.  1.
        -12    1    3    3    0    0  0.86785464984E+01  0.14705305063E+02 -0.72408192451E+01  0.18547038299E+02  0.00000000000E+00 0.  1.
</event>
<event>
 7    1  0.2688173E-013  0.7246159E+02  0.7816164E-02  0.1226708E+00
        -11   -1    0    0    0    0  0.00000000000E+00  0.00000000000E+00  0.45593999997E+02  0.45594000000E+02  0.51100000000E-03 0.  1.
         11   -1    0    0    0    0 -0.00000000000E+00 -0.00000000000E+00 -0.45593999997E+02  0.45594000000E+02  0.51100000000E-03 0. -1.
    9900012    2    1    2    0    0  0.15263408626E+02  0.34350139751E+01 -0.10291135379E+02  0.72461590006E+02  0.70000025678E+02 0.  0.
        -12    1    1    2    0    0 -0.15263408626E+02 -0.34350139751E+01  0.10291135379E+02  0.18726409994E+02  0.00000000000E+00 0.  1.
         11    1    3    3    0    0  0.22914735628E+01  0.22442277321E+02 -0.45455423385E+01  0.23012357938E+02  0.51100000000E-03 0. -1.
        -11    1    3    3    0    0 -0.15455614164E+02 -0.63944035265E+01 -0.74332327126E+01  0.18303479299E+02  0.51100000000E-03 0.  1.
         12    1    3    3    0    0  0.28427549227E+02 -0.12612859820E+02  0.16876396720E+01  0.31145752769E+02  0.00000000000E+00 0. -1.
</event>
<event>
 7    1  0.2688173E-013  0.7246157E+02  0.7816164E-02  0.1226708E+00
        -11   -1    0    0    0    0  0.00000000000E+00  0.00000000000E+00  0.45593999997E+02  0.45594000000E+02  0.51100000000E-03 0. -1.
         11   -1    0    0    0    0 -0.00000000000E+00 -0.00000000000E+00 -0.45593999997E+02  0.45594000000E+02  0.51100000000E-03 0.  1.
    9900012    2    1    2    0    0 -0.46908593956E+01 -0.51188169464E+01  0.17391740834E+02  0.72461572203E+02  0.70000002486E+02 0.  0.
        -12    1    1    2    0    0  0.46908593956E+01  0.51188169464E+01 -0.17391740834E+02  0.18726427797E+02  0.00000000000E+00 0.  1.
         11    1    3    3    0    0 -0.26604411317E+02  0.20112426905E+01  0.20492573518E+02  0.33642017899E+02  0.51100000000E-03 0.  1.
        -11    1    3    3    0    0  0.18879171977E+02  0.92029755562E+01  0.28032966987E+01  0.21189062421E+02  0.51100000000E-03 0. -1.
        -12    1    3    3    0    0  0.30343799444E+01 -0.16333035193E+02 -0.59041293821E+01  0.17630491883E+02  0.00000000000E+00 0.  1.
</event>
<event>
 7    1  0.2688173E-013  0.7246167E+02  0.7816164E-02  0.1226708E+00
        -11   -1    0    0    0    0  0.00000000000E+00  0.00000000000E+00  0.45593999997E+02  0.45594000000E+02  0.51100000000E-03 0.  1.
         11   -1    0    0    0    0 -0.00000000000E+00 -0.00000000000E+00 -0.45593999997E+02  0.45594000000E+02  0.51100000000E-03 0. -1.
    9900012    2    1    2    0    0 -0.87697133418E+01 -0.54862538194E+00 -0.16536824644E+02  0.72461670108E+02  0.70000130026E+02 0.  0.
        -12    1    1    2    0    0  0.87697133418E+01  0.54862538194E+00  0.16536824644E+02  0.18726329892E+02  0.00000000000E+00 0.  1.
         11    1    3    3    0    0 -0.91019797117E+01 -0.26435648413E+01 -0.87847753863E+00  0.95187285280E+01  0.51100000000E-03 0. -1.
        -11    1    3    3    0    0 -0.37231255811E+01  0.75780063208E+01  0.22577011995E+02  0.24104134806E+02  0.51100000000E-03 0.  1.
         12    1    3    3    0    0  0.40553919509E+01 -0.54830668615E+01 -0.38235359100E+02  0.38838806774E+02  0.00000000000E+00 0. -1.
</event>
<event>
 7    1  0.2688173E-013  0.7246158E+02  0.7816164E-02  0.1226708E+00
        -11   -1    0    0    0    0  0.00000000000E+00  0.00000000000E+00  0.45593999997E+02  0.45594000000E+02  0.51100000000E-03 0.  1.
         11   -1    0    0    0    0 -0.00000000000E+00 -0.00000000000E+00 -0.45593999997E+02  0.45594000000E+02  0.51100000000E-03 0. -1.
    9900012    2    1    2    0    0  0.12259004815E+02  0.45274322176E+00 -0.14148869259E+02  0.72461583450E+02  0.70000017138E+02 0.  0.
        -12    1    1    2    0    0 -0.12259004815E+02 -0.45274322176E+00  0.14148869259E+02  0.18726416550E+02  0.00000000000E+00 0.  1.
         11    1    3    3    0    0 -0.16090607895E+02  0.18415483171E+02  0.78591807773E+01  0.25686658124E+02  0.51100000000E-03 0. -1.
        -11    1    3    3    0    0  0.21654992996E+01  0.55886255566E+01 -0.41360468332E+01  0.72821017911E+01  0.51100000000E-03 0.  1.
        -12    1    3    3    0    0  0.26184113411E+02 -0.23551365506E+02 -0.17872003203E+02  0.39492823535E+02  0.00000000000E+00 0.  1.
</event>
<event>
 7    1  0.2688173E-013  0.7246153E+02  0.7816164E-02  0.1226708E+00
        -11   -1    0    0    0    0  0.00000000000E+00  0.00000000000E+00  0.45593999997E+02  0.45594000000E+02  0.51100000000E-03 0.  1.
         11   -1    0    0    0    0 -0.00000000000E+00 -0.00000000000E+00 -0.45593999997E+02  0.45594000000E+02  0.51100000000E-03 0. -1.
    9900012    2    1    2    0    0  0.13212848888E+02 -0.41382851733E+01  0.12608568420E+02  0.72461527361E+02  0.69999944072E+02 0.  0.
        -12    1    1    2    0    0 -0.13212848888E+02  0.41382851733E+01 -0.12608568420E+02  0.18726472639E+02  0.00000000000E+00 0.  1.
         11    1    3    3    0    0  0.25539838586E+02 -0.18523613898E+02  0.20488961374E+02  0.37619212715E+02  0.51100000000E-03 0. -1.
        -11    1    3    3    0    0 -0.49004357191E+01 -0.82006854081E+01 -0.53054280821E+01  0.10927629148E+02  0.51100000000E-03 0.  1.
        -12    1    3    3    0    0 -0.74265539793E+01  0.22586014133E+02 -0.25749648721E+01  0.23914685499E+02  0.00000000000E+00 0.  1.
</event>
<event>
 7    1  0.2688173E-013  0.7246157E+02  0.7816164E-02  0.1226708E+00
        -11   -1    0    0    0    0  0.00000000000E+00  0.00000000000E+00  0.45593999997E+02  0.45594000000E+02  0.51100000000E-03 0.  1.
         11   -1    0    0    0    0 -0.00000000000E+00 -0.00000000000E+00 -0.45593999997E+02  0.45594000000E+02  0.51100000000E-03 0. -1.
    9900012    2    1    2    0    0 -0.13293140775E+02 -0.88714287589E+01 -0.97606101791E+01  0.72461565450E+02  0.69999993689E+02 0.  0.
        -12    1    1    2    0    0  0.13293140775E+02  0.88714287589E+01  0.97606101791E+01  0.18726434550E+02  0.00000000000E+00 0.  1.
         11    1    3    3    0    0  0.15133272284E+02  0.61518880964E+01 -0.21796079373E+02  0.27238405486E+02  0.51100000000E-03 0. -1.
        -11    1    3    3    0    0  0.49542035380E+01 -0.66657507530E+01 -0.11257918362E+01  0.83811558461E+01  0.51100000000E-03 0.  1.
        -12    1    3    3    0    0 -0.33380616597E+02 -0.83575661023E+01  0.13161261030E+02  0.36842004118E+02  0.00000000000E+00 0.  1.
</event>
<event>
 7    1  0.2688173E-013  0.7246148E+02  0.7816164E-02  0.1226708E+00
        -11   -1    0    0    0    0  0.00000000000E+00  0.00000000000E+00  0.45593999997E+02  0.45594000000E+02  0.51100000000E-03 0.  1.
         11   -1    0    0    0    0 -0.00000000000E+00 -0.00000000000E+00 -0.45593999997E+02  0.45594000000E+02  0.51100000000E-03 0. -1.
    9900012    2    1    2    0    0  0.27510019868E+01 -0.79792815367E+01 -0.16716630673E+02  0.72461476382E+02  0.69999877661E+02 0.  0.
        -12    1    1    2    0    0 -0.27510019868E+01  0.79792815367E+01  0.16716630673E+02  0.18726523618E+02  0.00000000000E+00 0.  1.
         11    1    3    3    0    0 -0.16514164825E+02  0.15851401403E+02  0.43108774675E+01  0.23293094064E+02  0.51100000000E-03 0.  1.
        -11    1    3    3    0    0 -0.66063989610E+01  0.21477206935E+01 -0.89432588309E-01  0.69473167379E+01  0.51100000000E-03 0. -1.
        -12    1    3    3    0    0  0.25871565772E+02 -0.25978403633E+02 -0.20938075552E+02  0.42221065579E+02  0.00000000000E+00 0.  1.
</event>
<event>
 7    1  0.2688173E-013  0.7246157E+02  0.7816164E-02  0.1226708E+00
        -11   -1    0    0    0    0  0.00000000000E+00  0.00000000000E+00  0.45593999997E+02  0.45594000000E+02  0.51100000000E-03 0. -1.
         11   -1    0    0    0    0 -0.00000000000E+00 -0.00000000000E+00 -0.45593999997E+02  0.45594000000E+02  0.51100000000E-03 0.  1.
    9900012    2    1    2    0    0  0.28830466136E+01 -0.12815058777E+02  0.13346971971E+02  0.72461565475E+02  0.69999993722E+02 0.  0.
        -12    1    1    2    0    0 -0.28830466136E+01  0.12815058777E+02 -0.13346971971E+02  0.18726434525E+02  0.00000000000E+00 0.  1.
         11    1    3    3    0    0  0.25206928521E+01 -0.93420683218E+00 -0.26237445070E+01  0.37564172238E+01  0.51100000000E-03 0. -1.
        -11    1    3    3    0    0  0.18085308196E+02 -0.27961886582E+02 -0.86131723438E+01  0.34396688967E+02  0.51100000000E-03 0.  1.
         12    1    3    3    0    0 -0.17722954434E+02  0.16081034638E+02  0.24583888822E+02  0.34308459285E+02  0.00000000000E+00 0. -1.
</event>
<event>
 7    1  0.2688173E-013  0.7246162E+02  0.7816164E-02  0.1226708E+00
        -11   -1    0    0    0    0  0.00000000000E+00  0.00000000000E+00  0.45593999997E+02  0.45594000000E+02  0.51100000000E-03 0.  1.
         11   -1    0    0    0    0 -0.00000000000E+00 -0.00000000000E+00 -0.45593999997E+02  0.45594000000E+02  0.51100000000E-03 0. -1.
    9900012    2    1    2    0    0  0.88717534737E+01  0.99068478466E+01 -0.13184214359E+02  0.72461624157E+02  0.70000070166E+02 0.  0.
        -12    1    1    2    0    0 -0.88717534737E+01 -0.99068478466E+01  0.13184214359E+02  0.18726375843E+02  0.00000000000E+00 0.  1.
         11    1    3    3    0    0  0.32932645456E+01 -0.12942664416E+02  0.74129305659E+01  0.15274478498E+02  0.51100000000E-03 0. -1.
        -11    1    3    3    0    0  0.35380917504E+01  0.21373740638E+02  0.11815293768E+02  0.24677034854E+02  0.51100000000E-03 0.  1.
         12    1    3    3    0    0  0.20403971778E+01  0.14757716244E+01 -0.32412438693E+02  0.32510110805E+02  0.00000000000E+00 0. -1.
</event>
<event>
 7    1  0.2688173E-013  0.7246157E+02  0.7816164E-02  0.1226708E+00
        -11   -1    0    0    0    0  0.00000000000E+00  0.00000000000E+00  0.45593999997E+02  0.45594000000E+02  0.51100000000E-03 0.  1.
         11   -1    0    0    0    0 -0.00000000000E+00 -0.00000000000E+00 -0.45593999997E+02  0.45594000000E+02  0.51100000000E-03 0. -1.
    9900012    2    1    2    0    0 -0.74545675882E+01 -0.13961239711E+02 -0.10009621786E+02  0.72461566263E+02  0.69999994748E+02 0.  0.
        -12    1    1    2    0    0  0.74545675882E+01  0.13961239711E+02  0.10009621786E+02  0.18726433737E+02  0.00000000000E+00 0.  1.
         11    1    3    3    0    0 -0.11025097898E+01  0.11153862088E+02 -0.94700671830E+01  0.14673320688E+02  0.51100000000E-03 0. -1.
        -11    1    3    3    0    0 -0.18905515997E+02  0.46579684800E+01 -0.12719689355E+02  0.23257379539E+02  0.51100000000E-03 0.  1.
        -12    1    3    3    0    0  0.12553458199E+02 -0.29773070279E+02  0.12180134752E+02  0.34530866035E+02  0.00000000000E+00 0.  1.
</event>
<event>
 7    1  0.2688173E-013  0.7246158E+02  0.7816164E-02  0.1226708E+00
        -11   -1    0    0    0    0  0.00000000000E+00  0.00000000000E+00  0.45593999997E+02  0.45594000000E+02  0.51100000000E-03 0. -1.
         11   -1    0    0    0    0 -0.00000000000E+00 -0.00000000000E+00 -0.45593999997E+02  0.45594000000E+02  0.51100000000E-03 0.  1.
    9900012    2    1    2    0    0 -0.11431246881E+02  0.50655936910E+01 -0.13940779824E+02  0.72461575173E+02  0.70000006355E+02 0.  0.
        -12    1    1    2    0    0  0.11431246881E+02 -0.50655936910E+01  0.13940779824E+02  0.18726424827E+02  0.00000000000E+00 0.  1.
         11    1    3    3    0    0  0.16467056478E+02  0.80963573427E+01  0.17117181436E+02  0.25094080015E+02  0.51100000000E-03 0. -1.
        -11    1    3    3    0    0 -0.10411810016E+02 -0.36894093488E+01  0.74175623239E+00  0.11071031195E+02  0.51100000000E-03 0.  1.
        -12    1    3    3    0    0 -0.17486493343E+02  0.65864569707E+00 -0.31799717492E+02  0.36296463962E+02  0.00000000000E+00 0.  1.
</event>
<event>
 7    1  0.2688173E-013  0.7246178E+02  0.7816164E-02  0.1226707E+00
        -11   -1    0    0    0    0  0.00000000000E+00  0.00000000000E+00  0.45593999997E+02  0.45594000000E+02  0.51100000000E-03 0.  1.
         11   -1    0    0    0    0 -0.00000000000E+00 -0.00000000000E+00 -0.45593999997E+02  0.45594000000E+02  0.51100000000E-03 0. -1.
    9900012    2    1    2    0    0  0.89336900380E+01  0.12089354414E+02  0.11167273146E+02  0.72461780484E+02  0.70000273811E+02 0.  0.
        -12    1    1    2    0    0 -0.89336900380E+01 -0.12089354414E+02 -0.11167273146E+02  0.18726219516E+02  0.00000000000E+00 0.  1.
         11    1    3    3    0    0  0.14617126584E+01  0.13048439113E+02  0.20866049827E+02  0.24653405501E+02  0.51100000000E-03 0. -1.
        -11    1    3    3    0    0 -0.18911371244E+02  0.53605088203E+01 -0.48942597325E+01  0.20256574136E+02  0.51100000000E-03 0.  1.
         12    1    3    3    0    0  0.26383348623E+02 -0.63195935189E+01 -0.48045169486E+01  0.27551800847E+02  0.00000000000E+00 0. -1.
</event>
<event>
 7    1  0.2688173E-013  0.7246153E+02  0.7816164E-02  0.1226708E+00
        -11   -1    0    0    0    0  0.00000000000E+00  0.00000000000E+00  0.45593999997E+02  0.45594000000E+02  0.51100000000E-03 0.  1.
         11   -1    0    0    0    0 -0.00000000000E+00 -0.00000000000E+00 -0.45593999997E+02  0.45594000000E+02  0.51100000000E-03 0. -1.
    9900012    2    1    2    0    0 -0.63394224470E+00 -0.10850746024E+02 -0.15249268682E+02  0.72461527631E+02  0.69999944423E+02 0.  0.
        -12    1    1    2    0    0  0.63394224470E+00  0.10850746024E+02  0.15249268682E+02  0.18726472369E+02  0.00000000000E+00 0.  1.
         11    1    3    3    0    0  0.68375149624E+01 -0.37354768582E+01 -0.22847264731E+02  0.24139239925E+02  0.51100000000E-03 0. -1.
        -11    1    3    3    0    0  0.18571697039E+02 -0.10493894781E+02  0.51692170813E+01  0.21948816917E+02  0.51100000000E-03 0.  1.
        -12    1    3    3    0    0 -0.26043154246E+02  0.33786256148E+01  0.24287789679E+01  0.26373470788E+02  0.00000000000E+00 0.  1.
</event>
<event>
 7    1  0.2688173E-013  0.7246204E+02  0.7816164E-02  0.1226707E+00
        -11   -1    0    0    0    0  0.00000000000E+00  0.00000000000E+00  0.45593999997E+02  0.45594000000E+02  0.51100000000E-03 0. -1.
         11   -1    0    0    0    0 -0.00000000000E+00 -0.00000000000E+00 -0.45593999997E+02  0.45594000000E+02  0.51100000000E-03 0.  1.
    9900012    2    1    2    0    0  0.69425164665E+01  0.15230677103E+02 -0.83957966354E+01  0.72462043121E+02  0.70000615941E+02 0.  0.
        -12    1    1    2    0    0 -0.69425164665E+01 -0.15230677103E+02  0.83957966354E+01  0.18725956879E+02  0.00000000000E+00 0.  1.
         11    1    3    3    0    0  0.85944670347E+01 -0.16759107534E+02 -0.17623927732E+02  0.25794095796E+02  0.51100000000E-03 0. -1.
        -11    1    3    3    0    0  0.11706853370E+01 -0.66148329668E+01  0.33831757217E+01  0.75214624616E+01  0.51100000000E-03 0.  1.
        -12    1    3    3    0    0 -0.28226359053E+01  0.38604617604E+02  0.58449553750E+01  0.39146484863E+02  0.00000000000E+00 0.  1.
</event>
<event>
 7    1  0.2688173E-013  0.7246154E+02  0.7816164E-02  0.1226708E+00
        -11   -1    0    0    0    0  0.00000000000E+00  0.00000000000E+00  0.45593999997E+02  0.45594000000E+02  0.51100000000E-03 0.  1.
         11   -1    0    0    0    0 -0.00000000000E+00 -0.00000000000E+00 -0.45593999997E+02  0.45594000000E+02  0.51100000000E-03 0. -1.
    9900012    2    1    2    0    0 -0.12203284891E+02 -0.10131234893E+02 -0.99558202071E+01  0.72461536410E+02  0.69999955860E+02 0.  0.
        -12    1    1    2    0    0  0.12203284891E+02  0.10131234893E+02  0.99558202071E+01  0.18726463590E+02  0.00000000000E+00 0.  1.
         11    1    3    3    0    0  0.45455313989E+01  0.47112822552E+01  0.37055985714E+01  0.75225991001E+01  0.51100000000E-03 0. -1.
        -11    1    3    3    0    0 -0.29557762470E+02 -0.67550141701E+01  0.14004001252E+02  0.33397658450E+02  0.51100000000E-03 0.  1.
         12    1    3    3    0    0  0.12808946180E+02 -0.80875029780E+01 -0.27665420030E+02  0.31541278860E+02  0.00000000000E+00 0. -1.
</event>
<event>
 7    1  0.2688173E-013  0.7246168E+02  0.7816164E-02  0.1226708E+00
        -11   -1    0    0    0    0  0.00000000000E+00  0.00000000000E+00  0.45593999997E+02  0.45594000000E+02  0.51100000000E-03 0. -1.
         11   -1    0    0    0    0 -0.00000000000E+00 -0.00000000000E+00 -0.45593999997E+02  0.45594000000E+02  0.51100000000E-03 0.  1.
    9900012    2    1    2    0    0 -0.17505923080E+00  0.46311976204E+01  0.18143772375E+02  0.72461678602E+02  0.70000141090E+02 0.  0.
        -12    1    1    2    0    0  0.17505923080E+00 -0.46311976204E+01 -0.18143772375E+02  0.18726321398E+02  0.00000000000E+00 0.  1.
         11    1    3    3    0    0  0.19371207371E+02  0.45608166304E+01  0.36890905021E+00  0.19904291435E+02  0.51100000000E-03 0. -1.
        -11    1    3    3    0    0 -0.64150536061E+01  0.18466251575E+02 -0.53030041938E+01  0.20255300880E+02  0.51100000000E-03 0.  1.
        -12    1    3    3    0    0 -0.13131212996E+02 -0.18395870585E+02  0.23077867518E+02  0.32302086287E+02  0.00000000000E+00 0.  1.
</event>
<event>
 7    1  0.2688173E-013  0.7246157E+02  0.7816164E-02  0.1226708E+00
        -11   -1    0    0    0    0  0.00000000000E+00  0.00000000000E+00  0.45593999997E+02  0.45594000000E+02  0.51100000000E-03 0.  1.
         11   -1    0    0    0    0 -0.00000000000E+00 -0.00000000000E+00 -0.45593999997E+02  0.45594000000E+02  0.51100000000E-03 0. -1.
    9900012    2    1    2    0    0 -0.45551050854E+01 -0.78453138987E+01 -0.16382350200E+02  0.72461565994E+02  0.69999994397E+02 0.  0.
        -12    1    1    2    0    0  0.45551050854E+01  0.78453138987E+01  0.16382350200E+02  0.18726434006E+02  0.00000000000E+00 0.  1.
         11    1    3    3    0    0  0.80834642566E+00  0.50447189880E+00  0.63811573389E+00  0.11467814925E+01  0.51100000000E-03 0. -1.
        -11    1    3    3    0    0  0.22771142094E+02  0.13625921592E+02 -0.23000861305E+02  0.35117378497E+02  0.51100000000E-03 0.  1.
         12    1    3    3    0    0 -0.28134593606E+02 -0.21975707389E+02  0.59803953703E+01  0.36197406004E+02  0.00000000000E+00 0. -1.
</event>
<event>
 7    1  0.2688173E-013  0.7246167E+02  0.7816164E-02  0.1226708E+00
        -11   -1    0    0    0    0  0.00000000000E+00  0.00000000000E+00  0.45593999997E+02  0.45594000000E+02  0.51100000000E-03 0.  1.
         11   -1    0    0    0    0 -0.00000000000E+00 -0.00000000000E+00 -0.45593999997E+02  0.45594000000E+02  0.51100000000E-03 0. -1.
    9900012    2    1    2    0    0 -0.13951273646E+02  0.39161043280E+01 -0.11861766232E+02  0.72461670739E+02  0.70000130847E+02 0.  0.
        -12    1    1    2    0    0  0.13951273646E+02 -0.39161043280E+01  0.11861766232E+02  0.18726329261E+02  0.00000000000E+00 0.  1.
         11    1    3    3    0    0 -0.18662374407E+02  0.11849492888E+02 -0.49430934796E+01  0.22652348082E+02  0.51100000000E-03 0. -1.
        -11    1    3    3    0    0 -0.14383551943E+01  0.19199656019E+02  0.44399433546E+01  0.19758763984E+02  0.51100000000E-03 0.  1.
        -12    1    3    3    0    0  0.61494559549E+01 -0.27133044579E+02 -0.11358616107E+02  0.30050558673E+02  0.00000000000E+00 0.  1.
</event>
<event>
 7    1  0.2688173E-013  0.7246168E+02  0.7816164E-02  0.1226708E+00
        -11   -1    0    0    0    0  0.00000000000E+00  0.00000000000E+00  0.45593999997E+02  0.45594000000E+02  0.51100000000E-03 0.  1.
         11   -1    0    0    0    0 -0.00000000000E+00 -0.00000000000E+00 -0.45593999997E+02  0.45594000000E+02  0.51100000000E-03 0. -1.
    9900012    2    1    2    0    0 -0.15556932367E+02 -0.93695566381E+01 -0.45681947945E+01  0.72461677886E+02  0.70000140157E+02 0.  0.
        -12    1    1    2    0    0  0.15556932367E+02  0.93695566381E+01  0.45681947945E+01  0.18726322114E+02  0.00000000000E+00 0.  1.
         11    1    3    3    0    0 -0.11136308956E+02  0.37430520525E+01  0.57941979781E+01  0.13099639167E+02  0.51100000000E-03 0.  1.
        -11    1    3    3    0    0 -0.25534433836E+02 -0.53838753618E+01 -0.21920936263E+02  0.34081092590E+02  0.51100000000E-03 0. -1.
        -12    1    3    3    0    0  0.21113810425E+02 -0.77287333288E+01  0.11558543490E+02  0.25280946129E+02  0.00000000000E+00 0.  1.
</event>
<event>
 7    1  0.2688173E-013  0.7246159E+02  0.7816164E-02  0.1226708E+00
        -11   -1    0    0    0    0  0.00000000000E+00  0.00000000000E+00  0.45593999997E+02  0.45594000000E+02  0.51100000000E-03 0.  1.
         11   -1    0    0    0    0 -0.00000000000E+00 -0.00000000000E+00 -0.45593999997E+02  0.45594000000E+02  0.51100000000E-03 0. -1.
    9900012    2    1    2    0    0 -0.54469290654E+01 -0.15483736002E+02 -0.90146129180E+01  0.72461591832E+02  0.70000028057E+02 0.  0.
        -12    1    1    2    0    0  0.54469290654E+01  0.15483736002E+02  0.90146129180E+01  0.18726408168E+02  0.00000000000E+00 0.  1.
         11    1    3    3    0    0 -0.11977054445E+02 -0.81718577195E+01 -0.11663031197E+02  0.18607938863E+02  0.51100000000E-03 0. -1.
        -11    1    3    3    0    0 -0.20498400069E+02  0.10888618407E+01  0.12322742629E+02  0.23942013526E+02  0.51100000000E-03 0.  1.
         12    1    3    3    0    0  0.27028525449E+02 -0.84007401230E+01 -0.96743243503E+01  0.29911639443E+02  0.00000000000E+00 0. -1.
</event>
<event>
 7    1  0.2688173E-013  0.7246158E+02  0.7816164E-02  0.1226708E+00
        -11   -1    0    0    0    0  0.00000000000E+00  0.00000000000E+00  0.45593999997E+02  0.45594000000E+02  0.51100000000E-03 0. -1.
         11   -1    0    0    0    0 -0.00000000000E+00 -0.00000000000E+00 -0.45593999997E+02  0.45594000000E+02  0.51100000000E-03 0.  1.
    9900012    2    1    2    0    0 -0.15292974592E+02 -0.19142318272E+01  0.10636706241E+02  0.72461578157E+02  0.70000010243E+02 0.  0.
        -12    1    1    2    0    0  0.15292974592E+02  0.19142318272E+01 -0.10636706241E+02  0.18726421843E+02  0.00000000000E+00 0.  1.
         11    1    3    3    0    0  0.84803195368E+01  0.11982798643E+02  0.23127885747E+02  0.27393473349E+02  0.51100000000E-03 0. -1.
        -11    1    3    3    0    0  0.28316273881E+01 -0.79738502310E+01  0.74675620878E+01  0.11285605211E+02  0.51100000000E-03 0.  1.
        -12    1    3    3    0    0 -0.26604921517E+02 -0.59231802389E+01 -0.19958741593E+02  0.33782499598E+02  0.00000000000E+00 0.  1.
</event>
<event>
 7    1  0.2688173E-013  0.7246157E+02  0.7816164E-02  0.1226708E+00
        -11   -1    0    0    0    0  0.00000000000E+00  0.00000000000E+00  0.45593999997E+02  0.45594000000E+02  0.51100000000E-03 0.  1.
         11   -1    0    0    0    0 -0.00000000000E+00 -0.00000000000E+00 -0.45593999997E+02  0.45594000000E+02  0.51100000000E-03 0. -1.
    9900012    2    1    2    0    0 -0.59647011116E+01 -0.12594357115E+02 -0.12509348607E+02  0.72461566996E+02  0.69999995703E+02 0.  0.
        -12    1    1    2    0    0  0.59647011116E+01  0.12594357115E+02  0.12509348607E+02  0.18726433004E+02  0.00000000000E+00 0.  1.
         11    1    3    3    0    0  0.68162151604E+01  0.18876741250E+02 -0.18489020857E+02  0.27288020116E+02  0.51100000000E-03 0. -1.
        -11    1    3    3    0    0 -0.16693633181E+01 -0.17110964057E+02 -0.10921348037E+02  0.20367810586E+02  0.51100000000E-03 0.  1.
        -12    1    3    3    0    0 -0.11111552954E+02 -0.14360134307E+02  0.16901020287E+02  0.24805736294E+02  0.00000000000E+00 0.  1.
</event>
<event>
 7    1  0.2688173E-013  0.7246155E+02  0.7816164E-02  0.1226708E+00
        -11   -1    0    0    0    0  0.00000000000E+00  0.00000000000E+00  0.45593999997E+02  0.45594000000E+02  0.51100000000E-03 0.  1.
         11   -1    0    0    0    0 -0.00000000000E+00 -0.00000000000E+00 -0.45593999997E+02  0.45594000000E+02  0.51100000000E-03 0. -1.
    9900012    2    1    2    0    0 -0.38032846762E+01  0.13366055679E+02 -0.12552432618E+02  0.72461548565E+02  0.69999971693E+02 0.  0.
        -12    1    1    2    0    0  0.38032846762E+01 -0.13366055679E+02  0.12552432618E+02  0.18726451435E+02  0.00000000000E+00 0.  1.
         11    1    3    3    0    0 -0.22376740327E+02  0.11481590404E+02 -0.69876681651E+01  0.26103121126E+02  0.51100000000E-03 0. -1.
        -11    1    3    3    0    0  0.35536751184E+00 -0.17051176377E+01 -0.21693498264E+02  0.21763308099E+02  0.51100000000E-03 0.  1.
        -12    1    3    3    0    0  0.18218088139E+02  0.35895829127E+01  0.16128733811E+02  0.24595119339E+02  0.00000000000E+00 0.  1.
</event>
<event>
 7    1  0.2688173E-013  0.7246156E+02  0.7816164E-02  0.1226708E+00
        -11   -1    0    0    0    0  0.00000000000E+00  0.00000000000E+00  0.45593999997E+02  0.45594000000E+02  0.51100000000E-03 0. -1.
         11   -1    0    0    0    0 -0.00000000000E+00 -0.00000000000E+00 -0.45593999997E+02  0.45594000000E+02  0.51100000000E-03 0.  1.
    9900012    2    1    2    0    0  0.21722608633E+01  0.13225066851E+02  0.13078925640E+02  0.72461563970E+02  0.69999991762E+02 0.  0.
        -12    1    1    2    0    0 -0.21722608633E+01 -0.13225066851E+02 -0.13078925640E+02  0.18726436030E+02  0.00000000000E+00 0.  1.
         11    1    3    3    0    0 -0.20419415661E+01 -0.94978465770E+00  0.12008991122E+02  0.12218325756E+02  0.51100000000E-03 0. -1.
        -11    1    3    3    0    0 -0.17440507574E+02  0.14403487775E+02  0.20961280515E+02  0.30838402125E+02  0.51100000000E-03 0.  1.
        -12    1    3    3    0    0  0.21654710004E+02 -0.22863626640E+00 -0.19891345997E+02  0.29404836089E+02  0.00000000000E+00 0.  1.
</event>
<event>
 7    1  0.2688173E-013  0.7246190E+02  0.7816164E-02  0.1226707E+00
        -11   -1    0    0    0    0  0.00000000000E+00  0.00000000000E+00  0.45593999997E+02  0.45594000000E+02  0.51100000000E-03 0. -1.
         11   -1    0    0    0    0 -0.00000000000E+00 -0.00000000000E+00 -0.45593999997E+02  0.45594000000E+02  0.51100000000E-03 0.  1.
    9900012    2    1    2    0    0 -0.14653825192E+02  0.11658619476E+02 -0.94319959471E-01  0.72461897974E+02  0.70000426862E+02 0.  0.
        -12    1    1    2    0    0  0.14653825192E+02 -0.11658619476E+02  0.94319959471E-01  0.18726102026E+02  0.00000000000E+00 0.  1.
         11    1    3    3    0    0 -0.15421867218E+02  0.25567851379E+02  0.23676743448E+02  0.38106917918E+02  0.51100000000E-03 0. -1.
        -11    1    3    3    0    0 -0.13322595122E+00  0.33367548316E+01 -0.14247360483E+02  0.14633487724E+02  0.51100000000E-03 0.  1.
        -12    1    3    3    0    0  0.90126797688E+00 -0.17245986735E+02 -0.95237029240E+01  0.19721492332E+02  0.00000000000E+00 0.  1.
</event>
<event>
 7    1  0.2688173E-013  0.7246154E+02  0.7816164E-02  0.1226708E+00
        -11   -1    0    0    0    0  0.00000000000E+00  0.00000000000E+00  0.45593999997E+02  0.45594000000E+02  0.51100000000E-03 0. -1.
         11   -1    0    0    0    0 -0.00000000000E+00 -0.00000000000E+00 -0.45593999997E+02  0.45594000000E+02  0.51100000000E-03 0.  1.
    9900012    2    1    2    0    0 -0.14833328447E+01 -0.61909590326E+01  0.17611137568E+02  0.72461536999E+02  0.69999956627E+02 0.  0.
        -12    1    1    2    0    0  0.14833328447E+01  0.61909590326E+01 -0.17611137568E+02  0.18726463001E+02  0.00000000000E+00 0.  1.
         11    1    3    3    0    0  0.17913347935E+01 -0.17355023727E+02 -0.17881249171E+02  0.24982890166E+02  0.51100000000E-03 0. -1.
        -11    1    3    3    0    0 -0.13016429847E+02  0.52234506695E+01  0.49479715275E+01  0.14872602508E+02  0.51100000000E-03 0.  1.
         12    1    3    3    0    0  0.97417622086E+01  0.59406140246E+01  0.30544415212E+02  0.32606044325E+02  0.00000000000E+00 0. -1.
</event>
<event>
 7    1  0.2688173E-013  0.7246185E+02  0.7816164E-02  0.1226707E+00
        -11   -1    0    0    0    0  0.00000000000E+00  0.00000000000E+00  0.45593999997E+02  0.45594000000E+02  0.51100000000E-03 0. -1.
         11   -1    0    0    0    0 -0.00000000000E+00 -0.00000000000E+00 -0.45593999997E+02  0.45594000000E+02  0.51100000000E-03 0.  1.
    9900012    2    1    2    0    0  0.10108479672E+02 -0.46015073235E+01  0.15076912901E+02  0.72461854279E+02  0.70000369942E+02 0.  0.
        -12    1    1    2    0    0 -0.10108479672E+02  0.46015073235E+01 -0.15076912901E+02  0.18726145721E+02  0.00000000000E+00 0.  1.
         11    1    3    3    0    0 -0.80033931879E+01  0.64274153434E+01 -0.13344611955E+02  0.16835814177E+02  0.51100000000E-03 0. -1.
        -11    1    3    3    0    0  0.21355481811E+02  0.10729637902E+02  0.69594635422E+01  0.24892084403E+02  0.51100000000E-03 0.  1.
         12    1    3    3    0    0 -0.32436089516E+01 -0.21758560569E+02  0.21462061314E+02  0.30733955699E+02  0.00000000000E+00 0. -1.
</event>
<event>
 7    1  0.2688173E-013  0.7246161E+02  0.7816164E-02  0.1226708E+00
        -11   -1    0    0    0    0  0.00000000000E+00  0.00000000000E+00  0.45593999997E+02  0.45594000000E+02  0.51100000000E-03 0.  1.
         11   -1    0    0    0    0 -0.00000000000E+00 -0.00000000000E+00 -0.45593999997E+02  0.45594000000E+02  0.51100000000E-03 0. -1.
    9900012    2    1    2    0    0 -0.16172026083E+02 -0.89784872370E+01 -0.29206451361E+01  0.72461606095E+02  0.70000046637E+02 0.  0.
        -12    1    1    2    0    0  0.16172026083E+02  0.89784872370E+01  0.29206451361E+01  0.18726393905E+02  0.00000000000E+00 0.  1.
         11    1    3    3    0    0 -0.16806741039E+02  0.82257460331E+01  0.12787394853E+02  0.22663779683E+02  0.51100000000E-03 0. -1.
        -11    1    3    3    0    0 -0.11529347908E+02  0.70289034262E+00  0.10635045819E+02  0.15701086518E+02  0.51100000000E-03 0.  1.
         12    1    3    3    0    0  0.12164062864E+02 -0.17907123613E+02 -0.26343085808E+02  0.34096739893E+02  0.00000000000E+00 0. -1.
</event>
<event>
 7    1  0.2688173E-013  0.7246158E+02  0.7816164E-02  0.1226708E+00
        -11   -1    0    0    0    0  0.00000000000E+00  0.00000000000E+00  0.45593999997E+02  0.45594000000E+02  0.51100000000E-03 0.  1.
         11   -1    0    0    0    0 -0.00000000000E+00 -0.00000000000E+00 -0.45593999997E+02  0.45594000000E+02  0.51100000000E-03 0. -1.
    9900012    2    1    2    0    0  0.12482377500E+02 -0.13892555080E+02 -0.13659740178E+01  0.72461582304E+02  0.70000015645E+02 0.  0.
        -12    1    1    2    0    0 -0.12482377500E+02  0.13892555080E+02  0.13659740178E+01  0.18726417696E+02  0.00000000000E+00 0.  1.
         11    1    3    3    0    0  0.21573058443E+02 -0.39374306228E+01 -0.28114908333E+02  0.35655971188E+02  0.51100000000E-03 0. -1.
        -11    1    3    3    0    0 -0.64554279068E+01  0.56339218175E+01  0.50099308570E+01  0.99253731396E+01  0.51100000000E-03 0.  1.
        -12    1    3    3    0    0 -0.26352530370E+01 -0.15589046275E+02  0.21739003458E+02  0.26880237977E+02  0.00000000000E+00 0.  1.
</event>
<event>
 7    1  0.2688173E-013  0.7246160E+02  0.7816164E-02  0.1226708E+00
        -11   -1    0    0    0    0  0.00000000000E+00  0.00000000000E+00  0.45593999997E+02  0.45594000000E+02  0.51100000000E-03 0.  1.
         11   -1    0    0    0    0 -0.00000000000E+00 -0.00000000000E+00 -0.45593999997E+02  0.45594000000E+02  0.51100000000E-03 0. -1.
    9900012    2    1    2    0    0 -0.45188735298E+01 -0.16432473385E+02  0.77609128739E+01  0.72461597031E+02  0.70000034830E+02 0.  0.
        -12    1    1    2    0    0  0.45188735298E+01  0.16432473385E+02 -0.77609128739E+01  0.18726402969E+02  0.00000000000E+00 0.  1.
         11    1    3    3    0    0  0.18249521865E+02 -0.92513842105E+01 -0.17244562932E+02  0.26758327846E+02  0.51100000000E-03 0. -1.
        -11    1    3    3    0    0 -0.33966830215E+00 -0.68541622879E+01 -0.48185817649E+01  0.83853232323E+01  0.51100000000E-03 0.  1.
        -12    1    3    3    0    0 -0.22428727092E+02 -0.32692688630E+00  0.29824057571E+02  0.37317945953E+02  0.00000000000E+00 0.  1.
</event>
<event>
 7    1  0.2688173E-013  0.7246156E+02  0.7816164E-02  0.1226708E+00
        -11   -1    0    0    0    0  0.00000000000E+00  0.00000000000E+00  0.45593999997E+02  0.45594000000E+02  0.51100000000E-03 0. -1.
         11   -1    0    0    0    0 -0.00000000000E+00 -0.00000000000E+00 -0.45593999997E+02  0.45594000000E+02  0.51100000000E-03 0.  1.
    9900012    2    1    2    0    0  0.69936197600E+01 -0.13686492631E+02  0.10698070728E+02  0.72461561065E+02  0.69999987977E+02 0.  0.
        -12    1    1    2    0    0 -0.69936197600E+01  0.13686492631E+02 -0.10698070728E+02  0.18726438935E+02  0.00000000000E+00 0.  1.
         11    1    3    3    0    0  0.17655817152E+02 -0.31587163482E+02 -0.59105175962E+01  0.36666210530E+02  0.51100000000E-03 0. -1.
        -11    1    3    3    0    0  0.64642764023E+01  0.31751883403E+01  0.98828003437E+01  0.12228590814E+02  0.51100000000E-03 0.  1.
        -12    1    3    3    0    0 -0.17126473794E+02  0.14725482510E+02  0.67257879801E+01  0.23566759721E+02  0.00000000000E+00 0.  1.
</event>
<event>
 7    1  0.2688173E-013  0.7246153E+02  0.7816164E-02  0.1226708E+00
        -11   -1    0    0    0    0  0.00000000000E+00  0.00000000000E+00  0.45593999997E+02  0.45594000000E+02  0.51100000000E-03 0.  1.
         11   -1    0    0    0    0 -0.00000000000E+00 -0.00000000000E+00 -0.45593999997E+02  0.45594000000E+02  0.51100000000E-03 0. -1.
    9900012    2    1    2    0    0  0.14948080018E+02  0.10960795462E+02  0.26639176071E+01  0.72461532357E+02  0.69999950579E+02 0.  0.
        -12    1    1    2    0    0 -0.14948080018E+02 -0.10960795462E+02 -0.26639176071E+01  0.18726467643E+02  0.00000000000E+00 0.  1.
         11    1    3    3    0    0  0.42483965924E+01 -0.19677356605E+02 -0.19378768196E+02  0.27942510510E+02  0.51100000000E-03 0. -1.
        -11    1    3    3    0    0 -0.41062697224E+01 -0.47991914977E+00  0.33082181180E+01  0.52949108397E+01  0.51100000000E-03 0.  1.
        -12    1    3    3    0    0  0.14805953148E+02  0.31118071217E+02  0.18734467685E+02  0.39224111007E+02  0.00000000000E+00 0.  1.
</event>
<event>
 7    1  0.2688173E-013  0.7246160E+02  0.7816164E-02  0.1226708E+00
        -11   -1    0    0    0    0  0.00000000000E+00  0.00000000000E+00  0.45593999997E+02  0.45594000000E+02  0.51100000000E-03 0.  1.
         11   -1    0    0    0    0 -0.00000000000E+00 -0.00000000000E+00 -0.45593999997E+02  0.45594000000E+02  0.51100000000E-03 0. -1.
    9900012    2    1    2    0    0 -0.81536736949E+01 -0.15373715451E+02  0.69169762274E+01  0.72461599341E+02  0.70000037839E+02 0.  0.
        -12    1    1    2    0    0  0.81536736949E+01  0.15373715451E+02 -0.69169762274E+01  0.18726400659E+02  0.00000000000E+00 0.  1.
         11    1    3    3    0    0  0.48361971783E+01 -0.39224143367E+01 -0.93434870664E+01  0.11228307450E+02  0.51100000000E-03 0. -1.
        -11    1    3    3    0    0  0.21479041256E+02 -0.91265275448E+01  0.12520935337E+02  0.26484269676E+02  0.51100000000E-03 0.  1.
        -12    1    3    3    0    0 -0.34468912130E+02 -0.23247735697E+01  0.37395279572E+01  0.34749022215E+02  0.00000000000E+00 0.  1.
</event>
<event>
 7    1  0.2688173E-013  0.7246160E+02  0.7816164E-02  0.1226708E+00
        -11   -1    0    0    0    0  0.00000000000E+00  0.00000000000E+00  0.45593999997E+02  0.45594000000E+02  0.51100000000E-03 0.  1.
         11   -1    0    0    0    0 -0.00000000000E+00 -0.00000000000E+00 -0.45593999997E+02  0.45594000000E+02  0.51100000000E-03 0. -1.
    9900012    2    1    2    0    0  0.16918481754E+02  0.44933643153E+00 -0.80150591464E+01  0.72461598819E+02  0.70000037158E+02 0.  0.
        -12    1    1    2    0    0 -0.16918481754E+02 -0.44933643153E+00  0.80150591464E+01  0.18726401181E+02  0.00000000000E+00 0.  1.
         11    1    3    3    0    0  0.39181188469E+01  0.68642815794E+01 -0.52852103743E+01  0.95080737198E+01  0.51100000000E-03 0.  1.
        -11    1    3    3    0    0  0.21756918644E+02 -0.15305323951E+02 -0.25588538626E+02  0.36910564333E+02  0.51100000000E-03 0. -1.
        -12    1    3    3    0    0 -0.87565557370E+01  0.88903788030E+01  0.22858689853E+02  0.26042960766E+02  0.00000000000E+00 0.  1.
</event>
<event>
 7    1  0.2688173E-013  0.7246186E+02  0.7816164E-02  0.1226707E+00
        -11   -1    0    0    0    0  0.00000000000E+00  0.00000000000E+00  0.45593999997E+02  0.45594000000E+02  0.51100000000E-03 0. -1.
         11   -1    0    0    0    0 -0.00000000000E+00 -0.00000000000E+00 -0.45593999997E+02  0.45594000000E+02  0.51100000000E-03 0.  1.
    9900012    2    1    2    0    0 -0.47853086578E+00 -0.12252678105E+02  0.14153139386E+02  0.72461856056E+02  0.70000372257E+02 0.  0.
        -12    1    1    2    0    0  0.47853086578E+00  0.12252678105E+02 -0.14153139386E+02  0.18726143944E+02  0.00000000000E+00 0.  1.
         11    1    3    3    0    0  0.70360311991E+01 -0.31540896024E+00 -0.77347241399E+01  0.10460935696E+02  0.51100000000E-03 0. -1.
        -11    1    3    3    0    0  0.39995326243E+01  0.20925687381E+02  0.85821026888E+00  0.21321753650E+02  0.51100000000E-03 0.  1.
         12    1    3    3    0    0 -0.11514094689E+02 -0.32862956526E+02  0.21029653257E+02  0.40679166710E+02  0.00000000000E+00 0. -1.
</event>
<event>
 7    1  0.2688173E-013  0.7246157E+02  0.7816164E-02  0.1226708E+00
        -11   -1    0    0    0    0  0.00000000000E+00  0.00000000000E+00  0.45593999997E+02  0.45594000000E+02  0.51100000000E-03 0.  1.
         11   -1    0    0    0    0 -0.00000000000E+00 -0.00000000000E+00 -0.45593999997E+02  0.45594000000E+02  0.51100000000E-03 0. -1.
    9900012    2    1    2    0    0  0.55236194561E+01 -0.17568504745E+02 -0.33936098814E+01  0.72461566306E+02  0.69999994805E+02 0.  0.
        -12    1    1    2    0    0 -0.55236194561E+01  0.17568504745E+02  0.33936098814E+01  0.18726433694E+02  0.00000000000E+00 0.  1.
         11    1    3    3    0    0  0.30810431866E+02  0.78183639234E+01 -0.64319218422E+01  0.32431144677E+02  0.51100000000E-03 0. -1.
        -11    1    3    3    0    0 -0.58067341774E+01 -0.51971283297E+01 -0.67569836773E+01  0.10314316912E+02  0.51100000000E-03 0.  1.
        -12    1    3    3    0    0 -0.19480078233E+02 -0.20189740339E+02  0.97952956381E+01  0.29716104717E+02  0.00000000000E+00 0.  1.
</event>
<event>
 7    1  0.2688173E-013  0.7246158E+02  0.7816164E-02  0.1226708E+00
        -11   -1    0    0    0    0  0.00000000000E+00  0.00000000000E+00  0.45593999997E+02  0.45594000000E+02  0.51100000000E-03 0.  1.
         11   -1    0    0    0    0 -0.00000000000E+00 -0.00000000000E+00 -0.45593999997E+02  0.45594000000E+02  0.51100000000E-03 0. -1.
    9900012    2    1    2    0    0 -0.38366646315E+01  0.18196967483E+02  0.21975466054E+01  0.72461579302E+02  0.70000011734E+02 0.  0.
        -12    1    1    2    0    0  0.38366646315E+01 -0.18196967483E+02 -0.21975466054E+01  0.18726420698E+02  0.00000000000E+00 0.  1.
         11    1    3    3    0    0  0.12533322624E+01  0.56578721071E+01 -0.61687885280E+01  0.84638236457E+01  0.51100000000E-03 0. -1.
        -11    1    3    3    0    0  0.24275496035E+02  0.21817518113E+02  0.36547402547E+01  0.32842973844E+02  0.51100000000E-03 0.  1.
         12    1    3    3    0    0 -0.29365492929E+02 -0.92784227369E+01  0.47115948787E+01  0.31154781812E+02  0.00000000000E+00 0. -1.
</event>
<event>
 7    1  0.2688173E-013  0.7246149E+02  0.7816164E-02  0.1226708E+00
        -11   -1    0    0    0    0  0.00000000000E+00  0.00000000000E+00  0.45593999997E+02  0.45594000000E+02  0.51100000000E-03 0.  1.
         11   -1    0    0    0    0 -0.00000000000E+00 -0.00000000000E+00 -0.45593999997E+02  0.45594000000E+02  0.51100000000E-03 0. -1.
    9900012    2    1    2    0    0 -0.17237599390E+02  0.72746174143E+01 -0.79201954171E+00  0.72461489748E+02  0.69999895073E+02 0.  0.
        -12    1    1    2    0    0  0.17237599390E+02 -0.72746174143E+01  0.79201954171E+00  0.18726510252E+02  0.00000000000E+00 0.  1.
         11    1    3    3    0    0  0.31609587949E+01  0.26701324831E+01 -0.56021750131E+01  0.69645985612E+01  0.51100000000E-03 0. -1.
        -11    1    3    3    0    0 -0.21430852576E+02 -0.15557535073E+02 -0.20234862143E+02  0.33328186058E+02  0.51100000000E-03 0.  1.
        -12    1    3    3    0    0  0.10322943912E+01  0.20162020004E+02  0.25045017615E+02  0.32168705129E+02  0.00000000000E+00 0.  1.
</event>
<event>
 7    1  0.2688173E-013  0.7246160E+02  0.7816164E-02  0.1226708E+00
        -11   -1    0    0    0    0  0.00000000000E+00  0.00000000000E+00  0.45593999997E+02  0.45594000000E+02  0.51100000000E-03 0.  1.
         11   -1    0    0    0    0 -0.00000000000E+00 -0.00000000000E+00 -0.45593999997E+02  0.45594000000E+02  0.51100000000E-03 0. -1.
    9900012    2    1    2    0    0 -0.40568150321E+00  0.13638500514E+02 -0.12825945698E+02  0.72461597334E+02  0.70000035225E+02 0.  0.
        -12    1    1    2    0    0  0.40568150321E+00 -0.13638500514E+02  0.12825945698E+02  0.18726402666E+02  0.00000000000E+00 0.  1.
         11    1    3    3    0    0 -0.45407996354E+01  0.86742506152E+01 -0.12811700676E+02  0.16124551453E+02  0.51100000000E-03 0. -1.
        -11    1    3    3    0    0  0.85321528219E+01  0.70017875665E+01 -0.26869459986E+02  0.29048072933E+02  0.51100000000E-03 0.  1.
        -12    1    3    3    0    0 -0.43970346896E+01 -0.20375376682E+01  0.26855214965E+02  0.27288972949E+02  0.00000000000E+00 0.  1.
</event>
<event>
 7    1  0.2688173E-013  0.7246155E+02  0.7816164E-02  0.1226708E+00
        -11   -1    0    0    0    0  0.00000000000E+00  0.00000000000E+00  0.45593999997E+02  0.45594000000E+02  0.51100000000E-03 0.  1.
         11   -1    0    0    0    0 -0.00000000000E+00 -0.00000000000E+00 -0.45593999997E+02  0.45594000000E+02  0.51100000000E-03 0. -1.
    9900012    2    1    2    0    0  0.21972619952E+01 -0.36847128602E+00 -0.18593440444E+02  0.72461554558E+02  0.69999979500E+02 0.  0.
        -12    1    1    2    0    0 -0.21972619952E+01  0.36847128602E+00  0.18593440444E+02  0.18726445442E+02  0.00000000000E+00 0.  1.
         11    1    3    3    0    0  0.81654728064E+01 -0.15462007542E+02 -0.33878981195E+02  0.38125240858E+02  0.51100000000E-03 0. -1.
        -11    1    3    3    0    0  0.32951855790E+01 -0.40959050312E+01 -0.31768648205E+01  0.61422435945E+01  0.51100000000E-03 0.  1.
        -12    1    3    3    0    0 -0.92633963902E+01  0.19189441287E+02  0.18462405572E+02  0.28194070105E+02  0.00000000000E+00 0.  1.
</event>
<event>
 7    1  0.2688173E-013  0.7246154E+02  0.7816164E-02  0.1226708E+00
        -11   -1    0    0    0    0  0.00000000000E+00  0.00000000000E+00  0.45593999997E+02  0.45594000000E+02  0.51100000000E-03 0. -1.
         11   -1    0    0    0    0 -0.00000000000E+00 -0.00000000000E+00 -0.45593999997E+02  0.45594000000E+02  0.51100000000E-03 0.  1.
    9900012    2    1    2    0    0  0.11135777680E+01  0.53788495863E+01  0.17902745753E+02  0.72461537872E+02  0.69999957764E+02 0.  0.
        -12    1    1    2    0    0 -0.11135777680E+01 -0.53788495863E+01 -0.17902745753E+02  0.18726462128E+02  0.00000000000E+00 0.  1.
         11    1    3    3    0    0  0.43048536790E+01  0.31653147795E+02  0.20453014360E+02  0.37931244736E+02  0.51100000000E-03 0. -1.
        -11    1    3    3    0    0  0.64898210166E+01 -0.21256756568E+01  0.37086367033E+01  0.77711170550E+01  0.51100000000E-03 0.  1.
        -12    1    3    3    0    0 -0.96810969276E+01 -0.24148622552E+02 -0.62589053102E+01  0.26759176081E+02  0.00000000000E+00 0.  1.
</event>
<event>
 7    1  0.2688173E-013  0.7246160E+02  0.7816164E-02  0.1226708E+00
        -11   -1    0    0    0    0  0.00000000000E+00  0.00000000000E+00  0.45593999997E+02  0.45594000000E+02  0.51100000000E-03 0. -1.
         11   -1    0    0    0    0 -0.00000000000E+00 -0.00000000000E+00 -0.45593999997E+02  0.45594000000E+02  0.51100000000E-03 0.  1.
    9900012    2    1    2    0    0 -0.11881032044E+02 -0.35407617713E+01  0.14035033582E+02  0.72461599278E+02  0.70000037757E+02 0.  0.
        -12    1    1    2    0    0  0.11881032044E+02  0.35407617713E+01 -0.14035033582E+02  0.18726400722E+02  0.00000000000E+00 0.  1.
         11    1    3    3    0    0 -0.17348323173E+02  0.14869273607E+02  0.14448718700E+02  0.27033776777E+02  0.51100000000E-03 0. -1.
        -11    1    3    3    0    0  0.98760672416E+01  0.33201480872E+01  0.15114821602E+02  0.18358047821E+02  0.51100000000E-03 0.  1.
        -12    1    3    3    0    0 -0.44087761127E+01 -0.21730183465E+02 -0.15528506721E+02  0.27069774680E+02  0.00000000000E+00 0.  1.
</event>
<event>
 7    1  0.2688173E-013  0.7246161E+02  0.7816164E-02  0.1226708E+00
        -11   -1    0    0    0    0  0.00000000000E+00  0.00000000000E+00  0.45593999997E+02  0.45594000000E+02  0.51100000000E-03 0. -1.
         11   -1    0    0    0    0 -0.00000000000E+00 -0.00000000000E+00 -0.45593999997E+02  0.45594000000E+02  0.51100000000E-03 0.  1.
    9900012    2    1    2    0    0 -0.13767518501E+02 -0.46377022302E+01  0.11816301201E+02  0.72461606281E+02  0.70000046880E+02 0.  0.
        -12    1    1    2    0    0  0.13767518501E+02  0.46377022302E+01 -0.11816301201E+02  0.18726393719E+02  0.00000000000E+00 0.  1.
         11    1    3    3    0    0 -0.26034092966E+02 -0.18371440361E+02  0.20298774043E+02  0.37779942368E+02  0.51100000000E-03 0. -1.
        -11    1    3    3    0    0 -0.48042537934E+01 -0.30664884420E+01  0.46596028432E+01  0.73618003772E+01  0.51100000000E-03 0.  1.
        -12    1    3    3    0    0  0.17070828258E+02  0.16800226572E+02 -0.13142075685E+02  0.27319863536E+02  0.00000000000E+00 0.  1.
</event>
<event>
 7    1  0.2688173E-013  0.7246148E+02  0.7816164E-02  0.1226708E+00
        -11   -1    0    0    0    0  0.00000000000E+00  0.00000000000E+00  0.45593999997E+02  0.45594000000E+02  0.51100000000E-03 0. -1.
         11   -1    0    0    0    0 -0.00000000000E+00 -0.00000000000E+00 -0.45593999997E+02  0.45594000000E+02  0.51100000000E-03 0.  1.
    9900012    2    1    2    0    0  0.19151377220E+01 -0.54877714287E+01  0.17801656849E+02  0.72461484725E+02  0.69999888531E+02 0.  0.
        -12    1    1    2    0    0 -0.19151377220E+01  0.54877714287E+01 -0.17801656849E+02  0.18726515275E+02  0.00000000000E+00 0.  1.
         11    1    3    3    0    0  0.49332771382E+01  0.78424455701E+01  0.54653849326E+00  0.92811572785E+01  0.51100000000E-03 0. -1.
        -11    1    3    3    0    0  0.97217452922E+01  0.21539690839E+02  0.75436360266E+01  0.24806794588E+02  0.51100000000E-03 0.  1.
         12    1    3    3    0    0 -0.12739884708E+02 -0.34869907838E+02  0.97114823294E+01  0.38373532859E+02  0.00000000000E+00 0. -1.
</event>
<event>
 7    1  0.2688173E-013  0.7246144E+02  0.7816164E-02  0.1226708E+00
        -11   -1    0    0    0    0  0.00000000000E+00  0.00000000000E+00  0.45593999997E+02  0.45594000000E+02  0.51100000000E-03 0. -1.
         11   -1    0    0    0    0 -0.00000000000E+00 -0.00000000000E+00 -0.45593999997E+02  0.45594000000E+02  0.51100000000E-03 0.  1.
    9900012    2    1    2    0    0 -0.27140090154E+01 -0.15402795202E+02  0.10299126575E+02  0.72461442570E+02  0.69999833616E+02 0.  0.
        -12    1    1    2    0    0  0.27140090154E+01  0.15402795202E+02 -0.10299126575E+02  0.18726557430E+02  0.00000000000E+00 0.  1.
         11    1    3    3    0    0 -0.81589339251E+01  0.21609689232E+02  0.51093460496E+00  0.23104283713E+02  0.51100000000E-03 0. -1.
        -11    1    3    3    0    0 -0.59727489224E+01 -0.17801613518E+02 -0.83742724265E+01  0.20559659833E+02  0.51100000000E-03 0.  1.
        -12    1    3    3    0    0  0.11417673832E+02 -0.19210870916E+02  0.18162464396E+02  0.28797499024E+02  0.00000000000E+00 0.  1.
</event>
<event>
 7    1  0.2688173E-013  0.7246157E+02  0.7816164E-02  0.1226708E+00
        -11   -1    0    0    0    0  0.00000000000E+00  0.00000000000E+00  0.45593999997E+02  0.45594000000E+02  0.51100000000E-03 0.  1.
         11   -1    0    0    0    0 -0.00000000000E+00 -0.00000000000E+00 -0.45593999997E+02  0.45594000000E+02  0.51100000000E-03 0. -1.
    9900012    2    1    2    0    0  0.18346568959E+02 -0.37207046482E+01 -0.48867894512E+00  0.72461573678E+02  0.70000004409E+02 0.  0.
        -12    1    1    2    0    0 -0.18346568959E+02  0.37207046482E+01  0.48867894512E+00  0.18726426322E+02  0.00000000000E+00 0.  1.
         11    1    3    3    0    0 -0.75804423546E+01 -0.74477884232E+01 -0.33068412947E+01  0.11129593807E+02  0.51100000000E-03 0. -1.
        -11    1    3    3    0    0 -0.13188569351E+01  0.24862406223E+02 -0.62645448203E+01  0.25673393793E+02  0.51100000000E-03 0.  1.
         12    1    3    3    0    0  0.27245868249E+02 -0.21135322447E+02  0.90827071698E+01  0.35658586079E+02  0.00000000000E+00 0. -1.
</event>
<event>
 7    1  0.2688173E-013  0.7246152E+02  0.7816164E-02  0.1226708E+00
        -11   -1    0    0    0    0  0.00000000000E+00  0.00000000000E+00  0.45593999997E+02  0.45594000000E+02  0.51100000000E-03 0.  1.
         11   -1    0    0    0    0 -0.00000000000E+00 -0.00000000000E+00 -0.45593999997E+02  0.45594000000E+02  0.51100000000E-03 0. -1.
    9900012    2    1    2    0    0 -0.58900697539E+01  0.59119381415E+01 -0.16764159768E+02  0.72461521767E+02  0.69999936784E+02 0.  0.
        -12    1    1    2    0    0  0.58900697539E+01 -0.59119381415E+01  0.16764159768E+02  0.18726478233E+02  0.00000000000E+00 0.  1.
         11    1    3    3    0    0  0.42755019683E+01 -0.68957146126E+01 -0.14879019132E+02  0.16947448412E+02  0.51100000000E-03 0. -1.
        -11    1    3    3    0    0 -0.71134990862E+01 -0.20218644640E+02  0.40704174036E+01  0.21816593649E+02  0.51100000000E-03 0.  1.
         12    1    3    3    0    0 -0.30520726360E+01  0.33026297394E+02 -0.59555580393E+01  0.33697479706E+02  0.00000000000E+00 0. -1.
</event>
<event>
 7    1  0.2688173E-013  0.7246160E+02  0.7816164E-02  0.1226708E+00
        -11   -1    0    0    0    0  0.00000000000E+00  0.00000000000E+00  0.45593999997E+02  0.45594000000E+02  0.51100000000E-03 0.  1.
         11   -1    0    0    0    0 -0.00000000000E+00 -0.00000000000E+00 -0.45593999997E+02  0.45594000000E+02  0.51100000000E-03 0. -1.
    9900012    2    1    2    0    0 -0.15856051954E+02  0.91926885396E+01 -0.38416487678E+01  0.72461596944E+02  0.70000034717E+02 0.  0.
        -12    1    1    2    0    0  0.15856051954E+02 -0.91926885396E+01  0.38416487678E+01  0.18726403056E+02  0.00000000000E+00 0.  1.
         11    1    3    3    0    0 -0.45808031320E+01  0.13063951557E+02  0.26079052081E+01  0.14087290636E+02  0.51100000000E-03 0. -1.
        -11    1    3    3    0    0 -0.33149604566E+02 -0.65584098945E+01  0.39183765979E+01  0.34018564030E+02  0.51100000000E-03 0.  1.
         12    1    3    3    0    0  0.21874355744E+02  0.26871468767E+01 -0.10367930574E+02  0.24355742279E+02  0.00000000000E+00 0. -1.
</event>
<event>
 7    1  0.2688173E-013  0.7246157E+02  0.7816164E-02  0.1226708E+00
        -11   -1    0    0    0    0  0.00000000000E+00  0.00000000000E+00  0.45593999997E+02  0.45594000000E+02  0.51100000000E-03 0. -1.
         11   -1    0    0    0    0 -0.00000000000E+00 -0.00000000000E+00 -0.45593999997E+02  0.45594000000E+02  0.51100000000E-03 0.  1.
    9900012    2    1    2    0    0 -0.59441240414E+01 -0.11593746227E+02  0.13451087869E+02  0.72461566088E+02  0.69999994521E+02 0.  0.
        -12    1    1    2    0    0  0.59441240414E+01  0.11593746227E+02 -0.13451087869E+02  0.18726433912E+02  0.00000000000E+00 0.  1.
         11    1    3    3    0    0  0.23845592790E+02 -0.53903788829E+01  0.12793174994E+02  0.27592278027E+02  0.51100000000E-03 0. -1.
        -11    1    3    3    0    0  0.73119917460E+01 -0.62548849237E+00 -0.18787315750E+00  0.73411004443E+01  0.51100000000E-03 0.  1.
        -12    1    3    3    0    0 -0.37101708577E+02 -0.55778788517E+01  0.84578603195E+00  0.37528187617E+02  0.00000000000E+00 0.  1.
</event>
<event>
 7    1  0.2688173E-013  0.7246160E+02  0.7816164E-02  0.1226708E+00
        -11   -1    0    0    0    0  0.00000000000E+00  0.00000000000E+00  0.45593999997E+02  0.45594000000E+02  0.51100000000E-03 0. -1.
         11   -1    0    0    0    0 -0.00000000000E+00 -0.00000000000E+00 -0.45593999997E+02  0.45594000000E+02  0.51100000000E-03 0.  1.
    9900012    2    1    2    0    0  0.57905856457E+01  0.43958096639E+01  0.17257578338E+02  0.72461600591E+02  0.70000039467E+02 0.  0.
        -12    1    1    2    0    0 -0.57905856457E+01 -0.43958096639E+01 -0.17257578338E+02  0.18726399409E+02  0.00000000000E+00 0.  1.
         11    1    3    3    0    0  0.25367742185E+02 -0.11510946294E+00  0.92153652946E+01  0.26989971314E+02  0.51100000000E-03 0. -1.
        -11    1    3    3    0    0  0.75291184971E+01  0.11677042307E+02 -0.47096481545E+01  0.14670437225E+02  0.51100000000E-03 0.  1.
        -12    1    3    3    0    0 -0.27106275037E+02 -0.71661231802E+01  0.12751861198E+02  0.30801192052E+02  0.00000000000E+00 0.  1.
</event>
<event>
 7    1  0.2688173E-013  0.7246158E+02  0.7816164E-02  0.1226708E+00
        -11   -1    0    0    0    0  0.00000000000E+00  0.00000000000E+00  0.45593999997E+02  0.45594000000E+02  0.51100000000E-03 0. -1.
         11   -1    0    0    0    0 -0.00000000000E+00 -0.00000000000E+00 -0.45593999997E+02  0.45594000000E+02  0.51100000000E-03 0.  1.
    9900012    2    1    2    0    0 -0.97611814228E+01 -0.15877338328E+02 -0.18188677776E+01  0.72461579756E+02  0.70000012326E+02 0.  0.
        -12    1    1    2    0    0  0.97611814228E+01  0.15877338328E+02  0.18188677776E+01  0.18726420244E+02  0.00000000000E+00 0.  1.
         11    1    3    3    0    0 -0.14019915263E+02 -0.17425127376E+02  0.26131521168E+02  0.34395486432E+02  0.51100000000E-03 0. -1.
        -11    1    3    3    0    0 -0.39371459660E+01 -0.14681844816E+01  0.34731571682E+01  0.54515598691E+01  0.51100000000E-03 0.  1.
        -12    1    3    3    0    0  0.81958798061E+01  0.30159735296E+01 -0.31423546114E+02  0.32614533455E+02  0.00000000000E+00 0.  1.
</event>
<event>
 7    1  0.2688173E-013  0.7246155E+02  0.7816164E-02  0.1226708E+00
        -11   -1    0    0    0    0  0.00000000000E+00  0.00000000000E+00  0.45593999997E+02  0.45594000000E+02  0.51100000000E-03 0.  1.
         11   -1    0    0    0    0 -0.00000000000E+00 -0.00000000000E+00 -0.45593999997E+02  0.45594000000E+02  0.51100000000E-03 0. -1.
    9900012    2    1    2    0    0  0.27558303860E+01  0.10896357792E+02 -0.14978473135E+02  0.72461551546E+02  0.69999975577E+02 0.  0.
        -12    1    1    2    0    0 -0.27558303860E+01 -0.10896357792E+02  0.14978473135E+02  0.18726448454E+02  0.00000000000E+00 0.  1.
         11    1    3    3    0    0  0.57690689845E+01  0.12610698352E+01 -0.15226943739E+02  0.16331940177E+02  0.51100000000E-03 0. -1.
        -11    1    3    3    0    0  0.22559360212E+02 -0.90562142838E+01  0.21025449737E+01  0.24400009138E+02  0.51100000000E-03 0.  1.
        -12    1    3    3    0    0 -0.25572598810E+02  0.18691502240E+02 -0.18540743704E+01  0.31729602230E+02  0.00000000000E+00 0.  1.
</event>
<event>
 7    1  0.2688173E-013  0.7246158E+02  0.7816164E-02  0.1226708E+00
        -11   -1    0    0    0    0  0.00000000000E+00  0.00000000000E+00  0.45593999997E+02  0.45594000000E+02  0.51100000000E-03 0. -1.
         11   -1    0    0    0    0 -0.00000000000E+00 -0.00000000000E+00 -0.45593999997E+02  0.45594000000E+02  0.51100000000E-03 0.  1.
    9900012    2    1    2    0    0  0.18586155414E+02 -0.11604853406E+01 -0.19714925033E+01  0.72461583312E+02  0.70000016958E+02 0.  0.
        -12    1    1    2    0    0 -0.18586155414E+02  0.11604853406E+01  0.19714925033E+01  0.18726416688E+02  0.00000000000E+00 0.  1.
         11    1    3    3    0    0  0.22936999603E+02  0.92554668605E+01  0.44422515967E+01  0.25129727756E+02  0.51100000000E-03 0. -1.
        -11    1    3    3    0    0 -0.58178717043E+01  0.17735960921E+02 -0.35056227431E+01  0.18992138691E+02  0.51100000000E-03 0.  1.
        -12    1    3    3    0    0  0.14670275149E+01 -0.28151913122E+02 -0.29081213570E+01  0.28339716865E+02  0.00000000000E+00 0.  1.
</event>
<event>
 7    1  0.2688173E-013  0.7246129E+02  0.7816164E-02  0.1226709E+00
        -11   -1    0    0    0    0  0.00000000000E+00  0.00000000000E+00  0.45593999997E+02  0.45594000000E+02  0.51100000000E-03 0. -1.
         11   -1    0    0    0    0 -0.00000000000E+00 -0.00000000000E+00 -0.45593999997E+02  0.45594000000E+02  0.51100000000E-03 0.  1.
    9900012    2    1    2    0    0  0.12789060380E+02  0.13292722609E+02  0.32300316727E+01  0.72461290616E+02  0.69999635666E+02 0.  0.
        -12    1    1    2    0    0 -0.12789060380E+02 -0.13292722609E+02 -0.32300316727E+01  0.18726709384E+02  0.00000000000E+00 0.  1.
         11    1    3    3    0    0  0.12977922983E+02 -0.61734257400E+01  0.96206656967E+01  0.17294359746E+02  0.51100000000E-03 0. -1.
        -11    1    3    3    0    0  0.19467999080E+02 -0.58394488466E+01 -0.10473400788E+02  0.22864694954E+02  0.51100000000E-03 0.  1.
         12    1    3    3    0    0 -0.19656861684E+02  0.25305597195E+02  0.40827667643E+01  0.32302235915E+02  0.00000000000E+00 0. -1.
</event>
<event>
 7    1  0.2688173E-013  0.7246163E+02  0.7816164E-02  0.1226708E+00
        -11   -1    0    0    0    0  0.00000000000E+00  0.00000000000E+00  0.45593999997E+02  0.45594000000E+02  0.51100000000E-03 0.  1.
         11   -1    0    0    0    0 -0.00000000000E+00 -0.00000000000E+00 -0.45593999997E+02  0.45594000000E+02  0.51100000000E-03 0. -1.
    9900012    2    1    2    0    0  0.78199505835E+01 -0.99539522190E+01 -0.13800144585E+02  0.72461634029E+02  0.70000083026E+02 0.  0.
        -12    1    1    2    0    0 -0.78199505835E+01  0.99539522190E+01  0.13800144585E+02  0.18726365971E+02  0.00000000000E+00 0.  1.
         11    1    3    3    0    0  0.16438518053E+02 -0.13089046072E+02 -0.75097710935E+01  0.22314673760E+02  0.51100000000E-03 0. -1.
        -11    1    3    3    0    0 -0.69969190716E+01 -0.11632029517E+02  0.17470493541E+02  0.22124175284E+02  0.51100000000E-03 0.  1.
         12    1    3    3    0    0 -0.16216483979E+01  0.14767123370E+02 -0.23760867033E+02  0.28022784985E+02  0.00000000000E+00 0. -1.
</event>
<event>
 7    1  0.2688173E-013  0.7246171E+02  0.7816164E-02  0.1226708E+00
        -11   -1    0    0    0    0  0.00000000000E+00  0.00000000000E+00  0.45593999997E+02  0.45594000000E+02  0.51100000000E-03 0. -1.
         11   -1    0    0    0    0 -0.00000000000E+00 -0.00000000000E+00 -0.45593999997E+02  0.45594000000E+02  0.51100000000E-03 0.  1.
    9900012    2    1    2    0    0 -0.13815002980E+02 -0.58215760780E+01  0.11221805240E+02  0.72461709171E+02  0.70000180912E+02 0.  0.
        -12    1    1    2    0    0  0.13815002980E+02  0.58215760780E+01 -0.11221805240E+02  0.18726290829E+02  0.00000000000E+00 0.  1.
         11    1    3    3    0    0  0.24706861625E+01  0.10130489289E+01 -0.74046440446E+01  0.78714237552E+01  0.51100000000E-03 0. -1.
        -11    1    3    3    0    0  0.21300770829E+01 -0.26026887668E+02 -0.76397780688E+01  0.27208497188E+02  0.51100000000E-03 0.  1.
         12    1    3    3    0    0 -0.18415766225E+02  0.19192262661E+02  0.26266227353E+02  0.37381788228E+02  0.00000000000E+00 0. -1.
</event>
<event>
 7    1  0.2688173E-013  0.7246160E+02  0.7816164E-02  0.1226708E+00
        -11   -1    0    0    0    0  0.00000000000E+00  0.00000000000E+00  0.45593999997E+02  0.45594000000E+02  0.51100000000E-03 0. -1.
         11   -1    0    0    0    0 -0.00000000000E+00 -0.00000000000E+00 -0.45593999997E+02  0.45594000000E+02  0.51100000000E-03 0.  1.
    9900012    2    1    2    0    0  0.13144249398E+02 -0.12851818858E+02 -0.35689534668E+01  0.72461602347E+02  0.70000041755E+02 0.  0.
        -12    1    1    2    0    0 -0.13144249398E+02  0.12851818858E+02  0.35689534668E+01  0.18726397653E+02  0.00000000000E+00 0.  1.
         11    1    3    3    0    0 -0.35969148379E+01  0.50131289050E+01  0.19544794366E+01  0.64721903479E+01  0.51100000000E-03 0. -1.
        -11    1    3    3    0    0  0.84741315868E+01  0.36931869842E+01 -0.30562501301E+02  0.31929876641E+02  0.51100000000E-03 0.  1.
         12    1    3    3    0    0  0.82670326489E+01 -0.21558134748E+02  0.25039068398E+02  0.34059535359E+02  0.00000000000E+00 0. -1.
</event>
<event>
 7    1  0.2688173E-013  0.7246164E+02  0.7816164E-02  0.1226708E+00
        -11   -1    0    0    0    0  0.00000000000E+00  0.00000000000E+00  0.45593999997E+02  0.45594000000E+02  0.51100000000E-03 0.  1.
         11   -1    0    0    0    0 -0.00000000000E+00 -0.00000000000E+00 -0.45593999997E+02  0.45594000000E+02  0.51100000000E-03 0. -1.
    9900012    2    1    2    0    0 -0.10558960158E+02  0.61368627645E+01 -0.14195914512E+02  0.72461635884E+02  0.70000085442E+02 0.  0.
        -12    1    1    2    0    0  0.10558960158E+02 -0.61368627645E+01  0.14195914512E+02  0.18726364116E+02  0.00000000000E+00 0.  1.
         11    1    3    3    0    0  0.11067938512E+02  0.20132947473E+02  0.81052343809E+01  0.24362464192E+02  0.51100000000E-03 0. -1.
        -11    1    3    3    0    0  0.29923965516E+01 -0.13243582051E+02  0.17301905914E+01  0.13687237209E+02  0.51100000000E-03 0.  1.
         12    1    3    3    0    0 -0.24619295222E+02 -0.75250265765E+00 -0.24031339484E+02  0.34411934483E+02  0.00000000000E+00 0. -1.
</event>
<event>
 7    1  0.2688173E-013  0.7246157E+02  0.7816164E-02  0.1226708E+00
        -11   -1    0    0    0    0  0.00000000000E+00  0.00000000000E+00  0.45593999997E+02  0.45594000000E+02  0.51100000000E-03 0.  1.
         11   -1    0    0    0    0 -0.00000000000E+00 -0.00000000000E+00 -0.45593999997E+02  0.45594000000E+02  0.51100000000E-03 0. -1.
    9900012    2    1    2    0    0 -0.20448351943E+01  0.18070340847E+02 -0.44677500067E+01  0.72461565224E+02  0.69999993395E+02 0.  0.
        -12    1    1    2    0    0  0.20448351943E+01 -0.18070340847E+02  0.44677500067E+01  0.18726434776E+02  0.00000000000E+00 0.  1.
         11    1    3    3    0    0  0.24086368084E+00  0.67574162262E+01  0.19323987264E+02  0.20472839896E+02  0.51100000000E-03 0. -1.
        -11    1    3    3    0    0 -0.13634308256E+02 -0.12565067323E+02 -0.40108097456E+01  0.18970025659E+02  0.51100000000E-03 0.  1.
         12    1    3    3    0    0  0.11348609380E+02  0.23877991943E+02 -0.19780927525E+02  0.33018699669E+02  0.00000000000E+00 0. -1.
</event>
<event>
 7    1  0.2688173E-013  0.7246182E+02  0.7816164E-02  0.1226707E+00
        -11   -1    0    0    0    0  0.00000000000E+00  0.00000000000E+00  0.45593999997E+02  0.45594000000E+02  0.51100000000E-03 0.  1.
         11   -1    0    0    0    0 -0.00000000000E+00 -0.00000000000E+00 -0.45593999997E+02  0.45594000000E+02  0.51100000000E-03 0. -1.
    9900012    2    1    2    0    0  0.12411264552E+02 -0.18739113605E+00 -0.14021235371E+02  0.72461824615E+02  0.70000331299E+02 0.  0.
        -12    1    1    2    0    0 -0.12411264552E+02  0.18739113605E+00  0.14021235371E+02  0.18726175385E+02  0.00000000000E+00 0.  1.
         11    1    3    3    0    0 -0.16754270466E+02  0.75741233663E+01 -0.31271086634E+01  0.18650783695E+02  0.51100000000E-03 0. -1.
        -11    1    3    3    0    0 -0.72791158169E+01 -0.31017478271E+01  0.90373323114E+01  0.12011650271E+02  0.51100000000E-03 0.  1.
        -12    1    3    3    0    0  0.36444650835E+02 -0.46597666753E+01 -0.19931459019E+02  0.41799390648E+02  0.00000000000E+00 0.  1.
</event>
<event>
 7    1  0.3286574E-013  0.7246166E+02  0.7816164E-02  0.1226708E+00
        -11   -1    0    0    0    0  0.00000000000E+00  0.00000000000E+00  0.45593999997E+02  0.45594000000E+02  0.51100000000E-03 0. -1.
         11   -1    0    0    0    0 -0.00000000000E+00 -0.00000000000E+00 -0.45593999997E+02  0.45594000000E+02  0.51100000000E-03 0.  1.
    9900012    2    1    2    0    0 -0.55801512651E+01  0.10986958551E+02  0.14100515937E+02  0.72461657697E+02  0.70000113858E+02 0.  0.
        -12    1    1    2    0    0  0.55801512651E+01 -0.10986958551E+02 -0.14100515937E+02  0.18726342303E+02  0.00000000000E+00 0.  1.
         11    1    3    3    0    0  0.32857941339E+01  0.12804519989E+02  0.90814387323E+01  0.16038226366E+02  0.51100000000E-03 0. -1.
        -11    1    3    3    0    0  0.91855742232E+01  0.36463751333E+01 -0.21626932376E+02  0.23778036708E+02  0.51100000000E-03 0.  1.
         12    1    3    3    0    0 -0.18051519622E+02 -0.54639365712E+01  0.26646009581E+02  0.32645394624E+02  0.00000000000E+00 0. -1.
</event>
<event>
 7    1  0.2688173E-013  0.7246156E+02  0.7816164E-02  0.1226708E+00
        -11   -1    0    0    0    0  0.00000000000E+00  0.00000000000E+00  0.45593999997E+02  0.45594000000E+02  0.51100000000E-03 0. -1.
         11   -1    0    0    0    0 -0.00000000000E+00 -0.00000000000E+00 -0.45593999997E+02  0.45594000000E+02  0.51100000000E-03 0.  1.
    9900012    2    1    2    0    0 -0.17519097240E+02  0.27156789000E+01  0.60320858387E+01  0.72461555074E+02  0.69999980173E+02 0.  0.
        -12    1    1    2    0    0  0.17519097240E+02 -0.27156789000E+01 -0.60320858387E+01  0.18726444926E+02  0.00000000000E+00 0.  1.
         11    1    3    3    0    0 -0.18866276339E+02 -0.75920399866E+01  0.17458097206E+02  0.26802250137E+02  0.51100000000E-03 0. -1.
        -11    1    3    3    0    0  0.96110503631E+01  0.14147717695E+02  0.11753655163E+02  0.20752797764E+02  0.51100000000E-03 0.  1.
        -12    1    3    3    0    0 -0.82638712637E+01 -0.38399988086E+01 -0.23179666531E+02  0.24906507174E+02  0.00000000000E+00 0.  1.
</event>
<event>
 7    1  0.2688173E-013  0.7246160E+02  0.7816164E-02  0.1226708E+00
        -11   -1    0    0    0    0  0.00000000000E+00  0.00000000000E+00  0.45593999997E+02  0.45594000000E+02  0.51100000000E-03 0. -1.
         11   -1    0    0    0    0 -0.00000000000E+00 -0.00000000000E+00 -0.45593999997E+02  0.45594000000E+02  0.51100000000E-03 0.  1.
    9900012    2    1    2    0    0  0.12129425152E+02 -0.14252265367E+02 -0.65429460167E+00  0.72461598209E+02  0.70000036364E+02 0.  0.
        -12    1    1    2    0    0 -0.12129425152E+02  0.14252265367E+02  0.65429460167E+00  0.18726401791E+02  0.00000000000E+00 0.  1.
         11    1    3    3    0    0 -0.15451448935E+01 -0.97721181029E+01 -0.39734081247E+01  0.10661601069E+02  0.51100000000E-03 0.  1.
        -11    1    3    3    0    0 -0.10853145801E+02 -0.68291940226E+01  0.25566824823E+02  0.28602293554E+02  0.51100000000E-03 0. -1.
         12    1    3    3    0    0  0.24527715846E+02  0.23490467589E+01 -0.22247711300E+02  0.33197703586E+02  0.00000000000E+00 0. -1.
</event>
<event>
 7    1  0.2688173E-013  0.7246162E+02  0.7816164E-02  0.1226708E+00
        -11   -1    0    0    0    0  0.00000000000E+00  0.00000000000E+00  0.45593999997E+02  0.45594000000E+02  0.51100000000E-03 0. -1.
         11   -1    0    0    0    0 -0.00000000000E+00 -0.00000000000E+00 -0.45593999997E+02  0.45594000000E+02  0.51100000000E-03 0.  1.
    9900012    2    1    2    0    0 -0.13516556985E+02 -0.93007427253E+01  0.90264097172E+01  0.72461622872E+02  0.70000068492E+02 0.  0.
        -12    1    1    2    0    0  0.13516556985E+02  0.93007427253E+01 -0.90264097172E+01  0.18726377128E+02  0.00000000000E+00 0.  1.
         11    1    3    3    0    0 -0.28992517961E+02 -0.51244306804E+01  0.25231749326E+02  0.38774567204E+02  0.51100000000E-03 0. -1.
        -11    1    3    3    0    0  0.15405614668E+01 -0.12498236299E+02 -0.34874504152E+01  0.13066811044E+02  0.51100000000E-03 0.  1.
        -12    1    3    3    0    0  0.13935399510E+02  0.83219242537E+01 -0.12717889194E+02  0.20620244623E+02  0.00000000000E+00 0.  1.
</event>
<event>
 7    1  0.2688173E-013  0.7246157E+02  0.7816164E-02  0.1226708E+00
        -11   -1    0    0    0    0  0.00000000000E+00  0.00000000000E+00  0.45593999997E+02  0.45594000000E+02  0.51100000000E-03 0.  1.
         11   -1    0    0    0    0 -0.00000000000E+00 -0.00000000000E+00 -0.45593999997E+02  0.45594000000E+02  0.51100000000E-03 0. -1.
    9900012    2    1    2    0    0 -0.48648328448E+00 -0.16795322248E+02 -0.82679827153E+01  0.72461573390E+02  0.70000004033E+02 0.  0.
        -12    1    1    2    0    0  0.48648328448E+00  0.16795322248E+02  0.82679827153E+01  0.18726426610E+02  0.00000000000E+00 0.  1.
         11    1    3    3    0    0  0.10511587437E+02 -0.38342884521E+01 -0.78258519548E+00  0.11216402196E+02  0.51100000000E-03 0. -1.
        -11    1    3    3    0    0  0.88956687165E+01  0.78586508439E+01  0.18814873326E+02  0.22246140643E+02  0.51100000000E-03 0.  1.
        -12    1    3    3    0    0 -0.19893739438E+02 -0.20819684640E+02 -0.26300270846E+02  0.38999030550E+02  0.00000000000E+00 0.  1.
</event>
<event>
 7    1  0.2688173E-013  0.7246160E+02  0.7816164E-02  0.1226708E+00
        -11   -1    0    0    0    0  0.00000000000E+00  0.00000000000E+00  0.45593999997E+02  0.45594000000E+02  0.51100000000E-03 0.  1.
         11   -1    0    0    0    0 -0.00000000000E+00 -0.00000000000E+00 -0.45593999997E+02  0.45594000000E+02  0.51100000000E-03 0. -1.
    9900012    2    1    2    0    0  0.96236875339E+01  0.24052836797E+01 -0.15883245343E+02  0.72461595274E+02  0.70000032540E+02 0.  0.
        -12    1    1    2    0    0 -0.96236875339E+01 -0.24052836797E+01  0.15883245343E+02  0.18726404726E+02  0.00000000000E+00 0.  1.
         11    1    3    3    0    0  0.47038421260E+01 -0.15636095035E+01 -0.37655836360E+02  0.37980692696E+02  0.51100000000E-03 0. -1.
        -11    1    3    3    0    0 -0.69783467143E+01  0.50155975155E+01 -0.11133422856E+01  0.86656259213E+01  0.51100000000E-03 0.  1.
        -12    1    3    3    0    0  0.11898192122E+02 -0.10467043323E+01  0.22885933302E+02  0.25815276657E+02  0.00000000000E+00 0.  1.
</event>
<event>
 7    1  0.2688173E-013  0.7246152E+02  0.7816164E-02  0.1226708E+00
        -11   -1    0    0    0    0  0.00000000000E+00  0.00000000000E+00  0.45593999997E+02  0.45594000000E+02  0.51100000000E-03 0. -1.
         11   -1    0    0    0    0 -0.00000000000E+00 -0.00000000000E+00 -0.45593999997E+02  0.45594000000E+02  0.51100000000E-03 0.  1.
    9900012    2    1    2    0    0  0.95032133313E+01  0.50880853307E+01  0.15312789580E+02  0.72461516062E+02  0.69999929353E+02 0.  0.
        -12    1    1    2    0    0 -0.95032133313E+01 -0.50880853307E+01 -0.15312789580E+02  0.18726483938E+02  0.00000000000E+00 0.  1.
         11    1    3    3    0    0  0.19902519433E+02 -0.21480918609E+01  0.13362346157E+02  0.24068171378E+02  0.51100000000E-03 0. -1.
        -11    1    3    3    0    0  0.15570577901E+02  0.13447287269E+02  0.58944872119E+01  0.21401341333E+02  0.51100000000E-03 0.  1.
        -12    1    3    3    0    0 -0.25969884003E+02 -0.62111100778E+01 -0.39440437891E+01  0.26992003351E+02  0.00000000000E+00 0.  1.
</event>
<event>
 7    1  0.2688173E-013  0.7246156E+02  0.7816164E-02  0.1226708E+00
        -11   -1    0    0    0    0  0.00000000000E+00  0.00000000000E+00  0.45593999997E+02  0.45594000000E+02  0.51100000000E-03 0.  1.
         11   -1    0    0    0    0 -0.00000000000E+00 -0.00000000000E+00 -0.45593999997E+02  0.45594000000E+02  0.51100000000E-03 0. -1.
    9900012    2    1    2    0    0 -0.12519885686E+01  0.64297601632E+00 -0.18673469921E+02  0.72461564877E+02  0.69999992943E+02 0.  0.
        -12    1    1    2    0    0  0.12519885686E+01 -0.64297601632E+00  0.18673469921E+02  0.18726435123E+02  0.00000000000E+00 0.  1.
         11    1    3    3    0    0  0.11489804105E+02  0.53024439307E+01  0.52183596536E+01  0.13688052738E+02  0.51100000000E-03 0. -1.
        -11    1    3    3    0    0 -0.18432378930E+02  0.31187070750E+01  0.11597024138E+02  0.21999315806E+02  0.51100000000E-03 0.  1.
         12    1    3    3    0    0  0.56905862556E+01 -0.77781749893E+01 -0.35488853713E+02  0.36774196333E+02  0.00000000000E+00 0. -1.
</event>
<event>
 7    1  0.2688173E-013  0.7246135E+02  0.7816164E-02  0.1226709E+00
        -11   -1    0    0    0    0  0.00000000000E+00  0.00000000000E+00  0.45593999997E+02  0.45594000000E+02  0.51100000000E-03 0. -1.
         11   -1    0    0    0    0 -0.00000000000E+00 -0.00000000000E+00 -0.45593999997E+02  0.45594000000E+02  0.51100000000E-03 0.  1.
    9900012    2    1    2    0    0 -0.13953251936E+02  0.92792574378E+01  0.83599960236E+01  0.72461350762E+02  0.69999714017E+02 0.  0.
        -12    1    1    2    0    0  0.13953251936E+02 -0.92792574378E+01 -0.83599960236E+01  0.18726649238E+02  0.00000000000E+00 0.  1.
         11    1    3    3    0    0 -0.21518953442E+02  0.11812256151E+01  0.34288326076E+02  0.40498764877E+02  0.51100000000E-03 0. -1.
        -11    1    3    3    0    0 -0.13623907251E+01  0.63926155847E+01 -0.27970502993E+01  0.71095100492E+01  0.51100000000E-03 0.  1.
        -12    1    3    3    0    0  0.89280922315E+01  0.17054162380E+01 -0.23131279753E+02  0.24853075835E+02  0.00000000000E+00 0.  1.
</event>
<event>
 7    1  0.2688173E-013  0.7246152E+02  0.7816164E-02  0.1226708E+00
        -11   -1    0    0    0    0  0.00000000000E+00  0.00000000000E+00  0.45593999997E+02  0.45594000000E+02  0.51100000000E-03 0. -1.
         11   -1    0    0    0    0 -0.00000000000E+00 -0.00000000000E+00 -0.45593999997E+02  0.45594000000E+02  0.51100000000E-03 0.  1.
    9900012    2    1    2    0    0 -0.17472101850E+02  0.63015688585E+01  0.23868122564E+01  0.72461521797E+02  0.69999936823E+02 0.  0.
        -12    1    1    2    0    0  0.17472101850E+02 -0.63015688585E+01 -0.23868122564E+01  0.18726478203E+02  0.00000000000E+00 0.  1.
         11    1    3    3    0    0 -0.22924888767E+02  0.75235606376E+01 -0.32159373332E+01  0.24341255983E+02  0.51100000000E-03 0. -1.
        -11    1    3    3    0    0  0.11105556333E+02 -0.36368810235E+01 -0.19249575795E+02  0.22519024259E+02  0.51100000000E-03 0.  1.
        -12    1    3    3    0    0 -0.56527694161E+01  0.24148892443E+01  0.24852325384E+02  0.25601241554E+02  0.00000000000E+00 0.  1.
</event>
<event>
 7    1  0.2688173E-013  0.7246156E+02  0.7816164E-02  0.1226708E+00
        -11   -1    0    0    0    0  0.00000000000E+00  0.00000000000E+00  0.45593999997E+02  0.45594000000E+02  0.51100000000E-03 0.  1.
         11   -1    0    0    0    0 -0.00000000000E+00 -0.00000000000E+00 -0.45593999997E+02  0.45594000000E+02  0.51100000000E-03 0. -1.
    9900012    2    1    2    0    0 -0.79228996556E+00  0.15464711560E+02 -0.10530643150E+02  0.72461562213E+02  0.69999989473E+02 0.  0.
        -12    1    1    2    0    0  0.79228996556E+00 -0.15464711560E+02  0.10530643150E+02  0.18726437787E+02  0.00000000000E+00 0.  1.
         11    1    3    3    0    0  0.61178726511E-02 -0.14418017720E+02  0.24806620430E+01  0.14629865236E+02  0.51100000000E-03 0. -1.
        -11    1    3    3    0    0 -0.12870032030E+02  0.30239187557E+01  0.13000216932E+02  0.18541506131E+02  0.51100000000E-03 0.  1.
         12    1    3    3    0    0  0.12071624191E+02  0.26858810524E+02 -0.26011522125E+02  0.39290190845E+02  0.00000000000E+00 0. -1.
</event>
<event>
 7    1  0.2688173E-013  0.7246160E+02  0.7816164E-02  0.1226708E+00
        -11   -1    0    0    0    0  0.00000000000E+00  0.00000000000E+00  0.45593999997E+02  0.45594000000E+02  0.51100000000E-03 0.  1.
         11   -1    0    0    0    0 -0.00000000000E+00 -0.00000000000E+00 -0.45593999997E+02  0.45594000000E+02  0.51100000000E-03 0. -1.
    9900012    2    1    2    0    0  0.87723613575E+01  0.11186509119E+02  0.12189567983E+02  0.72461604787E+02  0.70000044933E+02 0.  0.
        -12    1    1    2    0    0 -0.87723613575E+01 -0.11186509119E+02 -0.12189567983E+02  0.18726395213E+02  0.00000000000E+00 0.  1.
         11    1    3    3    0    0  0.31691644240E+02  0.10739839021E+02  0.14094823637E+02  0.36309344671E+02  0.51100000000E-03 0. -1.
        -11    1    3    3    0    0 -0.11566741354E+02  0.12247371695E+02  0.61114412033E+01  0.17920305043E+02  0.51100000000E-03 0.  1.
         12    1    3    3    0    0 -0.11352541528E+02 -0.11800701596E+02 -0.80166968570E+01  0.18231955074E+02  0.00000000000E+00 0. -1.
</event>
<event>
 7    1  0.2688173E-013  0.7246156E+02  0.7816164E-02  0.1226708E+00
        -11   -1    0    0    0    0  0.00000000000E+00  0.00000000000E+00  0.45593999997E+02  0.45594000000E+02  0.51100000000E-03 0. -1.
         11   -1    0    0    0    0 -0.00000000000E+00 -0.00000000000E+00 -0.45593999997E+02  0.45594000000E+02  0.51100000000E-03 0.  1.
    9900012    2    1    2    0    0 -0.14526540187E+02  0.57762696324E+01  0.10309886014E+02  0.72461563866E+02  0.69999991626E+02 0.  0.
        -12    1    1    2    0    0  0.14526540187E+02 -0.57762696324E+01 -0.10309886014E+02  0.18726436134E+02  0.00000000000E+00 0.  1.
         11    1    3    3    0    0 -0.23840574934E+00  0.40624277789E+01 -0.13820672834E+02  0.14407329892E+02  0.51100000000E-03 0. -1.
        -11    1    3    3    0    0  0.16683898410E+02 -0.45605381149E+01  0.19583079718E+02  0.26127533094E+02  0.51100000000E-03 0.  1.
         12    1    3    3    0    0 -0.30972032847E+02  0.62743799684E+01  0.45474791301E+01  0.31926700880E+02  0.00000000000E+00 0. -1.
</event>
<event>
 7    1  0.2688173E-013  0.7246146E+02  0.7816164E-02  0.1226708E+00
        -11   -1    0    0    0    0  0.00000000000E+00  0.00000000000E+00  0.45593999997E+02  0.45594000000E+02  0.51100000000E-03 0.  1.
         11   -1    0    0    0    0 -0.00000000000E+00 -0.00000000000E+00 -0.45593999997E+02  0.45594000000E+02  0.51100000000E-03 0. -1.
    9900012    2    1    2    0    0 -0.17869255250E+02  0.47417290166E+01  0.29814745092E+01  0.72461455538E+02  0.69999850508E+02 0.  0.
        -12    1    1    2    0    0  0.17869255250E+02 -0.47417290166E+01 -0.29814745092E+01  0.18726544462E+02  0.00000000000E+00 0.  1.
         11    1    3    3    0    0 -0.22030629214E+02 -0.25338150354E+02 -0.10100991637E+02  0.35062808205E+02  0.51100000000E-03 0. -1.
        -11    1    3    3    0    0 -0.12354625523E+01 -0.13295624549E+00 -0.26377680568E+01  0.29157958885E+01  0.51100000000E-03 0.  1.
        -12    1    3    3    0    0  0.53968365169E+01  0.30212835616E+02  0.15720234203E+02  0.34482851444E+02  0.00000000000E+00 0.  1.
</event>
<event>
 7    1  0.2688173E-013  0.7246155E+02  0.7816164E-02  0.1226708E+00
        -11   -1    0    0    0    0  0.00000000000E+00  0.00000000000E+00  0.45593999997E+02  0.45594000000E+02  0.51100000000E-03 0.  1.
         11   -1    0    0    0    0 -0.00000000000E+00 -0.00000000000E+00 -0.45593999997E+02  0.45594000000E+02  0.51100000000E-03 0. -1.
    9900012    2    1    2    0    0 -0.51502235680E+01  0.80583468523E+01 -0.16100250109E+02  0.72461553184E+02  0.69999977711E+02 0.  0.
        -12    1    1    2    0    0  0.51502235680E+01 -0.80583468523E+01  0.16100250109E+02  0.18726446816E+02  0.00000000000E+00 0.  1.
         11    1    3    3    0    0 -0.10919485751E+02  0.51911870001E+01  0.91825438070E+01  0.15182315455E+02  0.51100000000E-03 0.  1.
        -11    1    3    3    0    0  0.25811529248E+02 -0.92332913063E+01 -0.93656811192E+01  0.28969029904E+02  0.51100000000E-03 0. -1.
         12    1    3    3    0    0 -0.20042267065E+02  0.12100451158E+02 -0.15917112796E+02  0.28310207825E+02  0.00000000000E+00 0. -1.
</event>
<event>
 7    1  0.2688173E-013  0.7246154E+02  0.7816164E-02  0.1226708E+00
        -11   -1    0    0    0    0  0.00000000000E+00  0.00000000000E+00  0.45593999997E+02  0.45594000000E+02  0.51100000000E-03 0. -1.
         11   -1    0    0    0    0 -0.00000000000E+00 -0.00000000000E+00 -0.45593999997E+02  0.45594000000E+02  0.51100000000E-03 0.  1.
    9900012    2    1    2    0    0  0.85515850522E+01 -0.45618663665E+01  0.16023109083E+02  0.72461541276E+02  0.69999962198E+02 0.  0.
        -12    1    1    2    0    0 -0.85515850522E+01  0.45618663665E+01 -0.16023109083E+02  0.18726458724E+02  0.00000000000E+00 0.  1.
         11    1    3    3    0    0 -0.99367432436E+00  0.39907816926E+01  0.14274432369E+01  0.43533115713E+01  0.51100000000E-03 0. -1.
        -11    1    3    3    0    0 -0.79372087424E+01  0.23627022713E+02  0.18836161201E+02  0.31241582130E+02  0.51100000000E-03 0.  1.
         12    1    3    3    0    0  0.17482468119E+02 -0.32179670772E+02 -0.42404953548E+01  0.36866647575E+02  0.00000000000E+00 0. -1.
</event>
<event>
 7    1  0.2688173E-013  0.7246152E+02  0.7816164E-02  0.1226708E+00
        -11   -1    0    0    0    0  0.00000000000E+00  0.00000000000E+00  0.45593999997E+02  0.45594000000E+02  0.51100000000E-03 0.  1.
         11   -1    0    0    0    0 -0.00000000000E+00 -0.00000000000E+00 -0.45593999997E+02  0.45594000000E+02  0.51100000000E-03 0. -1.
    9900012    2    1    2    0    0  0.10034271204E+02 -0.14043484764E+02 -0.72646381667E+01  0.72461520603E+02  0.69999935268E+02 0.  0.
        -12    1    1    2    0    0 -0.10034271204E+02  0.14043484764E+02  0.72646381667E+01  0.18726479397E+02  0.00000000000E+00 0.  1.
         11    1    3    3    0    0  0.50843180687E+00  0.42251760557E+01 -0.24679837845E+00  0.42628072094E+01  0.51100000000E-03 0. -1.
        -11    1    3    3    0    0  0.32432405032E+02  0.13702184097E+01 -0.16707014507E+02  0.36508392579E+02  0.51100000000E-03 0.  1.
         12    1    3    3    0    0 -0.22906565635E+02 -0.19638879230E+02  0.96891747192E+01  0.31690320815E+02  0.00000000000E+00 0. -1.
</event>
<event>
 7    1  0.2688173E-013  0.7246162E+02  0.7816164E-02  0.1226708E+00
        -11   -1    0    0    0    0  0.00000000000E+00  0.00000000000E+00  0.45593999997E+02  0.45594000000E+02  0.51100000000E-03 0.  1.
         11   -1    0    0    0    0 -0.00000000000E+00 -0.00000000000E+00 -0.45593999997E+02  0.45594000000E+02  0.51100000000E-03 0. -1.
    9900012    2    1    2    0    0 -0.41910987739E+01  0.12846521420E+02 -0.12964521951E+02  0.72461621521E+02  0.70000066732E+02 0.  0.
        -12    1    1    2    0    0  0.41910987739E+01 -0.12846521420E+02  0.12964521951E+02  0.18726378479E+02  0.00000000000E+00 0.  1.
         11    1    3    3    0    0 -0.54263547784E+01  0.13345436943E+02  0.10283917700E+02  0.17700423071E+02  0.51100000000E-03 0. -1.
        -11    1    3    3    0    0 -0.94873840659E+01 -0.16861463911E+02  0.53851521202E+01  0.20082810691E+02  0.51100000000E-03 0.  1.
         12    1    3    3    0    0  0.10722640070E+02  0.16362548388E+02 -0.28633591771E+02  0.34678387759E+02  0.00000000000E+00 0. -1.
</event>
<event>
 7    1  0.2688173E-013  0.7246102E+02  0.7816164E-02  0.1226709E+00
        -11   -1    0    0    0    0  0.00000000000E+00  0.00000000000E+00  0.45593999997E+02  0.45594000000E+02  0.51100000000E-03 0.  1.
         11   -1    0    0    0    0 -0.00000000000E+00 -0.00000000000E+00 -0.45593999997E+02  0.45594000000E+02  0.51100000000E-03 0. -1.
    9900012    2    1    2    0    0 -0.11477571666E+02  0.13511925379E+02  0.60326504205E+01  0.72461023472E+02  0.69999287659E+02 0.  0.
        -12    1    1    2    0    0  0.11477571666E+02 -0.13511925379E+02 -0.60326504205E+01  0.18726976528E+02  0.00000000000E+00 0.  1.
         11    1    3    3    0    0 -0.63412658857E+01  0.86516779749E+01  0.97176344497E+01  0.14473962981E+02  0.51100000000E-03 0. -1.
        -11    1    3    3    0    0 -0.16128174135E+00  0.15572330171E+02  0.23588751597E+02  0.28265751024E+02  0.51100000000E-03 0.  1.
         12    1    3    3    0    0 -0.49750240390E+01 -0.10712082767E+02 -0.27273735627E+02  0.29721309467E+02  0.00000000000E+00 0. -1.
</event>
<event>
 7    1  0.2688173E-013  0.7246156E+02  0.7816164E-02  0.1226708E+00
        -11   -1    0    0    0    0  0.00000000000E+00  0.00000000000E+00  0.45593999997E+02  0.45594000000E+02  0.51100000000E-03 0. -1.
         11   -1    0    0    0    0 -0.00000000000E+00 -0.00000000000E+00 -0.45593999997E+02  0.45594000000E+02  0.51100000000E-03 0.  1.
    9900012    2    1    2    0    0  0.61187038319E+01 -0.99198073734E+01 -0.14657374331E+02  0.72461555137E+02  0.69999980255E+02 0.  0.
        -12    1    1    2    0    0 -0.61187038319E+01  0.99198073734E+01  0.14657374331E+02  0.18726444863E+02  0.00000000000E+00 0.  1.
         11    1    3    3    0    0 -0.15734241077E+02  0.64665717979E+01 -0.89439109456E+01  0.19219168461E+02  0.51100000000E-03 0. -1.
        -11    1    3    3    0    0 -0.66878567242E+01 -0.31970613732E+00 -0.17260922734E+02  0.18514024238E+02  0.51100000000E-03 0.  1.
         12    1    3    3    0    0  0.28540801633E+02 -0.16066673034E+02  0.11547459348E+02  0.34728362438E+02  0.00000000000E+00 0. -1.
</event>
<event>
 7    1  0.2688173E-013  0.7246160E+02  0.7816164E-02  0.1226708E+00
        -11   -1    0    0    0    0  0.00000000000E+00  0.00000000000E+00  0.45593999997E+02  0.45594000000E+02  0.51100000000E-03 0. -1.
         11   -1    0    0    0    0 -0.00000000000E+00 -0.00000000000E+00 -0.45593999997E+02  0.45594000000E+02  0.51100000000E-03 0.  1.
    9900012    2    1    2    0    0  0.89621114599E+01 -0.92393146570E+01  0.13601236085E+02  0.72461601516E+02  0.70000040672E+02 0.  0.
        -12    1    1    2    0    0 -0.89621114599E+01  0.92393146570E+01 -0.13601236085E+02  0.18726398484E+02  0.00000000000E+00 0.  1.
         11    1    3    3    0    0  0.91694707302E+01 -0.15968068542E+02 -0.98939024381E+01  0.20903294290E+02  0.51100000000E-03 0. -1.
        -11    1    3    3    0    0 -0.73300798848E+01 -0.10398450284E+02 -0.79843274573E+01  0.15020230512E+02  0.51100000000E-03 0.  1.
        -12    1    3    3    0    0  0.71227206145E+01  0.17127204169E+02  0.31479465980E+02  0.36538076714E+02  0.00000000000E+00 0.  1.
</event>
<event>
 7    1  0.2688173E-013  0.7246152E+02  0.7816164E-02  0.1226708E+00
        -11   -1    0    0    0    0  0.00000000000E+00  0.00000000000E+00  0.45593999997E+02  0.45594000000E+02  0.51100000000E-03 0. -1.
         11   -1    0    0    0    0 -0.00000000000E+00 -0.00000000000E+00 -0.45593999997E+02  0.45594000000E+02  0.51100000000E-03 0.  1.
    9900012    2    1    2    0    0  0.46819940079E+01  0.86278494926E+01  0.15947423477E+02  0.72461516873E+02  0.69999930409E+02 0.  0.
        -12    1    1    2    0    0 -0.46819940079E+01 -0.86278494926E+01 -0.15947423477E+02  0.18726483127E+02  0.00000000000E+00 0.  1.
         11    1    3    3    0    0 -0.17447067189E+02 -0.92956664980E+01  0.13149358488E+02  0.23742687254E+02  0.51100000000E-03 0. -1.
        -11    1    3    3    0    0 -0.10862760730E+02  0.57880852802E+01 -0.39443113572E+01  0.12925134205E+02  0.51100000000E-03 0.  1.
        -12    1    3    3    0    0  0.32991821927E+02  0.12135430710E+02  0.67423763461E+01  0.35793695414E+02  0.00000000000E+00 0.  1.
</event>
<event>
 7    1  0.2688173E-013  0.7246156E+02  0.7816164E-02  0.1226708E+00
        -11   -1    0    0    0    0  0.00000000000E+00  0.00000000000E+00  0.45593999997E+02  0.45594000000E+02  0.51100000000E-03 0. -1.
         11   -1    0    0    0    0 -0.00000000000E+00 -0.00000000000E+00 -0.45593999997E+02  0.45594000000E+02  0.51100000000E-03 0.  1.
    9900012    2    1    2    0    0  0.77807036546E+01 -0.14278504879E+02  0.92878603324E+01  0.72461564127E+02  0.69999991966E+02 0.  0.
        -12    1    1    2    0    0 -0.77807036546E+01  0.14278504879E+02 -0.92878603324E+01  0.18726435873E+02  0.00000000000E+00 0.  1.
         11    1    3    3    0    0  0.19860070317E+02  0.87494285034E+01 -0.24870825859E+01  0.21844003117E+02  0.51100000000E-03 0. -1.
        -11    1    3    3    0    0  0.57075884475E+01 -0.28235383411E+02  0.13859443509E+02  0.31967133386E+02  0.51100000000E-03 0.  1.
        -12    1    3    3    0    0 -0.17786955110E+02  0.52074500285E+01 -0.20845005908E+01  0.18650427625E+02  0.00000000000E+00 0.  1.
</event>
<event>
 7    1  0.2688173E-013  0.7246157E+02  0.7816164E-02  0.1226708E+00
        -11   -1    0    0    0    0  0.00000000000E+00  0.00000000000E+00  0.45593999997E+02  0.45594000000E+02  0.51100000000E-03 0. -1.
         11   -1    0    0    0    0 -0.00000000000E+00 -0.00000000000E+00 -0.45593999997E+02  0.45594000000E+02  0.51100000000E-03 0.  1.
    9900012    2    1    2    0    0  0.13524416319E+02 -0.86992791142E+01 -0.95964508473E+01  0.72461570475E+02  0.70000000235E+02 0.  0.
        -12    1    1    2    0    0 -0.13524416319E+02  0.86992791142E+01  0.95964508473E+01  0.18726429525E+02  0.00000000000E+00 0.  1.
         11    1    3    3    0    0 -0.52013996490E+01  0.17241561640E+02  0.16903535211E+02  0.24699301791E+02  0.51100000000E-03 0. -1.
        -11    1    3    3    0    0 -0.13560273044E+01 -0.14635516933E+02 -0.33049913806E+01  0.15065196123E+02  0.51100000000E-03 0.  1.
        -12    1    3    3    0    0  0.20081843273E+02 -0.11305323821E+02 -0.23194994678E+02  0.32697072561E+02  0.00000000000E+00 0.  1.
</event>
<event>
 7    1  0.2688173E-013  0.7246173E+02  0.7816164E-02  0.1226708E+00
        -11   -1    0    0    0    0  0.00000000000E+00  0.00000000000E+00  0.45593999997E+02  0.45594000000E+02  0.51100000000E-03 0.  1.
         11   -1    0    0    0    0 -0.00000000000E+00 -0.00000000000E+00 -0.45593999997E+02  0.45594000000E+02  0.51100000000E-03 0. -1.
    9900012    2    1    2    0    0 -0.14843712249E+02 -0.10786446232E+02 -0.37403219576E+01  0.72461729042E+02  0.70000206798E+02 0.  0.
        -12    1    1    2    0    0  0.14843712249E+02  0.10786446232E+02  0.37403219576E+01  0.18726270958E+02  0.00000000000E+00 0.  1.
         11    1    3    3    0    0 -0.69685746360E+01 -0.23175307170E+01  0.14444173982E+02  0.16203892846E+02  0.51100000000E-03 0. -1.
        -11    1    3    3    0    0 -0.88402481914E+01 -0.27669678696E+02  0.10450559190E+01  0.29066359410E+02  0.51100000000E-03 0.  1.
         12    1    3    3    0    0  0.96511057830E+00  0.19200763181E+02 -0.19229551858E+02  0.27191476786E+02  0.00000000000E+00 0. -1.
</event>
<event>
 7    1  0.2688173E-013  0.7246157E+02  0.7816164E-02  0.1226708E+00
        -11   -1    0    0    0    0  0.00000000000E+00  0.00000000000E+00  0.45593999997E+02  0.45594000000E+02  0.51100000000E-03 0. -1.
         11   -1    0    0    0    0 -0.00000000000E+00 -0.00000000000E+00 -0.45593999997E+02  0.45594000000E+02  0.51100000000E-03 0.  1.
    9900012    2    1    2    0    0 -0.15635605168E+01  0.83775120549E+01  0.16674882172E+02  0.72461571479E+02  0.70000001543E+02 0.  0.
        -12    1    1    2    0    0  0.15635605168E+01 -0.83775120549E+01 -0.16674882172E+02  0.18726428521E+02  0.00000000000E+00 0.  1.
         11    1    3    3    0    0  0.10846862974E+01  0.16667430218E+01  0.32524208483E+01  0.38121933713E+01  0.51100000000E-03 0. -1.
        -11    1    3    3    0    0 -0.26361112982E+02 -0.17052703946E+02  0.15501354229E+02  0.35014211011E+02  0.51100000000E-03 0.  1.
         12    1    3    3    0    0  0.23712866168E+02  0.23763472979E+02 -0.20788929052E+01  0.33635167097E+02  0.00000000000E+00 0. -1.
</event>
<event>
 7    1  0.2688173E-013  0.7246143E+02  0.7816164E-02  0.1226708E+00
        -11   -1    0    0    0    0  0.00000000000E+00  0.00000000000E+00  0.45593999997E+02  0.45594000000E+02  0.51100000000E-03 0. -1.
         11   -1    0    0    0    0 -0.00000000000E+00 -0.00000000000E+00 -0.45593999997E+02  0.45594000000E+02  0.51100000000E-03 0.  1.
    9900012    2    1    2    0    0 -0.16844841801E+02  0.16280864244E+01 -0.80177996241E+01  0.72461428731E+02  0.69999815587E+02 0.  0.
        -12    1    1    2    0    0  0.16844841801E+02 -0.16280864244E+01  0.80177996241E+01  0.18726571269E+02  0.00000000000E+00 0.  1.
         11    1    3    3    0    0 -0.16246541767E+02  0.13674872477E+02  0.21610034551E+02  0.30297621197E+02  0.51100000000E-03 0. -1.
        -11    1    3    3    0    0 -0.12342236470E+02 -0.47646598923E+01 -0.54353907922E+01  0.14303015706E+02  0.51100000000E-03 0.  1.
        -12    1    3    3    0    0  0.11743936436E+02 -0.72821261604E+01 -0.24192443383E+02  0.27860791828E+02  0.00000000000E+00 0.  1.
</event>
<event>
 7    1  0.2688173E-013  0.7246155E+02  0.7816164E-02  0.1226708E+00
        -11   -1    0    0    0    0  0.00000000000E+00  0.00000000000E+00  0.45593999997E+02  0.45594000000E+02  0.51100000000E-03 0. -1.
         11   -1    0    0    0    0 -0.00000000000E+00 -0.00000000000E+00 -0.45593999997E+02  0.45594000000E+02  0.51100000000E-03 0.  1.
    9900012    2    1    2    0    0 -0.16880056631E+02 -0.18583243685E+01  0.78924099311E+01  0.72461553038E+02  0.69999977520E+02 0.  0.
        -12    1    1    2    0    0  0.16880056631E+02  0.18583243685E+01 -0.78924099311E+01  0.18726446962E+02  0.00000000000E+00 0.  1.
         11    1    3    3    0    0 -0.14733298716E+02  0.10372398439E+01  0.45975427894E+01  0.15468786556E+02  0.51100000000E-03 0. -1.
        -11    1    3    3    0    0 -0.14546473283E+02 -0.14478422376E+02 -0.19677757133E+02  0.28433056915E+02  0.51100000000E-03 0.  1.
         12    1    3    3    0    0  0.12399715369E+02  0.11582858164E+02  0.22972624275E+02  0.28559709567E+02  0.00000000000E+00 0. -1.
</event>
<event>
 7    1  0.2688173E-013  0.7246147E+02  0.7816164E-02  0.1226708E+00
        -11   -1    0    0    0    0  0.00000000000E+00  0.00000000000E+00  0.45593999997E+02  0.45594000000E+02  0.51100000000E-03 0. -1.
         11   -1    0    0    0    0 -0.00000000000E+00 -0.00000000000E+00 -0.45593999997E+02  0.45594000000E+02  0.51100000000E-03 0.  1.
    9900012    2    1    2    0    0 -0.12697852504E+02 -0.31479507641E+01  0.13399181342E+02  0.72461465007E+02  0.69999862843E+02 0.  0.
        -12    1    1    2    0    0  0.12697852504E+02  0.31479507641E+01 -0.13399181342E+02  0.18726534993E+02  0.00000000000E+00 0.  1.
         11    1    3    3    0    0  0.37473268773E+00  0.23050956909E+01  0.17923033155E+02  0.18074540339E+02  0.51100000000E-03 0. -1.
        -11    1    3    3    0    0  0.19093804276E+02 -0.40536819819E+01  0.61526635250E+01  0.20466093131E+02  0.51100000000E-03 0.  1.
         12    1    3    3    0    0 -0.32166389468E+02 -0.13993644731E+01 -0.10676515339E+02  0.33920831536E+02  0.00000000000E+00 0. -1.
</event>
<event>
 7    1  0.2688173E-013  0.7246157E+02  0.7816164E-02  0.1226708E+00
        -11   -1    0    0    0    0  0.00000000000E+00  0.00000000000E+00  0.45593999997E+02  0.45594000000E+02  0.51100000000E-03 0.  1.
         11   -1    0    0    0    0 -0.00000000000E+00 -0.00000000000E+00 -0.45593999997E+02  0.45594000000E+02  0.51100000000E-03 0. -1.
    9900012    2    1    2    0    0  0.14296052546E+02 -0.74398781642E+01 -0.95367849247E+01  0.72461570223E+02  0.69999999907E+02 0.  0.
        -12    1    1    2    0    0 -0.14296052546E+02  0.74398781642E+01  0.95367849247E+01  0.18726429777E+02  0.00000000000E+00 0.  1.
         11    1    3    3    0    0 -0.45435561846E+01  0.26782471184E+01 -0.11555960913E+01  0.53992881955E+01  0.51100000000E-03 0. -1.
        -11    1    3    3    0    0 -0.49436922727E+01  0.24245548336E+02 -0.29549040378E+01  0.24920236065E+02  0.51100000000E-03 0.  1.
         12    1    3    3    0    0  0.23783301003E+02 -0.34363673619E+02 -0.54262847956E+01  0.42142045962E+02  0.00000000000E+00 0. -1.
</event>
<event>
 7    1  0.2688173E-013  0.7246152E+02  0.7816164E-02  0.1226708E+00
        -11   -1    0    0    0    0  0.00000000000E+00  0.00000000000E+00  0.45593999997E+02  0.45594000000E+02  0.51100000000E-03 0.  1.
         11   -1    0    0    0    0 -0.00000000000E+00 -0.00000000000E+00 -0.45593999997E+02  0.45594000000E+02  0.51100000000E-03 0. -1.
    9900012    2    1    2    0    0 -0.10041512439E+02  0.89500003143E+01 -0.13028676877E+02  0.72461524120E+02  0.69999939850E+02 0.  0.
        -12    1    1    2    0    0  0.10041512439E+02 -0.89500003143E+01  0.13028676877E+02  0.18726475880E+02  0.00000000000E+00 0.  1.
         11    1    3    3    0    0  0.14625265057E+02  0.22279693748E+02 -0.24687144944E+01  0.26765232728E+02  0.51100000000E-03 0. -1.
        -11    1    3    3    0    0  0.15787192530E+00  0.82868285548E+01  0.45741696779E+01  0.94667565483E+01  0.51100000000E-03 0.  1.
        -12    1    3    3    0    0 -0.24824649422E+02 -0.21616521988E+02 -0.15134132061E+02  0.36229534844E+02  0.00000000000E+00 0.  1.
</event>
<event>
 7    1  0.2688173E-013  0.7246146E+02  0.7816164E-02  0.1226708E+00
        -11   -1    0    0    0    0  0.00000000000E+00  0.00000000000E+00  0.45593999997E+02  0.45594000000E+02  0.51100000000E-03 0.  1.
         11   -1    0    0    0    0 -0.00000000000E+00 -0.00000000000E+00 -0.45593999997E+02  0.45594000000E+02  0.51100000000E-03 0. -1.
    9900012    2    1    2    0    0  0.25645718990E+01  0.16383236440E+02 -0.87003308358E+01  0.72461462095E+02  0.69999859050E+02 0.  0.
        -12    1    1    2    0    0 -0.25645718990E+01 -0.16383236440E+02  0.87003308358E+01  0.18726537905E+02  0.00000000000E+00 0.  1.
         11    1    3    3    0    0 -0.11616052653E+02 -0.11888553002E+02 -0.83925600021E+00  0.16642557574E+02  0.51100000000E-03 0. -1.
        -11    1    3    3    0    0  0.17752296171E+02  0.32588263319E+02  0.88865574971E+01  0.38159007192E+02  0.51100000000E-03 0.  1.
         12    1    3    3    0    0 -0.35716716193E+01 -0.43164738774E+01 -0.16747632333E+02  0.17659897328E+02  0.00000000000E+00 0. -1.
</event>
<event>
 7    1  0.2688173E-013  0.7246146E+02  0.7816164E-02  0.1226708E+00
        -11   -1    0    0    0    0  0.00000000000E+00  0.00000000000E+00  0.45593999997E+02  0.45594000000E+02  0.51100000000E-03 0.  1.
         11   -1    0    0    0    0 -0.00000000000E+00 -0.00000000000E+00 -0.45593999997E+02  0.45594000000E+02  0.51100000000E-03 0. -1.
    9900012    2    1    2    0    0 -0.44897278073E+01 -0.15578934415E+02 -0.93713565935E+01  0.72461463275E+02  0.69999860588E+02 0.  0.
        -12    1    1    2    0    0  0.44897278073E+01  0.15578934415E+02  0.93713565935E+01  0.18726536725E+02  0.00000000000E+00 0.  1.
         11    1    3    3    0    0 -0.17100084397E+02 -0.20020187136E+02 -0.12896599178E+02  0.29317964629E+02  0.51100000000E-03 0. -1.
        -11    1    3    3    0    0 -0.79637078032E+01  0.14611510823E+02  0.98498954853E+01  0.19337459291E+02  0.51100000000E-03 0.  1.
        -12    1    3    3    0    0  0.20574064393E+02 -0.10170258102E+02 -0.63246529006E+01  0.23806039356E+02  0.00000000000E+00 0.  1.
</event>
<event>
 7    1  0.2688173E-013  0.7246157E+02  0.7816164E-02  0.1226708E+00
        -11   -1    0    0    0    0  0.00000000000E+00  0.00000000000E+00  0.45593999997E+02  0.45594000000E+02  0.51100000000E-03 0.  1.
         11   -1    0    0    0    0 -0.00000000000E+00 -0.00000000000E+00 -0.45593999997E+02  0.45594000000E+02  0.51100000000E-03 0. -1.
    9900012    2    1    2    0    0 -0.39060723027E+01  0.17326889615E+02  0.59330297422E+01  0.72461565569E+02  0.69999993845E+02 0.  0.
        -12    1    1    2    0    0  0.39060723027E+01 -0.17326889615E+02 -0.59330297422E+01  0.18726434431E+02  0.00000000000E+00 0.  1.
         11    1    3    3    0    0  0.11862445499E+02  0.22100149398E+02 -0.82861588866E+01  0.26415802959E+02  0.51100000000E-03 0. -1.
        -11    1    3    3    0    0  0.10819736907E+02 -0.40756827649E+00 -0.59816403172E+01  0.12369835883E+02  0.51100000000E-03 0.  1.
        -12    1    3    3    0    0 -0.26588254709E+02 -0.43656915063E+01  0.20200828946E+02  0.33675926727E+02  0.00000000000E+00 0.  1.
</event>
<event>
 7    1  0.2688173E-013  0.7246155E+02  0.7816164E-02  0.1226708E+00
        -11   -1    0    0    0    0  0.00000000000E+00  0.00000000000E+00  0.45593999997E+02  0.45594000000E+02  0.51100000000E-03 0.  1.
         11   -1    0    0    0    0 -0.00000000000E+00 -0.00000000000E+00 -0.45593999997E+02  0.45594000000E+02  0.51100000000E-03 0. -1.
    9900012    2    1    2    0    0  0.16435311983E+02 -0.57426443901E+00 -0.89571519962E+01  0.72461552619E+02  0.69999976974E+02 0.  0.
        -12    1    1    2    0    0 -0.16435311983E+02  0.57426443901E+00  0.89571519962E+01  0.18726447381E+02  0.00000000000E+00 0.  1.
         11    1    3    3    0    0  0.96753765960E+01 -0.17327541090E+02 -0.64415050575E+01  0.20865032475E+02  0.51100000000E-03 0. -1.
        -11    1    3    3    0    0  0.20651335040E+02 -0.73964599048E+01 -0.77196429919E+01  0.23254637091E+02  0.51100000000E-03 0.  1.
        -12    1    3    3    0    0 -0.13891399653E+02  0.24149736556E+02  0.52039960532E+01  0.28341883053E+02  0.00000000000E+00 0.  1.
</event>
<event>
 7    1  0.2688173E-013  0.7246159E+02  0.7816164E-02  0.1226708E+00
        -11   -1    0    0    0    0  0.00000000000E+00  0.00000000000E+00  0.45593999997E+02  0.45594000000E+02  0.51100000000E-03 0. -1.
         11   -1    0    0    0    0 -0.00000000000E+00 -0.00000000000E+00 -0.45593999997E+02  0.45594000000E+02  0.51100000000E-03 0.  1.
    9900012    2    1    2    0    0  0.19855204436E+01  0.12867665506E+02  0.13459542109E+02  0.72461591354E+02  0.70000027434E+02 0.  0.
        -12    1    1    2    0    0 -0.19855204436E+01 -0.12867665506E+02 -0.13459542109E+02  0.18726408646E+02  0.00000000000E+00 0.  1.
         11    1    3    3    0    0 -0.13439835304E+02  0.21756044570E+02  0.25765667705E+02  0.36301849552E+02  0.51100000000E-03 0. -1.
        -11    1    3    3    0    0  0.34409125709E+01 -0.11950558106E+02  0.62034921736E+01  0.13897447024E+02  0.51100000000E-03 0.  1.
        -12    1    3    3    0    0  0.11984443177E+02  0.30621790422E+01 -0.18509617770E+02  0.22262294777E+02  0.00000000000E+00 0.  1.
</event>
<event>
 7    1  0.2688173E-013  0.7246156E+02  0.7816164E-02  0.1226708E+00
        -11   -1    0    0    0    0  0.00000000000E+00  0.00000000000E+00  0.45593999997E+02  0.45594000000E+02  0.51100000000E-03 0.  1.
         11   -1    0    0    0    0 -0.00000000000E+00 -0.00000000000E+00 -0.45593999997E+02  0.45594000000E+02  0.51100000000E-03 0. -1.
    9900012    2    1    2    0    0  0.16902467597E+02  0.77570348657E+01  0.21942459682E+01  0.72461555699E+02  0.69999980987E+02 0.  0.
        -12    1    1    2    0    0 -0.16902467597E+02 -0.77570348657E+01 -0.21942459682E+01  0.18726444301E+02  0.00000000000E+00 0.  1.
         11    1    3    3    0    0  0.51878730743E+00  0.63487932441E+01 -0.24828372444E+02  0.25632487090E+02  0.51100000000E-03 0. -1.
        -11    1    3    3    0    0 -0.10229934192E+02 -0.16782029943E+01  0.12879300398E+02  0.16533127286E+02  0.51100000000E-03 0.  1.
        -12    1    3    3    0    0  0.26613614482E+02  0.30864446159E+01  0.14143318015E+02  0.30295941323E+02  0.00000000000E+00 0.  1.
</event>
<event>
 7    1  0.2688173E-013  0.7246151E+02  0.7816164E-02  0.1226708E+00
        -11   -1    0    0    0    0  0.00000000000E+00  0.00000000000E+00  0.45593999997E+02  0.45594000000E+02  0.51100000000E-03 0.  1.
         11   -1    0    0    0    0 -0.00000000000E+00 -0.00000000000E+00 -0.45593999997E+02  0.45594000000E+02  0.51100000000E-03 0. -1.
    9900012    2    1    2    0    0  0.51256730388E+01  0.17949824685E+02 -0.14874588940E+01  0.72461514364E+02  0.69999927141E+02 0.  0.
        -12    1    1    2    0    0 -0.51256730388E+01 -0.17949824685E+02  0.14874588940E+01  0.18726485636E+02  0.00000000000E+00 0.  1.
         11    1    3    3    0    0  0.52013466888E+01  0.19691868738E+01  0.10386452857E+01  0.56577812445E+01  0.51100000000E-03 0. -1.
        -11    1    3    3    0    0  0.18789978942E+02  0.91626740787E+01  0.25098395306E+02  0.32664160055E+02  0.51100000000E-03 0.  1.
         12    1    3    3    0    0 -0.18865652592E+02  0.68179637321E+01 -0.27624499486E+02  0.34139573064E+02  0.00000000000E+00 0. -1.
</event>
<event>
 7    1  0.2688173E-013  0.7246159E+02  0.7816164E-02  0.1226708E+00
        -11   -1    0    0    0    0  0.00000000000E+00  0.00000000000E+00  0.45593999997E+02  0.45594000000E+02  0.51100000000E-03 0. -1.
         11   -1    0    0    0    0 -0.00000000000E+00 -0.00000000000E+00 -0.45593999997E+02  0.45594000000E+02  0.51100000000E-03 0.  1.
    9900012    2    1    2    0    0 -0.15470200885E+02  0.14738223114E+01  0.10448884096E+02  0.72461589600E+02  0.70000025149E+02 0.  0.
        -12    1    1    2    0    0  0.15470200885E+02 -0.14738223114E+01 -0.10448884096E+02  0.18726410400E+02  0.00000000000E+00 0.  1.
         11    1    3    3    0    0 -0.58574118083E+01  0.14262599491E+02 -0.67054891785E+01  0.16813524399E+02  0.51100000000E-03 0. -1.
        -11    1    3    3    0    0  0.20822022211E+02 -0.68402320226E+01  0.65567797341E+01  0.22876554457E+02  0.51100000000E-03 0.  1.
         12    1    3    3    0    0 -0.30434811288E+02 -0.59485451565E+01  0.10597593540E+02  0.32771510744E+02  0.00000000000E+00 0. -1.
</event>
<event>
 7    1  0.2688173E-013  0.7246150E+02  0.7816164E-02  0.1226708E+00
        -11   -1    0    0    0    0  0.00000000000E+00  0.00000000000E+00  0.45593999997E+02  0.45594000000E+02  0.51100000000E-03 0.  1.
         11   -1    0    0    0    0 -0.00000000000E+00 -0.00000000000E+00 -0.45593999997E+02  0.45594000000E+02  0.51100000000E-03 0. -1.
    9900012    2    1    2    0    0  0.92820400438E+01 -0.14666334072E+02  0.70302331428E+01  0.72461500046E+02  0.69999908488E+02 0.  0.
        -12    1    1    2    0    0 -0.92820400438E+01  0.14666334072E+02 -0.70302331428E+01  0.18726499954E+02  0.00000000000E+00 0.  1.
         11    1    3    3    0    0  0.18251630902E+02 -0.76370074213E+01 -0.22888757394E+02  0.30254605075E+02  0.51100000000E-03 0. -1.
        -11    1    3    3    0    0  0.59635808343E+01 -0.24220854449E+01 -0.19389086049E+01  0.67223627623E+01  0.51100000000E-03 0.  1.
        -12    1    3    3    0    0 -0.14933171692E+02 -0.46072412062E+01  0.31857899142E+02  0.35484532208E+02  0.00000000000E+00 0.  1.
</event>
<event>
 7    1  0.2688173E-013  0.7246154E+02  0.7816164E-02  0.1226708E+00
        -11   -1    0    0    0    0  0.00000000000E+00  0.00000000000E+00  0.45593999997E+02  0.45594000000E+02  0.51100000000E-03 0.  1.
         11   -1    0    0    0    0 -0.00000000000E+00 -0.00000000000E+00 -0.45593999997E+02  0.45594000000E+02  0.51100000000E-03 0. -1.
    9900012    2    1    2    0    0 -0.14732475131E+02  0.21141064408E+01 -0.11365082609E+02  0.72461538182E+02  0.69999958168E+02 0.  0.
        -12    1    1    2    0    0  0.14732475131E+02 -0.21141064408E+01  0.11365082609E+02  0.18726461818E+02  0.00000000000E+00 0.  1.
         11    1    3    3    0    0  0.13352393717E+02 -0.42099724214E+01 -0.17209341171E+02  0.22184943308E+02  0.51100000000E-03 0. -1.
        -11    1    3    3    0    0 -0.68299889227E+00 -0.11053677705E+02  0.12970816148E+02  0.17055566543E+02  0.51100000000E-03 0.  1.
         12    1    3    3    0    0 -0.27401869956E+02  0.17377756567E+02 -0.71265575865E+01  0.33221028331E+02  0.00000000000E+00 0. -1.
</event>
<event>
 7    1  0.2688173E-013  0.7246148E+02  0.7816164E-02  0.1226708E+00
        -11   -1    0    0    0    0  0.00000000000E+00  0.00000000000E+00  0.45593999997E+02  0.45594000000E+02  0.51100000000E-03 0. -1.
         11   -1    0    0    0    0 -0.00000000000E+00 -0.00000000000E+00 -0.45593999997E+02  0.45594000000E+02  0.51100000000E-03 0.  1.
    9900012    2    1    2    0    0 -0.57485723954E+01 -0.14638405062E+02  0.10166298640E+02  0.72461478289E+02  0.69999880146E+02 0.  0.
        -12    1    1    2    0    0  0.57485723954E+01  0.14638405062E+02 -0.10166298640E+02  0.18726521711E+02  0.00000000000E+00 0.  1.
         11    1    3    3    0    0  0.23393744915E+01 -0.29964682487E+02  0.13487307720E+02  0.32943320102E+02  0.51100000000E-03 0. -1.
        -11    1    3    3    0    0  0.58374911251E+01 -0.66026539700E+01 -0.93520747350E+01  0.12850394710E+02  0.51100000000E-03 0.  1.
         12    1    3    3    0    0 -0.13925438012E+02  0.21928931395E+02  0.60310656557E+01  0.26667763477E+02  0.00000000000E+00 0. -1.
</event>
<event>
 7    1  0.2688173E-013  0.7246158E+02  0.7816164E-02  0.1226708E+00
        -11   -1    0    0    0    0  0.00000000000E+00  0.00000000000E+00  0.45593999997E+02  0.45594000000E+02  0.51100000000E-03 0.  1.
         11   -1    0    0    0    0 -0.00000000000E+00 -0.00000000000E+00 -0.45593999997E+02  0.45594000000E+02  0.51100000000E-03 0. -1.
    9900012    2    1    2    0    0 -0.13690577700E+02  0.12150915998E+02 -0.39499302504E+01  0.72461584798E+02  0.70000018894E+02 0.  0.
        -12    1    1    2    0    0  0.13690577700E+02 -0.12150915998E+02  0.39499302504E+01  0.18726415202E+02  0.00000000000E+00 0.  1.
         11    1    3    3    0    0 -0.28228862734E+02  0.44867779768E+01  0.57349904989E+01  0.29152872657E+02  0.51100000000E-03 0. -1.
        -11    1    3    3    0    0 -0.98497094218E+00 -0.72829734075E+01 -0.18591216627E+02  0.19991128166E+02  0.51100000000E-03 0.  1.
        -12    1    3    3    0    0  0.15523255976E+02  0.14947111429E+02  0.89062958779E+01  0.23317583975E+02  0.00000000000E+00 0.  1.
</event>
<event>
 7    1  0.2688173E-013  0.7246157E+02  0.7816164E-02  0.1226708E+00
        -11   -1    0    0    0    0  0.00000000000E+00  0.00000000000E+00  0.45593999997E+02  0.45594000000E+02  0.51100000000E-03 0. -1.
         11   -1    0    0    0    0 -0.00000000000E+00 -0.00000000000E+00 -0.45593999997E+02  0.45594000000E+02  0.51100000000E-03 0.  1.
    9900012    2    1    2    0    0  0.30753953725E+00 -0.16494202190E+02  0.88614791767E+01  0.72461572160E+02  0.70000002430E+02 0.  0.
        -12    1    1    2    0    0 -0.30753953725E+00  0.16494202190E+02 -0.88614791767E+01  0.18726427840E+02  0.00000000000E+00 0.  1.
         11    1    3    3    0    0 -0.17345662813E+02 -0.21065682271E+02  0.24178303833E+02  0.36458543093E+02  0.51100000000E-03 0. -1.
        -11    1    3    3    0    0 -0.41598460052E+01 -0.65657565282E+01 -0.59204344999E+01  0.97706203745E+01  0.51100000000E-03 0.  1.
        -12    1    3    3    0    0  0.21813048355E+02  0.11137236609E+02 -0.93963901566E+01  0.26232408693E+02  0.00000000000E+00 0.  1.
</event>
<event>
 7    1  0.2688173E-013  0.7246156E+02  0.7816164E-02  0.1226708E+00
        -11   -1    0    0    0    0  0.00000000000E+00  0.00000000000E+00  0.45593999997E+02  0.45594000000E+02  0.51100000000E-03 0.  1.
         11   -1    0    0    0    0 -0.00000000000E+00 -0.00000000000E+00 -0.45593999997E+02  0.45594000000E+02  0.51100000000E-03 0. -1.
    9900012    2    1    2    0    0 -0.93558805310E+01 -0.16104934871E+02  0.19437565772E+01  0.72461558338E+02  0.69999984424E+02 0.  0.
        -12    1    1    2    0    0  0.93558805310E+01  0.16104934871E+02 -0.19437565772E+01  0.18726441662E+02  0.00000000000E+00 0.  1.
         11    1    3    3    0    0 -0.16923721445E+02  0.12995678914E+02 -0.93370085145E+01  0.23291194608E+02  0.51100000000E-03 0. -1.
        -11    1    3    3    0    0  0.13393662463E+02  0.42084167875E+01  0.36307644124E+01  0.14501152247E+02  0.51100000000E-03 0.  1.
         12    1    3    3    0    0 -0.58258215481E+01 -0.33309030573E+02  0.76500006792E+01  0.34669211482E+02  0.00000000000E+00 0. -1.
</event>
<event>
 7    1  0.2688173E-013  0.7246158E+02  0.7816164E-02  0.1226708E+00
        -11   -1    0    0    0    0  0.00000000000E+00  0.00000000000E+00  0.45593999997E+02  0.45594000000E+02  0.51100000000E-03 0.  1.
         11   -1    0    0    0    0 -0.00000000000E+00 -0.00000000000E+00 -0.45593999997E+02  0.45594000000E+02  0.51100000000E-03 0. -1.
    9900012    2    1    2    0    0  0.17451227055E+02  0.67540769236E+01  0.71832566309E+00  0.72461578223E+02  0.70000010328E+02 0.  0.
        -12    1    1    2    0    0 -0.17451227055E+02 -0.67540769236E+01 -0.71832566309E+00  0.18726421777E+02  0.00000000000E+00 0.  1.
         11    1    3    3    0    0  0.24360947917E+02  0.15329063458E+02 -0.79063503262E+01  0.29848724356E+02  0.51100000000E-03 0. -1.
        -11    1    3    3    0    0  0.98394833581E+01  0.17117595611E+00 -0.11413925648E+02  0.15070581705E+02  0.51100000000E-03 0.  1.
        -12    1    3    3    0    0 -0.16749204220E+02 -0.87461624902E+01  0.20038601637E+02  0.27542272162E+02  0.00000000000E+00 0.  1.
</event>
<event>
 7    1  0.2688173E-013  0.7246161E+02  0.7816164E-02  0.1226708E+00
        -11   -1    0    0    0    0  0.00000000000E+00  0.00000000000E+00  0.45593999997E+02  0.45594000000E+02  0.51100000000E-03 0. -1.
         11   -1    0    0    0    0 -0.00000000000E+00 -0.00000000000E+00 -0.45593999997E+02  0.45594000000E+02  0.51100000000E-03 0.  1.
    9900012    2    1    2    0    0 -0.97864248121E+01 -0.40881425318E+01  0.15433431471E+02  0.72461606142E+02  0.70000046698E+02 0.  0.
        -12    1    1    2    0    0  0.97864248121E+01  0.40881425318E+01 -0.15433431471E+02  0.18726393858E+02  0.00000000000E+00 0.  1.
         11    1    3    3    0    0 -0.26677514453E+02 -0.81486092162E+01  0.22134627517E+02  0.35609427756E+02  0.51100000000E-03 0. -1.
        -11    1    3    3    0    0  0.33345629403E+01 -0.36015606939E+00  0.12496247933E+02  0.12938517498E+02  0.51100000000E-03 0.  1.
        -12    1    3    3    0    0  0.13556526701E+02  0.44206227538E+01 -0.19197443979E+02  0.23913660887E+02  0.00000000000E+00 0.  1.
</event>
<event>
 7    1  0.2688173E-013  0.7246149E+02  0.7816164E-02  0.1226708E+00
        -11   -1    0    0    0    0  0.00000000000E+00  0.00000000000E+00  0.45593999997E+02  0.45594000000E+02  0.51100000000E-03 0.  1.
         11   -1    0    0    0    0 -0.00000000000E+00 -0.00000000000E+00 -0.45593999997E+02  0.45594000000E+02  0.51100000000E-03 0. -1.
    9900012    2    1    2    0    0 -0.10255227012E+02 -0.13414450602E+02 -0.80972219931E+01  0.72461490181E+02  0.69999895637E+02 0.  0.
        -12    1    1    2    0    0  0.10255227012E+02  0.13414450602E+02  0.80972219931E+01  0.18726509819E+02  0.00000000000E+00 0.  1.
         11    1    3    3    0    0  0.85179612265E+01 -0.89908499269E+01  0.47063871315E+01  0.13249193408E+02  0.51100000000E-03 0. -1.
        -11    1    3    3    0    0 -0.10605421892E+02 -0.20196401837E+02  0.14214966727E+02  0.26878149117E+02  0.51100000000E-03 0.  1.
        -12    1    3    3    0    0 -0.81677663466E+01  0.15772801162E+02 -0.27018575851E+02  0.32334147656E+02  0.00000000000E+00 0.  1.
</event>
<event>
 7    1  0.2688173E-013  0.7246156E+02  0.7816164E-02  0.1226708E+00
        -11   -1    0    0    0    0  0.00000000000E+00  0.00000000000E+00  0.45593999997E+02  0.45594000000E+02  0.51100000000E-03 0. -1.
         11   -1    0    0    0    0 -0.00000000000E+00 -0.00000000000E+00 -0.45593999997E+02  0.45594000000E+02  0.51100000000E-03 0.  1.
    9900012    2    1    2    0    0  0.66695028034E+01 -0.14781393840E+02  0.93652290621E+01  0.72461564491E+02  0.69999992440E+02 0.  0.
        -12    1    1    2    0    0 -0.66695028034E+01  0.14781393840E+02 -0.93652290621E+01  0.18726435509E+02  0.00000000000E+00 0.  1.
         11    1    3    3    0    0 -0.48682020489E+01 -0.20345554966E+02  0.94636560281E+01  0.22960875064E+02  0.51100000000E-03 0. -1.
        -11    1    3    3    0    0  0.13272042364E+01 -0.16113664696E+02 -0.14352433228E+02  0.21619528229E+02  0.51100000000E-03 0.  1.
        -12    1    3    3    0    0  0.10210500616E+02  0.21677825822E+02  0.14254006262E+02  0.27881161197E+02  0.00000000000E+00 0.  1.
</event>
<event>
 7    1  0.2688173E-013  0.7246167E+02  0.7816164E-02  0.1226708E+00
        -11   -1    0    0    0    0  0.00000000000E+00  0.00000000000E+00  0.45593999997E+02  0.45594000000E+02  0.51100000000E-03 0. -1.
         11   -1    0    0    0    0 -0.00000000000E+00 -0.00000000000E+00 -0.45593999997E+02  0.45594000000E+02  0.51100000000E-03 0.  1.
    9900012    2    1    2    0    0 -0.17541908048E+02 -0.65478750403E+01 -0.28691645756E+00  0.72461667562E+02  0.70000126709E+02 0.  0.
        -12    1    1    2    0    0  0.17541908048E+02  0.65478750403E+01  0.28691645756E+00  0.18726332438E+02  0.00000000000E+00 0.  1.
         11    1    3    3    0    0  0.30781929540E+01  0.10812626132E+02  0.88094108373E+01  0.14282642448E+02  0.51100000000E-03 0. -1.
        -11    1    3    3    0    0 -0.32232575836E+02 -0.25667370539E+02  0.85270418306E-01  0.41203884850E+02  0.51100000000E-03 0.  1.
         12    1    3    3    0    0  0.11612474834E+02  0.83068693669E+01 -0.91815977131E+01  0.16975140265E+02  0.00000000000E+00 0. -1.
</event>
<event>
 7    1  0.2688173E-013  0.7246154E+02  0.7816164E-02  0.1226708E+00
        -11   -1    0    0    0    0  0.00000000000E+00  0.00000000000E+00  0.45593999997E+02  0.45594000000E+02  0.51100000000E-03 0. -1.
         11   -1    0    0    0    0 -0.00000000000E+00 -0.00000000000E+00 -0.45593999997E+02  0.45594000000E+02  0.51100000000E-03 0.  1.
    9900012    2    1    2    0    0  0.71417137002E+01  0.16792915743E+02 -0.42040702915E+01  0.72461540090E+02  0.69999960654E+02 0.  0.
        -12    1    1    2    0    0 -0.71417137002E+01 -0.16792915743E+02  0.42040702915E+01  0.18726459910E+02  0.00000000000E+00 0.  1.
         11    1    3    3    0    0 -0.31876187715E+01 -0.20151365491E+00 -0.21977288280E+00  0.32015342519E+01  0.51100000000E-03 0. -1.
        -11    1    3    3    0    0 -0.12639378507E+02 -0.55202544268E+01 -0.26585255890E+02  0.29950007161E+02  0.51100000000E-03 0.  1.
         12    1    3    3    0    0  0.22968710978E+02  0.22514683825E+02  0.22600958481E+02  0.39309998677E+02  0.00000000000E+00 0. -1.
</event>
<event>
 7    1  0.2688173E-013  0.7246154E+02  0.7816164E-02  0.1226708E+00
        -11   -1    0    0    0    0  0.00000000000E+00  0.00000000000E+00  0.45593999997E+02  0.45594000000E+02  0.51100000000E-03 0. -1.
         11   -1    0    0    0    0 -0.00000000000E+00 -0.00000000000E+00 -0.45593999997E+02  0.45594000000E+02  0.51100000000E-03 0.  1.
    9900012    2    1    2    0    0  0.15827528753E+01 -0.15165939509E+02  0.10870584018E+02  0.72461536780E+02  0.69999956341E+02 0.  0.
        -12    1    1    2    0    0 -0.15827528753E+01  0.15165939509E+02 -0.10870584018E+02  0.18726463220E+02  0.00000000000E+00 0.  1.
         11    1    3    3    0    0 -0.10501517482E+02 -0.61826048268E+01  0.14996697379E+02  0.19323752337E+02  0.51100000000E-03 0. -1.
        -11    1    3    3    0    0 -0.93181359213E+01 -0.24694436761E+02 -0.29998395117E+01  0.26563921046E+02  0.51100000000E-03 0.  1.
        -12    1    3    3    0    0  0.21402406278E+02  0.15711102079E+02 -0.11262738493E+01  0.26573863396E+02  0.00000000000E+00 0.  1.
</event>
<event>
 7    1  0.2688173E-013  0.7246164E+02  0.7816164E-02  0.1226708E+00
        -11   -1    0    0    0    0  0.00000000000E+00  0.00000000000E+00  0.45593999997E+02  0.45594000000E+02  0.51100000000E-03 0.  1.
         11   -1    0    0    0    0 -0.00000000000E+00 -0.00000000000E+00 -0.45593999997E+02  0.45594000000E+02  0.51100000000E-03 0. -1.
    9900012    2    1    2    0    0  0.62350764003E+01  0.12936828546E+02  0.12018271208E+02  0.72461640146E+02  0.70000090995E+02 0.  0.
        -12    1    1    2    0    0 -0.62350764003E+01 -0.12936828546E+02 -0.12018271208E+02  0.18726359854E+02  0.00000000000E+00 0.  1.
         11    1    3    3    0    0 -0.62188125634E+01  0.56900989303E+01 -0.11265614609E+02  0.14070001007E+02  0.51100000000E-03 0. -1.
        -11    1    3    3    0    0  0.17813716916E+02 -0.45419393317E+01 -0.11220366765E+02  0.21537278237E+02  0.51100000000E-03 0.  1.
        -12    1    3    3    0    0 -0.53598279521E+01  0.11788668948E+02  0.34504252583E+02  0.36854360902E+02  0.00000000000E+00 0.  1.
</event>
<event>
 7    1  0.2688173E-013  0.7246156E+02  0.7816164E-02  0.1226708E+00
        -11   -1    0    0    0    0  0.00000000000E+00  0.00000000000E+00  0.45593999997E+02  0.45594000000E+02  0.51100000000E-03 0.  1.
         11   -1    0    0    0    0 -0.00000000000E+00 -0.00000000000E+00 -0.45593999997E+02  0.45594000000E+02  0.51100000000E-03 0. -1.
    9900012    2    1    2    0    0 -0.59642824038E+01  0.74270645945E+01 -0.16122828219E+02  0.72461560326E+02  0.69999987015E+02 0.  0.
        -12    1    1    2    0    0  0.59642824038E+01 -0.74270645945E+01  0.16122828219E+02  0.18726439674E+02  0.00000000000E+00 0.  1.
         11    1    3    3    0    0  0.16932451671E+02 -0.47844233661E+00  0.26552531232E+01  0.17146054826E+02  0.51100000000E-03 0. -1.
        -11    1    3    3    0    0  0.13519276923E+02  0.49620929484E+01 -0.37148764773E+00  0.14405943852E+02  0.51100000000E-03 0.  1.
        -12    1    3    3    0    0 -0.36416010998E+02  0.29434139827E+01 -0.18406593694E+02  0.40909561649E+02  0.00000000000E+00 0.  1.
</event>
<event>
 7    1  0.2688173E-013  0.7246145E+02  0.7816164E-02  0.1226708E+00
        -11   -1    0    0    0    0  0.00000000000E+00  0.00000000000E+00  0.45593999997E+02  0.45594000000E+02  0.51100000000E-03 0.  1.
         11   -1    0    0    0    0 -0.00000000000E+00 -0.00000000000E+00 -0.45593999997E+02  0.45594000000E+02  0.51100000000E-03 0. -1.
    9900012    2    1    2    0    0 -0.11255558899E+02  0.14016320366E+02  0.52477448431E+01  0.72461450167E+02  0.69999843511E+02 0.  0.
        -12    1    1    2    0    0  0.11255558899E+02 -0.14016320366E+02 -0.52477448431E+01  0.18726549833E+02  0.00000000000E+00 0.  1.
         11    1    3    3    0    0  0.51775159914E+01 -0.21628099242E+01  0.42733903029E+01  0.70531045329E+01  0.51100000000E-03 0. -1.
        -11    1    3    3    0    0 -0.19109942719E+02 -0.15189325679E+02  0.17323915937E+02  0.29933653118E+02  0.51100000000E-03 0.  1.
         12    1    3    3    0    0  0.26768678294E+01  0.31368455969E+02 -0.16349561397E+02  0.35474692516E+02  0.00000000000E+00 0. -1.
</event>
<event>
 7    1  0.2688173E-013  0.7246156E+02  0.7816164E-02  0.1226708E+00
        -11   -1    0    0    0    0  0.00000000000E+00  0.00000000000E+00  0.45593999997E+02  0.45594000000E+02  0.51100000000E-03 0.  1.
         11   -1    0    0    0    0 -0.00000000000E+00 -0.00000000000E+00 -0.45593999997E+02  0.45594000000E+02  0.51100000000E-03 0. -1.
    9900012    2    1    2    0    0 -0.96346871367E+01 -0.13747914487E+02  0.82974197887E+01  0.72461560827E+02  0.69999987667E+02 0.  0.
        -12    1    1    2    0    0  0.96346871367E+01  0.13747914487E+02 -0.82974197887E+01  0.18726439173E+02  0.00000000000E+00 0.  1.
         11    1    3    3    0    0 -0.65244870780E+01 -0.13552171937E+02 -0.45162238912E+01  0.15704348899E+02  0.51100000000E-03 0. -1.
        -11    1    3    3    0    0 -0.19688489024E+02  0.11401974173E+02  0.24465463068E+02  0.33409586925E+02  0.51100000000E-03 0.  1.
         12    1    3    3    0    0  0.16578288966E+02 -0.11597716723E+02 -0.11651819388E+02  0.23347625003E+02  0.00000000000E+00 0. -1.
</event>
<event>
 7    1  0.2688173E-013  0.7246163E+02  0.7816164E-02  0.1226708E+00
        -11   -1    0    0    0    0  0.00000000000E+00  0.00000000000E+00  0.45593999997E+02  0.45594000000E+02  0.51100000000E-03 0. -1.
         11   -1    0    0    0    0 -0.00000000000E+00 -0.00000000000E+00 -0.45593999997E+02  0.45594000000E+02  0.51100000000E-03 0.  1.
    9900012    2    1    2    0    0 -0.46441994343E+01 -0.14213870862E+02  0.11272723126E+02  0.72461628223E+02  0.70000075462E+02 0.  0.
        -12    1    1    2    0    0  0.46441994343E+01  0.14213870862E+02 -0.11272723126E+02  0.18726371777E+02  0.00000000000E+00 0.  1.
         11    1    3    3    0    0  0.39820059876E+01 -0.31952025160E+01  0.87989246387E+01  0.10172844531E+02  0.51100000000E-03 0. -1.
        -11    1    3    3    0    0 -0.26895814420E+02 -0.17015271496E+02  0.18886416666E+02  0.37008121165E+02  0.51100000000E-03 0.  1.
         12    1    3    3    0    0  0.18269608998E+02  0.59966031501E+01 -0.16412618179E+02  0.25280662526E+02  0.00000000000E+00 0. -1.
</event>
<event>
 7    1  0.2688173E-013  0.7246160E+02  0.7816164E-02  0.1226708E+00
        -11   -1    0    0    0    0  0.00000000000E+00  0.00000000000E+00  0.45593999997E+02  0.45594000000E+02  0.51100000000E-03 0.  1.
         11   -1    0    0    0    0 -0.00000000000E+00 -0.00000000000E+00 -0.45593999997E+02  0.45594000000E+02  0.51100000000E-03 0. -1.
    9900012    2    1    2    0    0 -0.59584350162E+00 -0.32443003745E+01 -0.18433602260E+02  0.72461596002E+02  0.70000033490E+02 0.  0.
        -12    1    1    2    0    0  0.59584350162E+00  0.32443003745E+01  0.18433602260E+02  0.18726403998E+02  0.00000000000E+00 0.  1.
         11    1    3    3    0    0 -0.12307651820E+02  0.88864225298E+00  0.55007085562E+01  0.13510209964E+02  0.51100000000E-03 0. -1.
        -11    1    3    3    0    0  0.24539471851E+02 -0.20555721892E+02 -0.88066654076E+01  0.33200613505E+02  0.51100000000E-03 0.  1.
         12    1    3    3    0    0 -0.12827663532E+02  0.16422779265E+02 -0.15127645409E+02  0.25750772534E+02  0.00000000000E+00 0. -1.
</event>
<event>
 7    1  0.2688173E-013  0.7246156E+02  0.7816164E-02  0.1226708E+00
        -11   -1    0    0    0    0  0.00000000000E+00  0.00000000000E+00  0.45593999997E+02  0.45594000000E+02  0.51100000000E-03 0.  1.
         11   -1    0    0    0    0 -0.00000000000E+00 -0.00000000000E+00 -0.45593999997E+02  0.45594000000E+02  0.51100000000E-03 0. -1.
    9900012    2    1    2    0    0 -0.13990730481E+02 -0.11319392867E+02  0.51778787514E+01  0.72461558196E+02  0.69999984240E+02 0.  0.
        -12    1    1    2    0    0  0.13990730481E+02  0.11319392867E+02 -0.51778787514E+01  0.18726441804E+02  0.00000000000E+00 0.  1.
         11    1    3    3    0    0 -0.10938515405E+02  0.49136609961E+01  0.32661134785E+01  0.12428301620E+02  0.51100000000E-03 0. -1.
        -11    1    3    3    0    0  0.34361162574E+01  0.19735081392E+02  0.10313900629E+02  0.22531242286E+02  0.51100000000E-03 0.  1.
        -12    1    3    3    0    0 -0.64883313330E+01 -0.35968135256E+02 -0.84021353565E+01  0.37502014290E+02  0.00000000000E+00 0.  1.
</event>
<event>
 7    1  0.2688173E-013  0.7246159E+02  0.7816164E-02  0.1226708E+00
        -11   -1    0    0    0    0  0.00000000000E+00  0.00000000000E+00  0.45593999997E+02  0.45594000000E+02  0.51100000000E-03 0.  1.
         11   -1    0    0    0    0 -0.00000000000E+00 -0.00000000000E+00 -0.45593999997E+02  0.45594000000E+02  0.51100000000E-03 0. -1.
    9900012    2    1    2    0    0 -0.24903823958E+01 -0.54395875141E+01 -0.17745066537E+02  0.72461588085E+02  0.70000023176E+02 0.  0.
        -12    1    1    2    0    0  0.24903823958E+01  0.54395875141E+01  0.17745066537E+02  0.18726411915E+02  0.00000000000E+00 0.  1.
         11    1    3    3    0    0  0.26095651370E+02  0.63933636526E+01 -0.20211850998E+02  0.33621080296E+02  0.51100000000E-03 0. -1.
        -11    1    3    3    0    0 -0.34437039055E+01 -0.46443577300E+01 -0.86674928775E+01  0.10418953323E+02  0.51100000000E-03 0.  1.
        -12    1    3    3    0    0 -0.25142329860E+02 -0.71885934367E+01  0.11134277338E+02  0.28421554466E+02  0.00000000000E+00 0.  1.
</event>
<event>
 7    1  0.2688173E-013  0.7246149E+02  0.7816164E-02  0.1226708E+00
        -11   -1    0    0    0    0  0.00000000000E+00  0.00000000000E+00  0.45593999997E+02  0.45594000000E+02  0.51100000000E-03 0.  1.
         11   -1    0    0    0    0 -0.00000000000E+00 -0.00000000000E+00 -0.45593999997E+02  0.45594000000E+02  0.51100000000E-03 0. -1.
    9900012    2    1    2    0    0 -0.18208309478E+02 -0.13922905862E+01 -0.41474198755E+01  0.72461492084E+02  0.69999898116E+02 0.  0.
        -12    1    1    2    0    0  0.18208309478E+02  0.13922905862E+01  0.41474198755E+01  0.18726507916E+02  0.00000000000E+00 0.  1.
         11    1    3    3    0    0  0.19496386571E+02 -0.10965153857E+02 -0.38917380020E+01  0.22704389738E+02  0.51100000000E-03 0. -1.
        -11    1    3    3    0    0 -0.62131721689E+01 -0.97473300790E+01  0.47046403329E+01  0.12479887539E+02  0.51100000000E-03 0.  1.
         12    1    3    3    0    0 -0.31491523880E+02  0.19320193350E+02 -0.49603222065E+01  0.37277214807E+02  0.00000000000E+00 0. -1.
</event>
<event>
 7    1  0.2688173E-013  0.7246201E+02  0.7816164E-02  0.1226707E+00
        -11   -1    0    0    0    0  0.00000000000E+00  0.00000000000E+00  0.45593999997E+02  0.45594000000E+02  0.51100000000E-03 0.  1.
         11   -1    0    0    0    0 -0.00000000000E+00 -0.00000000000E+00 -0.45593999997E+02  0.45594000000E+02  0.51100000000E-03 0. -1.
    9900012    2    1    2    0    0  0.63276168632E+01 -0.11853727219E+02 -0.13042739043E+02  0.72462012018E+02  0.70000575425E+02 0.  0.
        -12    1    1    2    0    0 -0.63276168632E+01  0.11853727219E+02  0.13042739043E+02  0.18725987982E+02  0.00000000000E+00 0.  1.
         11    1    3    3    0    0  0.32127611463E+02 -0.12679143299E+02 -0.13655145149E+02  0.37140369982E+02  0.51100000000E-03 0. -1.
        -11    1    3    3    0    0  0.25776220315E+01 -0.17780595546E+01 -0.53581712829E+01  0.62060962670E+01  0.51100000000E-03 0.  1.
        -12    1    3    3    0    0 -0.28377616631E+02  0.26034756346E+01  0.59705773889E+01  0.29115545769E+02  0.00000000000E+00 0.  1.
</event>
<event>
 7    1  0.2688173E-013  0.7246160E+02  0.7816164E-02  0.1226708E+00
        -11   -1    0    0    0    0  0.00000000000E+00  0.00000000000E+00  0.45593999997E+02  0.45594000000E+02  0.51100000000E-03 0.  1.
         11   -1    0    0    0    0 -0.00000000000E+00 -0.00000000000E+00 -0.45593999997E+02  0.45594000000E+02  0.51100000000E-03 0. -1.
    9900012    2    1    2    0    0  0.62707918301E+01 -0.17220769311E+02  0.38471363835E+01  0.72461596603E+02  0.70000034272E+02 0.  0.
        -12    1    1    2    0    0 -0.62707918301E+01  0.17220769311E+02 -0.38471363835E+01  0.18726403397E+02  0.00000000000E+00 0.  1.
         11    1    3    3    0    0  0.29957794149E+01  0.20282611460E+02 -0.94001116217E+01  0.22554846945E+02  0.51100000000E-03 0. -1.
        -11    1    3    3    0    0  0.11243240494E+02 -0.23859189010E+01 -0.12395892698E+00  0.11494278223E+02  0.51100000000E-03 0.  1.
         12    1    3    3    0    0 -0.79682280785E+01 -0.35117461870E+02  0.13371206932E+02  0.38412471435E+02  0.00000000000E+00 0. -1.
</event>
<event>
 7    1  0.2688173E-013  0.7246147E+02  0.7816164E-02  0.1226708E+00
        -11   -1    0    0    0    0  0.00000000000E+00  0.00000000000E+00  0.45593999997E+02  0.45594000000E+02  0.51100000000E-03 0.  1.
         11   -1    0    0    0    0 -0.00000000000E+00 -0.00000000000E+00 -0.45593999997E+02  0.45594000000E+02  0.51100000000E-03 0. -1.
    9900012    2    1    2    0    0 -0.16835941559E+02  0.35919583099E+01 -0.73710126176E+01  0.72461470164E+02  0.69999869562E+02 0.  0.
        -12    1    1    2    0    0  0.16835941559E+02 -0.35919583099E+01  0.73710126176E+01  0.18726529836E+02  0.00000000000E+00 0.  1.
         11    1    3    3    0    0 -0.10563921319E+02 -0.88011011196E+01  0.53805051590E+01  0.14765014412E+02  0.51100000000E-03 0.  1.
        -11    1    3    3    0    0 -0.30264151798E+02  0.73904198616E+01 -0.11320744785E+02  0.33146590361E+02  0.51100000000E-03 0. -1.
         12    1    3    3    0    0  0.23992131559E+02  0.50026395680E+01 -0.14307729917E+01  0.24549865391E+02  0.00000000000E+00 0. -1.
</event>
<event>
 7    1  0.2688173E-013  0.7246145E+02  0.7816164E-02  0.1226708E+00
        -11   -1    0    0    0    0  0.00000000000E+00  0.00000000000E+00  0.45593999997E+02  0.45594000000E+02  0.51100000000E-03 0. -1.
         11   -1    0    0    0    0 -0.00000000000E+00 -0.00000000000E+00 -0.45593999997E+02  0.45594000000E+02  0.51100000000E-03 0.  1.
    9900012    2    1    2    0    0 -0.38427953004E+01 -0.37242855472E+01  0.17945647576E+02  0.72461450785E+02  0.69999844317E+02 0.  0.
        -12    1    1    2    0    0  0.38427953004E+01  0.37242855472E+01 -0.17945647576E+02  0.18726549215E+02  0.00000000000E+00 0.  1.
         11    1    3    3    0    0 -0.40365537315E+01  0.14242379116E+01 -0.42084785730E+01  0.60027920018E+01  0.51100000000E-03 0. -1.
        -11    1    3    3    0    0 -0.16592586392E+01  0.84221068886E+01 -0.20198260503E+02  0.21946634167E+02  0.51100000000E-03 0.  1.
         12    1    3    3    0    0  0.18530170703E+01 -0.13570630347E+02  0.42352386652E+02  0.44512024616E+02  0.00000000000E+00 0. -1.
</event>
<event>
 7    1  0.2688173E-013  0.7246111E+02  0.7816164E-02  0.1226709E+00
        -11   -1    0    0    0    0  0.00000000000E+00  0.00000000000E+00  0.45593999997E+02  0.45594000000E+02  0.51100000000E-03 0.  1.
         11   -1    0    0    0    0 -0.00000000000E+00 -0.00000000000E+00 -0.45593999997E+02  0.45594000000E+02  0.51100000000E-03 0. -1.
    9900012    2    1    2    0    0 -0.29641690940E+01  0.18490512907E+02 -0.10546353576E+00  0.72461107878E+02  0.69999397614E+02 0.  0.
        -12    1    1    2    0    0  0.29641690940E+01 -0.18490512907E+02  0.10546353576E+00  0.18726892122E+02  0.00000000000E+00 0.  1.
         11    1    3    3    0    0  0.17472389935E+02  0.27340157035E+02 -0.53577501095E+01  0.32885773265E+02  0.51100000000E-03 0. -1.
        -11    1    3    3    0    0 -0.28704990949E+01  0.94859722068E+01 -0.62315499590E+01  0.11707076873E+02  0.51100000000E-03 0.  1.
        -12    1    3    3    0    0 -0.17566059934E+02 -0.18335616335E+02  0.11483836533E+02  0.27868257740E+02  0.00000000000E+00 0.  1.
</event>
<event>
 7    1  0.2688173E-013  0.7246161E+02  0.7816164E-02  0.1226708E+00
        -11   -1    0    0    0    0  0.00000000000E+00  0.00000000000E+00  0.45593999997E+02  0.45594000000E+02  0.51100000000E-03 0. -1.
         11   -1    0    0    0    0 -0.00000000000E+00 -0.00000000000E+00 -0.45593999997E+02  0.45594000000E+02  0.51100000000E-03 0.  1.
    9900012    2    1    2    0    0  0.10198798989E+01  0.27001139513E+01  0.18502615111E+02  0.72461613902E+02  0.70000056807E+02 0.  0.
        -12    1    1    2    0    0 -0.10198798989E+01 -0.27001139513E+01 -0.18502615111E+02  0.18726386098E+02  0.00000000000E+00 0.  1.
         11    1    3    3    0    0 -0.10621206518E+02 -0.89630906740E+01  0.15801586962E+02  0.21043696755E+02  0.51100000000E-03 0. -1.
        -11    1    3    3    0    0 -0.10089788377E+02 -0.64635467957E+01 -0.14103024625E+02  0.18506122514E+02  0.51100000000E-03 0.  1.
         12    1    3    3    0    0  0.21730874793E+02  0.18126751421E+02  0.16804052774E+02  0.32911794633E+02  0.00000000000E+00 0. -1.
</event>
<event>
 7    1  0.2688173E-013  0.7246157E+02  0.7816164E-02  0.1226708E+00
        -11   -1    0    0    0    0  0.00000000000E+00  0.00000000000E+00  0.45593999997E+02  0.45594000000E+02  0.51100000000E-03 0. -1.
         11   -1    0    0    0    0 -0.00000000000E+00 -0.00000000000E+00 -0.45593999997E+02  0.45594000000E+02  0.51100000000E-03 0.  1.
    9900012    2    1    2    0    0  0.65455877622E+01  0.10396169899E+02  0.14133435980E+02  0.72461572676E+02  0.70000003103E+02 0.  0.
        -12    1    1    2    0    0 -0.65455877622E+01 -0.10396169899E+02 -0.14133435980E+02  0.18726427324E+02  0.00000000000E+00 0.  1.
         11    1    3    3    0    0  0.21011068602E+02  0.59756945638E+00  0.16239209804E+02  0.26561890527E+02  0.51100000000E-03 0. -1.
        -11    1    3    3    0    0 -0.19771631121E+02  0.23674915057E+02  0.31987122935E+00  0.30846739180E+02  0.51100000000E-03 0.  1.
         12    1    3    3    0    0  0.53061502812E+01 -0.13876314615E+02 -0.24256450536E+01  0.15052942969E+02  0.00000000000E+00 0. -1.
</event>
<event>
 7    1  0.2688173E-013  0.7246157E+02  0.7816164E-02  0.1226708E+00
        -11   -1    0    0    0    0  0.00000000000E+00  0.00000000000E+00  0.45593999997E+02  0.45594000000E+02  0.51100000000E-03 0.  1.
         11   -1    0    0    0    0 -0.00000000000E+00 -0.00000000000E+00 -0.45593999997E+02  0.45594000000E+02  0.51100000000E-03 0. -1.
    9900012    2    1    2    0    0  0.81789661702E+01  0.11729301380E+02 -0.12091622265E+02  0.72461566077E+02  0.69999994507E+02 0.  0.
        -12    1    1    2    0    0 -0.81789661702E+01 -0.11729301380E+02  0.12091622265E+02  0.18726433923E+02  0.00000000000E+00 0.  1.
         11    1    3    3    0    0  0.11983561532E+01  0.21442652362E+02  0.32507011149E+01  0.21720737920E+02  0.51100000000E-03 0. -1.
        -11    1    3    3    0    0  0.26345911612E+02 -0.67096045404E+01 -0.24796521008E+01  0.27299716602E+02  0.51100000000E-03 0.  1.
         12    1    3    3    0    0 -0.19365301595E+02 -0.30037464419E+01 -0.12862671279E+02  0.23441111556E+02  0.00000000000E+00 0. -1.
</event>
<event>
 7    1  0.2688173E-013  0.7246154E+02  0.7816164E-02  0.1226708E+00
        -11   -1    0    0    0    0  0.00000000000E+00  0.00000000000E+00  0.45593999997E+02  0.45594000000E+02  0.51100000000E-03 0. -1.
         11   -1    0    0    0    0 -0.00000000000E+00 -0.00000000000E+00 -0.45593999997E+02  0.45594000000E+02  0.51100000000E-03 0.  1.
    9900012    2    1    2    0    0 -0.12428239500E+01  0.91209784211E+01  0.16307771008E+02  0.72461541339E+02  0.69999962280E+02 0.  0.
        -12    1    1    2    0    0  0.12428239500E+01 -0.91209784211E+01 -0.16307771008E+02  0.18726458661E+02  0.00000000000E+00 0.  1.
         11    1    3    3    0    0  0.16421586985E+02 -0.11709225161E+02  0.31723152588E+01  0.20416612288E+02  0.51100000000E-03 0. -1.
        -11    1    3    3    0    0  0.47395407644E+01 -0.30076188782E+00 -0.11606332849E+02  0.12540361511E+02  0.51100000000E-03 0.  1.
         12    1    3    3    0    0 -0.22403951699E+02  0.21130965470E+02  0.24741788598E+02  0.39504567539E+02  0.00000000000E+00 0. -1.
</event>
<event>
 7    1  0.2688173E-013  0.7246156E+02  0.7816164E-02  0.1226708E+00
        -11   -1    0    0    0    0  0.00000000000E+00  0.00000000000E+00  0.45593999997E+02  0.45594000000E+02  0.51100000000E-03 0. -1.
         11   -1    0    0    0    0 -0.00000000000E+00 -0.00000000000E+00 -0.45593999997E+02  0.45594000000E+02  0.51100000000E-03 0.  1.
    9900012    2    1    2    0    0  0.10223832301E+02  0.32870856424E+01  0.15341047525E+02  0.72461563657E+02  0.69999991354E+02 0.  0.
        -12    1    1    2    0    0 -0.10223832301E+02 -0.32870856424E+01 -0.15341047525E+02  0.18726436343E+02  0.00000000000E+00 0.  1.
         11    1    3    3    0    0 -0.83006629072E+01 -0.61864270879E+01 -0.54064529437E+01  0.11679153159E+02  0.51100000000E-03 0. -1.
        -11    1    3    3    0    0  0.18803574222E+01  0.42061771214E+01 -0.17842222477E+02  0.18427495033E+02  0.51100000000E-03 0.  1.
         12    1    3    3    0    0  0.16644137786E+02  0.52673356089E+01  0.38589722946E+02  0.42354915465E+02  0.00000000000E+00 0. -1.
</event>
<event>
 7    1  0.2688173E-013  0.7246160E+02  0.7816164E-02  0.1226708E+00
        -11   -1    0    0    0    0  0.00000000000E+00  0.00000000000E+00  0.45593999997E+02  0.45594000000E+02  0.51100000000E-03 0.  1.
         11   -1    0    0    0    0 -0.00000000000E+00 -0.00000000000E+00 -0.45593999997E+02  0.45594000000E+02  0.51100000000E-03 0. -1.
    9900012    2    1    2    0    0  0.46170251498E+01 -0.17926612346E+02 -0.28280532391E+01  0.72461595205E+02  0.70000032450E+02 0.  0.
        -12    1    1    2    0    0 -0.46170251498E+01  0.17926612346E+02  0.28280532391E+01  0.18726404795E+02  0.00000000000E+00 0.  1.
         11    1    3    3    0    0  0.25115846085E+01 -0.93933465158E+01 -0.59885830893E+01  0.11419550941E+02  0.51100000000E-03 0. -1.
        -11    1    3    3    0    0 -0.21756821217E+02 -0.21238664894E+02  0.11870390391E+02  0.32639643445E+02  0.51100000000E-03 0.  1.
        -12    1    3    3    0    0  0.23862261759E+02  0.12705399064E+02 -0.87098605406E+01  0.28402400818E+02  0.00000000000E+00 0.  1.
</event>
<event>
 7    1  0.2688173E-013  0.7246156E+02  0.7816164E-02  0.1226708E+00
        -11   -1    0    0    0    0  0.00000000000E+00  0.00000000000E+00  0.45593999997E+02  0.45594000000E+02  0.51100000000E-03 0.  1.
         11   -1    0    0    0    0 -0.00000000000E+00 -0.00000000000E+00 -0.45593999997E+02  0.45594000000E+02  0.51100000000E-03 0. -1.
    9900012    2    1    2    0    0 -0.17644718842E+02  0.25889413788E+01 -0.57132218235E+01  0.72461558158E+02  0.69999984190E+02 0.  0.
        -12    1    1    2    0    0  0.17644718842E+02 -0.25889413788E+01  0.57132218235E+01  0.18726441842E+02  0.00000000000E+00 0.  1.
         11    1    3    3    0    0  0.18449003164E+01 -0.48076196045E+01  0.12811207797E+02  0.13807386028E+02  0.51100000000E-03 0. -1.
        -11    1    3    3    0    0 -0.27309943668E+02  0.21557449994E+02 -0.10037546329E+01  0.34807530751E+02  0.51100000000E-03 0.  1.
         12    1    3    3    0    0  0.78203245099E+01 -0.14160889010E+02 -0.17520674988E+02  0.23846641379E+02  0.00000000000E+00 0. -1.
</event>
<event>
 7    1  0.2688173E-013  0.7246192E+02  0.7816164E-02  0.1226707E+00
        -11   -1    0    0    0    0  0.00000000000E+00  0.00000000000E+00  0.45593999997E+02  0.45594000000E+02  0.51100000000E-03 0. -1.
         11   -1    0    0    0    0 -0.00000000000E+00 -0.00000000000E+00 -0.45593999997E+02  0.45594000000E+02  0.51100000000E-03 0.  1.
    9900012    2    1    2    0    0  0.17888078521E+02 -0.54244336032E+01  0.11217465603E+01  0.72461917963E+02  0.70000452902E+02 0.  0.
        -12    1    1    2    0    0 -0.17888078521E+02  0.54244336032E+01 -0.11217465603E+01  0.18726082037E+02  0.00000000000E+00 0.  1.
         11    1    3    3    0    0 -0.70457483671E+01 -0.99543264715E+01  0.15296356766E+02  0.19562967979E+02  0.51100000000E-03 0. -1.
        -11    1    3    3    0    0  0.22414902965E+02 -0.61543828140E+01  0.10790609637E+02  0.25626969375E+02  0.51100000000E-03 0.  1.
        -12    1    3    3    0    0  0.25189239229E+01  0.10684275682E+02 -0.24965219842E+02  0.27271980610E+02  0.00000000000E+00 0.  1.
</event>
<event>
 7    1  0.2688173E-013  0.7246156E+02  0.7816164E-02  0.1226708E+00
        -11   -1    0    0    0    0  0.00000000000E+00  0.00000000000E+00  0.45593999997E+02  0.45594000000E+02  0.51100000000E-03 0.  1.
         11   -1    0    0    0    0 -0.00000000000E+00 -0.00000000000E+00 -0.45593999997E+02  0.45594000000E+02  0.51100000000E-03 0. -1.
    9900012    2    1    2    0    0 -0.75102560040E+01  0.94360079204E+01  0.14326108463E+02  0.72461559483E+02  0.69999985917E+02 0.  0.
        -12    1    1    2    0    0  0.75102560040E+01 -0.94360079204E+01 -0.14326108463E+02  0.18726440517E+02  0.00000000000E+00 0.  1.
         11    1    3    3    0    0  0.27635948649E+01  0.12121263013E+01  0.22737838473E+01  0.37784652960E+01  0.51100000000E-03 0.  1.
        -11    1    3    3    0    0 -0.10981575176E+02  0.25078570202E+02 -0.19013608482E+02  0.33332371420E+02  0.51100000000E-03 0. -1.
         12    1    3    3    0    0  0.70772430700E+00 -0.16854688583E+02  0.31065933098E+02  0.35350722767E+02  0.00000000000E+00 0. -1.
</event>
<event>
 7    1  0.2688173E-013  0.7246164E+02  0.7816164E-02  0.1226708E+00
        -11   -1    0    0    0    0  0.00000000000E+00  0.00000000000E+00  0.45593999997E+02  0.45594000000E+02  0.51100000000E-03 0. -1.
         11   -1    0    0    0    0 -0.00000000000E+00 -0.00000000000E+00 -0.45593999997E+02  0.45594000000E+02  0.51100000000E-03 0.  1.
    9900012    2    1    2    0    0  0.10109780925E+02  0.15683573884E+02  0.15794090578E+01  0.72461636415E+02  0.70000086134E+02 0.  0.
        -12    1    1    2    0    0 -0.10109780925E+02 -0.15683573884E+02 -0.15794090578E+01  0.18726363585E+02  0.00000000000E+00 0.  1.
         11    1    3    3    0    0  0.24103065545E+02  0.24581382940E+02 -0.11645904674E+02  0.36343214661E+02  0.51100000000E-03 0. -1.
        -11    1    3    3    0    0  0.26643072913E+01  0.79648705343E+01 -0.10260469323E+01  0.84611150884E+01  0.51100000000E-03 0.  1.
        -12    1    3    3    0    0 -0.16657591911E+02 -0.16862679590E+02  0.14251360664E+02  0.27657306666E+02  0.00000000000E+00 0.  1.
</event>
<event>
 7    1  0.2688173E-013  0.7246164E+02  0.7816164E-02  0.1226708E+00
        -11   -1    0    0    0    0  0.00000000000E+00  0.00000000000E+00  0.45593999997E+02  0.45594000000E+02  0.51100000000E-03 0.  1.
         11   -1    0    0    0    0 -0.00000000000E+00 -0.00000000000E+00 -0.45593999997E+02  0.45594000000E+02  0.51100000000E-03 0. -1.
    9900012    2    1    2    0    0  0.12448789630E+02  0.88478086066E+01 -0.10836080668E+02  0.72461635573E+02  0.70000085038E+02 0.  0.
        -12    1    1    2    0    0 -0.12448789630E+02 -0.88478086066E+01  0.10836080668E+02  0.18726364427E+02  0.00000000000E+00 0.  1.
         11    1    3    3    0    0  0.18652209376E+01  0.12201588798E+02  0.56402057722E+01  0.13570915215E+02  0.51100000000E-03 0. -1.
        -11    1    3    3    0    0 -0.30074067998E+01  0.23930095249E+02  0.25397074590E+00  0.24119669477E+02  0.51100000000E-03 0.  1.
        -12    1    3    3    0    0  0.13590975493E+02 -0.27283875440E+02 -0.16730257186E+02  0.34771050882E+02  0.00000000000E+00 0.  1.
</event>
<event>
 7    1  0.2688173E-013  0.7246168E+02  0.7816164E-02  0.1226708E+00
        -11   -1    0    0    0    0  0.00000000000E+00  0.00000000000E+00  0.45593999997E+02  0.45594000000E+02  0.51100000000E-03 0.  1.
         11   -1    0    0    0    0 -0.00000000000E+00 -0.00000000000E+00 -0.45593999997E+02  0.45594000000E+02  0.51100000000E-03 0. -1.
    9900012    2    1    2    0    0 -0.49379776270E+01  0.17492214067E+02 -0.45070877987E+01  0.72461681183E+02  0.70000144453E+02 0.  0.
        -12    1    1    2    0    0  0.49379776270E+01 -0.17492214067E+02  0.45070877987E+01  0.18726318817E+02  0.00000000000E+00 0.  1.
         11    1    3    3    0    0 -0.77354507573E+01  0.36654632817E+02 -0.79523332897E+01  0.38296721928E+02  0.51100000000E-03 0. -1.
        -11    1    3    3    0    0  0.90766771908E+01  0.37119791937E+01  0.35930939645E+01  0.10443906494E+02  0.51100000000E-03 0.  1.
         12    1    3    3    0    0 -0.62792040605E+01 -0.22874397944E+02 -0.14784847353E+00  0.23721052761E+02  0.00000000000E+00 0. -1.
</event>
<event>
 7    1  0.2688173E-013  0.7246150E+02  0.7816164E-02  0.1226708E+00
        -11   -1    0    0    0    0  0.00000000000E+00  0.00000000000E+00  0.45593999997E+02  0.45594000000E+02  0.51100000000E-03 0.  1.
         11   -1    0    0    0    0 -0.00000000000E+00 -0.00000000000E+00 -0.45593999997E+02  0.45594000000E+02  0.51100000000E-03 0. -1.
    9900012    2    1    2    0    0  0.64216676965E+01  0.15251385818E+02 -0.87658070729E+01  0.72461495815E+02  0.69999902976E+02 0.  0.
        -12    1    1    2    0    0 -0.64216676965E+01 -0.15251385818E+02  0.87658070729E+01  0.18726504185E+02  0.00000000000E+00 0.  1.
         11    1    3    3    0    0  0.13900603027E+02  0.35076129217E+02 -0.28775907139E+01  0.37839689929E+02  0.51100000000E-03 0. -1.
        -11    1    3    3    0    0  0.98423003865E+01 -0.79933149108E+01 -0.49911075229E+01  0.13626265619E+02  0.51100000000E-03 0.  1.
        -12    1    3    3    0    0 -0.17321235717E+02 -0.11831428488E+02 -0.89710883612E+00  0.20995540267E+02  0.00000000000E+00 0.  1.
</event>
<event>
 7    1  0.2688173E-013  0.7246157E+02  0.7816164E-02  0.1226708E+00
        -11   -1    0    0    0    0  0.00000000000E+00  0.00000000000E+00  0.45593999997E+02  0.45594000000E+02  0.51100000000E-03 0.  1.
         11   -1    0    0    0    0 -0.00000000000E+00 -0.00000000000E+00 -0.45593999997E+02  0.45594000000E+02  0.51100000000E-03 0. -1.
    9900012    2    1    2    0    0 -0.36765653484E+01  0.13214123181E+02 -0.12749464425E+02  0.72461574091E+02  0.70000004946E+02 0.  0.
        -12    1    1    2    0    0  0.36765653484E+01 -0.13214123181E+02  0.12749464425E+02  0.18726425909E+02  0.00000000000E+00 0.  1.
         11    1    3    3    0    0 -0.24846003547E+02  0.35786656452E+01 -0.27483611112E+02  0.37222031380E+02  0.51100000000E-03 0. -1.
        -11    1    3    3    0    0 -0.41992826922E+01  0.42212449623E+01  0.16080069273E+01  0.61675417064E+01  0.51100000000E-03 0.  1.
        -12    1    3    3    0    0  0.25368720891E+02  0.54142125732E+01  0.13126139759E+02  0.29072001005E+02  0.00000000000E+00 0.  1.
</event>
<event>
 7    1  0.2688173E-013  0.7246158E+02  0.7816164E-02  0.1226708E+00
        -11   -1    0    0    0    0  0.00000000000E+00  0.00000000000E+00  0.45593999997E+02  0.45594000000E+02  0.51100000000E-03 0. -1.
         11   -1    0    0    0    0 -0.00000000000E+00 -0.00000000000E+00 -0.45593999997E+02  0.45594000000E+02  0.51100000000E-03 0.  1.
    9900012    2    1    2    0    0  0.22644215297E+01  0.17519849989E+02 -0.62133650388E+01  0.72461584070E+02  0.70000017945E+02 0.  0.
        -12    1    1    2    0    0 -0.22644215297E+01 -0.17519849989E+02  0.62133650388E+01  0.18726415930E+02  0.00000000000E+00 0.  1.
         11    1    3    3    0    0 -0.32441622053E+01  0.18020510695E+02  0.17766755441E+02  0.25513153339E+02  0.51100000000E-03 0. -1.
        -11    1    3    3    0    0 -0.80666455948E+00  0.49167474170E+01  0.10423414109E+02  0.11553037472E+02  0.51100000000E-03 0.  1.
        -12    1    3    3    0    0  0.63152482945E+01 -0.54174081228E+01 -0.34403534589E+02  0.35395393259E+02  0.00000000000E+00 0.  1.
</event>
<event>
 7    1  0.2688173E-013  0.7246159E+02  0.7816164E-02  0.1226708E+00
        -11   -1    0    0    0    0  0.00000000000E+00  0.00000000000E+00  0.45593999997E+02  0.45594000000E+02  0.51100000000E-03 0.  1.
         11   -1    0    0    0    0 -0.00000000000E+00 -0.00000000000E+00 -0.45593999997E+02  0.45594000000E+02  0.51100000000E-03 0. -1.
    9900012    2    1    2    0    0  0.14285455883E+01  0.53238133053E+01 -0.17896784128E+02  0.72461585160E+02  0.70000019366E+02 0.  0.
        -12    1    1    2    0    0 -0.14285455883E+01 -0.53238133053E+01  0.17896784128E+02  0.18726414840E+02  0.00000000000E+00 0.  1.
         11    1    3    3    0    0  0.11799597560E+02  0.16063072049E+02 -0.23653814438E+02  0.30931468183E+02  0.51100000000E-03 0. -1.
        -11    1    3    3    0    0  0.86916231829E+01  0.66279536040E+01 -0.67737168806E+01  0.12859133842E+02  0.51100000000E-03 0.  1.
        -12    1    3    3    0    0 -0.19062675154E+02 -0.17367212348E+02  0.12530747191E+02  0.28670983135E+02  0.00000000000E+00 0.  1.
</event>
<event>
 7    1  0.2688173E-013  0.7246162E+02  0.7816164E-02  0.1226708E+00
        -11   -1    0    0    0    0  0.00000000000E+00  0.00000000000E+00  0.45593999997E+02  0.45594000000E+02  0.51100000000E-03 0. -1.
         11   -1    0    0    0    0 -0.00000000000E+00 -0.00000000000E+00 -0.45593999997E+02  0.45594000000E+02  0.51100000000E-03 0.  1.
    9900012    2    1    2    0    0  0.80674860904E+01 -0.16698590720E+02 -0.25980611097E+01  0.72461623271E+02  0.70000069012E+02 0.  0.
        -12    1    1    2    0    0 -0.80674860904E+01  0.16698590720E+02  0.25980611097E+01  0.18726376729E+02  0.00000000000E+00 0.  1.
         11    1    3    3    0    0  0.17493520095E+02 -0.61747817626E+01 -0.87433739536E+01  0.20508480282E+02  0.51100000000E-03 0. -1.
        -11    1    3    3    0    0  0.20195179945E+02 -0.68911845804E+01 -0.64085168069E+00  0.21348171094E+02  0.51100000000E-03 0.  1.
        -12    1    3    3    0    0 -0.29621213950E+02 -0.36326243769E+01  0.67861645246E+01  0.30604971895E+02  0.00000000000E+00 0.  1.
</event>
<event>
 7    1  0.2688173E-013  0.7246162E+02  0.7816164E-02  0.1226708E+00
        -11   -1    0    0    0    0  0.00000000000E+00  0.00000000000E+00  0.45593999997E+02  0.45594000000E+02  0.51100000000E-03 0.  1.
         11   -1    0    0    0    0 -0.00000000000E+00 -0.00000000000E+00 -0.45593999997E+02  0.45594000000E+02  0.51100000000E-03 0. -1.
    9900012    2    1    2    0    0  0.53467992046E+01  0.17365252532E+02 -0.45317839354E+01  0.72461619601E+02  0.70000064231E+02 0.  0.
        -12    1    1    2    0    0 -0.53467992046E+01 -0.17365252532E+02  0.45317839354E+01  0.18726380399E+02  0.00000000000E+00 0.  1.
         11    1    3    3    0    0  0.12748671065E+02  0.16983719970E+02  0.41601630608E+01  0.21639831675E+02  0.51100000000E-03 0. -1.
        -11    1    3    3    0    0 -0.54242252773E+01  0.19122154833E+02  0.11692980061E+02  0.23060893484E+02  0.51100000000E-03 0.  1.
        -12    1    3    3    0    0 -0.19776465835E+01 -0.18740622271E+02 -0.20384927057E+02  0.27760894442E+02  0.00000000000E+00 0.  1.
</event>
<event>
 7    1  0.2688173E-013  0.7246160E+02  0.7816164E-02  0.1226708E+00
        -11   -1    0    0    0    0  0.00000000000E+00  0.00000000000E+00  0.45593999997E+02  0.45594000000E+02  0.51100000000E-03 0. -1.
         11   -1    0    0    0    0 -0.00000000000E+00 -0.00000000000E+00 -0.45593999997E+02  0.45594000000E+02  0.51100000000E-03 0.  1.
    9900012    2    1    2    0    0  0.11738656604E+02  0.13327344859E+02  0.59383463510E+01  0.72461597856E+02  0.70000035905E+02 0.  0.
        -12    1    1    2    0    0 -0.11738656604E+02 -0.13327344859E+02 -0.59383463510E+01  0.18726402144E+02  0.00000000000E+00 0.  1.
         11    1    3    3    0    0  0.23669392633E+02  0.17096029303E+02  0.93060675304E+01  0.30645020129E+02  0.51100000000E-03 0. -1.
        -11    1    3    3    0    0  0.13393473655E+02 -0.79945631016E+01 -0.41137269403E+01  0.16131364645E+02  0.51100000000E-03 0.  1.
         12    1    3    3    0    0 -0.25324209683E+02  0.42258786571E+01  0.74600576096E+00  0.25685213082E+02  0.00000000000E+00 0. -1.
</event>
<event>
 7    1  0.2688173E-013  0.7246160E+02  0.7816164E-02  0.1226708E+00
        -11   -1    0    0    0    0  0.00000000000E+00  0.00000000000E+00  0.45593999997E+02  0.45594000000E+02  0.51100000000E-03 0.  1.
         11   -1    0    0    0    0 -0.00000000000E+00 -0.00000000000E+00 -0.45593999997E+02  0.45594000000E+02  0.51100000000E-03 0. -1.
    9900012    2    1    2    0    0  0.17249647591E+02  0.86340025295E+00 -0.72375502139E+01  0.72461603253E+02  0.70000042935E+02 0.  0.
        -12    1    1    2    0    0 -0.17249647591E+02 -0.86340025295E+00  0.72375502139E+01  0.18726396747E+02  0.00000000000E+00 0.  1.
         11    1    3    3    0    0 -0.14432770646E+02 -0.11200354851E+01 -0.21448148826E+02  0.25876291008E+02  0.51100000000E-03 0. -1.
        -11    1    3    3    0    0 -0.47974637857E+01 -0.50880678206E+01  0.39683574675E+01  0.80406438904E+01  0.51100000000E-03 0.  1.
        -12    1    3    3    0    0  0.36479882022E+02  0.70715035587E+01  0.10242241145E+02  0.38544668355E+02  0.00000000000E+00 0.  1.
</event>
<event>
 7    1  0.2688173E-013  0.7246159E+02  0.7816164E-02  0.1226708E+00
        -11   -1    0    0    0    0  0.00000000000E+00  0.00000000000E+00  0.45593999997E+02  0.45594000000E+02  0.51100000000E-03 0. -1.
         11   -1    0    0    0    0 -0.00000000000E+00 -0.00000000000E+00 -0.45593999997E+02  0.45594000000E+02  0.51100000000E-03 0.  1.
    9900012    2    1    2    0    0  0.18547144043E+02 -0.23666170546E+01  0.10396553485E+01  0.72461593199E+02  0.70000029837E+02 0.  0.
        -12    1    1    2    0    0 -0.18547144043E+02  0.23666170546E+01 -0.10396553485E+01  0.18726406801E+02  0.00000000000E+00 0.  1.
         11    1    3    3    0    0  0.19190708595E+02 -0.11624130784E+02  0.71300107404E+00  0.22447986183E+02  0.51100000000E-03 0. -1.
        -11    1    3    3    0    0 -0.54790496927E+01 -0.16807568396E+02  0.11666034712E+02  0.21180432174E+02  0.51100000000E-03 0.  1.
        -12    1    3    3    0    0  0.48354851407E+01  0.26065082125E+02 -0.11339380438E+02  0.28833174842E+02  0.00000000000E+00 0.  1.
</event>
<event>
 7    1  0.2688173E-013  0.7246160E+02  0.7816164E-02  0.1226708E+00
        -11   -1    0    0    0    0  0.00000000000E+00  0.00000000000E+00  0.45593999997E+02  0.45594000000E+02  0.51100000000E-03 0.  1.
         11   -1    0    0    0    0 -0.00000000000E+00 -0.00000000000E+00 -0.45593999997E+02  0.45594000000E+02  0.51100000000E-03 0. -1.
    9900012    2    1    2    0    0  0.11381479299E+01  0.14216816730E+02  0.12135269085E+02  0.72461601136E+02  0.70000040177E+02 0.  0.
        -12    1    1    2    0    0 -0.11381479299E+01 -0.14216816730E+02 -0.12135269085E+02  0.18726398864E+02  0.00000000000E+00 0.  1.
         11    1    3    3    0    0  0.10036134059E+02  0.17299159568E+02 -0.12086226259E+02  0.23367964697E+02  0.51100000000E-03 0. -1.
        -11    1    3    3    0    0 -0.24521237985E+02 -0.73296550750E+01  0.97794074989E+01  0.27398024876E+02  0.51100000000E-03 0.  1.
        -12    1    3    3    0    0  0.15623251855E+02  0.42473122366E+01  0.14442087845E+02  0.21695611563E+02  0.00000000000E+00 0.  1.
</event>
<event>
 7    1  0.2688173E-013  0.7246127E+02  0.7816164E-02  0.1226709E+00
        -11   -1    0    0    0    0  0.00000000000E+00  0.00000000000E+00  0.45593999997E+02  0.45594000000E+02  0.51100000000E-03 0. -1.
         11   -1    0    0    0    0 -0.00000000000E+00 -0.00000000000E+00 -0.45593999997E+02  0.45594000000E+02  0.51100000000E-03 0.  1.
    9900012    2    1    2    0    0 -0.27351460623E+01  0.18525393443E+02 -0.13832852246E+00  0.72461271482E+02  0.69999610740E+02 0.  0.
        -12    1    1    2    0    0  0.27351460623E+01 -0.18525393443E+02  0.13832852246E+00  0.18726728518E+02  0.00000000000E+00 0.  1.
         11    1    3    3    0    0  0.24965760411E+02  0.57656277541E+01  0.93106740828E+01  0.27262067207E+02  0.51100000000E-03 0. -1.
        -11    1    3    3    0    0 -0.52983175264E+01  0.18474930273E+02  0.21377728612E+01  0.19338182186E+02  0.51100000000E-03 0.  1.
        -12    1    3    3    0    0 -0.22402588947E+02 -0.57151645835E+01 -0.11586775467E+02  0.25861022088E+02  0.00000000000E+00 0.  1.
</event>
<event>
 7    1  0.2688173E-013  0.7246159E+02  0.7816164E-02  0.1226708E+00
        -11   -1    0    0    0    0  0.00000000000E+00  0.00000000000E+00  0.45593999997E+02  0.45594000000E+02  0.51100000000E-03 0. -1.
         11   -1    0    0    0    0 -0.00000000000E+00 -0.00000000000E+00 -0.45593999997E+02  0.45594000000E+02  0.51100000000E-03 0.  1.
    9900012    2    1    2    0    0 -0.17871079825E+02  0.55347456828E+01 -0.81832467789E+00  0.72461586591E+02  0.70000021230E+02 0.  0.
        -12    1    1    2    0    0  0.17871079825E+02 -0.55347456828E+01  0.81832467789E+00  0.18726413409E+02  0.00000000000E+00 0.  1.
         11    1    3    3    0    0  0.10559438424E+01 -0.91117505442E+00 -0.63083955240E+01  0.64607361598E+01  0.51100000000E-03 0. -1.
        -11    1    3    3    0    0 -0.33731024666E+02  0.16563118036E+02 -0.13456320864E+02  0.39914802712E+02  0.51100000000E-03 0.  1.
         12    1    3    3    0    0  0.14804000999E+02 -0.10117197299E+02  0.18946391710E+02  0.26086047719E+02  0.00000000000E+00 0. -1.
</event>
<event>
 7    1  0.2688173E-013  0.7246157E+02  0.7816164E-02  0.1226708E+00
        -11   -1    0    0    0    0  0.00000000000E+00  0.00000000000E+00  0.45593999997E+02  0.45594000000E+02  0.51100000000E-03 0.  1.
         11   -1    0    0    0    0 -0.00000000000E+00 -0.00000000000E+00 -0.45593999997E+02  0.45594000000E+02  0.51100000000E-03 0. -1.
    9900012    2    1    2    0    0 -0.35924592730E+01  0.12825859653E+02 -0.13163240226E+02  0.72461565937E+02  0.69999994324E+02 0.  0.
        -12    1    1    2    0    0  0.35924592730E+01 -0.12825859653E+02  0.13163240226E+02  0.18726434063E+02  0.00000000000E+00 0.  1.
         11    1    3    3    0    0 -0.14767058810E+02  0.25007743903E+02 -0.21908265114E+02  0.36378913694E+02  0.51100000000E-03 0. -1.
        -11    1    3    3    0    0  0.98966601354E+01 -0.74265866678E+01 -0.10493613410E+02  0.16223871117E+02  0.51100000000E-03 0.  1.
        -12    1    3    3    0    0  0.12779394013E+01 -0.47552975813E+01  0.19238638299E+02  0.19858781126E+02  0.00000000000E+00 0.  1.
</event>
<event>
 7    1  0.2688173E-013  0.7246165E+02  0.7816164E-02  0.1226708E+00
        -11   -1    0    0    0    0  0.00000000000E+00  0.00000000000E+00  0.45593999997E+02  0.45594000000E+02  0.51100000000E-03 0.  1.
         11   -1    0    0    0    0 -0.00000000000E+00 -0.00000000000E+00 -0.45593999997E+02  0.45594000000E+02  0.51100000000E-03 0. -1.
    9900012    2    1    2    0    0  0.29458047783E+01  0.44068876161E+01 -0.17960445485E+02  0.72461654220E+02  0.70000109329E+02 0.  0.
        -12    1    1    2    0    0 -0.29458047783E+01 -0.44068876161E+01  0.17960445485E+02  0.18726345780E+02  0.00000000000E+00 0.  1.
         11    1    3    3    0    0 -0.40257184205E+01  0.14534818139E+02  0.86973326925E+01  0.17410081659E+02  0.51100000000E-03 0. -1.
        -11    1    3    3    0    0  0.21578992272E+01 -0.24011201243E+02  0.56680579865E+00  0.24114634214E+02  0.51100000000E-03 0.  1.
         12    1    3    3    0    0  0.48136239716E+01  0.13883270720E+02 -0.27224583976E+02  0.30936938347E+02  0.00000000000E+00 0. -1.
</event>
<event>
 7    1  0.2688173E-013  0.7246162E+02  0.7816164E-02  0.1226708E+00
        -11   -1    0    0    0    0  0.00000000000E+00  0.00000000000E+00  0.45593999997E+02  0.45594000000E+02  0.51100000000E-03 0.  1.
         11   -1    0    0    0    0 -0.00000000000E+00 -0.00000000000E+00 -0.45593999997E+02  0.45594000000E+02  0.51100000000E-03 0. -1.
    9900012    2    1    2    0    0 -0.10282357650E+02 -0.11335354243E+02  0.10791672707E+02  0.72461619291E+02  0.70000063827E+02 0.  0.
        -12    1    1    2    0    0  0.10282357650E+02  0.11335354243E+02 -0.10791672707E+02  0.18726380709E+02  0.00000000000E+00 0.  1.
         11    1    3    3    0    0  0.18816117521E+02 -0.11539835165E+01 -0.28585967555E+01  0.19066974909E+02  0.51100000000E-03 0. -1.
        -11    1    3    3    0    0 -0.14021725036E+02  0.90641844909E+01 -0.99316307265E+01  0.19426927256E+02  0.51100000000E-03 0.  1.
        -12    1    3    3    0    0 -0.15076750134E+02 -0.19245555217E+02  0.23581900189E+02  0.33967717126E+02  0.00000000000E+00 0.  1.
</event>
<event>
 7    1  0.2688173E-013  0.7246169E+02  0.7816164E-02  0.1226708E+00
        -11   -1    0    0    0    0  0.00000000000E+00  0.00000000000E+00  0.45593999997E+02  0.45594000000E+02  0.51100000000E-03 0. -1.
         11   -1    0    0    0    0 -0.00000000000E+00 -0.00000000000E+00 -0.45593999997E+02  0.45594000000E+02  0.51100000000E-03 0.  1.
    9900012    2    1    2    0    0  0.18556895033E+02 -0.24448625324E+01  0.58232119033E+00  0.72461686854E+02  0.70000151841E+02 0.  0.
        -12    1    1    2    0    0 -0.18556895033E+02  0.24448625324E+01 -0.58232119033E+00  0.18726313146E+02  0.00000000000E+00 0.  1.
         11    1    3    3    0    0 -0.78107280380E+01  0.33474727285E+01  0.49046664291E+01  0.98116664840E+01  0.51100000000E-03 0. -1.
        -11    1    3    3    0    0 -0.13400187897E+02  0.12745204554E+02 -0.31389398997E+01  0.18757884176E+02  0.51100000000E-03 0.  1.
         12    1    3    3    0    0  0.39767810968E+02 -0.18537539814E+02 -0.11834053391E+01  0.43892136195E+02  0.00000000000E+00 0. -1.
</event>
<event>
 7    1  0.2688173E-013  0.7246158E+02  0.7816164E-02  0.1226708E+00
        -11   -1    0    0    0    0  0.00000000000E+00  0.00000000000E+00  0.45593999997E+02  0.45594000000E+02  0.51100000000E-03 0.  1.
         11   -1    0    0    0    0 -0.00000000000E+00 -0.00000000000E+00 -0.45593999997E+02  0.45594000000E+02  0.51100000000E-03 0. -1.
    9900012    2    1    2    0    0 -0.12458071628E+02 -0.13961737701E+02 -0.73838782523E+00  0.72461577893E+02  0.70000009899E+02 0.  0.
        -12    1    1    2    0    0  0.12458071628E+02  0.13961737701E+02  0.73838782523E+00  0.18726422107E+02  0.00000000000E+00 0.  1.
         11    1    3    3    0    0 -0.17872662101E+02  0.14809868300E+02  0.17888774267E+02  0.29304820331E+02  0.51100000000E-03 0. -1.
        -11    1    3    3    0    0  0.59147942305E+01  0.18567312112E+01  0.16572905279E+01  0.64170751698E+01  0.51100000000E-03 0.  1.
        -12    1    3    3    0    0 -0.50020375816E+00 -0.30628337212E+02 -0.20284452620E+02  0.36739682392E+02  0.00000000000E+00 0.  1.
</event>
<event>
 7    1  0.2688173E-013  0.7246155E+02  0.7816164E-02  0.1226708E+00
        -11   -1    0    0    0    0  0.00000000000E+00  0.00000000000E+00  0.45593999997E+02  0.45594000000E+02  0.51100000000E-03 0.  1.
         11   -1    0    0    0    0 -0.00000000000E+00 -0.00000000000E+00 -0.45593999997E+02  0.45594000000E+02  0.51100000000E-03 0. -1.
    9900012    2    1    2    0    0  0.12724706116E+02  0.41665889653E+01  0.13092028563E+02  0.72461552893E+02  0.69999977331E+02 0.  0.
        -12    1    1    2    0    0 -0.12724706116E+02 -0.41665889653E+01 -0.13092028563E+02  0.18726447107E+02  0.00000000000E+00 0.  1.
         11    1    3    3    0    0 -0.13571305468E+01 -0.12291102023E+02 -0.14368301753E+02  0.18956821669E+02  0.51100000000E-03 0. -1.
        -11    1    3    3    0    0 -0.12256639836E+02 -0.19356843371E+01  0.13905451465E+02  0.18636890155E+02  0.51100000000E-03 0.  1.
        -12    1    3    3    0    0  0.26338476499E+02  0.18393375326E+02  0.13554878851E+02  0.34867841069E+02  0.00000000000E+00 0.  1.
</event>
<event>
 7    1  0.2688173E-013  0.7246156E+02  0.7816164E-02  0.1226708E+00
        -11   -1    0    0    0    0  0.00000000000E+00  0.00000000000E+00  0.45593999997E+02  0.45594000000E+02  0.51100000000E-03 0. -1.
         11   -1    0    0    0    0 -0.00000000000E+00 -0.00000000000E+00 -0.45593999997E+02  0.45594000000E+02  0.51100000000E-03 0.  1.
    9900012    2    1    2    0    0  0.33314582396E+01 -0.18424477580E+02 -0.34560896519E+00  0.72461563242E+02  0.69999990813E+02 0.  0.
        -12    1    1    2    0    0 -0.33314582396E+01  0.18424477580E+02  0.34560896519E+00  0.18726436758E+02  0.00000000000E+00 0.  1.
         11    1    3    3    0    0  0.25637525327E+02 -0.18597892605E+02 -0.99830125905E+01  0.33208806888E+02  0.51100000000E-03 0. -1.
        -11    1    3    3    0    0  0.67226766722E+01  0.48330208869E+01 -0.10491356833E+00  0.82803067365E+01  0.51100000000E-03 0.  1.
        -12    1    3    3    0    0 -0.29028743760E+02 -0.46596058614E+01  0.97423171936E+01  0.30972449618E+02  0.00000000000E+00 0.  1.
</event>
<event>
 7    1  0.2688173E-013  0.7246140E+02  0.7816164E-02  0.1226708E+00
        -11   -1    0    0    0    0  0.00000000000E+00  0.00000000000E+00  0.45593999997E+02  0.45594000000E+02  0.51100000000E-03 0.  1.
         11   -1    0    0    0    0 -0.00000000000E+00 -0.00000000000E+00 -0.45593999997E+02  0.45594000000E+02  0.51100000000E-03 0. -1.
    9900012    2    1    2    0    0  0.48949441505E+00  0.12529759008E+01 -0.18678226686E+02  0.72461395782E+02  0.69999772665E+02 0.  0.
        -12    1    1    2    0    0 -0.48949441505E+00 -0.12529759008E+01  0.18678226686E+02  0.18726604218E+02  0.00000000000E+00 0.  1.
         11    1    3    3    0    0 -0.48250775723E+01 -0.38570473968E+01  0.25704197396E+00  0.61825770547E+01  0.51100000000E-03 0. -1.
        -11    1    3    3    0    0  0.88158537965E+01 -0.21585978670E+02  0.11200276405E+02  0.25867352882E+02  0.51100000000E-03 0.  1.
         12    1    3    3    0    0 -0.35012818091E+01  0.26696001968E+02 -0.30135545066E+02  0.40411465845E+02  0.00000000000E+00 0. -1.
</event>
<event>
 7    1  0.2688173E-013  0.7246155E+02  0.7816164E-02  0.1226708E+00
        -11   -1    0    0    0    0  0.00000000000E+00  0.00000000000E+00  0.45593999997E+02  0.45594000000E+02  0.51100000000E-03 0. -1.
         11   -1    0    0    0    0 -0.00000000000E+00 -0.00000000000E+00 -0.45593999997E+02  0.45594000000E+02  0.51100000000E-03 0.  1.
    9900012    2    1    2    0    0  0.17447627588E+02 -0.18187375475E+01 -0.65537987335E+01  0.72461553660E+02  0.69999978330E+02 0.  0.
        -12    1    1    2    0    0 -0.17447627588E+02  0.18187375475E+01  0.65537987335E+01  0.18726446340E+02  0.00000000000E+00 0.  1.
         11    1    3    3    0    0  0.30820257562E+02 -0.12171511889E+02 -0.42013065852E+01  0.33401870534E+02  0.51100000000E-03 0. -1.
        -11    1    3    3    0    0 -0.80439584658E+01 -0.12544586231E+02 -0.41866405664E+01  0.15479013889E+02  0.51100000000E-03 0.  1.
         12    1    3    3    0    0 -0.53286715086E+01  0.22897360572E+02  0.18341484181E+01  0.23580669236E+02  0.00000000000E+00 0. -1.
</event>
<event>
 7    1  0.2688173E-013  0.7246177E+02  0.7816164E-02  0.1226707E+00
        -11   -1    0    0    0    0  0.00000000000E+00  0.00000000000E+00  0.45593999997E+02  0.45594000000E+02  0.51100000000E-03 0.  1.
         11   -1    0    0    0    0 -0.00000000000E+00 -0.00000000000E+00 -0.45593999997E+02  0.45594000000E+02  0.51100000000E-03 0. -1.
    9900012    2    1    2    0    0  0.55125775460E+00  0.10163464158E+02 -0.15718512981E+02  0.72461774029E+02  0.70000265401E+02 0.  0.
        -12    1    1    2    0    0 -0.55125775460E+00 -0.10163464158E+02  0.15718512981E+02  0.18726225971E+02  0.00000000000E+00 0.  1.
         11    1    3    3    0    0 -0.17273483147E+02  0.26716867909E+00 -0.33643896810E+01  0.17600105606E+02  0.51100000000E-03 0. -1.
        -11    1    3    3    0    0  0.86596996341E+01 -0.18422945693E+02 -0.14540012976E+02  0.25016140857E+02  0.51100000000E-03 0.  1.
        -12    1    3    3    0    0  0.91650412678E+01  0.28319241172E+02  0.21858896763E+01  0.29845527566E+02  0.00000000000E+00 0.  1.
</event>
<event>
 7    1  0.2688173E-013  0.7246157E+02  0.7816164E-02  0.1226708E+00
        -11   -1    0    0    0    0  0.00000000000E+00  0.00000000000E+00  0.45593999997E+02  0.45594000000E+02  0.51100000000E-03 0.  1.
         11   -1    0    0    0    0 -0.00000000000E+00 -0.00000000000E+00 -0.45593999997E+02  0.45594000000E+02  0.51100000000E-03 0. -1.
    9900012    2    1    2    0    0  0.38844640635E+00 -0.16467411110E+01 -0.18649838943E+02  0.72461571096E+02  0.70000001044E+02 0.  0.
        -12    1    1    2    0    0 -0.38844640635E+00  0.16467411110E+01  0.18649838943E+02  0.18726428904E+02  0.00000000000E+00 0.  1.
         11    1    3    3    0    0 -0.85243791175E+01  0.47554456789E+01 -0.13041741581E+00  0.97619829905E+01  0.51100000000E-03 0. -1.
        -11    1    3    3    0    0 -0.23924528625E+02 -0.89926449631E+01 -0.14492721196E+01  0.25599826626E+02  0.51100000000E-03 0.  1.
         12    1    3    3    0    0  0.32837354149E+02  0.25904581733E+01 -0.17070149408E+02  0.37099761479E+02  0.00000000000E+00 0. -1.
</event>
<event>
 7    1  0.2688173E-013  0.7246162E+02  0.7816164E-02  0.1226708E+00
        -11   -1    0    0    0    0  0.00000000000E+00  0.00000000000E+00  0.45593999997E+02  0.45594000000E+02  0.51100000000E-03 0. -1.
         11   -1    0    0    0    0 -0.00000000000E+00 -0.00000000000E+00 -0.45593999997E+02  0.45594000000E+02  0.51100000000E-03 0.  1.
    9900012    2    1    2    0    0 -0.18462010332E-01 -0.15748262430E+02  0.10132585698E+02  0.72461617452E+02  0.70000061432E+02 0.  0.
        -12    1    1    2    0    0  0.18462010332E-01  0.15748262430E+02 -0.10132585698E+02  0.18726382548E+02  0.00000000000E+00 0.  1.
         11    1    3    3    0    0 -0.18231040251E+02  0.79901993829E+01  0.20099541106E+01  0.20006349757E+02  0.51100000000E-03 0. -1.
        -11    1    3    3    0    0 -0.68568210907E+01 -0.13984713683E+02 -0.11328642095E+02  0.19259448181E+02  0.51100000000E-03 0.  1.
         12    1    3    3    0    0  0.25069399331E+02 -0.97537481300E+01  0.19451273682E+02  0.33195819515E+02  0.00000000000E+00 0. -1.
</event>
<event>
 7    1  0.2688173E-013  0.7246149E+02  0.7816164E-02  0.1226708E+00
        -11   -1    0    0    0    0  0.00000000000E+00  0.00000000000E+00  0.45593999997E+02  0.45594000000E+02  0.51100000000E-03 0. -1.
         11   -1    0    0    0    0 -0.00000000000E+00 -0.00000000000E+00 -0.45593999997E+02  0.45594000000E+02  0.51100000000E-03 0.  1.
    9900012    2    1    2    0    0  0.77186206119E+01  0.16125639786E+02  0.55739388649E+01  0.72461490525E+02  0.69999896085E+02 0.  0.
        -12    1    1    2    0    0 -0.77186206119E+01 -0.16125639786E+02 -0.55739388649E+01  0.18726509475E+02  0.00000000000E+00 0.  1.
         11    1    3    3    0    0  0.64640690467E+01 -0.16151738890E+02  0.11541478082E+02  0.20877465708E+02  0.51100000000E-03 0. -1.
        -11    1    3    3    0    0  0.73951115186E+00 -0.94609330835E+01 -0.78905595524E+00  0.95225385857E+01  0.51100000000E-03 0.  1.
         12    1    3    3    0    0  0.51504041335E+00  0.41738311759E+02 -0.51784832615E+01  0.42061486232E+02  0.00000000000E+00 0. -1.
</event>
<event>
 7    1  0.2688173E-013  0.7246156E+02  0.7816164E-02  0.1226708E+00
        -11   -1    0    0    0    0  0.00000000000E+00  0.00000000000E+00  0.45593999997E+02  0.45594000000E+02  0.51100000000E-03 0.  1.
         11   -1    0    0    0    0 -0.00000000000E+00 -0.00000000000E+00 -0.45593999997E+02  0.45594000000E+02  0.51100000000E-03 0. -1.
    9900012    2    1    2    0    0 -0.17005955087E+02  0.27416215025E+01  0.73457858956E+01  0.72461559674E+02  0.69999986165E+02 0.  0.
        -12    1    1    2    0    0  0.17005955087E+02 -0.27416215025E+01 -0.73457858956E+01  0.18726440326E+02  0.00000000000E+00 0.  1.
         11    1    3    3    0    0 -0.36115248825E+01  0.17876674529E+01 -0.20329289268E+01  0.45134983307E+01  0.51100000000E-03 0. -1.
        -11    1    3    3    0    0 -0.14414337539E+02  0.26648901426E+02 -0.13833251029E+02  0.33306094160E+02  0.51100000000E-03 0.  1.
        -12    1    3    3    0    0  0.10199073347E+01 -0.25694947376E+02  0.23211965852E+02  0.34641967183E+02  0.00000000000E+00 0.  1.
</event>
<event>
 7    1  0.2688173E-013  0.7246154E+02  0.7816164E-02  0.1226708E+00
        -11   -1    0    0    0    0  0.00000000000E+00  0.00000000000E+00  0.45593999997E+02  0.45594000000E+02  0.51100000000E-03 0.  1.
         11   -1    0    0    0    0 -0.00000000000E+00 -0.00000000000E+00 -0.45593999997E+02  0.45594000000E+02  0.51100000000E-03 0. -1.
    9900012    2    1    2    0    0 -0.96566454736E+01  0.39921001559E+01 -0.15540034892E+02  0.72461538778E+02  0.69999958944E+02 0.  0.
        -12    1    1    2    0    0  0.96566454736E+01 -0.39921001559E+01  0.15540034892E+02  0.18726461222E+02  0.00000000000E+00 0.  1.
         11    1    3    3    0    0  0.32134203558E+00  0.35875544762E+02 -0.12009855291E+02  0.37833775876E+02  0.51100000000E-03 0. -1.
        -11    1    3    3    0    0 -0.37330293445E+01 -0.33209293435E+01 -0.18987602762E+01  0.53450323328E+01  0.51100000000E-03 0.  1.
        -12    1    3    3    0    0 -0.62449581646E+01 -0.28562515262E+02 -0.16314193249E+01  0.29282730569E+02  0.00000000000E+00 0.  1.
</event>
<event>
 7    1  0.2688173E-013  0.7246152E+02  0.7816164E-02  0.1226708E+00
        -11   -1    0    0    0    0  0.00000000000E+00  0.00000000000E+00  0.45593999997E+02  0.45594000000E+02  0.51100000000E-03 0. -1.
         11   -1    0    0    0    0 -0.00000000000E+00 -0.00000000000E+00 -0.45593999997E+02  0.45594000000E+02  0.51100000000E-03 0.  1.
    9900012    2    1    2    0    0 -0.82577333907E+01  0.16704337491E+02  0.18590359679E+01  0.72461519645E+02  0.69999934020E+02 0.  0.
        -12    1    1    2    0    0  0.82577333907E+01 -0.16704337491E+02 -0.18590359679E+01  0.18726480355E+02  0.00000000000E+00 0.  1.
         11    1    3    3    0    0 -0.71043216732E+01 -0.48977430370E+01  0.22027100755E+02  0.23656974473E+02  0.51100000000E-03 0. -1.
        -11    1    3    3    0    0  0.55571778244E+01 -0.74632182301E+01  0.42742302647E+01  0.10239672668E+02  0.51100000000E-03 0.  1.
        -12    1    3    3    0    0 -0.67105895420E+01  0.29065298758E+02 -0.24442295052E+02  0.38564872504E+02  0.00000000000E+00 0.  1.
</event>
<event>
 7    1  0.2688173E-013  0.7246183E+02  0.7816164E-02  0.1226707E+00
        -11   -1    0    0    0    0  0.00000000000E+00  0.00000000000E+00  0.45593999997E+02  0.45594000000E+02  0.51100000000E-03 0. -1.
         11   -1    0    0    0    0 -0.00000000000E+00 -0.00000000000E+00 -0.45593999997E+02  0.45594000000E+02  0.51100000000E-03 0.  1.
    9900012    2    1    2    0    0 -0.10739511241E+02 -0.13455384840E+02 -0.73678342855E+01  0.72461829411E+02  0.70000337546E+02 0.  0.
        -12    1    1    2    0    0  0.10739511241E+02  0.13455384840E+02  0.73678342855E+01  0.18726170589E+02  0.00000000000E+00 0.  1.
         11    1    3    3    0    0 -0.54178649034E+00  0.10238480051E+02  0.17738952502E+02  0.20488788214E+02  0.51100000000E-03 0. -1.
        -11    1    3    3    0    0  0.12523931289E+02 -0.14654660738E+02 -0.18323010458E+02  0.26595876537E+02  0.51100000000E-03 0.  1.
         12    1    3    3    0    0 -0.22721656039E+02 -0.90392041530E+01 -0.67837763290E+01  0.25377164660E+02  0.00000000000E+00 0. -1.
</event>
<event>
 7    1  0.2688173E-013  0.7246149E+02  0.7816164E-02  0.1226708E+00
        -11   -1    0    0    0    0  0.00000000000E+00  0.00000000000E+00  0.45593999997E+02  0.45594000000E+02  0.51100000000E-03 0.  1.
         11   -1    0    0    0    0 -0.00000000000E+00 -0.00000000000E+00 -0.45593999997E+02  0.45594000000E+02  0.51100000000E-03 0. -1.
    9900012    2    1    2    0    0 -0.15409939045E+02  0.97326386062E+01  0.43001790284E+01  0.72461494312E+02  0.69999901019E+02 0.  0.
        -12    1    1    2    0    0  0.15409939045E+02 -0.97326386062E+01 -0.43001790284E+01  0.18726505688E+02  0.00000000000E+00 0.  1.
         11    1    3    3    0    0  0.80717129393E+01  0.47110399197E+01  0.96505815910E+01  0.13434290908E+02  0.51100000000E-03 0. -1.
        -11    1    3    3    0    0 -0.12832088004E+02  0.13213086703E+02  0.21917430103E+02  0.28629039196E+02  0.51100000000E-03 0.  1.
         12    1    3    3    0    0 -0.10649563981E+02 -0.81914880163E+01 -0.27267832665E+02  0.30398164207E+02  0.00000000000E+00 0. -1.
</event>
<event>
 7    1  0.2688173E-013  0.7246105E+02  0.7816164E-02  0.1226709E+00
        -11   -1    0    0    0    0  0.00000000000E+00  0.00000000000E+00  0.45593999997E+02  0.45594000000E+02  0.51100000000E-03 0. -1.
         11   -1    0    0    0    0 -0.00000000000E+00 -0.00000000000E+00 -0.45593999997E+02  0.45594000000E+02  0.51100000000E-03 0.  1.
    9900012    2    1    2    0    0  0.14024038337E+02  0.83706052586E+01  0.91628584600E+01  0.72461049933E+02  0.69999322129E+02 0.  0.
        -12    1    1    2    0    0 -0.14024038337E+02 -0.83706052586E+01 -0.91628584600E+01  0.18726950067E+02  0.00000000000E+00 0.  1.
         11    1    3    3    0    0 -0.53975141173E+00  0.44113165238E+01 -0.14426858539E+02  0.15095870052E+02  0.51100000000E-03 0.  1.
        -11    1    3    3    0    0 -0.35771372107E+01 -0.18361256585E+02 -0.20693372864E+01  0.18820568829E+02  0.51100000000E-03 0. -1.
         12    1    3    3    0    0  0.18140926959E+02  0.22320545319E+02  0.25659054285E+02  0.38544611052E+02  0.00000000000E+00 0. -1.
</event>
<event>
 7    1  0.2688173E-013  0.7246158E+02  0.7816164E-02  0.1226708E+00
        -11   -1    0    0    0    0  0.00000000000E+00  0.00000000000E+00  0.45593999997E+02  0.45594000000E+02  0.51100000000E-03 0.  1.
         11   -1    0    0    0    0 -0.00000000000E+00 -0.00000000000E+00 -0.45593999997E+02  0.45594000000E+02  0.51100000000E-03 0. -1.
    9900012    2    1    2    0    0 -0.10925483169E+02  0.82825908126E+01 -0.12755831103E+02  0.72461582292E+02  0.70000015629E+02 0.  0.
        -12    1    1    2    0    0  0.10925483169E+02 -0.82825908126E+01  0.12755831103E+02  0.18726417708E+02  0.00000000000E+00 0.  1.
         11    1    3    3    0    0 -0.16045766140E+02 -0.10343260228E+02 -0.25439847536E+02  0.31806217726E+02  0.51100000000E-03 0. -1.
        -11    1    3    3    0    0  0.13750858756E+01 -0.94709439231E+01  0.67077496190E+01  0.11686896302E+02  0.51100000000E-03 0.  1.
         12    1    3    3    0    0  0.37451970952E+01  0.28096794964E+02  0.59762668139E+01  0.28968468264E+02  0.00000000000E+00 0. -1.
</event>
<event>
 7    1  0.2688173E-013  0.7246160E+02  0.7816164E-02  0.1226708E+00
        -11   -1    0    0    0    0  0.00000000000E+00  0.00000000000E+00  0.45593999997E+02  0.45594000000E+02  0.51100000000E-03 0.  1.
         11   -1    0    0    0    0 -0.00000000000E+00 -0.00000000000E+00 -0.45593999997E+02  0.45594000000E+02  0.51100000000E-03 0. -1.
    9900012    2    1    2    0    0 -0.52060039248E+01 -0.78519900279E+01 -0.16183999120E+02  0.72461600138E+02  0.70000038877E+02 0.  0.
        -12    1    1    2    0    0  0.52060039248E+01  0.78519900279E+01  0.16183999120E+02  0.18726399862E+02  0.00000000000E+00 0.  1.
         11    1    3    3    0    0 -0.87075927898E+01 -0.21032887738E+02 -0.33719053770E+02  0.40683892712E+02  0.51100000000E-03 0. -1.
        -11    1    3    3    0    0 -0.18437495238E+01 -0.46971648700E+01 -0.13554585566E+01  0.52249438545E+01  0.51100000000E-03 0.  1.
        -12    1    3    3    0    0  0.53453383887E+01  0.17878062580E+02  0.18890513206E+02  0.26552763572E+02  0.00000000000E+00 0.  1.
</event>
<event>
 7    1  0.2688173E-013  0.7246158E+02  0.7816164E-02  0.1226708E+00
        -11   -1    0    0    0    0  0.00000000000E+00  0.00000000000E+00  0.45593999997E+02  0.45594000000E+02  0.51100000000E-03 0.  1.
         11   -1    0    0    0    0 -0.00000000000E+00 -0.00000000000E+00 -0.45593999997E+02  0.45594000000E+02  0.51100000000E-03 0. -1.
    9900012    2    1    2    0    0  0.51625827205E+01  0.62071751600E+01  0.16896675987E+02  0.72461576337E+02  0.70000007871E+02 0.  0.
        -12    1    1    2    0    0 -0.51625827205E+01 -0.62071751600E+01 -0.16896675987E+02  0.18726423663E+02  0.00000000000E+00 0.  1.
         11    1    3    3    0    0  0.11304817056E+02 -0.14077752999E+02 -0.20049237602E+02  0.26980621691E+02  0.51100000000E-03 0. -1.
        -11    1    3    3    0    0 -0.33350575141E+00  0.12696649169E+02  0.80292976127E+01  0.15026168728E+02  0.51100000000E-03 0.  1.
        -12    1    3    3    0    0 -0.58087285842E+01  0.75882789893E+01  0.28916615976E+02  0.30454785918E+02  0.00000000000E+00 0.  1.
</event>
<event>
 7    1  0.2688173E-013  0.7246157E+02  0.7816164E-02  0.1226708E+00
        -11   -1    0    0    0    0  0.00000000000E+00  0.00000000000E+00  0.45593999997E+02  0.45594000000E+02  0.51100000000E-03 0. -1.
         11   -1    0    0    0    0 -0.00000000000E+00 -0.00000000000E+00 -0.45593999997E+02  0.45594000000E+02  0.51100000000E-03 0.  1.
    9900012    2    1    2    0    0 -0.79650677806E+00  0.39745259479E+01  0.18282444001E+02  0.72461573800E+02  0.70000004567E+02 0.  0.
        -12    1    1    2    0    0  0.79650677806E+00 -0.39745259479E+01 -0.18282444001E+02  0.18726426200E+02  0.00000000000E+00 0.  1.
         11    1    3    3    0    0 -0.13941218171E+02 -0.99319153748E+01  0.16365411512E+01  0.17195312568E+02  0.51100000000E-03 0. -1.
        -11    1    3    3    0    0  0.17210793001E+02 -0.91625782210E+01 -0.81705017614E+01  0.21140514059E+02  0.51100000000E-03 0.  1.
        -12    1    3    3    0    0 -0.40660816073E+01  0.23069019544E+02  0.24816404611E+02  0.34125747174E+02  0.00000000000E+00 0.  1.
</event>
<event>
 7    1  0.2688173E-013  0.7246177E+02  0.7816164E-02  0.1226707E+00
        -11   -1    0    0    0    0  0.00000000000E+00  0.00000000000E+00  0.45593999997E+02  0.45594000000E+02  0.51100000000E-03 0.  1.
         11   -1    0    0    0    0 -0.00000000000E+00 -0.00000000000E+00 -0.45593999997E+02  0.45594000000E+02  0.51100000000E-03 0. -1.
    9900012    2    1    2    0    0 -0.32601136553E+01  0.18127716806E+02  0.33806988187E+01  0.72461772880E+02  0.70000263905E+02 0.  0.
        -12    1    1    2    0    0  0.32601136553E+01 -0.18127716806E+02 -0.33806988187E+01  0.18726227120E+02  0.00000000000E+00 0.  1.
         11    1    3    3    0    0  0.75073278086E+01  0.68429166667E+01 -0.69052354728E+01  0.12282823638E+02  0.51100000000E-03 0. -1.
        -11    1    3    3    0    0 -0.52083086560E+01  0.40290580824E+01 -0.23900828687E+02  0.24791317034E+02  0.51100000000E-03 0.  1.
        -12    1    3    3    0    0 -0.55591328079E+01  0.72557420568E+01  0.34186762978E+02  0.35387632208E+02  0.00000000000E+00 0.  1.
</event>
<event>
 7    1  0.2688173E-013  0.7246155E+02  0.7816164E-02  0.1226708E+00
        -11   -1    0    0    0    0  0.00000000000E+00  0.00000000000E+00  0.45593999997E+02  0.45594000000E+02  0.51100000000E-03 0. -1.
         11   -1    0    0    0    0 -0.00000000000E+00 -0.00000000000E+00 -0.45593999997E+02  0.45594000000E+02  0.51100000000E-03 0.  1.
    9900012    2    1    2    0    0 -0.31337587283E+01 -0.79748941944E+01  0.16651146661E+02  0.72461546350E+02  0.69999968809E+02 0.  0.
        -12    1    1    2    0    0  0.31337587283E+01  0.79748941944E+01 -0.16651146661E+02  0.18726453650E+02  0.00000000000E+00 0.  1.
         11    1    3    3    0    0 -0.27091563485E+01  0.20229150709E+02 -0.21166396309E+01  0.20519216118E+02  0.51100000000E-03 0. -1.
        -11    1    3    3    0    0  0.10626319406E+02  0.48641599345E+01 -0.12255221868E+01  0.11750771076E+02  0.51100000000E-03 0.  1.
         12    1    3    3    0    0 -0.11050921786E+02 -0.33068204838E+02  0.19993308478E+02  0.40191559156E+02  0.00000000000E+00 0. -1.
</event>
<event>
 7    1  0.2688173E-013  0.7246154E+02  0.7816164E-02  0.1226708E+00
        -11   -1    0    0    0    0  0.00000000000E+00  0.00000000000E+00  0.45593999997E+02  0.45594000000E+02  0.51100000000E-03 0.  1.
         11   -1    0    0    0    0 -0.00000000000E+00 -0.00000000000E+00 -0.45593999997E+02  0.45594000000E+02  0.51100000000E-03 0. -1.
    9900012    2    1    2    0    0  0.11965339339E+02 -0.17695914113E+01 -0.14296131298E+02  0.72461543598E+02  0.69999965224E+02 0.  0.
        -12    1    1    2    0    0 -0.11965339339E+02  0.17695914113E+01  0.14296131298E+02  0.18726456402E+02  0.00000000000E+00 0.  1.
         11    1    3    3    0    0  0.15395798622E+02  0.62905713310E+01 -0.18752230289E+02  0.25064876700E+02  0.51100000000E-03 0. -1.
        -11    1    3    3    0    0  0.16318331951E+02  0.34461731633E+01 -0.10842574518E+02  0.19892850212E+02  0.51100000000E-03 0.  1.
        -12    1    3    3    0    0 -0.19748791235E+02 -0.11506335906E+02  0.15298673508E+02  0.27503816686E+02  0.00000000000E+00 0.  1.
</event>
<event>
 7    1  0.2688173E-013  0.7246164E+02  0.7816164E-02  0.1226708E+00
        -11   -1    0    0    0    0  0.00000000000E+00  0.00000000000E+00  0.45593999997E+02  0.45594000000E+02  0.51100000000E-03 0. -1.
         11   -1    0    0    0    0 -0.00000000000E+00 -0.00000000000E+00 -0.45593999997E+02  0.45594000000E+02  0.51100000000E-03 0.  1.
    9900012    2    1    2    0    0  0.67281865739E-02 -0.14205486674E+02  0.12201668518E+02  0.72461638593E+02  0.70000088972E+02 0.  0.
        -12    1    1    2    0    0 -0.67281865739E-02  0.14205486674E+02 -0.12201668518E+02  0.18726361407E+02  0.00000000000E+00 0.  1.
         11    1    3    3    0    0 -0.12569525590E+02 -0.22526996939E+02  0.10492363336E+02  0.27848666993E+02  0.51100000000E-03 0. -1.
        -11    1    3    3    0    0 -0.30906722745E+01 -0.15643875686E+02  0.81108521573E+00  0.15966870735E+02  0.51100000000E-03 0.  1.
        -12    1    3    3    0    0  0.15666926052E+02  0.23965385951E+02  0.89821996615E+00  0.28646100865E+02  0.00000000000E+00 0.  1.
</event>
<event>
 7    1  0.2688173E-013  0.7246155E+02  0.7816164E-02  0.1226708E+00
        -11   -1    0    0    0    0  0.00000000000E+00  0.00000000000E+00  0.45593999997E+02  0.45594000000E+02  0.51100000000E-03 0.  1.
         11   -1    0    0    0    0 -0.00000000000E+00 -0.00000000000E+00 -0.45593999997E+02  0.45594000000E+02  0.51100000000E-03 0. -1.
    9900012    2    1    2    0    0 -0.17848942141E+02 -0.54170764579E+01  0.16584556831E+01  0.72461550038E+02  0.69999973613E+02 0.  0.
        -12    1    1    2    0    0  0.17848942141E+02  0.54170764579E+01 -0.16584556831E+01  0.18726449962E+02  0.00000000000E+00 0.  1.
         11    1    3    3    0    0 -0.24699686360E+02 -0.22407290924E+02 -0.11771372118E+02  0.35365610338E+02  0.51100000000E-03 0. -1.
        -11    1    3    3    0    0 -0.21648357182E+01 -0.72897681923E+01 -0.62200733215E+00  0.76298183050E+01  0.51100000000E-03 0.  1.
        -12    1    3    3    0    0  0.90155799364E+01  0.24279982658E+02  0.14051835133E+02  0.29466121395E+02  0.00000000000E+00 0.  1.
</event>
<event>
 7    1  0.2688173E-013  0.7246155E+02  0.7816164E-02  0.1226708E+00
        -11   -1    0    0    0    0  0.00000000000E+00  0.00000000000E+00  0.45593999997E+02  0.45594000000E+02  0.51100000000E-03 0. -1.
         11   -1    0    0    0    0 -0.00000000000E+00 -0.00000000000E+00 -0.45593999997E+02  0.45594000000E+02  0.51100000000E-03 0.  1.
    9900012    2    1    2    0    0 -0.98259758764E+01  0.13041730085E+02  0.91675192023E+01  0.72461549886E+02  0.69999973415E+02 0.  0.
        -12    1    1    2    0    0  0.98259758764E+01 -0.13041730085E+02 -0.91675192023E+01  0.18726450114E+02  0.00000000000E+00 0.  1.
         11    1    3    3    0    0 -0.93882967318E+01  0.35435365684E+02  0.19553006318E+02  0.41546664283E+02  0.51100000000E-03 0. -1.
        -11    1    3    3    0    0 -0.63345410103E+01 -0.73303122904E+00 -0.53300265993E+00  0.63990496709E+01  0.51100000000E-03 0.  1.
        -12    1    3    3    0    0  0.58968618657E+01 -0.21660604370E+02 -0.98524844555E+01  0.24515835933E+02  0.00000000000E+00 0.  1.
</event>
<event>
 7    1  0.2688173E-013  0.7246157E+02  0.7816164E-02  0.1226708E+00
        -11   -1    0    0    0    0  0.00000000000E+00  0.00000000000E+00  0.45593999997E+02  0.45594000000E+02  0.51100000000E-03 0.  1.
         11   -1    0    0    0    0 -0.00000000000E+00 -0.00000000000E+00 -0.45593999997E+02  0.45594000000E+02  0.51100000000E-03 0. -1.
    9900012    2    1    2    0    0 -0.13059934939E+02  0.12132709461E+02  0.57371433603E+01  0.72461565384E+02  0.69999993603E+02 0.  0.
        -12    1    1    2    0    0  0.13059934939E+02 -0.12132709461E+02 -0.57371433603E+01  0.18726434616E+02  0.00000000000E+00 0.  1.
         11    1    3    3    0    0 -0.21054509920E+02  0.31035185938E+02  0.14321553670E+02  0.40144514618E+02  0.51100000000E-03 0. -1.
        -11    1    3    3    0    0  0.97438852176E+01 -0.70077660318E+01  0.59980829667E+01  0.13417491697E+02  0.51100000000E-03 0.  1.
        -12    1    3    3    0    0 -0.17493102373E+01 -0.11894710445E+02 -0.14582493276E+02  0.18899559069E+02  0.00000000000E+00 0.  1.
</event>
<event>
 7    1  0.2688173E-013  0.7246156E+02  0.7816164E-02  0.1226708E+00
        -11   -1    0    0    0    0  0.00000000000E+00  0.00000000000E+00  0.45593999997E+02  0.45594000000E+02  0.51100000000E-03 0. -1.
         11   -1    0    0    0    0 -0.00000000000E+00 -0.00000000000E+00 -0.45593999997E+02  0.45594000000E+02  0.51100000000E-03 0.  1.
    9900012    2    1    2    0    0  0.18646201224E+02 -0.14043183247E+01 -0.10132451918E+01  0.72461558911E+02  0.69999985171E+02 0.  0.
        -12    1    1    2    0    0 -0.18646201224E+02  0.14043183247E+01  0.10132451918E+01  0.18726441089E+02  0.00000000000E+00 0.  1.
         11    1    3    3    0    0  0.19403981115E+02  0.82719610433E+01  0.13392689387E+02  0.24986075160E+02  0.51100000000E-03 0. -1.
        -11    1    3    3    0    0  0.22984651039E+01  0.53182816603E+01  0.14032319493E+02  0.15181338948E+02  0.51100000000E-03 0.  1.
        -12    1    3    3    0    0 -0.30562449956E+01 -0.14994561028E+02 -0.28438254072E+02  0.32294144803E+02  0.00000000000E+00 0.  1.
</event>
<event>
 7    1  0.2688173E-013  0.7246161E+02  0.7816164E-02  0.1226708E+00
        -11   -1    0    0    0    0  0.00000000000E+00  0.00000000000E+00  0.45593999997E+02  0.45594000000E+02  0.51100000000E-03 0.  1.
         11   -1    0    0    0    0 -0.00000000000E+00 -0.00000000000E+00 -0.45593999997E+02  0.45594000000E+02  0.51100000000E-03 0. -1.
    9900012    2    1    2    0    0  0.60349449807E+01  0.79336601159E+01  0.15852890124E+02  0.72461610892E+02  0.70000052886E+02 0.  0.
        -12    1    1    2    0    0 -0.60349449807E+01 -0.79336601159E+01 -0.15852890124E+02  0.18726389108E+02  0.00000000000E+00 0.  1.
         11    1    3    3    0    0  0.79608901180E+01 -0.21667974611E+02 -0.86439394600E+01  0.24649433764E+02  0.51100000000E-03 0. -1.
        -11    1    3    3    0    0 -0.21239412100E+01 -0.12350079077E+01  0.15494012665E+02  0.15687600183E+02  0.51100000000E-03 0.  1.
        -12    1    3    3    0    0  0.19799607263E+00  0.30836642635E+02  0.90028169190E+01  0.32124576945E+02  0.00000000000E+00 0.  1.
</event>
<event>
 7    1  0.2688173E-013  0.7246155E+02  0.7816164E-02  0.1226708E+00
        -11   -1    0    0    0    0  0.00000000000E+00  0.00000000000E+00  0.45593999997E+02  0.45594000000E+02  0.51100000000E-03 0. -1.
         11   -1    0    0    0    0 -0.00000000000E+00 -0.00000000000E+00 -0.45593999997E+02  0.45594000000E+02  0.51100000000E-03 0.  1.
    9900012    2    1    2    0    0 -0.16909791468E+02  0.44745124087E+01  0.66871100379E+01  0.72461554810E+02  0.69999979829E+02 0.  0.
        -12    1    1    2    0    0  0.16909791468E+02 -0.44745124087E+01 -0.66871100379E+01  0.18726445190E+02  0.00000000000E+00 0.  1.
         11    1    3    3    0    0 -0.14416272923E+02 -0.17423665387E+01  0.14261288083E+02  0.20353110431E+02  0.51100000000E-03 0. -1.
        -11    1    3    3    0    0 -0.21156776597E+02 -0.64280167353E+01  0.92606602283E+01  0.23972659912E+02  0.51100000000E-03 0.  1.
        -12    1    3    3    0    0  0.18663258051E+02  0.12644895683E+02 -0.16834838273E+02  0.28135784468E+02  0.00000000000E+00 0.  1.
</event>
<event>
 7    1  0.2688173E-013  0.7246159E+02  0.7816164E-02  0.1226708E+00
        -11   -1    0    0    0    0  0.00000000000E+00  0.00000000000E+00  0.45593999997E+02  0.45594000000E+02  0.51100000000E-03 0.  1.
         11   -1    0    0    0    0 -0.00000000000E+00 -0.00000000000E+00 -0.45593999997E+02  0.45594000000E+02  0.51100000000E-03 0. -1.
    9900012    2    1    2    0    0  0.35212983728E+01  0.59230290502E+01 -0.17412546264E+02  0.72461585961E+02  0.70000020409E+02 0.  0.
        -12    1    1    2    0    0 -0.35212983728E+01 -0.59230290502E+01  0.17412546264E+02  0.18726414039E+02  0.00000000000E+00 0.  1.
         11    1    3    3    0    0  0.19719660351E+02  0.10510307126E+02  0.17069588151E+02  0.28119431007E+02  0.51100000000E-03 0. -1.
        -11    1    3    3    0    0  0.13377065350E+01 -0.43843105357E+01  0.10636064853E+01  0.47056239399E+01  0.51100000000E-03 0.  1.
         12    1    3    3    0    0 -0.17536068513E+02 -0.20296753986E+00 -0.35545740900E+02  0.39636531015E+02  0.00000000000E+00 0. -1.
</event>
<event>
 7    1  0.2688173E-013  0.7246156E+02  0.7816164E-02  0.1226708E+00
        -11   -1    0    0    0    0  0.00000000000E+00  0.00000000000E+00  0.45593999997E+02  0.45594000000E+02  0.51100000000E-03 0.  1.
         11   -1    0    0    0    0 -0.00000000000E+00 -0.00000000000E+00 -0.45593999997E+02  0.45594000000E+02  0.51100000000E-03 0. -1.
    9900012    2    1    2    0    0  0.15783259246E+02 -0.60304379055E+01 -0.80747756885E+01  0.72461562640E+02  0.69999990029E+02 0.  0.
        -12    1    1    2    0    0 -0.15783259246E+02  0.60304379055E+01  0.80747756885E+01  0.18726437360E+02  0.00000000000E+00 0.  1.
         11    1    3    3    0    0 -0.64808546170E+01  0.14324881329E+02 -0.13636044451E+02  0.20812145737E+02  0.51100000000E-03 0. -1.
        -11    1    3    3    0    0  0.62341622387E+01  0.73846713960E+01 -0.11765457686E+02  0.15225772403E+02  0.51100000000E-03 0.  1.
        -12    1    3    3    0    0  0.16029951625E+02 -0.27739990630E+02  0.17326726448E+02  0.36423644500E+02  0.00000000000E+00 0.  1.
</event>
<event>
 7    1  0.2688173E-013  0.7246155E+02  0.7816164E-02  0.1226708E+00
        -11   -1    0    0    0    0  0.00000000000E+00  0.00000000000E+00  0.45593999997E+02  0.45594000000E+02  0.51100000000E-03 0.  1.
         11   -1    0    0    0    0 -0.00000000000E+00 -0.00000000000E+00 -0.45593999997E+02  0.45594000000E+02  0.51100000000E-03 0. -1.
    9900012    2    1    2    0    0  0.15769947585E+02  0.93198352582E+01  0.38896380539E+01  0.72461551851E+02  0.69999975974E+02 0.  0.
        -12    1    1    2    0    0 -0.15769947585E+02 -0.93198352582E+01 -0.38896380539E+01  0.18726448149E+02  0.00000000000E+00 0.  1.
         11    1    3    3    0    0  0.13552152897E+02  0.11394146493E+02 -0.27368620095E+02  0.32596453621E+02  0.51100000000E-03 0. -1.
        -11    1    3    3    0    0 -0.21730740196E+01  0.10214020790E+02  0.78456497507E+01  0.13061496532E+02  0.51100000000E-03 0.  1.
        -12    1    3    3    0    0  0.43908687075E+01 -0.12288332025E+02  0.23412608399E+02  0.26803601698E+02  0.00000000000E+00 0.  1.
</event>
<event>
 7    1  0.2688173E-013  0.7246158E+02  0.7816164E-02  0.1226708E+00
        -11   -1    0    0    0    0  0.00000000000E+00  0.00000000000E+00  0.45593999997E+02  0.45594000000E+02  0.51100000000E-03 0. -1.
         11   -1    0    0    0    0 -0.00000000000E+00 -0.00000000000E+00 -0.45593999997E+02  0.45594000000E+02  0.51100000000E-03 0.  1.
    9900012    2    1    2    0    0  0.10900550566E+02  0.12980293750E+02  0.79604405989E+01  0.72461584352E+02  0.70000018313E+02 0.  0.
        -12    1    1    2    0    0 -0.10900550566E+02 -0.12980293750E+02 -0.79604405989E+01  0.18726415648E+02  0.00000000000E+00 0.  1.
         11    1    3    3    0    0  0.10662263903E+02 -0.13837848853E+02  0.20007844340E+02  0.26560944408E+02  0.51100000000E-03 0. -1.
        -11    1    3    3    0    0 -0.13744300845E+02  0.10149794365E+01  0.92614000478E+00  0.13812810161E+02  0.51100000000E-03 0.  1.
        -12    1    3    3    0    0  0.13982587508E+02  0.25803163167E+02 -0.12973543746E+02  0.32087829783E+02  0.00000000000E+00 0.  1.
</event>
<event>
 7    1  0.2688173E-013  0.7246152E+02  0.7816164E-02  0.1226708E+00
        -11   -1    0    0    0    0  0.00000000000E+00  0.00000000000E+00  0.45593999997E+02  0.45594000000E+02  0.51100000000E-03 0.  1.
         11   -1    0    0    0    0 -0.00000000000E+00 -0.00000000000E+00 -0.45593999997E+02  0.45594000000E+02  0.51100000000E-03 0. -1.
    9900012    2    1    2    0    0  0.11085963679E+02  0.12153517920E+02  0.89484303691E+01  0.72461521565E+02  0.69999936520E+02 0.  0.
        -12    1    1    2    0    0 -0.11085963679E+02 -0.12153517920E+02 -0.89484303691E+01  0.18726478435E+02  0.00000000000E+00 0.  1.
         11    1    3    3    0    0  0.45243518350E+01 -0.18727998853E+02 -0.12960519455E+02  0.23220309330E+02  0.51100000000E-03 0. -1.
        -11    1    3    3    0    0 -0.87869492771E+00 -0.60269185142E+01  0.53622399446E+01  0.81147685758E+01  0.51100000000E-03 0.  1.
        -12    1    3    3    0    0  0.74403067719E+01  0.36908435287E+02  0.16546709879E+02  0.41126443659E+02  0.00000000000E+00 0.  1.
</event>
<event>
 7    1  0.2688173E-013  0.7246154E+02  0.7816164E-02  0.1226708E+00
        -11   -1    0    0    0    0  0.00000000000E+00  0.00000000000E+00  0.45593999997E+02  0.45594000000E+02  0.51100000000E-03 0.  1.
         11   -1    0    0    0    0 -0.00000000000E+00 -0.00000000000E+00 -0.45593999997E+02  0.45594000000E+02  0.51100000000E-03 0. -1.
    9900012    2    1    2    0    0 -0.95618026771E+01 -0.16080552959E+02 -0.81739725257E+00  0.72461537649E+02  0.69999957474E+02 0.  0.
        -12    1    1    2    0    0  0.95618026771E+01  0.16080552959E+02  0.81739725257E+00  0.18726462351E+02  0.00000000000E+00 0.  1.
         11    1    3    3    0    0  0.48432997962E+01  0.18848473892E+01 -0.64093809789E+01  0.82516887599E+01  0.51100000000E-03 0. -1.
        -11    1    3    3    0    0  0.33721729596E+01 -0.37197786599E+02 -0.35987478060E+00  0.37352060030E+02  0.51100000000E-03 0.  1.
        -12    1    3    3    0    0 -0.17777275433E+02  0.19232386251E+02  0.59518585070E+01  0.26857788860E+02  0.00000000000E+00 0.  1.
</event>
<event>
 7    1  0.2688173E-013  0.7246153E+02  0.7816164E-02  0.1226708E+00
        -11   -1    0    0    0    0  0.00000000000E+00  0.00000000000E+00  0.45593999997E+02  0.45594000000E+02  0.51100000000E-03 0. -1.
         11   -1    0    0    0    0 -0.00000000000E+00 -0.00000000000E+00 -0.45593999997E+02  0.45594000000E+02  0.51100000000E-03 0.  1.
    9900012    2    1    2    0    0  0.16229454333E+01 -0.17591491135E+02  0.62117660351E+01  0.72461533448E+02  0.69999952001E+02 0.  0.
        -12    1    1    2    0    0 -0.16229454333E+01  0.17591491135E+02 -0.62117660351E+01  0.18726466552E+02  0.00000000000E+00 0.  1.
         11    1    3    3    0    0  0.37502329383E+01 -0.13999181523E+02 -0.33474350451E+00  0.14496668027E+02  0.51100000000E-03 0. -1.
        -11    1    3    3    0    0  0.15863608465E+02 -0.23556678397E+02 -0.47822229117E+01  0.28800014355E+02  0.51100000000E-03 0.  1.
         12    1    3    3    0    0 -0.17990895970E+02  0.19964368785E+02  0.11328732451E+02  0.29164851066E+02  0.00000000000E+00 0. -1.
</event>
<event>
 7    1  0.2688173E-013  0.7246155E+02  0.7816164E-02  0.1226708E+00
        -11   -1    0    0    0    0  0.00000000000E+00  0.00000000000E+00  0.45593999997E+02  0.45594000000E+02  0.51100000000E-03 0.  1.
         11   -1    0    0    0    0 -0.00000000000E+00 -0.00000000000E+00 -0.45593999997E+02  0.45594000000E+02  0.51100000000E-03 0. -1.
    9900012    2    1    2    0    0 -0.16870782600E+02 -0.74718921865E+01 -0.31980473916E+01  0.72461548507E+02  0.69999971618E+02 0.  0.
        -12    1    1    2    0    0  0.16870782600E+02  0.74718921865E+01  0.31980473916E+01  0.18726451493E+02  0.00000000000E+00 0.  1.
         11    1    3    3    0    0  0.11084054736E+02  0.12431474017E+02  0.86022281735E+01  0.18745563353E+02  0.51100000000E-03 0.  1.
        -11    1    3    3    0    0 -0.22463208914E+02 -0.18746691600E+02 -0.25563439439E+02  0.38852588548E+02  0.51100000000E-03 0. -1.
         12    1    3    3    0    0 -0.54916284218E+01 -0.11566746038E+01  0.13763163874E+02  0.14863396607E+02  0.00000000000E+00 0. -1.
</event>
<event>
 7    1  0.2688173E-013  0.7246176E+02  0.7816164E-02  0.1226707E+00
        -11   -1    0    0    0    0  0.00000000000E+00  0.00000000000E+00  0.45593999997E+02  0.45594000000E+02  0.51100000000E-03 0. -1.
         11   -1    0    0    0    0 -0.00000000000E+00 -0.00000000000E+00 -0.45593999997E+02  0.45594000000E+02  0.51100000000E-03 0.  1.
    9900012    2    1    2    0    0 -0.13333438365E+02  0.94241839898E+01  0.91692998982E+01  0.72461764843E+02  0.70000253436E+02 0.  0.
        -12    1    1    2    0    0  0.13333438365E+02 -0.94241839898E+01 -0.91692998982E+01  0.18726235157E+02  0.00000000000E+00 0.  1.
         11    1    3    3    0    0 -0.96848268707E+01 -0.11668689498E+02  0.12051851219E+02  0.19370113685E+02  0.51100000000E-03 0. -1.
        -11    1    3    3    0    0  0.75438773457E+01 -0.11201445874E+02  0.97460379180E+01  0.16654360704E+02  0.51100000000E-03 0.  1.
         12    1    3    3    0    0 -0.11192488840E+02  0.32294319362E+02 -0.12628589239E+02  0.36437290454E+02  0.00000000000E+00 0. -1.
</event>
<event>
 7    1  0.2688173E-013  0.7246159E+02  0.7816164E-02  0.1226708E+00
        -11   -1    0    0    0    0  0.00000000000E+00  0.00000000000E+00  0.45593999997E+02  0.45594000000E+02  0.51100000000E-03 0.  1.
         11   -1    0    0    0    0 -0.00000000000E+00 -0.00000000000E+00 -0.45593999997E+02  0.45594000000E+02  0.51100000000E-03 0. -1.
    9900012    2    1    2    0    0 -0.96763779905E+01 -0.15986826501E+02 -0.12113552048E+01  0.72461593671E+02  0.70000030452E+02 0.  0.
        -12    1    1    2    0    0  0.96763779905E+01  0.15986826501E+02  0.12113552048E+01  0.18726406329E+02  0.00000000000E+00 0.  1.
         11    1    3    3    0    0  0.28965274587E+01  0.48275508840E+01  0.27962423769E+00  0.56367817797E+01  0.51100000000E-03 0. -1.
        -11    1    3    3    0    0  0.14402277694E+02 -0.31080099154E+02 -0.11718334565E+02  0.36203833104E+02  0.51100000000E-03 0.  1.
         12    1    3    3    0    0 -0.26975183143E+02  0.10265721770E+02  0.10227355122E+02  0.30620978787E+02  0.00000000000E+00 0. -1.
</event>
<event>
 7    1  0.2688173E-013  0.7246158E+02  0.7816164E-02  0.1226708E+00
        -11   -1    0    0    0    0  0.00000000000E+00  0.00000000000E+00  0.45593999997E+02  0.45594000000E+02  0.51100000000E-03 0.  1.
         11   -1    0    0    0    0 -0.00000000000E+00 -0.00000000000E+00 -0.45593999997E+02  0.45594000000E+02  0.51100000000E-03 0. -1.
    9900012    2    1    2    0    0 -0.10616066926E+02  0.14221874366E+02  0.59763023289E+01  0.72461580776E+02  0.70000013654E+02 0.  0.
        -12    1    1    2    0    0  0.10616066926E+02 -0.14221874366E+02 -0.59763023289E+01  0.18726419224E+02  0.00000000000E+00 0.  1.
         11    1    3    3    0    0  0.33223655605E+01 -0.10039137453E+02  0.15747176503E+02  0.18968288320E+02  0.51100000000E-03 0. -1.
        -11    1    3    3    0    0 -0.20654609817E+02 -0.10242796046E+01  0.76635188691E+01  0.22054287046E+02  0.51100000000E-03 0.  1.
         12    1    3    3    0    0  0.67161773306E+01  0.25285291423E+02 -0.17434393043E+02  0.31439005409E+02  0.00000000000E+00 0. -1.
</event>
<event>
 7    1  0.3298117E-013  0.7246162E+02  0.7816164E-02  0.1226708E+00
        -11   -1    0    0    0    0  0.00000000000E+00  0.00000000000E+00  0.45593999997E+02  0.45594000000E+02  0.51100000000E-03 0. -1.
         11   -1    0    0    0    0 -0.00000000000E+00 -0.00000000000E+00 -0.45593999997E+02  0.45594000000E+02  0.51100000000E-03 0.  1.
    9900012    2    1    2    0    0 -0.92795257117E+00  0.15043818234E+02  0.11113045184E+02  0.72461619242E+02  0.70000063763E+02 0.  0.
        -12    1    1    2    0    0  0.92795257117E+00 -0.15043818234E+02 -0.11113045184E+02  0.18726380758E+02  0.00000000000E+00 0.  1.
         11    1    3    3    0    0  0.64569212691E+01 -0.88322240930E+01  0.28011126119E+01  0.11293637449E+02  0.51100000000E-03 0. -1.
        -11    1    3    3    0    0  0.10522831762E+02 -0.12094510105E+02 -0.78593050707E+01  0.17854294705E+02  0.51100000000E-03 0.  1.
         12    1    3    3    0    0 -0.17907705602E+02  0.35970552432E+02  0.16171237643E+02  0.43313687087E+02  0.00000000000E+00 0. -1.
</event>
<event>
 7    1  0.2688173E-013  0.7246158E+02  0.7816164E-02  0.1226708E+00
        -11   -1    0    0    0    0  0.00000000000E+00  0.00000000000E+00  0.45593999997E+02  0.45594000000E+02  0.51100000000E-03 0.  1.
         11   -1    0    0    0    0 -0.00000000000E+00 -0.00000000000E+00 -0.45593999997E+02  0.45594000000E+02  0.51100000000E-03 0. -1.
    9900012    2    1    2    0    0  0.52436346970E+01 -0.86739713774E+01 -0.15746274988E+02  0.72461583891E+02  0.70000017712E+02 0.  0.
        -12    1    1    2    0    0 -0.52436346970E+01  0.86739713774E+01  0.15746274988E+02  0.18726416109E+02  0.00000000000E+00 0.  1.
         11    1    3    3    0    0 -0.13684419607E+02 -0.62669577642E+01  0.84190765083E+01  0.17245838602E+02  0.51100000000E-03 0. -1.
        -11    1    3    3    0    0 -0.13285875873E+02  0.52783495259E+01 -0.13259169270E+00  0.14296609817E+02  0.51100000000E-03 0.  1.
         12    1    3    3    0    0  0.32213930177E+02 -0.76853631391E+01 -0.24032759803E+02  0.40919135472E+02  0.00000000000E+00 0. -1.
</event>
<event>
 7    1  0.2688173E-013  0.7246157E+02  0.7816164E-02  0.1226708E+00
        -11   -1    0    0    0    0  0.00000000000E+00  0.00000000000E+00  0.45593999997E+02  0.45594000000E+02  0.51100000000E-03 0.  1.
         11   -1    0    0    0    0 -0.00000000000E+00 -0.00000000000E+00 -0.45593999997E+02  0.45594000000E+02  0.51100000000E-03 0. -1.
    9900012    2    1    2    0    0 -0.12587998617E+02 -0.73775360141E+00 -0.13844748542E+02  0.72461573439E+02  0.70000004097E+02 0.  0.
        -12    1    1    2    0    0  0.12587998617E+02  0.73775360141E+00  0.13844748542E+02  0.18726426561E+02  0.00000000000E+00 0.  1.
         11    1    3    3    0    0  0.11348477590E+02  0.25056493299E+01 -0.17303771530E+02  0.20844345315E+02  0.51100000000E-03 0. -1.
        -11    1    3    3    0    0  0.39758079245E+01 -0.18139605627E+02  0.68594007508E+01  0.19796558284E+02  0.51100000000E-03 0.  1.
        -12    1    3    3    0    0 -0.27912284132E+02  0.14896202696E+02 -0.34003777628E+01  0.31820669841E+02  0.00000000000E+00 0.  1.
</event>
<event>
 7    1  0.2688173E-013  0.7246155E+02  0.7816164E-02  0.1226708E+00
        -11   -1    0    0    0    0  0.00000000000E+00  0.00000000000E+00  0.45593999997E+02  0.45594000000E+02  0.51100000000E-03 0.  1.
         11   -1    0    0    0    0 -0.00000000000E+00 -0.00000000000E+00 -0.45593999997E+02  0.45594000000E+02  0.51100000000E-03 0. -1.
    9900012    2    1    2    0    0  0.10023356726E+02 -0.14664903403E+02 -0.59289883286E+01  0.72461548802E+02  0.69999972002E+02 0.  0.
        -12    1    1    2    0    0 -0.10023356726E+02  0.14664903403E+02  0.59289883286E+01  0.18726451198E+02  0.00000000000E+00 0.  1.
         11    1    3    3    0    0  0.19587343832E+02 -0.52104615016E+01 -0.10574561434E+02  0.22861196322E+02  0.51100000000E-03 0. -1.
        -11    1    3    3    0    0  0.12164014702E+02 -0.21377619030E+02  0.21002828428E+01  0.24685563339E+02  0.51100000000E-03 0.  1.
        -12    1    3    3    0    0 -0.21728001808E+02  0.11923177129E+02  0.25452902628E+01  0.24914789141E+02  0.00000000000E+00 0.  1.
</event>
<event>
 7    1  0.2688173E-013  0.7246158E+02  0.7816164E-02  0.1226708E+00
        -11   -1    0    0    0    0  0.00000000000E+00  0.00000000000E+00  0.45593999997E+02  0.45594000000E+02  0.51100000000E-03 0. -1.
         11   -1    0    0    0    0 -0.00000000000E+00 -0.00000000000E+00 -0.45593999997E+02  0.45594000000E+02  0.51100000000E-03 0.  1.
    9900012    2    1    2    0    0 -0.12658951977E+02  0.13783601744E+02  0.66479765433E+00  0.72461582881E+02  0.70000016396E+02 0.  0.
        -12    1    1    2    0    0  0.12658951977E+02 -0.13783601744E+02 -0.66479765433E+00  0.18726417119E+02  0.00000000000E+00 0.  1.
         11    1    3    3    0    0 -0.13695800934E+02 -0.38547212247E+01 -0.36136469681E+01  0.14679655432E+02  0.51100000000E-03 0. -1.
        -11    1    3    3    0    0 -0.26026190307E+02  0.26935335258E+01 -0.19782415103E+01  0.26239876991E+02  0.51100000000E-03 0.  1.
         12    1    3    3    0    0  0.27063039264E+02  0.14944789443E+02  0.62566861326E+01  0.31542050458E+02  0.00000000000E+00 0. -1.
</event>
<event>
 7    1  0.2688173E-013  0.7246161E+02  0.7816164E-02  0.1226708E+00
        -11   -1    0    0    0    0  0.00000000000E+00  0.00000000000E+00  0.45593999997E+02  0.45594000000E+02  0.51100000000E-03 0.  1.
         11   -1    0    0    0    0 -0.00000000000E+00 -0.00000000000E+00 -0.45593999997E+02  0.45594000000E+02  0.51100000000E-03 0. -1.
    9900012    2    1    2    0    0 -0.13065978920E+02 -0.33449116608E+01 -0.12991128798E+02  0.72461610422E+02  0.70000052274E+02 0.  0.
        -12    1    1    2    0    0  0.13065978920E+02  0.33449116608E+01  0.12991128798E+02  0.18726389578E+02  0.00000000000E+00 0.  1.
         11    1    3    3    0    0  0.40506178271E+01  0.15455182634E+02  0.12374960729E+01  0.16025029542E+02  0.51100000000E-03 0.  1.
        -11    1    3    3    0    0 -0.20587925595E+01 -0.31331078516E+02  0.13196163062E+01  0.31426366243E+02  0.51100000000E-03 0. -1.
         12    1    3    3    0    0 -0.15057804188E+02  0.12530984221E+02 -0.15548241177E+02  0.25010214637E+02  0.00000000000E+00 0. -1.
</event>
<event>
 7    1  0.2688173E-013  0.7246154E+02  0.7816164E-02  0.1226708E+00
        -11   -1    0    0    0    0  0.00000000000E+00  0.00000000000E+00  0.45593999997E+02  0.45594000000E+02  0.51100000000E-03 0. -1.
         11   -1    0    0    0    0 -0.00000000000E+00 -0.00000000000E+00 -0.45593999997E+02  0.45594000000E+02  0.51100000000E-03 0.  1.
    9900012    2    1    2    0    0 -0.10497696630E+01  0.17978491008E+02  0.51334170097E+01  0.72461544770E+02  0.69999966750E+02 0.  0.
        -12    1    1    2    0    0  0.10497696630E+01 -0.17978491008E+02 -0.51334170097E+01  0.18726455230E+02  0.00000000000E+00 0.  1.
         11    1    3    3    0    0  0.58337149723E+01  0.56103845333E+01  0.75934118898E+01  0.11098132698E+02  0.51100000000E-03 0. -1.
        -11    1    3    3    0    0  0.58266682437E+01 -0.23002067863E+02 -0.78345959819E+00  0.23741503702E+02  0.51100000000E-03 0.  1.
         12    1    3    3    0    0 -0.12710152879E+02  0.35370174338E+02 -0.16765352819E+01  0.37621908371E+02  0.00000000000E+00 0. -1.
</event>
<event>
 7    1  0.2688173E-013  0.7246160E+02  0.7816164E-02  0.1226708E+00
        -11   -1    0    0    0    0  0.00000000000E+00  0.00000000000E+00  0.45593999997E+02  0.45594000000E+02  0.51100000000E-03 0.  1.
         11   -1    0    0    0    0 -0.00000000000E+00 -0.00000000000E+00 -0.45593999997E+02  0.45594000000E+02  0.51100000000E-03 0. -1.
    9900012    2    1    2    0    0 -0.13815347546E+02  0.11436611035E+02  0.53868594168E+01  0.72461597405E+02  0.70000035317E+02 0.  0.
        -12    1    1    2    0    0  0.13815347546E+02 -0.11436611035E+02 -0.53868594168E+01  0.18726402595E+02  0.00000000000E+00 0.  1.
         11    1    3    3    0    0 -0.29207909357E+02  0.38243303416E+01 -0.78683990618E+01  0.30489984841E+02  0.51100000000E-03 0. -1.
        -11    1    3    3    0    0 -0.16265857300E+01  0.10847062612E+01  0.21766698958E+02  0.21854325718E+02  0.51100000000E-03 0.  1.
         12    1    3    3    0    0  0.17019147541E+02  0.65275744324E+01 -0.85114404789E+01  0.20117286846E+02  0.00000000000E+00 0. -1.
</event>
<event>
 7    1  0.2688173E-013  0.7246158E+02  0.7816164E-02  0.1226708E+00
        -11   -1    0    0    0    0  0.00000000000E+00  0.00000000000E+00  0.45593999997E+02  0.45594000000E+02  0.51100000000E-03 0.  1.
         11   -1    0    0    0    0 -0.00000000000E+00 -0.00000000000E+00 -0.45593999997E+02  0.45594000000E+02  0.51100000000E-03 0. -1.
    9900012    2    1    2    0    0 -0.87872566622E+01 -0.15845049807E+02  0.47325789844E+01  0.72461580511E+02  0.70000013309E+02 0.  0.
        -12    1    1    2    0    0  0.87872566622E+01  0.15845049807E+02 -0.47325789844E+01  0.18726419489E+02  0.00000000000E+00 0.  1.
         11    1    3    3    0    0  0.27759814552E+02 -0.51308467421E+01  0.40121497828E+01  0.28513685107E+02  0.51100000000E-03 0. -1.
        -11    1    3    3    0    0 -0.75471308024E+01 -0.83400085341E+01 -0.77307952603E+01  0.13648447579E+02  0.51100000000E-03 0.  1.
        -12    1    3    3    0    0 -0.28999940412E+02 -0.23741945309E+01  0.84512244619E+01  0.30299447825E+02  0.00000000000E+00 0.  1.
</event>
<event>
 7    1  0.2688173E-013  0.7246157E+02  0.7816164E-02  0.1226708E+00
        -11   -1    0    0    0    0  0.00000000000E+00  0.00000000000E+00  0.45593999997E+02  0.45594000000E+02  0.51100000000E-03 0.  1.
         11   -1    0    0    0    0 -0.00000000000E+00 -0.00000000000E+00 -0.45593999997E+02  0.45594000000E+02  0.51100000000E-03 0. -1.
    9900012    2    1    2    0    0  0.88285557480E+01  0.13643107341E+02 -0.93059812937E+01  0.72461573156E+02  0.70000003728E+02 0.  0.
        -12    1    1    2    0    0 -0.88285557480E+01 -0.13643107341E+02  0.93059812937E+01  0.18726426844E+02  0.00000000000E+00 0.  1.
         11    1    3    3    0    0  0.14442502305E+02 -0.13025566543E+02  0.60465573440E+00  0.19458079695E+02  0.51100000000E-03 0. -1.
        -11    1    3    3    0    0 -0.38380977880E+01 -0.12389280372E+02 -0.24009331619E+01  0.13190517165E+02  0.51100000000E-03 0.  1.
        -12    1    3    3    0    0 -0.17758487690E+01  0.39057954255E+02 -0.75097038662E+01  0.39812976297E+02  0.00000000000E+00 0.  1.
</event>
<event>
 7    1  0.2688173E-013  0.7246166E+02  0.7816164E-02  0.1226708E+00
        -11   -1    0    0    0    0  0.00000000000E+00  0.00000000000E+00  0.45593999997E+02  0.45594000000E+02  0.51100000000E-03 0.  1.
         11   -1    0    0    0    0 -0.00000000000E+00 -0.00000000000E+00 -0.45593999997E+02  0.45594000000E+02  0.51100000000E-03 0. -1.
    9900012    2    1    2    0    0 -0.18270907642E+02  0.11638286558E+01 -0.39363993672E+01  0.72461660177E+02  0.70000117089E+02 0.  0.
        -12    1    1    2    0    0  0.18270907642E+02 -0.11638286558E+01  0.39363993672E+01  0.18726339823E+02  0.00000000000E+00 0.  1.
         11    1    3    3    0    0  0.28739984118E+01 -0.12930693383E+02  0.76412428013E+00  0.13268254762E+02  0.51100000000E-03 0. -1.
        -11    1    3    3    0    0 -0.87023955262E+01 -0.20457050562E+02 -0.57280194306E+00  0.22238496081E+02  0.51100000000E-03 0.  1.
         12    1    3    3    0    0 -0.12442510527E+02  0.34551572601E+02 -0.41277217043E+01  0.36954909335E+02  0.00000000000E+00 0. -1.
</event>
<event>
 7    1  0.2688173E-013  0.7246159E+02  0.7816164E-02  0.1226708E+00
        -11   -1    0    0    0    0  0.00000000000E+00  0.00000000000E+00  0.45593999997E+02  0.45594000000E+02  0.51100000000E-03 0.  1.
         11   -1    0    0    0    0 -0.00000000000E+00 -0.00000000000E+00 -0.45593999997E+02  0.45594000000E+02  0.51100000000E-03 0. -1.
    9900012    2    1    2    0    0  0.84861177261E+01  0.11149680394E+02 -0.12423717323E+02  0.72461593002E+02  0.70000029581E+02 0.  0.
        -12    1    1    2    0    0 -0.84861177261E+01 -0.11149680394E+02  0.12423717323E+02  0.18726406998E+02  0.00000000000E+00 0.  1.
         11    1    3    3    0    0 -0.23535204251E+01  0.41924716534E+01  0.66218313403E+01  0.81831856582E+01  0.51100000000E-03 0. -1.
        -11    1    3    3    0    0  0.94448274272E+01 -0.43221004455E+01  0.20581412617E+02  0.23053847031E+02  0.51100000000E-03 0.  1.
         12    1    3    3    0    0  0.13948107240E+01  0.11279309186E+02 -0.39626961280E+02  0.41224560312E+02  0.00000000000E+00 0. -1.
</event>
<event>
 7    1  0.2688173E-013  0.7246161E+02  0.7816164E-02  0.1226708E+00
        -11   -1    0    0    0    0  0.00000000000E+00  0.00000000000E+00  0.45593999997E+02  0.45594000000E+02  0.51100000000E-03 0. -1.
         11   -1    0    0    0    0 -0.00000000000E+00 -0.00000000000E+00 -0.45593999997E+02  0.45594000000E+02  0.51100000000E-03 0.  1.
    9900012    2    1    2    0    0  0.11232544087E+02  0.26240219580E+01 -0.14752019000E+02  0.72461612135E+02  0.70000054505E+02 0.  0.
        -12    1    1    2    0    0 -0.11232544087E+02 -0.26240219580E+01  0.14752019000E+02  0.18726387865E+02  0.00000000000E+00 0.  1.
         11    1    3    3    0    0  0.34077827600E+01  0.25155020227E+01 -0.68234967704E+01  0.80312416352E+01  0.51100000000E-03 0. -1.
        -11    1    3    3    0    0 -0.23591544729E+02  0.15165627398E+02 -0.93500728434E+01  0.29563171337E+02  0.51100000000E-03 0.  1.
         12    1    3    3    0    0  0.31416306055E+02 -0.15057107462E+02  0.14215506135E+01  0.34867199163E+02  0.00000000000E+00 0. -1.
</event>
<event>
 7    1  0.2688173E-013  0.7246158E+02  0.7816164E-02  0.1226708E+00
        -11   -1    0    0    0    0  0.00000000000E+00  0.00000000000E+00  0.45593999997E+02  0.45594000000E+02  0.51100000000E-03 0. -1.
         11   -1    0    0    0    0 -0.00000000000E+00 -0.00000000000E+00 -0.45593999997E+02  0.45594000000E+02  0.51100000000E-03 0.  1.
    9900012    2    1    2    0    0  0.85015294754E+01 -0.75650585154E+01  0.14871880675E+02  0.72461576193E+02  0.70000007685E+02 0.  0.
        -12    1    1    2    0    0 -0.85015294754E+01  0.75650585154E+01 -0.14871880675E+02  0.18726423807E+02  0.00000000000E+00 0.  1.
         11    1    3    3    0    0  0.15709867776E+02  0.71098938658E+01 -0.43985255886E+01  0.17795998537E+02  0.51100000000E-03 0. -1.
        -11    1    3    3    0    0  0.18873245055E+02  0.31236183525E+01  0.38010239090E+01  0.19503952254E+02  0.51100000000E-03 0.  1.
         12    1    3    3    0    0 -0.26081583355E+02 -0.17798570734E+02  0.15469382355E+02  0.35161625402E+02  0.00000000000E+00 0. -1.
</event>
<event>
 7    1  0.2688173E-013  0.7246170E+02  0.7816164E-02  0.1226708E+00
        -11   -1    0    0    0    0  0.00000000000E+00  0.00000000000E+00  0.45593999997E+02  0.45594000000E+02  0.51100000000E-03 0.  1.
         11   -1    0    0    0    0 -0.00000000000E+00 -0.00000000000E+00 -0.45593999997E+02  0.45594000000E+02  0.51100000000E-03 0. -1.
    9900012    2    1    2    0    0 -0.50340321882E+01  0.10408667502E+02 -0.14730670710E+02  0.72461695003E+02  0.70000162457E+02 0.  0.
        -12    1    1    2    0    0  0.50340321882E+01 -0.10408667502E+02  0.14730670710E+02  0.18726304997E+02  0.00000000000E+00 0.  1.
         11    1    3    3    0    0 -0.11663849993E+02  0.20804021535E+02 -0.81832627869E+01  0.25215441673E+02  0.51100000000E-03 0. -1.
        -11    1    3    3    0    0  0.10850000255E+02  0.14933453783E+02 -0.10545578806E+02  0.21258875324E+02  0.51100000000E-03 0.  1.
         12    1    3    3    0    0 -0.42201824506E+01 -0.25328807815E+02  0.39981708826E+01  0.25987378006E+02  0.00000000000E+00 0. -1.
</event>
<event>
 7    1  0.2688173E-013  0.7246180E+02  0.7816164E-02  0.1226707E+00
        -11   -1    0    0    0    0  0.00000000000E+00  0.00000000000E+00  0.45593999997E+02  0.45594000000E+02  0.51100000000E-03 0.  1.
         11   -1    0    0    0    0 -0.00000000000E+00 -0.00000000000E+00 -0.45593999997E+02  0.45594000000E+02  0.51100000000E-03 0. -1.
    9900012    2    1    2    0    0  0.11224484256E+02 -0.82114693278E+01 -0.12540068737E+02  0.72461799124E+02  0.70000298092E+02 0.  0.
        -12    1    1    2    0    0 -0.11224484256E+02  0.82114693278E+01  0.12540068737E+02  0.18726200876E+02  0.00000000000E+00 0.  1.
         11    1    3    3    0    0  0.40901484356E+01  0.70960256545E+00 -0.38311923679E+02  0.38536169326E+02  0.51100000000E-03 0. -1.
        -11    1    3    3    0    0  0.99526989970E+01 -0.66659452498E+01  0.52328564627E+01  0.13071871726E+02  0.51100000000E-03 0.  1.
        -12    1    3    3    0    0 -0.28183631767E+01 -0.22551266435E+01  0.20538998480E+02  0.20853758072E+02  0.00000000000E+00 0.  1.
</event>
<event>
 7    1  0.2688173E-013  0.7246141E+02  0.7816164E-02  0.1226708E+00
        -11   -1    0    0    0    0  0.00000000000E+00  0.00000000000E+00  0.45593999997E+02  0.45594000000E+02  0.51100000000E-03 0.  1.
         11   -1    0    0    0    0 -0.00000000000E+00 -0.00000000000E+00 -0.45593999997E+02  0.45594000000E+02  0.51100000000E-03 0. -1.
    9900012    2    1    2    0    0 -0.47834523126E+01  0.83784282149E+01  0.16050100664E+02  0.72461409101E+02  0.69999790015E+02 0.  0.
        -12    1    1    2    0    0  0.47834523126E+01 -0.83784282149E+01 -0.16050100664E+02  0.18726590899E+02  0.00000000000E+00 0.  1.
         11    1    3    3    0    0 -0.80936764809E+01 -0.16343932455E+02  0.50581156145E+01  0.18926601938E+02  0.51100000000E-03 0. -1.
        -11    1    3    3    0    0  0.15154269387E+01 -0.13741802189E+02  0.17519410618E+01  0.13935671637E+02  0.51100000000E-03 0.  1.
        -12    1    3    3    0    0  0.17947972296E+01  0.38464162859E+02  0.92400439878E+01  0.39599135527E+02  0.00000000000E+00 0.  1.
</event>
<event>
 7    1  0.2688173E-013  0.7246156E+02  0.7816164E-02  0.1226708E+00
        -11   -1    0    0    0    0  0.00000000000E+00  0.00000000000E+00  0.45593999997E+02  0.45594000000E+02  0.51100000000E-03 0.  1.
         11   -1    0    0    0    0 -0.00000000000E+00 -0.00000000000E+00 -0.45593999997E+02  0.45594000000E+02  0.51100000000E-03 0. -1.
    9900012    2    1    2    0    0  0.68384774594E-01 -0.82140458919E+01 -0.16828676142E+02  0.72461559679E+02  0.69999986172E+02 0.  0.
        -12    1    1    2    0    0 -0.68384774594E-01  0.82140458919E+01  0.16828676142E+02  0.18726440321E+02  0.00000000000E+00 0.  1.
         11    1    3    3    0    0  0.40633866289E+01  0.95056460604E+01 -0.13298867655E+02  0.16844236376E+02  0.51100000000E-03 0. -1.
        -11    1    3    3    0    0 -0.14959270051E+02  0.14655600882E+02  0.18149852356E+01  0.21020479760E+02  0.51100000000E-03 0.  1.
         12    1    3    3    0    0  0.10964268197E+02 -0.32375292835E+02 -0.53447937228E+01  0.34596843543E+02  0.00000000000E+00 0. -1.
</event>
<event>
 7    1  0.2688173E-013  0.7246155E+02  0.7816164E-02  0.1226708E+00
        -11   -1    0    0    0    0  0.00000000000E+00  0.00000000000E+00  0.45593999997E+02  0.45594000000E+02  0.51100000000E-03 0.  1.
         11   -1    0    0    0    0 -0.00000000000E+00 -0.00000000000E+00 -0.45593999997E+02  0.45594000000E+02  0.51100000000E-03 0. -1.
    9900012    2    1    2    0    0 -0.17480471683E+02  0.27611262148E+01 -0.61228475031E+01  0.72461548927E+02  0.69999972165E+02 0.  0.
        -12    1    1    2    0    0  0.17480471683E+02 -0.27611262148E+01  0.61228475031E+01  0.18726451073E+02  0.00000000000E+00 0.  1.
         11    1    3    3    0    0 -0.16553891343E+02  0.29134835597E+01  0.10216761542E+02  0.19669822615E+02  0.51100000000E-03 0. -1.
        -11    1    3    3    0    0 -0.18767261400E+02 -0.10199735338E+02 -0.22876497863E+02  0.31298224489E+02  0.51100000000E-03 0.  1.
        -12    1    3    3    0    0  0.17840681059E+02  0.10047377993E+02  0.65368888185E+01  0.21493501823E+02  0.00000000000E+00 0.  1.
</event>
<event>
 7    1  0.2688173E-013  0.7246159E+02  0.7816164E-02  0.1226708E+00
        -11   -1    0    0    0    0  0.00000000000E+00  0.00000000000E+00  0.45593999997E+02  0.45594000000E+02  0.51100000000E-03 0.  1.
         11   -1    0    0    0    0 -0.00000000000E+00 -0.00000000000E+00 -0.45593999997E+02  0.45594000000E+02  0.51100000000E-03 0. -1.
    9900012    2    1    2    0    0  0.35553107182E+01  0.15492621256E+02 -0.99003520225E+01  0.72461587694E+02  0.70000022666E+02 0.  0.
        -12    1    1    2    0    0 -0.35553107182E+01 -0.15492621256E+02  0.99003520225E+01  0.18726412306E+02  0.00000000000E+00 0.  1.
         11    1    3    3    0    0  0.21438855258E+02  0.86825339655E+01 -0.21247380761E+02  0.31407994210E+02  0.51100000000E-03 0. -1.
        -11    1    3    3    0    0 -0.74114845816E+01  0.19621445538E+02 -0.27189309647E-01  0.20974555257E+02  0.51100000000E-03 0.  1.
        -12    1    3    3    0    0 -0.10472059959E+02 -0.12811358247E+02  0.11374218048E+02  0.20079038227E+02  0.00000000000E+00 0.  1.
</event>
<event>
 7    1  0.2688173E-013  0.7246150E+02  0.7816164E-02  0.1226708E+00
        -11   -1    0    0    0    0  0.00000000000E+00  0.00000000000E+00  0.45593999997E+02  0.45594000000E+02  0.51100000000E-03 0. -1.
         11   -1    0    0    0    0 -0.00000000000E+00 -0.00000000000E+00 -0.45593999997E+02  0.45594000000E+02  0.51100000000E-03 0.  1.
    9900012    2    1    2    0    0  0.92313468774E+01  0.66194374535E+01  0.14887819126E+02  0.72461498039E+02  0.69999905873E+02 0.  0.
        -12    1    1    2    0    0 -0.92313468774E+01 -0.66194374535E+01 -0.14887819126E+02  0.18726501961E+02  0.00000000000E+00 0.  1.
         11    1    3    3    0    0  0.16751674081E+01  0.18155835217E+02  0.14998837003E+02  0.23609439849E+02  0.51100000000E-03 0. -1.
        -11    1    3    3    0    0  0.22268213227E+02  0.11723377956E+01  0.12611269430E+02  0.25618193011E+02  0.51100000000E-03 0.  1.
         12    1    3    3    0    0 -0.14712033758E+02 -0.12708735559E+02 -0.12722287307E+02  0.23233865179E+02  0.00000000000E+00 0. -1.
</event>
<event>
 7    1  0.2688173E-013  0.7246189E+02  0.7816164E-02  0.1226707E+00
        -11   -1    0    0    0    0  0.00000000000E+00  0.00000000000E+00  0.45593999997E+02  0.45594000000E+02  0.51100000000E-03 0. -1.
         11   -1    0    0    0    0 -0.00000000000E+00 -0.00000000000E+00 -0.45593999997E+02  0.45594000000E+02  0.51100000000E-03 0.  1.
    9900012    2    1    2    0    0  0.38403768143E+01 -0.17338647658E+02 -0.59405276497E+01  0.72461893479E+02  0.70000421007E+02 0.  0.
        -12    1    1    2    0    0 -0.38403768143E+01  0.17338647658E+02  0.59405276497E+01  0.18726106521E+02  0.00000000000E+00 0.  1.
         11    1    3    3    0    0  0.13584052880E+02 -0.24146664812E+01 -0.11192088155E+02  0.17765695719E+02  0.51100000000E-03 0. -1.
        -11    1    3    3    0    0  0.10406053316E+02 -0.35546995866E+00 -0.17909022852E+02  0.20715824973E+02  0.51100000000E-03 0.  1.
         12    1    3    3    0    0 -0.20149729382E+02 -0.14568511218E+02  0.23160583358E+02  0.33980372787E+02  0.00000000000E+00 0. -1.
</event>
<event>
 7    1  0.2688173E-013  0.7246155E+02  0.7816164E-02  0.1226708E+00
        -11   -1    0    0    0    0  0.00000000000E+00  0.00000000000E+00  0.45593999997E+02  0.45594000000E+02  0.51100000000E-03 0. -1.
         11   -1    0    0    0    0 -0.00000000000E+00 -0.00000000000E+00 -0.45593999997E+02  0.45594000000E+02  0.51100000000E-03 0.  1.
    9900012    2    1    2    0    0 -0.13409212496E+02  0.22424923580E+01  0.12878046841E+02  0.72461552334E+02  0.69999976603E+02 0.  0.
        -12    1    1    2    0    0  0.13409212496E+02 -0.22424923580E+01 -0.12878046841E+02  0.18726447666E+02  0.00000000000E+00 0.  1.
         11    1    3    3    0    0 -0.50958673260E+01  0.73782068059E+01 -0.61226766252E+01  0.10857852863E+02  0.51100000000E-03 0. -1.
        -11    1    3    3    0    0  0.13043348850E+02 -0.19874878001E+02 -0.70884892794E+01  0.24806982995E+02  0.51100000000E-03 0.  1.
         12    1    3    3    0    0 -0.21356694020E+02  0.14739163553E+02  0.26089212746E+02  0.36796716476E+02  0.00000000000E+00 0. -1.
</event>
<event>
 7    1  0.2688173E-013  0.7246167E+02  0.7816164E-02  0.1226708E+00
        -11   -1    0    0    0    0  0.00000000000E+00  0.00000000000E+00  0.45593999997E+02  0.45594000000E+02  0.51100000000E-03 0.  1.
         11   -1    0    0    0    0 -0.00000000000E+00 -0.00000000000E+00 -0.45593999997E+02  0.45594000000E+02  0.51100000000E-03 0. -1.
    9900012    2    1    2    0    0 -0.54762270942E+01 -0.10902376883E+02 -0.14206499713E+02  0.72461667764E+02  0.70000126973E+02 0.  0.
        -12    1    1    2    0    0  0.54762270942E+01  0.10902376883E+02  0.14206499713E+02  0.18726332236E+02  0.00000000000E+00 0.  1.
         11    1    3    3    0    0 -0.10416083055E+02 -0.20645578193E+02  0.59813282441E+01  0.23885371526E+02  0.51100000000E-03 0. -1.
        -11    1    3    3    0    0 -0.55216292082E+01 -0.14556039980E+02 -0.45979983972E+00  0.15574919106E+02  0.51100000000E-03 0.  1.
        -12    1    3    3    0    0  0.10461485169E+02  0.24299241290E+02 -0.19728028118E+02  0.33001377132E+02  0.00000000000E+00 0.  1.
</event>
<event>
 7    1  0.2688173E-013  0.7246154E+02  0.7816164E-02  0.1226708E+00
        -11   -1    0    0    0    0  0.00000000000E+00  0.00000000000E+00  0.45593999997E+02  0.45594000000E+02  0.51100000000E-03 0. -1.
         11   -1    0    0    0    0 -0.00000000000E+00 -0.00000000000E+00 -0.45593999997E+02  0.45594000000E+02  0.51100000000E-03 0.  1.
    9900012    2    1    2    0    0  0.14631694264E+02 -0.22715168000E+00  0.11685129186E+02  0.72461539602E+02  0.69999960018E+02 0.  0.
        -12    1    1    2    0    0 -0.14631694264E+02  0.22715168000E+00 -0.11685129186E+02  0.18726460398E+02  0.00000000000E+00 0.  1.
         11    1    3    3    0    0  0.17688766883E+02  0.25708264434E+02  0.23590737958E+02  0.39119435729E+02  0.51100000000E-03 0. -1.
        -11    1    3    3    0    0  0.15702142027E+01  0.20603651172E+01 -0.54423706564E-01  0.25910691344E+01  0.51100000000E-03 0.  1.
        -12    1    3    3    0    0 -0.46272868216E+01 -0.27995781231E+02 -0.11851185066E+02  0.30751034739E+02  0.00000000000E+00 0.  1.
</event>
<event>
 7    1  0.2688173E-013  0.7246167E+02  0.7816164E-02  0.1226708E+00
        -11   -1    0    0    0    0  0.00000000000E+00  0.00000000000E+00  0.45593999997E+02  0.45594000000E+02  0.51100000000E-03 0. -1.
         11   -1    0    0    0    0 -0.00000000000E+00 -0.00000000000E+00 -0.45593999997E+02  0.45594000000E+02  0.51100000000E-03 0.  1.
    9900012    2    1    2    0    0 -0.24380494910E+01  0.10910562609E+02  0.15023017717E+02  0.72461667655E+02  0.70000126830E+02 0.  0.
        -12    1    1    2    0    0  0.24380494910E+01 -0.10910562609E+02 -0.15023017717E+02  0.18726332345E+02  0.00000000000E+00 0.  1.
         11    1    3    3    0    0  0.51341472999E+01  0.94086598902E+01  0.74775220273E+01  0.13068882330E+02  0.51100000000E-03 0. -1.
        -11    1    3    3    0    0  0.63331892721E+00  0.28828852816E+02 -0.29612279830E+01  0.28987457960E+02  0.51100000000E-03 0.  1.
        -12    1    3    3    0    0 -0.82055157181E+01 -0.27326950098E+02  0.10506723673E+02  0.30405327365E+02  0.00000000000E+00 0.  1.
</event>
<event>
 7    1  0.2688173E-013  0.7246155E+02  0.7816164E-02  0.1226708E+00
        -11   -1    0    0    0    0  0.00000000000E+00  0.00000000000E+00  0.45593999997E+02  0.45594000000E+02  0.51100000000E-03 0.  1.
         11   -1    0    0    0    0 -0.00000000000E+00 -0.00000000000E+00 -0.45593999997E+02  0.45594000000E+02  0.51100000000E-03 0. -1.
    9900012    2    1    2    0    0 -0.10623357331E+02 -0.11093616991E+02 -0.10712412828E+02  0.72461552192E+02  0.69999976418E+02 0.  0.
        -12    1    1    2    0    0  0.10623357331E+02  0.11093616991E+02  0.10712412828E+02  0.18726447808E+02  0.00000000000E+00 0.  1.
         11    1    3    3    0    0 -0.11402407146E+02 -0.13127371825E+01 -0.59048663832E+01  0.12907579746E+02  0.51100000000E-03 0. -1.
        -11    1    3    3    0    0 -0.37118174602E+01 -0.32183258380E+02  0.79881048304E+01  0.33366892691E+02  0.51100000000E-03 0.  1.
        -12    1    3    3    0    0  0.44908672757E+01  0.22402378571E+02 -0.12795651275E+02  0.26187079755E+02  0.00000000000E+00 0.  1.
</event>
<event>
 7    1  0.2688173E-013  0.7246151E+02  0.7816164E-02  0.1226708E+00
        -11   -1    0    0    0    0  0.00000000000E+00  0.00000000000E+00  0.45593999997E+02  0.45594000000E+02  0.51100000000E-03 0.  1.
         11   -1    0    0    0    0 -0.00000000000E+00 -0.00000000000E+00 -0.45593999997E+02  0.45594000000E+02  0.51100000000E-03 0. -1.
    9900012    2    1    2    0    0 -0.14978855071E+02 -0.79652502722E-01  0.11238726335E+02  0.72461510382E+02  0.69999921954E+02 0.  0.
        -12    1    1    2    0    0  0.14978855071E+02  0.79652502722E-01 -0.11238726335E+02  0.18726489618E+02  0.00000000000E+00 0.  1.
         11    1    3    3    0    0  0.11695808021E+02 -0.15296576818E+02 -0.69835718955E+01  0.20482857816E+02  0.51100000000E-03 0. -1.
        -11    1    3    3    0    0 -0.15808394868E+02 -0.11640193540E+02  0.59391384798E+01  0.20510310093E+02  0.51100000000E-03 0.  1.
        -12    1    3    3    0    0 -0.10866268224E+02  0.26857117855E+02  0.12283159751E+02  0.31468342474E+02  0.00000000000E+00 0.  1.
</event>
<event>
 7    1  0.2688173E-013  0.7246177E+02  0.7816164E-02  0.1226707E+00
        -11   -1    0    0    0    0  0.00000000000E+00  0.00000000000E+00  0.45593999997E+02  0.45594000000E+02  0.51100000000E-03 0. -1.
         11   -1    0    0    0    0 -0.00000000000E+00 -0.00000000000E+00 -0.45593999997E+02  0.45594000000E+02  0.51100000000E-03 0.  1.
    9900012    2    1    2    0    0 -0.17923762867E+02 -0.53035133441E+01 -0.11327559423E+01  0.72461770665E+02  0.70000261019E+02 0.  0.
        -12    1    1    2    0    0  0.17923762867E+02  0.53035133441E+01  0.11327559423E+01  0.18726229335E+02  0.00000000000E+00 0.  1.
         11    1    3    3    0    0 -0.27312511650E+02 -0.98636171690E+00  0.36503967756E+01  0.27573023029E+02  0.51100000000E-03 0. -1.
        -11    1    3    3    0    0  0.36097048562E+01  0.13990465827E+02 -0.16863005356E+02  0.22206396670E+02  0.51100000000E-03 0.  1.
         12    1    3    3    0    0  0.57790439271E+01 -0.18307617454E+02  0.12079852638E+02  0.22682350965E+02  0.00000000000E+00 0. -1.
</event>
<event>
 7    1  0.2688173E-013  0.7246170E+02  0.7816164E-02  0.1226708E+00
        -11   -1    0    0    0    0  0.00000000000E+00  0.00000000000E+00  0.45593999997E+02  0.45594000000E+02  0.51100000000E-03 0. -1.
         11   -1    0    0    0    0 -0.00000000000E+00 -0.00000000000E+00 -0.45593999997E+02  0.45594000000E+02  0.51100000000E-03 0.  1.
    9900012    2    1    2    0    0  0.17312257823E+02  0.65915497472E+01  0.27407453738E+01  0.72461695394E+02  0.70000162966E+02 0.  0.
        -12    1    1    2    0    0 -0.17312257823E+02 -0.65915497472E+01 -0.27407453738E+01  0.18726304606E+02  0.00000000000E+00 0.  1.
         11    1    3    3    0    0 -0.16874869675E+01  0.42001390897E+01 -0.43089980262E+01  0.62494995711E+01  0.51100000000E-03 0. -1.
        -11    1    3    3    0    0  0.64743183327E+01  0.30292234725E+02 -0.81919339158E+01  0.32041286866E+02  0.51100000000E-03 0.  1.
         12    1    3    3    0    0  0.12525426457E+02 -0.27900824067E+02  0.15241677316E+02  0.34170908957E+02  0.00000000000E+00 0. -1.
</event>
<event>
 7    1  0.2688173E-013  0.7246156E+02  0.7816164E-02  0.1226708E+00
        -11   -1    0    0    0    0  0.00000000000E+00  0.00000000000E+00  0.45593999997E+02  0.45594000000E+02  0.51100000000E-03 0. -1.
         11   -1    0    0    0    0 -0.00000000000E+00 -0.00000000000E+00 -0.45593999997E+02  0.45594000000E+02  0.51100000000E-03 0.  1.
    9900012    2    1    2    0    0  0.83499226200E+01 -0.71162548295E+01  0.15176201903E+02  0.72461564280E+02  0.69999992165E+02 0.  0.
        -12    1    1    2    0    0 -0.83499226200E+01  0.71162548295E+01 -0.15176201903E+02  0.18726435720E+02  0.00000000000E+00 0.  1.
         11    1    3    3    0    0 -0.88811357860E+01  0.10233224718E+02  0.26427919447E+02  0.29698962735E+02  0.51100000000E-03 0. -1.
        -11    1    3    3    0    0 -0.17707231030E+01 -0.20357290187E+02  0.81315490418E-01  0.20434317619E+02  0.51100000000E-03 0.  1.
        -12    1    3    3    0    0  0.19001781509E+02  0.30078106402E+01 -0.11333033034E+02  0.22328283927E+02  0.00000000000E+00 0.  1.
</event>
<event>
 7    1  0.2688173E-013  0.7246163E+02  0.7816164E-02  0.1226708E+00
        -11   -1    0    0    0    0  0.00000000000E+00  0.00000000000E+00  0.45593999997E+02  0.45594000000E+02  0.51100000000E-03 0.  1.
         11   -1    0    0    0    0 -0.00000000000E+00 -0.00000000000E+00 -0.45593999997E+02  0.45594000000E+02  0.51100000000E-03 0. -1.
    9900012    2    1    2    0    0 -0.17157550554E+01  0.16285126030E+02 -0.90844784687E+01  0.72461631044E+02  0.70000079137E+02 0.  0.
        -12    1    1    2    0    0  0.17157550554E+01 -0.16285126030E+02  0.90844784687E+01  0.18726368956E+02  0.00000000000E+00 0.  1.
         11    1    3    3    0    0  0.23730941349E+02 -0.50005005110E+01 -0.93200812541E+01  0.25981272053E+02  0.51100000000E-03 0. -1.
        -11    1    3    3    0    0 -0.22957766611E+02  0.71689729111E+00 -0.78009667403E+01  0.24257536393E+02  0.51100000000E-03 0.  1.
         12    1    3    3    0    0 -0.24889297930E+01  0.20568729250E+02  0.80365695257E+01  0.22222822598E+02  0.00000000000E+00 0. -1.
</event>
<event>
 7    1  0.2688173E-013  0.7246156E+02  0.7816164E-02  0.1226708E+00
        -11   -1    0    0    0    0  0.00000000000E+00  0.00000000000E+00  0.45593999997E+02  0.45594000000E+02  0.51100000000E-03 0.  1.
         11   -1    0    0    0    0 -0.00000000000E+00 -0.00000000000E+00 -0.45593999997E+02  0.45594000000E+02  0.51100000000E-03 0. -1.
    9900012    2    1    2    0    0 -0.11623084419E+01 -0.18294375587E+02 -0.38267912933E+01  0.72461562255E+02  0.69999989527E+02 0.  0.
        -12    1    1    2    0    0  0.11623084419E+01  0.18294375587E+02  0.38267912933E+01  0.18726437745E+02  0.00000000000E+00 0.  1.
         11    1    3    3    0    0 -0.30957454428E+02 -0.68360536586E+01 -0.11165555413E+02  0.33611980635E+02  0.51100000000E-03 0. -1.
        -11    1    3    3    0    0  0.14332578229E+02  0.27848775277E+01 -0.37598038226E+01  0.15076951502E+02  0.51100000000E-03 0.  1.
        -12    1    3    3    0    0  0.15462567757E+02 -0.14243199456E+02  0.11098567942E+02  0.23772630118E+02  0.00000000000E+00 0.  1.
</event>
<event>
 7    1  0.2688173E-013  0.7246155E+02  0.7816164E-02  0.1226708E+00
        -11   -1    0    0    0    0  0.00000000000E+00  0.00000000000E+00  0.45593999997E+02  0.45594000000E+02  0.51100000000E-03 0.  1.
         11   -1    0    0    0    0 -0.00000000000E+00 -0.00000000000E+00 -0.45593999997E+02  0.45594000000E+02  0.51100000000E-03 0. -1.
    9900012    2    1    2    0    0  0.17668769910E+02 -0.10113077240E+00 -0.62035614480E+01  0.72461552600E+02  0.69999976950E+02 0.  0.
        -12    1    1    2    0    0 -0.17668769910E+02  0.10113077240E+00  0.62035614480E+01  0.18726447400E+02  0.00000000000E+00 0.  1.
         11    1    3    3    0    0  0.32847654722E+02 -0.12330482720E+02 -0.23277329997E+02  0.42105145967E+02  0.51100000000E-03 0. -1.
        -11    1    3    3    0    0  0.88266692298E+00  0.27262065271E+01  0.99933231067E+01  0.10396047802E+02  0.51100000000E-03 0.  1.
        -12    1    3    3    0    0 -0.16061551735E+02  0.95031454206E+01  0.70804454419E+01  0.19960358831E+02  0.00000000000E+00 0.  1.
</event>
<event>
 7    1  0.2688173E-013  0.7246155E+02  0.7816164E-02  0.1226708E+00
        -11   -1    0    0    0    0  0.00000000000E+00  0.00000000000E+00  0.45593999997E+02  0.45594000000E+02  0.51100000000E-03 0.  1.
         11   -1    0    0    0    0 -0.00000000000E+00 -0.00000000000E+00 -0.45593999997E+02  0.45594000000E+02  0.51100000000E-03 0. -1.
    9900012    2    1    2    0    0  0.16171617155E+02 -0.92818803737E+01  0.17335747641E+01  0.72461553830E+02  0.69999978552E+02 0.  0.
        -12    1    1    2    0    0 -0.16171617155E+02  0.92818803737E+01 -0.17335747641E+01  0.18726446170E+02  0.00000000000E+00 0.  1.
         11    1    3    3    0    0  0.23572317900E+02 -0.17995419041E+02  0.14415797287E+02  0.32974300437E+02  0.51100000000E-03 0. -1.
        -11    1    3    3    0    0  0.91809692932E+01 -0.63854697559E+01  0.36282479600E+01  0.11757066160E+02  0.51100000000E-03 0.  1.
         12    1    3    3    0    0 -0.16581670038E+02  0.15099008423E+02 -0.16310470483E+02  0.27730187233E+02  0.00000000000E+00 0. -1.
</event>
<event>
 7    1  0.2688173E-013  0.7246162E+02  0.7816164E-02  0.1226708E+00
        -11   -1    0    0    0    0  0.00000000000E+00  0.00000000000E+00  0.45593999997E+02  0.45594000000E+02  0.51100000000E-03 0. -1.
         11   -1    0    0    0    0 -0.00000000000E+00 -0.00000000000E+00 -0.45593999997E+02  0.45594000000E+02  0.51100000000E-03 0.  1.
    9900012    2    1    2    0    0  0.11425216223E+02 -0.14474005718E+02  0.32626460309E+01  0.72461621109E+02  0.70000066195E+02 0.  0.
        -12    1    1    2    0    0 -0.11425216223E+02  0.14474005718E+02 -0.32626460309E+01  0.18726378891E+02  0.00000000000E+00 0.  1.
         11    1    3    3    0    0  0.12286515617E+02 -0.19901326503E+02 -0.25769444047E+01  0.23530021362E+02  0.51100000000E-03 0. -1.
        -11    1    3    3    0    0  0.16929019764E+02 -0.13295931964E+02 -0.27775691146E+01  0.21704571118E+02  0.51100000000E-03 0.  1.
        -12    1    3    3    0    0 -0.17790319158E+02  0.18723252749E+02  0.86171595502E+01  0.27227028629E+02  0.00000000000E+00 0.  1.
</event>
<event>
 7    1  0.2688173E-013  0.7246156E+02  0.7816164E-02  0.1226708E+00
        -11   -1    0    0    0    0  0.00000000000E+00  0.00000000000E+00  0.45593999997E+02  0.45594000000E+02  0.51100000000E-03 0.  1.
         11   -1    0    0    0    0 -0.00000000000E+00 -0.00000000000E+00 -0.45593999997E+02  0.45594000000E+02  0.51100000000E-03 0. -1.
    9900012    2    1    2    0    0  0.13112150870E+02 -0.12040447073E+02 -0.58119458787E+01  0.72461559306E+02  0.69999985686E+02 0.  0.
        -12    1    1    2    0    0 -0.13112150870E+02  0.12040447073E+02  0.58119458787E+01  0.18726440694E+02  0.00000000000E+00 0.  1.
         11    1    3    3    0    0  0.36432286284E+01  0.21678382143E+00 -0.11143315542E+02  0.11725766141E+02  0.51100000000E-03 0. -1.
        -11    1    3    3    0    0  0.28107608499E+02 -0.20011177946E+02 -0.93813374779E+01  0.35756039929E+02  0.51100000000E-03 0.  1.
        -12    1    3    3    0    0 -0.18638686257E+02  0.77539470507E+01  0.14712707142E+02  0.24979753235E+02  0.00000000000E+00 0.  1.
</event>
<event>
 7    1  0.2688173E-013  0.7246159E+02  0.7816164E-02  0.1226708E+00
        -11   -1    0    0    0    0  0.00000000000E+00  0.00000000000E+00  0.45593999997E+02  0.45594000000E+02  0.51100000000E-03 0. -1.
         11   -1    0    0    0    0 -0.00000000000E+00 -0.00000000000E+00 -0.45593999997E+02  0.45594000000E+02  0.51100000000E-03 0.  1.
    9900012    2    1    2    0    0  0.17963443502E+02 -0.22934807552E+01  0.47679269860E+01  0.72461588593E+02  0.70000023838E+02 0.  0.
        -12    1    1    2    0    0 -0.17963443502E+02  0.22934807552E+01 -0.47679269860E+01  0.18726411407E+02  0.00000000000E+00 0.  1.
         11    1    3    3    0    0  0.44543589447E+01 -0.37702485294E+01  0.10616147314E+02  0.12114399351E+02  0.51100000000E-03 0. -1.
        -11    1    3    3    0    0 -0.15358083865E+02  0.20234900821E+02  0.14133634198E+00  0.25403580997E+02  0.51100000000E-03 0.  1.
         12    1    3    3    0    0  0.28867168423E+02 -0.18758133046E+02 -0.59895566695E+01  0.34943608246E+02  0.00000000000E+00 0. -1.
</event>
<event>
 7    1  0.2688173E-013  0.7246161E+02  0.7816164E-02  0.1226708E+00
        -11   -1    0    0    0    0  0.00000000000E+00  0.00000000000E+00  0.45593999997E+02  0.45594000000E+02  0.51100000000E-03 0.  1.
         11   -1    0    0    0    0 -0.00000000000E+00 -0.00000000000E+00 -0.45593999997E+02  0.45594000000E+02  0.51100000000E-03 0. -1.
    9900012    2    1    2    0    0  0.12346408869E+02  0.13061953496E+02  0.52563560516E+01  0.72461608996E+02  0.70000050416E+02 0.  0.
        -12    1    1    2    0    0 -0.12346408869E+02 -0.13061953496E+02 -0.52563560516E+01  0.18726391004E+02  0.00000000000E+00 0.  1.
         11    1    3    3    0    0  0.20110806912E+02 -0.12403540941E+02  0.79044339739E+01  0.24915305723E+02  0.51100000000E-03 0. -1.
        -11    1    3    3    0    0  0.63894404248E+01  0.10909622013E+02  0.15716081151E+02  0.20170275368E+02  0.51100000000E-03 0.  1.
         12    1    3    3    0    0 -0.14153838469E+02  0.14555872424E+02 -0.18364159073E+02  0.27376027906E+02  0.00000000000E+00 0. -1.
</event>
<event>
 7    1  0.2688173E-013  0.7246159E+02  0.7816164E-02  0.1226708E+00
        -11   -1    0    0    0    0  0.00000000000E+00  0.00000000000E+00  0.45593999997E+02  0.45594000000E+02  0.51100000000E-03 0.  1.
         11   -1    0    0    0    0 -0.00000000000E+00 -0.00000000000E+00 -0.45593999997E+02  0.45594000000E+02  0.51100000000E-03 0. -1.
    9900012    2    1    2    0    0  0.29531283682E+00 -0.15583594820E+02 -0.10379927439E+02  0.72461587348E+02  0.70000022215E+02 0.  0.
        -12    1    1    2    0    0 -0.29531283682E+00  0.15583594820E+02  0.10379927439E+02  0.18726412652E+02  0.00000000000E+00 0.  1.
         11    1    3    3    0    0 -0.31261645775E+01  0.11621466082E+02  0.64981870879E+01  0.13676908077E+02  0.51100000000E-03 0. -1.
        -11    1    3    3    0    0 -0.22089968200E+02 -0.83583861770E+01 -0.18618807844E+01  0.23691684509E+02  0.51100000000E-03 0.  1.
         12    1    3    3    0    0  0.25511445614E+02 -0.18846674725E+02 -0.15016233742E+02  0.35092994761E+02  0.00000000000E+00 0. -1.
</event>
<event>
 7    1  0.2688173E-013  0.7246158E+02  0.7816164E-02  0.1226708E+00
        -11   -1    0    0    0    0  0.00000000000E+00  0.00000000000E+00  0.45593999997E+02  0.45594000000E+02  0.51100000000E-03 0.  1.
         11   -1    0    0    0    0 -0.00000000000E+00 -0.00000000000E+00 -0.45593999997E+02  0.45594000000E+02  0.51100000000E-03 0. -1.
    9900012    2    1    2    0    0  0.82341115774E+01  0.11252299446E+02 -0.12500564259E+02  0.72461576340E+02  0.70000007876E+02 0.  0.
        -12    1    1    2    0    0 -0.82341115774E+01 -0.11252299446E+02  0.12500564259E+02  0.18726423660E+02  0.00000000000E+00 0.  1.
         11    1    3    3    0    0  0.36006502122E+02 -0.75256328504E+01 -0.30143323702E+01  0.36907852075E+02  0.51100000000E-03 0. -1.
        -11    1    3    3    0    0 -0.11966579088E+02  0.11772004137E+02 -0.28064330651E+01  0.17019258599E+02  0.51100000000E-03 0.  1.
        -12    1    3    3    0    0 -0.15805811457E+02  0.70059281599E+01 -0.66797988238E+01  0.18534465666E+02  0.00000000000E+00 0.  1.
</event>
<event>
 7    1  0.2688173E-013  0.7246158E+02  0.7816164E-02  0.1226708E+00
        -11   -1    0    0    0    0  0.00000000000E+00  0.00000000000E+00  0.45593999997E+02  0.45594000000E+02  0.51100000000E-03 0.  1.
         11   -1    0    0    0    0 -0.00000000000E+00 -0.00000000000E+00 -0.45593999997E+02  0.45594000000E+02  0.51100000000E-03 0. -1.
    9900012    2    1    2    0    0 -0.13722610597E+02 -0.26746817126E-01 -0.12742371600E+02  0.72461580401E+02  0.70000013166E+02 0.  0.
        -12    1    1    2    0    0  0.13722610597E+02  0.26746817126E-01  0.12742371600E+02  0.18726419599E+02  0.00000000000E+00 0.  1.
         11    1    3    3    0    0 -0.31319527202E+02 -0.67302622104E+01 -0.11192895962E+01  0.32054048466E+02  0.51100000000E-03 0. -1.
        -11    1    3    3    0    0 -0.34849361143E+01  0.96639807851E+01  0.67454027375E+01  0.12289742173E+02  0.51100000000E-03 0.  1.
        -12    1    3    3    0    0  0.21081852720E+02 -0.29604653919E+01 -0.18368484742E+02  0.28117789763E+02  0.00000000000E+00 0.  1.
</event>
<event>
 7    1  0.2688173E-013  0.7246152E+02  0.7816164E-02  0.1226708E+00
        -11   -1    0    0    0    0  0.00000000000E+00  0.00000000000E+00  0.45593999997E+02  0.45594000000E+02  0.51100000000E-03 0.  1.
         11   -1    0    0    0    0 -0.00000000000E+00 -0.00000000000E+00 -0.45593999997E+02  0.45594000000E+02  0.51100000000E-03 0. -1.
    9900012    2    1    2    0    0  0.13824585171E+02  0.94351427551E+01 -0.83988018542E+01  0.72461522848E+02  0.69999938192E+02 0.  0.
        -12    1    1    2    0    0 -0.13824585171E+02 -0.94351427551E+01  0.83988018542E+01  0.18726477152E+02  0.00000000000E+00 0.  1.
         11    1    3    3    0    0 -0.53627971983E+01 -0.91458398961E+01 -0.51594120443E+01  0.11790908112E+02  0.51100000000E-03 0. -1.
        -11    1    3    3    0    0 -0.13596931008E+02 -0.99460490106E+01  0.17038441813E+01  0.16932321430E+02  0.51100000000E-03 0.  1.
         12    1    3    3    0    0  0.32784313377E+02  0.28527031662E+02 -0.49432339912E+01  0.43738293306E+02  0.00000000000E+00 0. -1.
</event>
<event>
 7    1  0.2688173E-013  0.7246156E+02  0.7816164E-02  0.1226708E+00
        -11   -1    0    0    0    0  0.00000000000E+00  0.00000000000E+00  0.45593999997E+02  0.45594000000E+02  0.51100000000E-03 0. -1.
         11   -1    0    0    0    0 -0.00000000000E+00 -0.00000000000E+00 -0.45593999997E+02  0.45594000000E+02  0.51100000000E-03 0.  1.
    9900012    2    1    2    0    0 -0.66749845966E+01 -0.82669096290E+01  0.15420195166E+02  0.72461557916E+02  0.69999983875E+02 0.  0.
        -12    1    1    2    0    0  0.66749845966E+01  0.82669096290E+01 -0.15420195166E+02  0.18726442084E+02  0.00000000000E+00 0.  1.
         11    1    3    3    0    0 -0.15242933275E+02  0.79522998981E+01  0.12964179533E+02  0.21532673771E+02  0.51100000000E-03 0. -1.
        -11    1    3    3    0    0 -0.42085165173E+01 -0.19520820587E+02  0.20470964891E+02  0.28597805012E+02  0.51100000000E-03 0.  1.
        -12    1    3    3    0    0  0.12776465196E+02  0.33016110603E+01 -0.18014949258E+02  0.22331079133E+02  0.00000000000E+00 0.  1.
</event>
<event>
 7    1  0.2688173E-013  0.7246157E+02  0.7816164E-02  0.1226708E+00
        -11   -1    0    0    0    0  0.00000000000E+00  0.00000000000E+00  0.45593999997E+02  0.45594000000E+02  0.51100000000E-03 0. -1.
         11   -1    0    0    0    0 -0.00000000000E+00 -0.00000000000E+00 -0.45593999997E+02  0.45594000000E+02  0.51100000000E-03 0.  1.
    9900012    2    1    2    0    0  0.16543430119E+02 -0.38367151177E+01  0.78913809428E+01  0.72461565311E+02  0.69999993508E+02 0.  0.
        -12    1    1    2    0    0 -0.16543430119E+02  0.38367151177E+01 -0.78913809428E+01  0.18726434689E+02  0.00000000000E+00 0.  1.
         11    1    3    3    0    0  0.16222140240E+02 -0.41284788030E+01  0.23113024304E+02  0.28537940780E+02  0.51100000000E-03 0. -1.
        -11    1    3    3    0    0  0.14058180727E+02  0.10106029649E+02 -0.19926674666E+02  0.26397663611E+02  0.51100000000E-03 0.  1.
         12    1    3    3    0    0 -0.13736890848E+02 -0.98142659639E+01  0.47050313046E+01  0.17525960920E+02  0.00000000000E+00 0. -1.
</event>
<event>
 7    1  0.2688173E-013  0.7246161E+02  0.7816164E-02  0.1226708E+00
        -11   -1    0    0    0    0  0.00000000000E+00  0.00000000000E+00  0.45593999997E+02  0.45594000000E+02  0.51100000000E-03 0. -1.
         11   -1    0    0    0    0 -0.00000000000E+00 -0.00000000000E+00 -0.45593999997E+02  0.45594000000E+02  0.51100000000E-03 0.  1.
    9900012    2    1    2    0    0  0.10910309626E+02 -0.12009640557E+02  0.93494050448E+01  0.72461609608E+02  0.70000051213E+02 0.  0.
        -12    1    1    2    0    0 -0.10910309626E+02  0.12009640557E+02 -0.93494050448E+01  0.18726390392E+02  0.00000000000E+00 0.  1.
         11    1    3    3    0    0  0.15206610314E+02  0.15117530918E+00  0.59277238268E+01  0.16321818564E+02  0.51100000000E-03 0. -1.
        -11    1    3    3    0    0  0.19444056797E+02 -0.16321898480E+01 -0.14735703362E+02  0.24451510020E+02  0.51100000000E-03 0.  1.
         12    1    3    3    0    0 -0.23740357486E+02 -0.10528626018E+02  0.18157384580E+02  0.31688281023E+02  0.00000000000E+00 0. -1.
</event>
<event>
 7    1  0.2688173E-013  0.7246176E+02  0.7816164E-02  0.1226708E+00
        -11   -1    0    0    0    0  0.00000000000E+00  0.00000000000E+00  0.45593999997E+02  0.45594000000E+02  0.51100000000E-03 0.  1.
         11   -1    0    0    0    0 -0.00000000000E+00 -0.00000000000E+00 -0.45593999997E+02  0.45594000000E+02  0.51100000000E-03 0. -1.
    9900012    2    1    2    0    0  0.92608887472E+01 -0.16263735353E+02  0.63154828083E+00  0.72461761690E+02  0.70000249328E+02 0.  0.
        -12    1    1    2    0    0 -0.92608887472E+01  0.16263735353E+02 -0.63154828083E+00  0.18726238310E+02  0.00000000000E+00 0.  1.
         11    1    3    3    0    0  0.17658348553E+02 -0.20340603716E+02 -0.57686998528E+01  0.27546965920E+02  0.51100000000E-03 0. -1.
        -11    1    3    3    0    0  0.38849734951E+01 -0.49986527466E+01  0.22114130675E+02  0.23002485172E+02  0.51100000000E-03 0.  1.
        -12    1    3    3    0    0 -0.12282433301E+02  0.90755211097E+01 -0.15713882541E+02  0.21912310598E+02  0.00000000000E+00 0.  1.
</event>
<event>
 7    1  0.2688173E-013  0.7246154E+02  0.7816164E-02  0.1226708E+00
        -11   -1    0    0    0    0  0.00000000000E+00  0.00000000000E+00  0.45593999997E+02  0.45594000000E+02  0.51100000000E-03 0.  1.
         11   -1    0    0    0    0 -0.00000000000E+00 -0.00000000000E+00 -0.45593999997E+02  0.45594000000E+02  0.51100000000E-03 0. -1.
    9900012    2    1    2    0    0  0.11204195165E+02  0.18940101693E+01 -0.14884862815E+02  0.72461537311E+02  0.69999957033E+02 0.  0.
        -12    1    1    2    0    0 -0.11204195165E+02 -0.18940101693E+01  0.14884862815E+02  0.18726462689E+02  0.00000000000E+00 0.  1.
         11    1    3    3    0    0 -0.17466983108E+02  0.11754901424E+02  0.10826460329E+02  0.23674573911E+02  0.51100000000E-03 0.  1.
        -11    1    3    3    0    0  0.10653994381E+02  0.96883458022E+01 -0.55979239361E+01  0.15450190721E+02  0.51100000000E-03 0. -1.
        -12    1    3    3    0    0  0.18017183892E+02 -0.19549237056E+02 -0.20113399208E+02  0.33336772678E+02  0.00000000000E+00 0.  1.
</event>
<event>
 7    1  0.2688173E-013  0.7246150E+02  0.7816164E-02  0.1226708E+00
        -11   -1    0    0    0    0  0.00000000000E+00  0.00000000000E+00  0.45593999997E+02  0.45594000000E+02  0.51100000000E-03 0.  1.
         11   -1    0    0    0    0 -0.00000000000E+00 -0.00000000000E+00 -0.45593999997E+02  0.45594000000E+02  0.51100000000E-03 0. -1.
    9900012    2    1    2    0    0  0.48618062043E+01  0.16379261543E+01 -0.18010047328E+02  0.72461500957E+02  0.69999909675E+02 0.  0.
        -12    1    1    2    0    0 -0.48618062043E+01 -0.16379261543E+01  0.18010047328E+02  0.18726499043E+02  0.00000000000E+00 0.  1.
         11    1    3    3    0    0 -0.60626285955E+01  0.22638964211E+01  0.61070438817E+01  0.88981277652E+01  0.51100000000E-03 0. -1.
        -11    1    3    3    0    0  0.25615342985E+02 -0.10174549137E+02  0.64718413340E+01  0.28311693289E+02  0.51100000000E-03 0.  1.
         12    1    3    3    0    0 -0.14690908186E+02  0.95485788700E+01 -0.30588932544E+02  0.35251679902E+02  0.00000000000E+00 0. -1.
</event>
<event>
 7    1  0.2688173E-013  0.7246158E+02  0.7816164E-02  0.1226708E+00
        -11   -1    0    0    0    0  0.00000000000E+00  0.00000000000E+00  0.45593999997E+02  0.45594000000E+02  0.51100000000E-03 0.  1.
         11   -1    0    0    0    0 -0.00000000000E+00 -0.00000000000E+00 -0.45593999997E+02  0.45594000000E+02  0.51100000000E-03 0. -1.
    9900012    2    1    2    0    0 -0.88481214674E+01 -0.14221747418E+01 -0.16442843201E+02  0.72461576769E+02  0.70000008434E+02 0.  0.
        -12    1    1    2    0    0  0.88481214674E+01  0.14221747418E+01  0.16442843201E+02  0.18726423231E+02  0.00000000000E+00 0.  1.
         11    1    3    3    0    0 -0.21553251782E+02  0.20263159503E+01 -0.14858887144E+02  0.26257097062E+02  0.51100000000E-03 0. -1.
        -11    1    3    3    0    0 -0.13776175311E+02  0.94657946369E+01 -0.60240826741E+00  0.16725644092E+02  0.51100000000E-03 0.  1.
         12    1    3    3    0    0  0.26481305625E+02 -0.12914285329E+02 -0.98154779002E+00  0.29478835615E+02  0.00000000000E+00 0. -1.
</event>
<event>
 7    1  0.2688173E-013  0.7246164E+02  0.7816164E-02  0.1226708E+00
        -11   -1    0    0    0    0  0.00000000000E+00  0.00000000000E+00  0.45593999997E+02  0.45594000000E+02  0.51100000000E-03 0. -1.
         11   -1    0    0    0    0 -0.00000000000E+00 -0.00000000000E+00 -0.45593999997E+02  0.45594000000E+02  0.51100000000E-03 0.  1.
    9900012    2    1    2    0    0 -0.14204055320E+02  0.36600852314E+00  0.12197837041E+02  0.72461644822E+02  0.70000097086E+02 0.  0.
        -12    1    1    2    0    0  0.14204055320E+02 -0.36600852314E+00 -0.12197837041E+02  0.18726355178E+02  0.00000000000E+00 0.  1.
         11    1    3    3    0    0 -0.17147337996E+01  0.13469630553E+02  0.25037305132E+01  0.13807241795E+02  0.51100000000E-03 0. -1.
        -11    1    3    3    0    0 -0.22427710035E+02  0.77147612602E+01 -0.12355333105E+02  0.26742736866E+02  0.51100000000E-03 0.  1.
         12    1    3    3    0    0  0.99383885141E+01 -0.20818383290E+02  0.22049439632E+02  0.31911666161E+02  0.00000000000E+00 0. -1.
</event>
<event>
 7    1  0.2688173E-013  0.7246158E+02  0.7816164E-02  0.1226708E+00
        -11   -1    0    0    0    0  0.00000000000E+00  0.00000000000E+00  0.45593999997E+02  0.45594000000E+02  0.51100000000E-03 0. -1.
         11   -1    0    0    0    0 -0.00000000000E+00 -0.00000000000E+00 -0.45593999997E+02  0.45594000000E+02  0.51100000000E-03 0.  1.
    9900012    2    1    2    0    0 -0.18337734227E+01  0.13851247086E+02 -0.12468315712E+02  0.72461583699E+02  0.70000017462E+02 0.  0.
        -12    1    1    2    0    0  0.18337734227E+01 -0.13851247086E+02  0.12468315712E+02  0.18726416301E+02  0.00000000000E+00 0.  1.
         11    1    3    3    0    0  0.45529487350E+01 -0.12127057612E+01  0.15439119581E+02  0.16142069605E+02  0.51100000000E-03 0. -1.
        -11    1    3    3    0    0  0.14230912086E+02 -0.20781188847E+00  0.45532915860E+01  0.14943042164E+02  0.51100000000E-03 0.  1.
        -12    1    3    3    0    0 -0.20617634243E+02  0.15271764736E+02 -0.32460726878E+02  0.41376471930E+02  0.00000000000E+00 0.  1.
</event>
<event>
 7    1  0.2688173E-013  0.7246157E+02  0.7816164E-02  0.1226708E+00
        -11   -1    0    0    0    0  0.00000000000E+00  0.00000000000E+00  0.45593999997E+02  0.45594000000E+02  0.51100000000E-03 0.  1.
         11   -1    0    0    0    0 -0.00000000000E+00 -0.00000000000E+00 -0.45593999997E+02  0.45594000000E+02  0.51100000000E-03 0. -1.
    9900012    2    1    2    0    0 -0.39885865807E+01  0.15430330126E+02  0.98323672068E+01  0.72461565326E+02  0.69999993528E+02 0.  0.
        -12    1    1    2    0    0  0.39885865807E+01 -0.15430330126E+02 -0.98323672068E+01  0.18726434674E+02  0.00000000000E+00 0.  1.
         11    1    3    3    0    0  0.61222101530E-01  0.25828807048E+02 -0.16426442149E+02  0.30609786403E+02  0.51100000000E-03 0. -1.
        -11    1    3    3    0    0  0.30534883545E+01  0.90385396338E+01  0.16298003935E+02  0.18885018464E+02  0.51100000000E-03 0.  1.
        -12    1    3    3    0    0 -0.71032970367E+01 -0.19437016556E+02  0.99608054210E+01  0.22966760460E+02  0.00000000000E+00 0.  1.
</event>
<event>
 7    1  0.2688173E-013  0.7246156E+02  0.7816164E-02  0.1226708E+00
        -11   -1    0    0    0    0  0.00000000000E+00  0.00000000000E+00  0.45593999997E+02  0.45594000000E+02  0.51100000000E-03 0.  1.
         11   -1    0    0    0    0 -0.00000000000E+00 -0.00000000000E+00 -0.45593999997E+02  0.45594000000E+02  0.51100000000E-03 0. -1.
    9900012    2    1    2    0    0 -0.17636652821E+02 -0.60982943083E+01  0.15617188073E+01  0.72461556615E+02  0.69999982180E+02 0.  0.
        -12    1    1    2    0    0  0.17636652821E+02  0.60982943083E+01 -0.15617188073E+01  0.18726443385E+02  0.00000000000E+00 0.  1.
         11    1    3    3    0    0 -0.35023670409E+00  0.50531803702E+01 -0.26641337737E+01  0.57231902492E+01  0.51100000000E-03 0. -1.
        -11    1    3    3    0    0 -0.40508831976E+02 -0.17078527040E+01  0.81730090483E+01  0.41360371203E+02  0.51100000000E-03 0.  1.
         12    1    3    3    0    0  0.23222415859E+02 -0.94436219746E+01 -0.39471564672E+01  0.25377995163E+02  0.00000000000E+00 0. -1.
</event>
<event>
 7    1  0.2688173E-013  0.7246156E+02  0.7816164E-02  0.1226708E+00
        -11   -1    0    0    0    0  0.00000000000E+00  0.00000000000E+00  0.45593999997E+02  0.45594000000E+02  0.51100000000E-03 0.  1.
         11   -1    0    0    0    0 -0.00000000000E+00 -0.00000000000E+00 -0.45593999997E+02  0.45594000000E+02  0.51100000000E-03 0. -1.
    9900012    2    1    2    0    0  0.75390238087E+01  0.30943774237E+00 -0.17139047476E+02  0.72461559332E+02  0.69999985720E+02 0.  0.
        -12    1    1    2    0    0 -0.75390238087E+01 -0.30943774237E+00  0.17139047476E+02  0.18726440668E+02  0.00000000000E+00 0.  1.
         11    1    3    3    0    0  0.20787720079E+02 -0.45671367663E+01 -0.10223528036E+01  0.21308055985E+02  0.51100000000E-03 0. -1.
        -11    1    3    3    0    0  0.11593852783E+02 -0.10930144621E+02 -0.14692985332E+02  0.21674162083E+02  0.51100000000E-03 0.  1.
        -12    1    3    3    0    0 -0.24842549053E+02  0.15806719130E+02 -0.14237093398E+01  0.29479341264E+02  0.00000000000E+00 0.  1.
</event>
<event>
 7    1  0.2688173E-013  0.7246152E+02  0.7816164E-02  0.1226708E+00
        -11   -1    0    0    0    0  0.00000000000E+00  0.00000000000E+00  0.45593999997E+02  0.45594000000E+02  0.51100000000E-03 0.  1.
         11   -1    0    0    0    0 -0.00000000000E+00 -0.00000000000E+00 -0.45593999997E+02  0.45594000000E+02  0.51100000000E-03 0. -1.
    9900012    2    1    2    0    0  0.44738600215E+01 -0.17210127463E+02 -0.58717379873E+01  0.72461515606E+02  0.69999928758E+02 0.  0.
        -12    1    1    2    0    0 -0.44738600215E+01  0.17210127463E+02  0.58717379873E+01  0.18726484394E+02  0.00000000000E+00 0.  1.
         11    1    3    3    0    0  0.26531914851E+02  0.24162729356E+01 -0.74667298685E+01  0.27668265861E+02  0.51100000000E-03 0. -1.
        -11    1    3    3    0    0 -0.35579454175E+01  0.10173440639E+01 -0.12964264636E+02  0.13482066695E+02  0.51100000000E-03 0.  1.
        -12    1    3    3    0    0 -0.18500109412E+02 -0.20643744462E+02  0.14559256517E+02  0.31311183050E+02  0.00000000000E+00 0.  1.
</event>
<event>
 7    1  0.2688173E-013  0.7246158E+02  0.7816164E-02  0.1226708E+00
        -11   -1    0    0    0    0  0.00000000000E+00  0.00000000000E+00  0.45593999997E+02  0.45594000000E+02  0.51100000000E-03 0.  1.
         11   -1    0    0    0    0 -0.00000000000E+00 -0.00000000000E+00 -0.45593999997E+02  0.45594000000E+02  0.51100000000E-03 0. -1.
    9900012    2    1    2    0    0  0.15931394247E+02 -0.91749725644E+01 -0.35621941541E+01  0.72461583595E+02  0.70000017326E+02 0.  0.
        -12    1    1    2    0    0 -0.15931394247E+02  0.91749725644E+01  0.35621941541E+01  0.18726416405E+02  0.00000000000E+00 0.  1.
         11    1    3    3    0    0  0.87529431570E+01  0.32384231341E+01  0.48794594951E+01  0.10531406531E+02  0.51100000000E-03 0. -1.
        -11    1    3    3    0    0 -0.14690418123E+02 -0.14266755721E+01  0.19712587439E+02  0.24625797279E+02  0.51100000000E-03 0.  1.
         12    1    3    3    0    0  0.21868869213E+02 -0.10986720126E+02 -0.28154241089E+02  0.37304379784E+02  0.00000000000E+00 0. -1.
</event>
<event>
 7    1  0.2688173E-013  0.7246157E+02  0.7816164E-02  0.1226708E+00
        -11   -1    0    0    0    0  0.00000000000E+00  0.00000000000E+00  0.45593999997E+02  0.45594000000E+02  0.51100000000E-03 0. -1.
         11   -1    0    0    0    0 -0.00000000000E+00 -0.00000000000E+00 -0.45593999997E+02  0.45594000000E+02  0.51100000000E-03 0.  1.
    9900012    2    1    2    0    0  0.17407419355E+02 -0.53958406011E+01  0.43064720384E+01  0.72461573598E+02  0.70000004303E+02 0.  0.
        -12    1    1    2    0    0 -0.17407419355E+02  0.53958406011E+01 -0.43064720384E+01  0.18726426402E+02  0.00000000000E+00 0.  1.
         11    1    3    3    0    0 -0.33190349275E+01  0.91528529555E+01  0.80061207874E+01  0.12605105331E+02  0.51100000000E-03 0.  1.
        -11    1    3    3    0    0  0.14583055857E+02  0.64119923576E+01  0.21339034124E+02  0.26629561426E+02  0.51100000000E-03 0. -1.
        -12    1    3    3    0    0  0.61433984248E+01 -0.20960685914E+02 -0.25038682873E+02  0.33226906841E+02  0.00000000000E+00 0.  1.
</event>
<event>
 7    1  0.2688173E-013  0.7246158E+02  0.7816164E-02  0.1226708E+00
        -11   -1    0    0    0    0  0.00000000000E+00  0.00000000000E+00  0.45593999997E+02  0.45594000000E+02  0.51100000000E-03 0. -1.
         11   -1    0    0    0    0 -0.00000000000E+00 -0.00000000000E+00 -0.45593999997E+02  0.45594000000E+02  0.51100000000E-03 0.  1.
    9900012    2    1    2    0    0  0.57305177095E+01 -0.17387966593E+02 -0.39368397620E+01  0.72461576883E+02  0.70000008582E+02 0.  0.
        -12    1    1    2    0    0 -0.57305177095E+01  0.17387966593E+02  0.39368397620E+01  0.18726423117E+02  0.00000000000E+00 0.  1.
         11    1    3    3    0    0  0.94800547595E+01  0.65754793260E+00  0.29308206145E+02  0.30810302745E+02  0.51100000000E-03 0. -1.
        -11    1    3    3    0    0  0.61436183546E+01 -0.10452355801E+02 -0.12275729730E+02  0.17253675809E+02  0.51100000000E-03 0.  1.
        -12    1    3    3    0    0 -0.98931554046E+01 -0.75931587250E+01 -0.20969316177E+02  0.24397598329E+02  0.00000000000E+00 0.  1.
</event>
<event>
 7    1  0.2688173E-013  0.7246131E+02  0.7816164E-02  0.1226709E+00
        -11   -1    0    0    0    0  0.00000000000E+00  0.00000000000E+00  0.45593999997E+02  0.45594000000E+02  0.51100000000E-03 0. -1.
         11   -1    0    0    0    0 -0.00000000000E+00 -0.00000000000E+00 -0.45593999997E+02  0.45594000000E+02  0.51100000000E-03 0.  1.
    9900012    2    1    2    0    0  0.11065817045E+02 -0.10934470069E+02 -0.10424679180E+02  0.72461311062E+02  0.69999662301E+02 0.  0.
        -12    1    1    2    0    0 -0.11065817045E+02  0.10934470069E+02  0.10424679180E+02  0.18726688938E+02  0.00000000000E+00 0.  1.
         11    1    3    3    0    0 -0.58942788921E+01  0.72954195336E+01  0.27477227727E+00  0.93830256258E+01  0.51100000000E-03 0. -1.
        -11    1    3    3    0    0  0.13513176585E+02 -0.32497003080E+01 -0.33106454462E+02  0.35905484551E+02  0.51100000000E-03 0.  1.
         12    1    3    3    0    0  0.34469193515E+01 -0.14980189295E+02  0.22407003004E+02  0.27172800885E+02  0.00000000000E+00 0. -1.
</event>
<event>
 7    1  0.2688173E-013  0.7246154E+02  0.7816164E-02  0.1226708E+00
        -11   -1    0    0    0    0  0.00000000000E+00  0.00000000000E+00  0.45593999997E+02  0.45594000000E+02  0.51100000000E-03 0.  1.
         11   -1    0    0    0    0 -0.00000000000E+00 -0.00000000000E+00 -0.45593999997E+02  0.45594000000E+02  0.51100000000E-03 0. -1.
    9900012    2    1    2    0    0  0.36265924814E-01  0.11388922015E+02 -0.14865102998E+02  0.72461544195E+02  0.69999966001E+02 0.  0.
        -12    1    1    2    0    0 -0.36265924814E-01 -0.11388922015E+02  0.14865102998E+02  0.18726455805E+02  0.00000000000E+00 0.  1.
         11    1    3    3    0    0  0.77031275977E+01 -0.17952555934E+01 -0.10252162884E+02  0.12948666398E+02  0.51100000000E-03 0. -1.
        -11    1    3    3    0    0  0.17684656434E+02  0.35403647906E+01  0.17035470674E+02  0.24809041041E+02  0.51100000000E-03 0.  1.
         12    1    3    3    0    0 -0.25351518107E+02  0.96438128173E+01 -0.21648410788E+02  0.34703836756E+02  0.00000000000E+00 0. -1.
</event>
<event>
 7    1  0.2688173E-013  0.7246156E+02  0.7816164E-02  0.1226708E+00
        -11   -1    0    0    0    0  0.00000000000E+00  0.00000000000E+00  0.45593999997E+02  0.45594000000E+02  0.51100000000E-03 0. -1.
         11   -1    0    0    0    0 -0.00000000000E+00 -0.00000000000E+00 -0.45593999997E+02  0.45594000000E+02  0.51100000000E-03 0.  1.
    9900012    2    1    2    0    0  0.11562300733E+02  0.11793269708E+02 -0.88267439063E+01  0.72461563696E+02  0.69999991404E+02 0.  0.
        -12    1    1    2    0    0 -0.11562300733E+02 -0.11793269708E+02  0.88267439063E+01  0.18726436304E+02  0.00000000000E+00 0.  1.
         11    1    3    3    0    0 -0.20187346943E+01  0.10490960222E+02  0.11813592196E+02  0.15927852867E+02  0.51100000000E-03 0. -1.
        -11    1    3    3    0    0  0.93565593285E+01  0.25282752067E+02 -0.45288032244E+01  0.27336291143E+02  0.51100000000E-03 0.  1.
         12    1    3    3    0    0  0.42244760992E+01 -0.23980442580E+02 -0.16111532878E+02  0.29197419686E+02  0.00000000000E+00 0. -1.
</event>
<event>
 7    1  0.2688173E-013  0.7246155E+02  0.7816164E-02  0.1226708E+00
        -11   -1    0    0    0    0  0.00000000000E+00  0.00000000000E+00  0.45593999997E+02  0.45594000000E+02  0.51100000000E-03 0. -1.
         11   -1    0    0    0    0 -0.00000000000E+00 -0.00000000000E+00 -0.45593999997E+02  0.45594000000E+02  0.51100000000E-03 0.  1.
    9900012    2    1    2    0    0  0.95331295055E+01  0.74378123163E+01  0.14299593573E+02  0.72461548479E+02  0.69999971581E+02 0.  0.
        -12    1    1    2    0    0 -0.95331295055E+01 -0.74378123163E+01 -0.14299593573E+02  0.18726451521E+02  0.00000000000E+00 0.  1.
         11    1    3    3    0    0  0.72331763400E+01  0.46440898877E+01  0.90416814140E+01  0.12475512571E+02  0.51100000000E-03 0. -1.
        -11    1    3    3    0    0 -0.14610813982E+02  0.72698649645E+01  0.27324387440E+02  0.31826859271E+02  0.51100000000E-03 0.  1.
         12    1    3    3    0    0  0.16910767147E+02 -0.44761425359E+01 -0.22066475281E+02  0.28159176637E+02  0.00000000000E+00 0. -1.
</event>
<event>
 7    1  0.2688173E-013  0.7246146E+02  0.7816164E-02  0.1226708E+00
        -11   -1    0    0    0    0  0.00000000000E+00  0.00000000000E+00  0.45593999997E+02  0.45594000000E+02  0.51100000000E-03 0. -1.
         11   -1    0    0    0    0 -0.00000000000E+00 -0.00000000000E+00 -0.45593999997E+02  0.45594000000E+02  0.51100000000E-03 0.  1.
    9900012    2    1    2    0    0 -0.93000224537E+01  0.14453579077E+02  0.74355084759E+01  0.72461463959E+02  0.69999861479E+02 0.  0.
        -12    1    1    2    0    0  0.93000224537E+01 -0.14453579077E+02 -0.74355084759E+01  0.18726536041E+02  0.00000000000E+00 0.  1.
         11    1    3    3    0    0 -0.48088735150E+01  0.11599889667E+02 -0.17472236946E+02  0.21516546399E+02  0.51100000000E-03 0.  1.
        -11    1    3    3    0    0 -0.66188700854E+01  0.89426733905E+01 -0.10293826950E+02  0.15157299301E+02  0.51100000000E-03 0. -1.
         12    1    3    3    0    0  0.21277211467E+01 -0.60889839804E+01  0.35201572372E+02  0.35787618259E+02  0.00000000000E+00 0. -1.
</event>
<event>
 7    1  0.2688173E-013  0.7246158E+02  0.7816164E-02  0.1226708E+00
        -11   -1    0    0    0    0  0.00000000000E+00  0.00000000000E+00  0.45593999997E+02  0.45594000000E+02  0.51100000000E-03 0.  1.
         11   -1    0    0    0    0 -0.00000000000E+00 -0.00000000000E+00 -0.45593999997E+02  0.45594000000E+02  0.51100000000E-03 0. -1.
    9900012    2    1    2    0    0 -0.15446044218E+02 -0.91105667809E+01  0.53940950917E+01  0.72461575597E+02  0.70000006908E+02 0.  0.
        -12    1    1    2    0    0  0.15446044218E+02  0.91105667809E+01 -0.53940950917E+01  0.18726424403E+02  0.00000000000E+00 0.  1.
         11    1    3    3    0    0 -0.24233717836E+02 -0.34860355697E+01 -0.32453622372E+01  0.24697325776E+02  0.51100000000E-03 0. -1.
        -11    1    3    3    0    0 -0.25255569156E+01 -0.10407248516E+00  0.26109362015E+02  0.26231432555E+02  0.51100000000E-03 0.  1.
        -12    1    3    3    0    0  0.11313230534E+02 -0.55204587260E+01 -0.17469904686E+02  0.21532817266E+02  0.00000000000E+00 0.  1.
</event>
<event>
 7    1  0.2688173E-013  0.7246107E+02  0.7816164E-02  0.1226709E+00
        -11   -1    0    0    0    0  0.00000000000E+00  0.00000000000E+00  0.45593999997E+02  0.45594000000E+02  0.51100000000E-03 0. -1.
         11   -1    0    0    0    0 -0.00000000000E+00 -0.00000000000E+00 -0.45593999997E+02  0.45594000000E+02  0.51100000000E-03 0.  1.
    9900012    2    1    2    0    0  0.10815795013E+02 -0.13549744412E+02  0.70795994826E+01  0.72461074886E+02  0.69999354635E+02 0.  0.
        -12    1    1    2    0    0 -0.10815795013E+02  0.13549744412E+02 -0.70795994826E+01  0.18726925114E+02  0.00000000000E+00 0.  1.
         11    1    3    3    0    0  0.43220574185E+01  0.21895457225E+02 -0.58741914383E+01  0.23078070820E+02  0.51100000000E-03 0. -1.
        -11    1    3    3    0    0  0.32881168007E+01  0.55278430202E+01  0.55774691224E+00  0.64559927533E+01  0.51100000000E-03 0.  1.
        -12    1    3    3    0    0  0.32056207935E+01 -0.40973044658E+02  0.12396044009E+02  0.42927011313E+02  0.00000000000E+00 0.  1.
</event>
<event>
 7    1  0.2688173E-013  0.7246160E+02  0.7816164E-02  0.1226708E+00
        -11   -1    0    0    0    0  0.00000000000E+00  0.00000000000E+00  0.45593999997E+02  0.45594000000E+02  0.51100000000E-03 0.  1.
         11   -1    0    0    0    0 -0.00000000000E+00 -0.00000000000E+00 -0.45593999997E+02  0.45594000000E+02  0.51100000000E-03 0. -1.
    9900012    2    1    2    0    0 -0.73816930664E+01 -0.13768597905E+02 -0.10325422477E+02  0.72461600717E+02  0.70000039631E+02 0.  0.
        -12    1    1    2    0    0  0.73816930664E+01  0.13768597905E+02  0.10325422477E+02  0.18726399283E+02  0.00000000000E+00 0.  1.
         11    1    3    3    0    0  0.92912714977E+01 -0.22764673921E+02 -0.30655289489E+01  0.24778126902E+02  0.51100000000E-03 0. -1.
        -11    1    3    3    0    0  0.50945739321E+01  0.63306614298E+01  0.14606443789E+02  0.16714668950E+02  0.51100000000E-03 0.  1.
         12    1    3    3    0    0 -0.21767538496E+02  0.26654145867E+01 -0.21866337317E+02  0.30968804865E+02  0.00000000000E+00 0. -1.
</event>
<event>
 7    1  0.2688173E-013  0.7246149E+02  0.7816164E-02  0.1226708E+00
        -11   -1    0    0    0    0  0.00000000000E+00  0.00000000000E+00  0.45593999997E+02  0.45594000000E+02  0.51100000000E-03 0.  1.
         11   -1    0    0    0    0 -0.00000000000E+00 -0.00000000000E+00 -0.45593999997E+02  0.45594000000E+02  0.51100000000E-03 0. -1.
    9900012    2    1    2    0    0 -0.72405495637E+01 -0.15397177009E+02 -0.78219846162E+01  0.72461493087E+02  0.69999899423E+02 0.  0.
        -12    1    1    2    0    0  0.72405495637E+01  0.15397177009E+02  0.78219846162E+01  0.18726506913E+02  0.00000000000E+00 0.  1.
         11    1    3    3    0    0  0.10478039929E+02 -0.78682626027E+01 -0.19411698578E+02  0.23420352668E+02  0.51100000000E-03 0. -1.
        -11    1    3    3    0    0  0.57449838351E+01 -0.17140645176E+02  0.14956273830E+02  0.23462665737E+02  0.51100000000E-03 0.  1.
         12    1    3    3    0    0 -0.23463573328E+02  0.96117307695E+01 -0.33665598686E+01  0.25578474682E+02  0.00000000000E+00 0. -1.
</event>
<event>
 7    1  0.2688173E-013  0.7246161E+02  0.7816164E-02  0.1226708E+00
        -11   -1    0    0    0    0  0.00000000000E+00  0.00000000000E+00  0.45593999997E+02  0.45594000000E+02  0.51100000000E-03 0.  1.
         11   -1    0    0    0    0 -0.00000000000E+00 -0.00000000000E+00 -0.45593999997E+02  0.45594000000E+02  0.51100000000E-03 0. -1.
    9900012    2    1    2    0    0 -0.11415225204E+02 -0.58512540685E+00 -0.14833334368E+02  0.72461613625E+02  0.70000056446E+02 0.  0.
        -12    1    1    2    0    0  0.11415225204E+02  0.58512540685E+00  0.14833334368E+02  0.18726386375E+02  0.00000000000E+00 0.  1.
         11    1    3    3    0    0 -0.81299707404E+01  0.47318931380E+01 -0.14744048274E+01  0.95216126137E+01  0.51100000000E-03 0. -1.
        -11    1    3    3    0    0 -0.16787115845E+02 -0.28368524544E+02 -0.14913833179E+02  0.36180144604E+02  0.51100000000E-03 0.  1.
         12    1    3    3    0    0  0.13501861382E+02  0.23051505999E+02  0.15549036378E+01  0.26759856407E+02  0.00000000000E+00 0. -1.
</event>
<event>
 7    1  0.2688173E-013  0.7246157E+02  0.7816164E-02  0.1226708E+00
        -11   -1    0    0    0    0  0.00000000000E+00  0.00000000000E+00  0.45593999997E+02  0.45594000000E+02  0.51100000000E-03 0. -1.
         11   -1    0    0    0    0 -0.00000000000E+00 -0.00000000000E+00 -0.45593999997E+02  0.45594000000E+02  0.51100000000E-03 0.  1.
    9900012    2    1    2    0    0 -0.32490354590E+01  0.22760173435E+01  0.18301443174E+02  0.72461566581E+02  0.69999995163E+02 0.  0.
        -12    1    1    2    0    0  0.32490354590E+01 -0.22760173435E+01 -0.18301443174E+02  0.18726433419E+02  0.00000000000E+00 0.  1.
         11    1    3    3    0    0 -0.81985088803E+01  0.81115821665E+01  0.37200598918E+01  0.12118257258E+02  0.51100000000E-03 0. -1.
        -11    1    3    3    0    0 -0.23766780671E+02  0.97404927997E+01  0.39433073767E+01  0.25986279779E+02  0.51100000000E-03 0.  1.
         12    1    3    3    0    0  0.28716254092E+02 -0.15576057623E+02  0.10638075905E+02  0.34357029544E+02  0.00000000000E+00 0. -1.
</event>
<event>
 7    1  0.2688173E-013  0.7246152E+02  0.7816164E-02  0.1226708E+00
        -11   -1    0    0    0    0  0.00000000000E+00  0.00000000000E+00  0.45593999997E+02  0.45594000000E+02  0.51100000000E-03 0.  1.
         11   -1    0    0    0    0 -0.00000000000E+00 -0.00000000000E+00 -0.45593999997E+02  0.45594000000E+02  0.51100000000E-03 0. -1.
    9900012    2    1    2    0    0  0.34167743953E+01 -0.14894218932E+02 -0.10824459216E+02  0.72461520828E+02  0.69999935561E+02 0.  0.
        -12    1    1    2    0    0 -0.34167743953E+01  0.14894218932E+02  0.10824459216E+02  0.18726479172E+02  0.00000000000E+00 0.  1.
         11    1    3    3    0    0 -0.10962358652E+02 -0.13706470645E+02  0.83777605801E+01  0.19448072330E+02  0.51100000000E-03 0. -1.
        -11    1    3    3    0    0 -0.10171165867E+02  0.15870715098E+02 -0.32491874362E+01  0.19128236512E+02  0.51100000000E-03 0.  1.
        -12    1    3    3    0    0  0.24550298914E+02 -0.17058463384E+02 -0.15953032360E+02  0.33885211985E+02  0.00000000000E+00 0.  1.
</event>
<event>
 7    1  0.2688173E-013  0.7246152E+02  0.7816164E-02  0.1226708E+00
        -11   -1    0    0    0    0  0.00000000000E+00  0.00000000000E+00  0.45593999997E+02  0.45594000000E+02  0.51100000000E-03 0. -1.
         11   -1    0    0    0    0 -0.00000000000E+00 -0.00000000000E+00 -0.45593999997E+02  0.45594000000E+02  0.51100000000E-03 0.  1.
    9900012    2    1    2    0    0 -0.82093043125E+01  0.55935810624E+01  0.15874511350E+02  0.72461523103E+02  0.69999938524E+02 0.  0.
        -12    1    1    2    0    0  0.82093043125E+01 -0.55935810624E+01 -0.15874511350E+02  0.18726476897E+02  0.00000000000E+00 0.  1.
         11    1    3    3    0    0 -0.13847908673E+02  0.23885439574E+01  0.12926626285E+02  0.19093647745E+02  0.51100000000E-03 0. -1.
        -11    1    3    3    0    0 -0.20336142593E+02  0.14322757956E+02 -0.67281011256E+00  0.24882780487E+02  0.51100000000E-03 0.  1.
         12    1    3    3    0    0  0.25974746953E+02 -0.11117720851E+02  0.36206951771E+01  0.28485094871E+02  0.00000000000E+00 0. -1.
</event>
<event>
 7    1  0.2688173E-013  0.7246172E+02  0.7816164E-02  0.1226708E+00
        -11   -1    0    0    0    0  0.00000000000E+00  0.00000000000E+00  0.45593999997E+02  0.45594000000E+02  0.51100000000E-03 0.  1.
         11   -1    0    0    0    0 -0.00000000000E+00 -0.00000000000E+00 -0.45593999997E+02  0.45594000000E+02  0.51100000000E-03 0. -1.
    9900012    2    1    2    0    0  0.12142555837E+02 -0.14250371547E+02 -0.39855244129E+00  0.72461719122E+02  0.70000193875E+02 0.  0.
        -12    1    1    2    0    0 -0.12142555837E+02  0.14250371547E+02  0.39855244129E+00  0.18726280878E+02  0.00000000000E+00 0.  1.
         11    1    3    3    0    0  0.18418134448E+02 -0.16931826982E+02 -0.17358628972E+02  0.30450557327E+02  0.51100000000E-03 0. -1.
        -11    1    3    3    0    0  0.54259549978E+01  0.17382218950E+02  0.26677885426E+01  0.18403793610E+02  0.51100000000E-03 0.  1.
        -12    1    3    3    0    0 -0.11701533608E+02 -0.14700763514E+02  0.14292287988E+02  0.23607368185E+02  0.00000000000E+00 0.  1.
</event>
<event>
 7    1  0.2688173E-013  0.7246140E+02  0.7816164E-02  0.1226708E+00
        -11   -1    0    0    0    0  0.00000000000E+00  0.00000000000E+00  0.45593999997E+02  0.45594000000E+02  0.51100000000E-03 0. -1.
         11   -1    0    0    0    0 -0.00000000000E+00 -0.00000000000E+00 -0.45593999997E+02  0.45594000000E+02  0.51100000000E-03 0.  1.
    9900012    2    1    2    0    0  0.28714238113E+01  0.83783565917E+01  0.16499810206E+02  0.72461396712E+02  0.69999773876E+02 0.  0.
        -12    1    1    2    0    0 -0.28714238113E+01 -0.83783565917E+01 -0.16499810206E+02  0.18726603288E+02  0.00000000000E+00 0.  1.
         11    1    3    3    0    0 -0.12114906048E+02 -0.11408230664E+02  0.43276379836E+01  0.17194392289E+02  0.51100000000E-03 0. -1.
        -11    1    3    3    0    0  0.25718327399E+02  0.63010797877E+01 -0.90001901328E+01  0.27966755146E+02  0.51100000000E-03 0.  1.
         12    1    3    3    0    0 -0.10731997540E+02  0.13485507468E+02  0.21172362355E+02  0.27300249277E+02  0.00000000000E+00 0. -1.
</event>
<event>
 7    1  0.2688173E-013  0.7246153E+02  0.7816164E-02  0.1226708E+00
        -11   -1    0    0    0    0  0.00000000000E+00  0.00000000000E+00  0.45593999997E+02  0.45594000000E+02  0.51100000000E-03 0.  1.
         11   -1    0    0    0    0 -0.00000000000E+00 -0.00000000000E+00 -0.45593999997E+02  0.45594000000E+02  0.51100000000E-03 0. -1.
    9900012    2    1    2    0    0  0.50041342841E+01 -0.51813025345E+00 -0.18038041606E+02  0.72461527725E+02  0.69999944545E+02 0.  0.
        -12    1    1    2    0    0 -0.50041342841E+01  0.51813025345E+00  0.18038041606E+02  0.18726472275E+02  0.00000000000E+00 0.  1.
         11    1    3    3    0    0  0.10728487624E+02  0.95079243618E+01 -0.17278572294E+02  0.22451060847E+02  0.51100000000E-03 0. -1.
        -11    1    3    3    0    0  0.20058749965E+02  0.31460437675E+01  0.39282946279E+01  0.20680486950E+02  0.51100000000E-03 0.  1.
        -12    1    3    3    0    0 -0.25783103304E+02 -0.13172098383E+02 -0.46877639397E+01  0.29329979928E+02  0.00000000000E+00 0.  1.
</event>
<event>
 7    1  0.2688173E-013  0.7246157E+02  0.7816164E-02  0.1226708E+00
        -11   -1    0    0    0    0  0.00000000000E+00  0.00000000000E+00  0.45593999997E+02  0.45594000000E+02  0.51100000000E-03 0. -1.
         11   -1    0    0    0    0 -0.00000000000E+00 -0.00000000000E+00 -0.45593999997E+02  0.45594000000E+02  0.51100000000E-03 0.  1.
    9900012    2    1    2    0    0 -0.12518151081E+02 -0.13610975627E+02 -0.29523373234E+01  0.72461573227E+02  0.70000003820E+02 0.  0.
        -12    1    1    2    0    0  0.12518151081E+02  0.13610975627E+02  0.29523373234E+01  0.18726426773E+02  0.00000000000E+00 0.  1.
         11    1    3    3    0    0  0.53610359028E+01  0.54078213338E+01 -0.99132510199E+01  0.12500311339E+02  0.51100000000E-03 0. -1.
        -11    1    3    3    0    0  0.52043009454E+01  0.14628629354E+02 -0.67281893441E+01  0.16921881610E+02  0.51100000000E-03 0.  1.
         12    1    3    3    0    0 -0.23083487930E+02 -0.33647426315E+02  0.13689103041E+02  0.43039380278E+02  0.00000000000E+00 0. -1.
</event>
<event>
 7    1  0.2688173E-013  0.7246163E+02  0.7816164E-02  0.1226708E+00
        -11   -1    0    0    0    0  0.00000000000E+00  0.00000000000E+00  0.45593999997E+02  0.45594000000E+02  0.51100000000E-03 0. -1.
         11   -1    0    0    0    0 -0.00000000000E+00 -0.00000000000E+00 -0.45593999997E+02  0.45594000000E+02  0.51100000000E-03 0.  1.
    9900012    2    1    2    0    0 -0.13996841953E+02  0.12801840112E+01 -0.12374429515E+02  0.72461629247E+02  0.70000076797E+02 0.  0.
        -12    1    1    2    0    0  0.13996841953E+02 -0.12801840112E+01  0.12374429515E+02  0.18726370753E+02  0.00000000000E+00 0.  1.
         11    1    3    3    0    0 -0.56225949136E+00  0.13676636672E+02 -0.12263975521E+02  0.18378564205E+02  0.51100000000E-03 0. -1.
        -11    1    3    3    0    0  0.15784991319E+02  0.86247046807E+01 -0.15864716470E+01  0.18057363438E+02  0.51100000000E-03 0.  1.
        -12    1    3    3    0    0 -0.29219573781E+02 -0.21021157342E+02  0.14760176532E+01  0.36025701604E+02  0.00000000000E+00 0.  1.
</event>
<event>
 7    1  0.2688173E-013  0.7246158E+02  0.7816164E-02  0.1226708E+00
        -11   -1    0    0    0    0  0.00000000000E+00  0.00000000000E+00  0.45593999997E+02  0.45594000000E+02  0.51100000000E-03 0.  1.
         11   -1    0    0    0    0 -0.00000000000E+00 -0.00000000000E+00 -0.45593999997E+02  0.45594000000E+02  0.51100000000E-03 0. -1.
    9900012    2    1    2    0    0  0.18256058829E+02 -0.37560058868E+01 -0.18131239383E+01  0.72461583295E+02  0.70000016936E+02 0.  0.
        -12    1    1    2    0    0 -0.18256058829E+02  0.37560058868E+01  0.18131239383E+01  0.18726416705E+02  0.00000000000E+00 0.  1.
         11    1    3    3    0    0  0.44000227526E+01 -0.58696601888E+01 -0.12514575583E+02  0.14506126748E+02  0.51100000000E-03 0. -1.
        -11    1    3    3    0    0  0.33719003294E+02  0.57315500342E+01 -0.17282587575E+01  0.34246295092E+02  0.51100000000E-03 0.  1.
        -12    1    3    3    0    0 -0.19862967218E+02 -0.36178957322E+01  0.12429710402E+02  0.23709161455E+02  0.00000000000E+00 0.  1.
</event>
<event>
 7    1  0.2688173E-013  0.7246147E+02  0.7816164E-02  0.1226708E+00
        -11   -1    0    0    0    0  0.00000000000E+00  0.00000000000E+00  0.45593999997E+02  0.45594000000E+02  0.51100000000E-03 0.  1.
         11   -1    0    0    0    0 -0.00000000000E+00 -0.00000000000E+00 -0.45593999997E+02  0.45594000000E+02  0.51100000000E-03 0. -1.
    9900012    2    1    2    0    0 -0.13839518100E+02  0.12501329798E+02 -0.16933672852E+01  0.72461468001E+02  0.69999866743E+02 0.  0.
        -12    1    1    2    0    0  0.13839518100E+02 -0.12501329798E+02  0.16933672852E+01  0.18726531999E+02  0.00000000000E+00 0.  1.
         11    1    3    3    0    0  0.16518008254E+02  0.73246347460E+01 -0.33124782666E+01  0.18370285337E+02  0.51100000000E-03 0. -1.
        -11    1    3    3    0    0  0.75595622925E+01 -0.88282455656E+01  0.65980602967E+01  0.13364853226E+02  0.51100000000E-03 0.  1.
         12    1    3    3    0    0 -0.37917088646E+02  0.14004940618E+02 -0.49789493153E+01  0.40726329437E+02  0.00000000000E+00 0. -1.
</event>
<event>
 7    1  0.2688173E-013  0.7246155E+02  0.7816164E-02  0.1226708E+00
        -11   -1    0    0    0    0  0.00000000000E+00  0.00000000000E+00  0.45593999997E+02  0.45594000000E+02  0.51100000000E-03 0. -1.
         11   -1    0    0    0    0 -0.00000000000E+00 -0.00000000000E+00 -0.45593999997E+02  0.45594000000E+02  0.51100000000E-03 0.  1.
    9900012    2    1    2    0    0 -0.72304130730E+01  0.11444017433E+02 -0.12939683412E+02  0.72461553059E+02  0.69999977548E+02 0.  0.
        -12    1    1    2    0    0  0.72304130730E+01 -0.11444017433E+02  0.12939683412E+02  0.18726446941E+02  0.00000000000E+00 0.  1.
         11    1    3    3    0    0  0.15132083832E+02 -0.99295000479E+01 -0.19453893302E+02  0.26571204285E+02  0.51100000000E-03 0.  1.
        -11    1    3    3    0    0  0.69566008578E+01  0.10689482119E+02 -0.33081827501E+01  0.13175864178E+02  0.51100000000E-03 0. -1.
        -12    1    3    3    0    0 -0.29319097763E+02  0.10684035362E+02  0.98223926400E+01  0.32714484596E+02  0.00000000000E+00 0.  1.
</event>
<event>
 7    1  0.2688173E-013  0.7246154E+02  0.7816164E-02  0.1226708E+00
        -11   -1    0    0    0    0  0.00000000000E+00  0.00000000000E+00  0.45593999997E+02  0.45594000000E+02  0.51100000000E-03 0.  1.
         11   -1    0    0    0    0 -0.00000000000E+00 -0.00000000000E+00 -0.45593999997E+02  0.45594000000E+02  0.51100000000E-03 0. -1.
    9900012    2    1    2    0    0 -0.51932330449E+01  0.17936223993E+02 -0.14150615150E+01  0.72461542789E+02  0.69999964169E+02 0.  0.
        -12    1    1    2    0    0  0.51932330449E+01 -0.17936223993E+02  0.14150615150E+01  0.18726457211E+02  0.00000000000E+00 0.  1.
         11    1    3    3    0    0  0.15963152969E+02 -0.35008309872E+01  0.41990788162E+01  0.16873361653E+02  0.51100000000E-03 0. -1.
        -11    1    3    3    0    0  0.53413077623E+01  0.27518872850E+02 -0.43884835695E+01  0.28373873896E+02  0.51100000000E-03 0.  1.
        -12    1    3    3    0    0 -0.26497693776E+02 -0.60818178698E+01 -0.12256567617E+01  0.27214307240E+02  0.00000000000E+00 0.  1.
</event>
<event>
 7    1  0.2688173E-013  0.7246162E+02  0.7816164E-02  0.1226708E+00
        -11   -1    0    0    0    0  0.00000000000E+00  0.00000000000E+00  0.45593999997E+02  0.45594000000E+02  0.51100000000E-03 0.  1.
         11   -1    0    0    0    0 -0.00000000000E+00 -0.00000000000E+00 -0.45593999997E+02  0.45594000000E+02  0.51100000000E-03 0. -1.
    9900012    2    1    2    0    0 -0.84095351086E+01 -0.12024799840E+02 -0.11634481708E+02  0.72461621371E+02  0.70000066537E+02 0.  0.
        -12    1    1    2    0    0  0.84095351086E+01  0.12024799840E+02  0.11634481708E+02  0.18726378629E+02  0.00000000000E+00 0.  1.
         11    1    3    3    0    0 -0.22776582883E+02 -0.11088813217E+02 -0.16605649136E+02  0.30289966819E+02  0.51100000000E-03 0. -1.
        -11    1    3    3    0    0 -0.74344572860E+01 -0.14272746035E+02  0.40646058573E+01  0.16598296767E+02  0.51100000000E-03 0.  1.
         12    1    3    3    0    0  0.21801505061E+02  0.13336759412E+02  0.90656157029E+00  0.25573357785E+02  0.00000000000E+00 0. -1.
</event>
<event>
 7    1  0.2688173E-013  0.7246160E+02  0.7816164E-02  0.1226708E+00
        -11   -1    0    0    0    0  0.00000000000E+00  0.00000000000E+00  0.45593999997E+02  0.45594000000E+02  0.51100000000E-03 0. -1.
         11   -1    0    0    0    0 -0.00000000000E+00 -0.00000000000E+00 -0.45593999997E+02  0.45594000000E+02  0.51100000000E-03 0.  1.
    9900012    2    1    2    0    0 -0.12494630566E+02  0.83707742669E+01  0.11157618591E+02  0.72461598653E+02  0.70000036942E+02 0.  0.
        -12    1    1    2    0    0  0.12494630566E+02 -0.83707742669E+01 -0.11157618591E+02  0.18726401347E+02  0.00000000000E+00 0.  1.
         11    1    3    3    0    0  0.17565224892E+01 -0.16216260159E+02  0.64704543047E+01  0.17547627873E+02  0.51100000000E-03 0. -1.
        -11    1    3    3    0    0  0.33193102168E+01 -0.98608913153E+01  0.11652366186E+02  0.15621543965E+02  0.51100000000E-03 0.  1.
        -12    1    3    3    0    0 -0.17570463272E+02  0.34447925741E+02 -0.69652018999E+01  0.39292426815E+02  0.00000000000E+00 0.  1.
</event>
<event>
 7    1  0.2688173E-013  0.7246204E+02  0.7816164E-02  0.1226707E+00
        -11   -1    0    0    0    0  0.00000000000E+00  0.00000000000E+00  0.45593999997E+02  0.45594000000E+02  0.51100000000E-03 0.  1.
         11   -1    0    0    0    0 -0.00000000000E+00 -0.00000000000E+00 -0.45593999997E+02  0.45594000000E+02  0.51100000000E-03 0. -1.
    9900012    2    1    2    0    0 -0.15193054068E+02  0.10713650766E+02 -0.22472767592E+01  0.72462043215E+02  0.70000616065E+02 0.  0.
        -12    1    1    2    0    0  0.15193054068E+02 -0.10713650766E+02  0.22472767592E+01  0.18725956785E+02  0.00000000000E+00 0.  1.
         11    1    3    3    0    0 -0.97218858040E+01  0.10407008305E+02 -0.61252425665E+00  0.14254685955E+02  0.51100000000E-03 0. -1.
        -11    1    3    3    0    0  0.52190679270E+01  0.26571105114E+02 -0.96380029675E+01  0.28742884310E+02  0.51100000000E-03 0.  1.
         12    1    3    3    0    0 -0.10690236191E+02 -0.26264462652E+02  0.80032504649E+01  0.29464472951E+02  0.00000000000E+00 0. -1.
</event>
<event>
 7    1  0.2688173E-013  0.7246161E+02  0.7816164E-02  0.1226708E+00
        -11   -1    0    0    0    0  0.00000000000E+00  0.00000000000E+00  0.45593999997E+02  0.45594000000E+02  0.51100000000E-03 0.  1.
         11   -1    0    0    0    0 -0.00000000000E+00 -0.00000000000E+00 -0.45593999997E+02  0.45594000000E+02  0.51100000000E-03 0. -1.
    9900012    2    1    2    0    0  0.17430050908E+02  0.14835970300E+01  0.66835691287E+01  0.72461606030E+02  0.70000046553E+02 0.  0.
        -12    1    1    2    0    0 -0.17430050908E+02 -0.14835970300E+01 -0.66835691287E+01  0.18726393970E+02  0.00000000000E+00 0.  1.
         11    1    3    3    0    0  0.13222933427E+02  0.28934141495E+01 -0.35865283455E+01  0.14002892547E+02  0.51100000000E-03 0. -1.
        -11    1    3    3    0    0  0.27384371587E+02 -0.86447321076E+00 -0.84382652611E+01  0.28668021244E+02  0.51100000000E-03 0.  1.
        -12    1    3    3    0    0 -0.23177254106E+02 -0.54534390872E+00  0.18708362735E+02  0.29790692239E+02  0.00000000000E+00 0.  1.
</event>
<event>
 7    1  0.2688173E-013  0.7246141E+02  0.7816164E-02  0.1226708E+00
        -11   -1    0    0    0    0  0.00000000000E+00  0.00000000000E+00  0.45593999997E+02  0.45594000000E+02  0.51100000000E-03 0.  1.
         11   -1    0    0    0    0 -0.00000000000E+00 -0.00000000000E+00 -0.45593999997E+02  0.45594000000E+02  0.51100000000E-03 0. -1.
    9900012    2    1    2    0    0 -0.16684830431E+02 -0.83501409374E+01 -0.16052746110E+01  0.72461405896E+02  0.69999785840E+02 0.  0.
        -12    1    1    2    0    0  0.16684830431E+02  0.83501409374E+01  0.16052746110E+01  0.18726594104E+02  0.00000000000E+00 0.  1.
         11    1    3    3    0    0  0.14169881131E+02 -0.90770578753E+01  0.35446792412E+01  0.17197187623E+02  0.51100000000E-03 0. -1.
        -11    1    3    3    0    0 -0.13127342538E+02 -0.57585143087E+01  0.19509256193E+02  0.24209475141E+02  0.51100000000E-03 0.  1.
        -12    1    3    3    0    0 -0.17727369024E+02  0.64854312467E+01 -0.24659210045E+02  0.31054743132E+02  0.00000000000E+00 0.  1.
</event>
<event>
 7    1  0.2688173E-013  0.7246153E+02  0.7816164E-02  0.1226708E+00
        -11   -1    0    0    0    0  0.00000000000E+00  0.00000000000E+00  0.45593999997E+02  0.45594000000E+02  0.51100000000E-03 0. -1.
         11   -1    0    0    0    0 -0.00000000000E+00 -0.00000000000E+00 -0.45593999997E+02  0.45594000000E+02  0.51100000000E-03 0.  1.
    9900012    2    1    2    0    0  0.58125094505E+01  0.17358137213E+02  0.39484644655E+01  0.72461533028E+02  0.69999951454E+02 0.  0.
        -12    1    1    2    0    0 -0.58125094505E+01 -0.17358137213E+02 -0.39484644655E+01  0.18726466972E+02  0.00000000000E+00 0.  1.
         11    1    3    3    0    0  0.96610976680E+01 -0.13400314333E+01  0.79841201899E+00  0.97862124648E+01  0.51100000000E-03 0. -1.
        -11    1    3    3    0    0  0.78781693727E+01 -0.11169900534E+02 -0.19201876292E+02  0.23569986932E+02  0.51100000000E-03 0.  1.
         12    1    3    3    0    0 -0.11726757590E+02  0.29868069180E+02  0.22351928738E+02  0.39105333631E+02  0.00000000000E+00 0. -1.
</event>
<event>
 7    1  0.2688173E-013  0.7246156E+02  0.7816164E-02  0.1226708E+00
        -11   -1    0    0    0    0  0.00000000000E+00  0.00000000000E+00  0.45593999997E+02  0.45594000000E+02  0.51100000000E-03 0.  1.
         11   -1    0    0    0    0 -0.00000000000E+00 -0.00000000000E+00 -0.45593999997E+02  0.45594000000E+02  0.51100000000E-03 0. -1.
    9900012    2    1    2    0    0 -0.12211353084E+01  0.16750350206E+02 -0.82833628029E+01  0.72461561396E+02  0.69999988409E+02 0.  0.
        -12    1    1    2    0    0  0.12211353084E+01 -0.16750350206E+02  0.82833628029E+01  0.18726438604E+02  0.00000000000E+00 0.  1.
         11    1    3    3    0    0 -0.19037968397E+02  0.18977322682E+02 -0.14412369638E+02  0.30500810083E+02  0.51100000000E-03 0. -1.
        -11    1    3    3    0    0 -0.41326923273E+01 -0.14929331915E+02 -0.12717795999E+01  0.15542892939E+02  0.51100000000E-03 0.  1.
        -12    1    3    3    0    0  0.21949525416E+02  0.12702359438E+02  0.74007864349E+01  0.26417858375E+02  0.00000000000E+00 0.  1.
</event>
<event>
 7    1  0.2688173E-013  0.7246148E+02  0.7816164E-02  0.1226708E+00
        -11   -1    0    0    0    0  0.00000000000E+00  0.00000000000E+00  0.45593999997E+02  0.45594000000E+02  0.51100000000E-03 0.  1.
         11   -1    0    0    0    0 -0.00000000000E+00 -0.00000000000E+00 -0.45593999997E+02  0.45594000000E+02  0.51100000000E-03 0. -1.
    9900012    2    1    2    0    0 -0.72446785537E+01 -0.96121804000E+01 -0.14345844401E+02  0.72461477873E+02  0.69999879604E+02 0.  0.
        -12    1    1    2    0    0  0.72446785537E+01  0.96121804000E+01  0.14345844401E+02  0.18726522127E+02  0.00000000000E+00 0.  1.
         11    1    3    3    0    0  0.14436969927E+02  0.35332829691E+01  0.45543419446E+01  0.15545167095E+02  0.51100000000E-03 0. -1.
        -11    1    3    3    0    0 -0.25633720672E+02 -0.19290421106E+02  0.45061533072E+01  0.32396194218E+02  0.51100000000E-03 0.  1.
         12    1    3    3    0    0  0.39520721912E+01  0.61449577373E+01 -0.23406339653E+02  0.24520116560E+02  0.00000000000E+00 0. -1.
</event>
<event>
 7    1  0.2688173E-013  0.7246166E+02  0.7816164E-02  0.1226708E+00
        -11   -1    0    0    0    0  0.00000000000E+00  0.00000000000E+00  0.45593999997E+02  0.45594000000E+02  0.51100000000E-03 0.  1.
         11   -1    0    0    0    0 -0.00000000000E+00 -0.00000000000E+00 -0.45593999997E+02  0.45594000000E+02  0.51100000000E-03 0. -1.
    9900012    2    1    2    0    0 -0.90451024581E+01 -0.10375282560E+02 -0.12697062127E+02  0.72461661507E+02  0.70000118822E+02 0.  0.
        -12    1    1    2    0    0  0.90451024581E+01  0.10375282560E+02  0.12697062127E+02  0.18726338493E+02  0.00000000000E+00 0.  1.
         11    1    3    3    0    0  0.10263728255E+02 -0.11411901775E+02  0.15856762766E+02  0.22068360734E+02  0.51100000000E-03 0. -1.
        -11    1    3    3    0    0 -0.16346537542E+02  0.10116868557E+02  0.10839805525E+01  0.19254488648E+02  0.51100000000E-03 0.  1.
         12    1    3    3    0    0 -0.29622931710E+01 -0.90802493414E+01 -0.29637805446E+02  0.31138812125E+02  0.00000000000E+00 0. -1.
</event>
<event>
 7    1  0.2688173E-013  0.7246158E+02  0.7816164E-02  0.1226708E+00
        -11   -1    0    0    0    0  0.00000000000E+00  0.00000000000E+00  0.45593999997E+02  0.45594000000E+02  0.51100000000E-03 0.  1.
         11   -1    0    0    0    0 -0.00000000000E+00 -0.00000000000E+00 -0.45593999997E+02  0.45594000000E+02  0.51100000000E-03 0. -1.
    9900012    2    1    2    0    0 -0.86918997131E+00 -0.13244138506E+01 -0.18659298551E+02  0.72461575203E+02  0.70000006394E+02 0.  0.
        -12    1    1    2    0    0  0.86918997131E+00  0.13244138506E+01  0.18659298551E+02  0.18726424797E+02  0.00000000000E+00 0.  1.
         11    1    3    3    0    0  0.57415699577E-01  0.10185533664E+02 -0.14367949788E+01  0.10286533559E+02  0.51100000000E-03 0. -1.
        -11    1    3    3    0    0  0.90605739860E+01  0.48722990733E+01  0.18760711339E+02  0.21396205024E+02  0.51100000000E-03 0.  1.
         12    1    3    3    0    0 -0.99871796569E+01 -0.16382246588E+02 -0.35983214911E+02  0.40778836620E+02  0.00000000000E+00 0. -1.
</event>
<event>
 7    1  0.2688173E-013  0.7246202E+02  0.7816164E-02  0.1226707E+00
        -11   -1    0    0    0    0  0.00000000000E+00  0.00000000000E+00  0.45593999997E+02  0.45594000000E+02  0.51100000000E-03 0. -1.
         11   -1    0    0    0    0 -0.00000000000E+00 -0.00000000000E+00 -0.45593999997E+02  0.45594000000E+02  0.51100000000E-03 0.  1.
    9900012    2    1    2    0    0 -0.59690245137E+01  0.13186105424E+02  0.11881065887E+02  0.72462019211E+02  0.70000584795E+02 0.  0.
        -12    1    1    2    0    0  0.59690245137E+01 -0.13186105424E+02 -0.11881065887E+02  0.18725980789E+02  0.00000000000E+00 0.  1.
         11    1    3    3    0    0 -0.24034412761E+01 -0.49728652597E+00  0.34845897685E+02  0.34932225946E+02  0.51100000000E-03 0. -1.
        -11    1    3    3    0    0  0.97429508485E+01  0.53524755986E+01 -0.19322584731E+01  0.11283071804E+02  0.51100000000E-03 0.  1.
        -12    1    3    3    0    0 -0.13308534086E+02  0.83309163515E+01 -0.21032573325E+02  0.26246721461E+02  0.00000000000E+00 0.  1.
</event>
<event>
 7    1  0.2688173E-013  0.7246147E+02  0.7816164E-02  0.1226708E+00
        -11   -1    0    0    0    0  0.00000000000E+00  0.00000000000E+00  0.45593999997E+02  0.45594000000E+02  0.51100000000E-03 0.  1.
         11   -1    0    0    0    0 -0.00000000000E+00 -0.00000000000E+00 -0.45593999997E+02  0.45594000000E+02  0.51100000000E-03 0. -1.
    9900012    2    1    2    0    0 -0.16785995497E+02 -0.53157162653E+01 -0.63762285019E+01  0.72461474051E+02  0.69999874625E+02 0.  0.
        -12    1    1    2    0    0  0.16785995497E+02  0.53157162653E+01  0.63762285019E+01  0.18726525949E+02  0.00000000000E+00 0.  1.
         11    1    3    3    0    0 -0.21942285598E+02  0.10417151718E+02 -0.10500963401E+02  0.26462259536E+02  0.51100000000E-03 0. -1.
        -11    1    3    3    0    0 -0.13411130201E+02 -0.20241202931E+02 -0.50549458878E+01  0.24801556152E+02  0.51100000000E-03 0.  1.
        -12    1    3    3    0    0  0.18567420303E+02  0.45083349483E+01  0.91796807865E+01  0.21197658362E+02  0.00000000000E+00 0.  1.
</event>
<event>
 7    1  0.2688173E-013  0.7246150E+02  0.7816164E-02  0.1226708E+00
        -11   -1    0    0    0    0  0.00000000000E+00  0.00000000000E+00  0.45593999997E+02  0.45594000000E+02  0.51100000000E-03 0.  1.
         11   -1    0    0    0    0 -0.00000000000E+00 -0.00000000000E+00 -0.45593999997E+02  0.45594000000E+02  0.51100000000E-03 0. -1.
    9900012    2    1    2    0    0  0.94736243714E+01  0.13478050894E+02 -0.89036172371E+01  0.72461499672E+02  0.69999908001E+02 0.  0.
        -12    1    1    2    0    0 -0.94736243714E+01 -0.13478050894E+02  0.89036172371E+01  0.18726500328E+02  0.00000000000E+00 0.  1.
         11    1    3    3    0    0  0.16461401310E+02 -0.16917429033E+01 -0.67870380828E+01  0.17885849528E+02  0.51100000000E-03 0. -1.
        -11    1    3    3    0    0  0.14782046458E+02 -0.70417029491E-01 -0.18251375038E+02  0.23486731298E+02  0.51100000000E-03 0.  1.
        -12    1    3    3    0    0 -0.21769823397E+02  0.15240210827E+02  0.16134795884E+02  0.31088918845E+02  0.00000000000E+00 0.  1.
</event>
<event>
 7    1  0.2688173E-013  0.7246154E+02  0.7816164E-02  0.1226708E+00
        -11   -1    0    0    0    0  0.00000000000E+00  0.00000000000E+00  0.45593999997E+02  0.45594000000E+02  0.51100000000E-03 0. -1.
         11   -1    0    0    0    0 -0.00000000000E+00 -0.00000000000E+00 -0.45593999997E+02  0.45594000000E+02  0.51100000000E-03 0.  1.
    9900012    2    1    2    0    0 -0.14270833214E+02  0.11573684182E+02  0.36157301379E+01  0.72461538759E+02  0.69999958919E+02 0.  0.
        -12    1    1    2    0    0  0.14270833214E+02 -0.11573684182E+02 -0.36157301379E+01  0.18726461241E+02  0.00000000000E+00 0.  1.
         11    1    3    3    0    0 -0.26689120191E+02 -0.10822906181E+02  0.16889531885E+02  0.33387134084E+02  0.51100000000E-03 0. -1.
        -11    1    3    3    0    0 -0.36971871308E+01 -0.40680966161E+01 -0.36995291052E+00  0.55095796732E+01  0.51100000000E-03 0.  1.
        -12    1    3    3    0    0  0.16115474108E+02  0.26464686979E+02 -0.12903848836E+02  0.33564825002E+02  0.00000000000E+00 0.  1.
</event>
<event>
 7    1  0.2688173E-013  0.7246190E+02  0.7816164E-02  0.1226707E+00
        -11   -1    0    0    0    0  0.00000000000E+00  0.00000000000E+00  0.45593999997E+02  0.45594000000E+02  0.51100000000E-03 0.  1.
         11   -1    0    0    0    0 -0.00000000000E+00 -0.00000000000E+00 -0.45593999997E+02  0.45594000000E+02  0.51100000000E-03 0. -1.
    9900012    2    1    2    0    0  0.11431972968E+02 -0.99925785511E+01 -0.10960171606E+02  0.72461895395E+02  0.70000423503E+02 0.  0.
        -12    1    1    2    0    0 -0.11431972968E+02  0.99925785511E+01  0.10960171606E+02  0.18726104605E+02  0.00000000000E+00 0.  1.
         11    1    3    3    0    0 -0.36663702301E+01  0.35136229816E+01 -0.15518634755E+02  0.16328375364E+02  0.51100000000E-03 0. -1.
        -11    1    3    3    0    0  0.18345015359E+02 -0.25470338069E+02 -0.13549419883E+02  0.34188660244E+02  0.51100000000E-03 0.  1.
        -12    1    3    3    0    0 -0.32466721610E+01  0.11964136536E+02  0.18107883031E+02  0.21944859787E+02  0.00000000000E+00 0.  1.
</event>
<event>
 8    1  0.2688173E-013  0.7246157E+02  0.7816164E-02  0.1226708E+00
        -11   -1    0    0    0    0  0.00000000000E+00  0.00000000000E+00  0.45593999997E+02  0.45594000000E+02  0.51100000000E-03 0.  1.
         11   -1    0    0    0    0 -0.00000000000E+00 -0.00000000000E+00 -0.45593999997E+02  0.45594000000E+02  0.51100000000E-03 0. -1.
    9900012    2    1    2    0    0  0.44863069362E+01 -0.12935050828E+02 -0.12776418219E+02  0.72461565412E+02  0.69999993640E+02 0.  0.
         23    2    3    3    0    0  0.59031651085E+01 -0.41379135301E+01 -0.22140259194E+02  0.59535675519E+02  0.54793575314E+02 0.  0.
        -12    1    1    2    0    0 -0.44863069362E+01  0.12935050828E+02  0.12776418219E+02  0.18726434588E+02  0.00000000000E+00 0.  1.
         11    1    4    4    0    0 -0.18039865329E+02 -0.75338568600E+01 -0.28472153873E+02  0.34537795047E+02  0.51100000000E-03 0. -1.
        -11    1    4    4    0    0  0.23943030437E+02  0.33959433299E+01  0.63318946790E+01  0.24997880472E+02  0.51100000000E-03 0.  1.
         12    1    3    3    0    0 -0.14168581724E+01 -0.87971372982E+01  0.93638409751E+01  0.12925889893E+02  0.00000000000E+00 0. -1.
</event>
<event>
 7    1  0.2688173E-013  0.7246158E+02  0.7816164E-02  0.1226708E+00
        -11   -1    0    0    0    0  0.00000000000E+00  0.00000000000E+00  0.45593999997E+02  0.45594000000E+02  0.51100000000E-03 0.  1.
         11   -1    0    0    0    0 -0.00000000000E+00 -0.00000000000E+00 -0.45593999997E+02  0.45594000000E+02  0.51100000000E-03 0. -1.
    9900012    2    1    2    0    0 -0.87884203905E+01  0.10818575940E+02 -0.12506036801E+02  0.72461578164E+02  0.70000010251E+02 0.  0.
        -12    1    1    2    0    0  0.87884203905E+01 -0.10818575940E+02  0.12506036801E+02  0.18726421836E+02  0.00000000000E+00 0.  1.
         11    1    3    3    0    0 -0.22443222218E+02 -0.11022710976E+02 -0.19350563664E+02  0.31617126612E+02  0.51100000000E-03 0. -1.
        -11    1    3    3    0    0 -0.89241515555E+01  0.44088490898E+01  0.72531545451E+01  0.12316114744E+02  0.51100000000E-03 0.  1.
        -12    1    3    3    0    0  0.22578953383E+02  0.17432437826E+02 -0.40862768142E+00  0.28528336808E+02  0.00000000000E+00 0.  1.
</event>
<event>
 7    1  0.2688173E-013  0.7246164E+02  0.7816164E-02  0.1226708E+00
        -11   -1    0    0    0    0  0.00000000000E+00  0.00000000000E+00  0.45593999997E+02  0.45594000000E+02  0.51100000000E-03 0.  1.
         11   -1    0    0    0    0 -0.00000000000E+00 -0.00000000000E+00 -0.45593999997E+02  0.45594000000E+02  0.51100000000E-03 0. -1.
    9900012    2    1    2    0    0 -0.12044397908E+02 -0.11638594831E+02 -0.83756930704E+01  0.72461637699E+02  0.70000087807E+02 0.  0.
        -12    1    1    2    0    0  0.12044397908E+02  0.11638594831E+02  0.83756930704E+01  0.18726362301E+02  0.00000000000E+00 0.  1.
         11    1    3    3    0    0 -0.22968907685E+01  0.55237413355E+01  0.47907553767E+01  0.76641217948E+01  0.51100000000E-03 0. -1.
        -11    1    3    3    0    0 -0.15328184207E+01 -0.17817453459E+02  0.22186662340E+02  0.28496651841E+02  0.51100000000E-03 0.  1.
         12    1    3    3    0    0 -0.82146887193E+01  0.65511729194E+00 -0.35353110787E+02  0.36300864064E+02  0.00000000000E+00 0. -1.
</event>
<event>
 7    1  0.2688173E-013  0.7246155E+02  0.7816164E-02  0.1226708E+00
        -11   -1    0    0    0    0  0.00000000000E+00  0.00000000000E+00  0.45593999997E+02  0.45594000000E+02  0.51100000000E-03 0.  1.
         11   -1    0    0    0    0 -0.00000000000E+00 -0.00000000000E+00 -0.45593999997E+02  0.45594000000E+02  0.51100000000E-03 0. -1.
    9900012    2    1    2    0    0 -0.13805268285E+02  0.77263799934E+01 -0.10019861810E+02  0.72461547829E+02  0.69999970735E+02 0.  0.
        -12    1    1    2    0    0  0.13805268285E+02 -0.77263799934E+01  0.10019861810E+02  0.18726452171E+02  0.00000000000E+00 0.  1.
         11    1    3    3    0    0  0.94237484672E+01 -0.11775293665E+02  0.13968727271E+02  0.20556991947E+02  0.51100000000E-03 0. -1.
        -11    1    3    3    0    0  0.63999299976E+01  0.26013576670E+01  0.38209944636E+01  0.78946921813E+01  0.51100000000E-03 0.  1.
        -12    1    3    3    0    0 -0.29628946749E+02  0.16900315991E+02 -0.27809583545E+02  0.44009863701E+02  0.00000000000E+00 0.  1.
</event>
<event>
 7    1  0.2688173E-013  0.7246157E+02  0.7816164E-02  0.1226708E+00
        -11   -1    0    0    0    0  0.00000000000E+00  0.00000000000E+00  0.45593999997E+02  0.45594000000E+02  0.51100000000E-03 0. -1.
         11   -1    0    0    0    0 -0.00000000000E+00 -0.00000000000E+00 -0.45593999997E+02  0.45594000000E+02  0.51100000000E-03 0.  1.
    9900012    2    1    2    0    0  0.90564708122E+01  0.15602482453E+02 -0.50221630476E+01  0.72461568307E+02  0.69999997411E+02 0.  0.
        -12    1    1    2    0    0 -0.90564708122E+01 -0.15602482453E+02  0.50221630476E+01  0.18726431693E+02  0.00000000000E+00 0.  1.
         11    1    3    3    0    0  0.10889563888E+02 -0.10767990852E+02  0.15350336174E+02  0.21683289639E+02  0.51100000000E-03 0. -1.
        -11    1    3    3    0    0  0.16275100752E+02  0.27254658038E+01 -0.96991028334E+01  0.19141046585E+02  0.51100000000E-03 0.  1.
         12    1    3    3    0    0 -0.18108193827E+02  0.23645007502E+02 -0.10673396388E+02  0.31637232083E+02  0.00000000000E+00 0. -1.
</event>
<event>
 7    1  0.2688173E-013  0.7246180E+02  0.7816164E-02  0.1226707E+00
        -11   -1    0    0    0    0  0.00000000000E+00  0.00000000000E+00  0.45593999997E+02  0.45594000000E+02  0.51100000000E-03 0.  1.
         11   -1    0    0    0    0 -0.00000000000E+00 -0.00000000000E+00 -0.45593999997E+02  0.45594000000E+02  0.51100000000E-03 0. -1.
    9900012    2    1    2    0    0  0.22894592267E+01  0.18377442363E+02 -0.27746119691E+01  0.72461802230E+02  0.70000302138E+02 0.  0.
        -12    1    1    2    0    0 -0.22894592267E+01 -0.18377442363E+02  0.27746119691E+01  0.18726197770E+02  0.00000000000E+00 0.  1.
         11    1    3    3    0    0  0.13900640212E+02  0.12681680094E+02 -0.12694758546E+02  0.22698231277E+02  0.51100000000E-03 0. -1.
        -11    1    3    3    0    0  0.45390888599E+01 -0.18706713623E+02  0.64214431803E+01  0.20292348189E+02  0.51100000000E-03 0.  1.
         12    1    3    3    0    0 -0.16150269845E+02  0.24402475892E+02  0.34987033961E+01  0.29471222764E+02  0.00000000000E+00 0. -1.
</event>
<event>
 7    1  0.2688173E-013  0.7246159E+02  0.7816164E-02  0.1226708E+00
        -11   -1    0    0    0    0  0.00000000000E+00  0.00000000000E+00  0.45593999997E+02  0.45594000000E+02  0.51100000000E-03 0.  1.
         11   -1    0    0    0    0 -0.00000000000E+00 -0.00000000000E+00 -0.45593999997E+02  0.45594000000E+02  0.51100000000E-03 0. -1.
    9900012    2    1    2    0    0 -0.18132465128E+02 -0.45655199551E+01  0.10237750226E+01  0.72461591392E+02  0.70000027483E+02 0.  0.
        -12    1    1    2    0    0  0.18132465128E+02  0.45655199551E+01 -0.10237750226E+01  0.18726408608E+02  0.00000000000E+00 0.  1.
         11    1    3    3    0    0  0.19760760375E+02  0.37334571744E+01  0.48128612360E+01  0.20678249118E+02  0.51100000000E-03 0. -1.
        -11    1    3    3    0    0 -0.24530459612E+01 -0.10002984977E+02 -0.11537726805E+02  0.15465971778E+02  0.51100000000E-03 0.  1.
        -12    1    3    3    0    0 -0.35440179541E+02  0.17040078479E+01  0.77486405918E+01  0.36317370495E+02  0.00000000000E+00 0.  1.
</event>
<event>
 7    1  0.2688173E-013  0.7246157E+02  0.7816164E-02  0.1226708E+00
        -11   -1    0    0    0    0  0.00000000000E+00  0.00000000000E+00  0.45593999997E+02  0.45594000000E+02  0.51100000000E-03 0.  1.
         11   -1    0    0    0    0 -0.00000000000E+00 -0.00000000000E+00 -0.45593999997E+02  0.45594000000E+02  0.51100000000E-03 0. -1.
    9900012    2    1    2    0    0  0.65674552923E+01  0.13984111335E+02  0.10582636262E+02  0.72461574044E+02  0.70000004884E+02 0.  0.
        -12    1    1    2    0    0 -0.65674552923E+01 -0.13984111335E+02 -0.10582636262E+02  0.18726425956E+02  0.00000000000E+00 0.  1.
         11    1    3    3    0    0 -0.84932754510E+01  0.23196830797E+02  0.75242343816E+01  0.25823299367E+02  0.51100000000E-03 0. -1.
        -11    1    3    3    0    0 -0.64060772684E+01  0.17853680936E+01  0.17364665697E+02  0.18594541678E+02  0.51100000000E-03 0.  1.
        -12    1    3    3    0    0  0.21466808012E+02 -0.10998087555E+02 -0.14306263817E+02  0.28043732998E+02  0.00000000000E+00 0.  1.
</event>
<event>
 7    1  0.2688173E-013  0.7246171E+02  0.7816164E-02  0.1226708E+00
        -11   -1    0    0    0    0  0.00000000000E+00  0.00000000000E+00  0.45593999997E+02  0.45594000000E+02  0.51100000000E-03 0.  1.
         11   -1    0    0    0    0 -0.00000000000E+00 -0.00000000000E+00 -0.45593999997E+02  0.45594000000E+02  0.51100000000E-03 0. -1.
    9900012    2    1    2    0    0 -0.18262477119E+02 -0.13759537240E+01 -0.39067275472E+01  0.72461712613E+02  0.70000185396E+02 0.  0.
        -12    1    1    2    0    0  0.18262477119E+02  0.13759537240E+01  0.39067275472E+01  0.18726287387E+02  0.00000000000E+00 0.  1.
         11    1    3    3    0    0  0.90390113870E+01 -0.63324092937E+01 -0.19875312486E+02  0.22733921373E+02  0.51100000000E-03 0. -1.
        -11    1    3    3    0    0 -0.28211455843E+02  0.69569760258E+01 -0.42713676559E+01  0.29368866817E+02  0.51100000000E-03 0.  1.
        -12    1    3    3    0    0  0.90996733743E+00 -0.20005204561E+01  0.20239952594E+02  0.20358924423E+02  0.00000000000E+00 0.  1.
</event>
<event>
 7    1  0.2688173E-013  0.7246155E+02  0.7816164E-02  0.1226708E+00
        -11   -1    0    0    0    0  0.00000000000E+00  0.00000000000E+00  0.45593999997E+02  0.45594000000E+02  0.51100000000E-03 0.  1.
         11   -1    0    0    0    0 -0.00000000000E+00 -0.00000000000E+00 -0.45593999997E+02  0.45594000000E+02  0.51100000000E-03 0. -1.
    9900012    2    1    2    0    0 -0.58933954748E+01 -0.15862766017E+01  0.17703993448E+02  0.72461554323E+02  0.69999979195E+02 0.  0.
        -12    1    1    2    0    0  0.58933954748E+01  0.15862766017E+01 -0.17703993448E+02  0.18726445677E+02  0.00000000000E+00 0.  1.
         11    1    3    3    0    0 -0.17819970517E+00 -0.16339854858E+02 -0.55930232928E+01  0.17271494485E+02  0.51100000000E-03 0. -1.
        -11    1    3    3    0    0 -0.21717761985E+02 -0.42336862610E+01  0.15479346546E+01  0.22180653438E+02  0.51100000000E-03 0.  1.
        -12    1    3    3    0    0  0.16002566215E+02  0.18987264518E+02  0.21749082086E+02  0.33009406400E+02  0.00000000000E+00 0.  1.
</event>
<event>
 7    1  0.2688173E-013  0.7246158E+02  0.7816164E-02  0.1226708E+00
        -11   -1    0    0    0    0  0.00000000000E+00  0.00000000000E+00  0.45593999997E+02  0.45594000000E+02  0.51100000000E-03 0.  1.
         11   -1    0    0    0    0 -0.00000000000E+00 -0.00000000000E+00 -0.45593999997E+02  0.45594000000E+02  0.51100000000E-03 0. -1.
    9900012    2    1    2    0    0  0.50153707783E+01  0.17147343995E+02  0.56118991049E+01  0.72461581184E+02  0.70000014186E+02 0.  0.
        -12    1    1    2    0    0 -0.50153707783E+01 -0.17147343995E+02 -0.56118991049E+01  0.18726418816E+02  0.00000000000E+00 0.  1.
         11    1    3    3    0    0  0.27864170097E+01 -0.20267887586E+01  0.16992629338E+02  0.17338438352E+02  0.51100000000E-03 0.  1.
        -11    1    3    3    0    0  0.19376866289E+02  0.10299724312E+02 -0.23637378131E+02  0.32253262056E+02  0.51100000000E-03 0. -1.
         12    1    3    3    0    0 -0.17147912520E+02  0.88744084416E+01  0.12256647898E+02  0.22869880776E+02  0.00000000000E+00 0. -1.
</event>
<event>
 7    1  0.2688173E-013  0.7246152E+02  0.7816164E-02  0.1226708E+00
        -11   -1    0    0    0    0  0.00000000000E+00  0.00000000000E+00  0.45593999997E+02  0.45594000000E+02  0.51100000000E-03 0.  1.
         11   -1    0    0    0    0 -0.00000000000E+00 -0.00000000000E+00 -0.45593999997E+02  0.45594000000E+02  0.51100000000E-03 0. -1.
    9900012    2    1    2    0    0 -0.63950880599E+01 -0.15734195310E+01 -0.17530206585E+02  0.72461522936E+02  0.69999938307E+02 0.  0.
        -12    1    1    2    0    0  0.63950880599E+01  0.15734195310E+01  0.17530206585E+02  0.18726477064E+02  0.00000000000E+00 0.  1.
         11    1    3    3    0    0  0.54642166268E+01  0.32813108588E+01 -0.50987663192E+01  0.81622351434E+01  0.51100000000E-03 0. -1.
        -11    1    3    3    0    0  0.17269873749E+02  0.16549089781E+02 -0.14709727382E+02  0.28080188599E+02  0.51100000000E-03 0.  1.
        -12    1    3    3    0    0 -0.29129178436E+02 -0.21403820170E+02  0.22782871163E+01  0.36219099194E+02  0.00000000000E+00 0.  1.
</event>
<event>
 7    1  0.2688173E-013  0.7246193E+02  0.7816164E-02  0.1226707E+00
        -11   -1    0    0    0    0  0.00000000000E+00  0.00000000000E+00  0.45593999997E+02  0.45594000000E+02  0.51100000000E-03 0.  1.
         11   -1    0    0    0    0 -0.00000000000E+00 -0.00000000000E+00 -0.45593999997E+02  0.45594000000E+02  0.51100000000E-03 0. -1.
    9900012    2    1    2    0    0 -0.32665678405E-01 -0.88770738637E+01 -0.16488239953E+02  0.72461933563E+02  0.70000473224E+02 0.  0.
        -12    1    1    2    0    0  0.32665678405E-01  0.88770738637E+01  0.16488239953E+02  0.18726066437E+02  0.00000000000E+00 0.  1.
         11    1    3    3    0    0 -0.11015597622E+02  0.38451166046E+01  0.73155600703E+01  0.13771192108E+02  0.51100000000E-03 0. -1.
        -11    1    3    3    0    0  0.13472070259E+02  0.17749890896E+02 -0.51333316502E+01  0.22867146695E+02  0.51100000000E-03 0.  1.
         12    1    3    3    0    0 -0.24891383159E+01 -0.30472081365E+02 -0.18670468374E+02  0.35823594760E+02  0.00000000000E+00 0. -1.
</event>
<event>
 7    1  0.2688173E-013  0.7246168E+02  0.7816164E-02  0.1226708E+00
        -11   -1    0    0    0    0  0.00000000000E+00  0.00000000000E+00  0.45593999997E+02  0.45594000000E+02  0.51100000000E-03 0.  1.
         11   -1    0    0    0    0 -0.00000000000E+00 -0.00000000000E+00 -0.45593999997E+02  0.45594000000E+02  0.51100000000E-03 0. -1.
    9900012    2    1    2    0    0  0.14102510668E+02  0.10766129537E+02 -0.59903879217E+01  0.72461678957E+02  0.70000141553E+02 0.  0.
        -12    1    1    2    0    0 -0.14102510668E+02 -0.10766129537E+02  0.59903879217E+01  0.18726321043E+02  0.00000000000E+00 0.  1.
         11    1    3    3    0    0  0.43412099562E+01 -0.35950928615E+01 -0.59147695300E+01  0.81703913873E+01  0.51100000000E-03 0. -1.
        -11    1    3    3    0    0  0.11621196847E+02 -0.12210302820E+02  0.23363960094E+02  0.28810038921E+02  0.51100000000E-03 0.  1.
         12    1    3    3    0    0 -0.18598961344E+01  0.26571525218E+02 -0.23439578486E+02  0.35481248648E+02  0.00000000000E+00 0. -1.
</event>
<event>
 7    1  0.2688173E-013  0.7246165E+02  0.7816164E-02  0.1226708E+00
        -11   -1    0    0    0    0  0.00000000000E+00  0.00000000000E+00  0.45593999997E+02  0.45594000000E+02  0.51100000000E-03 0.  1.
         11   -1    0    0    0    0 -0.00000000000E+00 -0.00000000000E+00 -0.45593999997E+02  0.45594000000E+02  0.51100000000E-03 0. -1.
    9900012    2    1    2    0    0 -0.11967089687E+02 -0.10753217817E+02 -0.95829704394E+01  0.72461648208E+02  0.70000101497E+02 0.  0.
        -12    1    1    2    0    0  0.11967089687E+02  0.10753217817E+02  0.95829704394E+01  0.18726351792E+02  0.00000000000E+00 0.  1.
         11    1    3    3    0    0  0.19483086588E+02  0.59336128399E+01 -0.24254122746E+02  0.31671136620E+02  0.51100000000E-03 0. -1.
        -11    1    3    3    0    0 -0.25968212178E+01 -0.43317400501E+01 -0.17777296003E+01  0.53542296450E+01  0.51100000000E-03 0.  1.
        -12    1    3    3    0    0 -0.28853355057E+02 -0.12355090607E+02  0.16448881907E+02  0.35436281943E+02  0.00000000000E+00 0.  1.
</event>
<event>
 7    1  0.2688173E-013  0.7246155E+02  0.7816164E-02  0.1226708E+00
        -11   -1    0    0    0    0  0.00000000000E+00  0.00000000000E+00  0.45593999997E+02  0.45594000000E+02  0.51100000000E-03 0. -1.
         11   -1    0    0    0    0 -0.00000000000E+00 -0.00000000000E+00 -0.45593999997E+02  0.45594000000E+02  0.51100000000E-03 0.  1.
    9900012    2    1    2    0    0 -0.53202584758E+01 -0.26763982227E+01  0.17754202074E+02  0.72461549483E+02  0.69999972889E+02 0.  0.
        -12    1    1    2    0    0  0.53202584758E+01  0.26763982227E+01 -0.17754202074E+02  0.18726450517E+02  0.00000000000E+00 0.  1.
         11    1    3    3    0    0  0.56562041752E+01  0.11873282395E+02 -0.92450997054E+01  0.16076048934E+02  0.51100000000E-03 0. -1.
        -11    1    3    3    0    0 -0.12393902971E+02  0.43124018667E+00 -0.10328226183E+02  0.16138991768E+02  0.51100000000E-03 0.  1.
         12    1    3    3    0    0  0.14174403198E+01 -0.14980920805E+02  0.37327527962E+02  0.40246508780E+02  0.00000000000E+00 0. -1.
</event>
<event>
 7    1  0.2688173E-013  0.7246127E+02  0.7816164E-02  0.1226709E+00
        -11   -1    0    0    0    0  0.00000000000E+00  0.00000000000E+00  0.45593999997E+02  0.45594000000E+02  0.51100000000E-03 0.  1.
         11   -1    0    0    0    0 -0.00000000000E+00 -0.00000000000E+00 -0.45593999997E+02  0.45594000000E+02  0.51100000000E-03 0. -1.
    9900012    2    1    2    0    0  0.37647290813E+01 -0.56624804568E+01 -0.17448597250E+02  0.72461270014E+02  0.69999608828E+02 0.  0.
        -12    1    1    2    0    0 -0.37647290813E+01  0.56624804568E+01  0.17448597250E+02  0.18726729986E+02  0.00000000000E+00 0.  1.
         11    1    3    3    0    0  0.21723320623E+02 -0.27164768509E+01 -0.38217818454E+01  0.22223589316E+02  0.51100000000E-03 0. -1.
        -11    1    3    3    0    0  0.62223253616E+00 -0.64782813435E+01  0.14757671390E+02  0.16128985325E+02  0.51100000000E-03 0.  1.
         12    1    3    3    0    0 -0.18580824078E+02  0.35322777376E+01 -0.28384486795E+02  0.34108695373E+02  0.00000000000E+00 0. -1.
</event>
<event>
 7    1  0.2688173E-013  0.7246159E+02  0.7816164E-02  0.1226708E+00
        -11   -1    0    0    0    0  0.00000000000E+00  0.00000000000E+00  0.45593999997E+02  0.45594000000E+02  0.51100000000E-03 0.  1.
         11   -1    0    0    0    0 -0.00000000000E+00 -0.00000000000E+00 -0.45593999997E+02  0.45594000000E+02  0.51100000000E-03 0. -1.
    9900012    2    1    2    0    0 -0.21050682868E+01 -0.15765931453E+02  0.98834386126E+01  0.72461594422E+02  0.70000031430E+02 0.  0.
        -12    1    1    2    0    0  0.21050682868E+01  0.15765931453E+02 -0.98834386126E+01  0.18726405578E+02  0.00000000000E+00 0.  1.
         11    1    3    3    0    0 -0.99683316111E+01 -0.30197039096E+01 -0.11635853300E+02  0.15616636292E+02  0.51100000000E-03 0. -1.
        -11    1    3    3    0    0 -0.12207003709E+02  0.19942425841E+01 -0.10540109383E+02  0.16250595346E+02  0.51100000000E-03 0.  1.
         12    1    3    3    0    0  0.20070267033E+02 -0.14740470128E+02  0.32059401296E+02  0.40594362783E+02  0.00000000000E+00 0. -1.
</event>
<event>
 7    1  0.2688173E-013  0.7246156E+02  0.7816164E-02  0.1226708E+00
        -11   -1    0    0    0    0  0.00000000000E+00  0.00000000000E+00  0.45593999997E+02  0.45594000000E+02  0.51100000000E-03 0. -1.
         11   -1    0    0    0    0 -0.00000000000E+00 -0.00000000000E+00 -0.45593999997E+02  0.45594000000E+02  0.51100000000E-03 0.  1.
    9900012    2    1    2    0    0 -0.64907480351E+01  0.45481173894E+01  0.16966563044E+02  0.72461562983E+02  0.69999990475E+02 0.  0.
        -12    1    1    2    0    0  0.64907480351E+01 -0.45481173894E+01 -0.16966563044E+02  0.18726437017E+02  0.00000000000E+00 0.  1.
         11    1    3    3    0    0  0.64366111765E+00  0.11991906279E+02 -0.10424489989E+01  0.12054327689E+02  0.51100000000E-03 0. -1.
        -11    1    3    3    0    0  0.20642912483E+02 -0.18450843115E+02  0.10392278628E+02  0.29573009701E+02  0.51100000000E-03 0.  1.
        -12    1    3    3    0    0 -0.27777321636E+02  0.11007054225E+02  0.76167334146E+01  0.30834225592E+02  0.00000000000E+00 0.  1.
</event>
<event>
 7    1  0.2688173E-013  0.7246162E+02  0.7816164E-02  0.1226708E+00
        -11   -1    0    0    0    0  0.00000000000E+00  0.00000000000E+00  0.45593999997E+02  0.45594000000E+02  0.51100000000E-03 0.  1.
         11   -1    0    0    0    0 -0.00000000000E+00 -0.00000000000E+00 -0.45593999997E+02  0.45594000000E+02  0.51100000000E-03 0. -1.
    9900012    2    1    2    0    0 -0.10039416082E+02 -0.15548840452E+02  0.28497260965E+01  0.72461621453E+02  0.70000066643E+02 0.  0.
        -12    1    1    2    0    0  0.10039416082E+02  0.15548840452E+02 -0.28497260965E+01  0.18726378547E+02  0.00000000000E+00 0.  1.
         11    1    3    3    0    0  0.91359184772E+00 -0.62204997696E+01  0.94001302458E+01  0.11308921980E+02  0.51100000000E-03 0. -1.
        -11    1    3    3    0    0 -0.16168303602E+02  0.81617157982E+01  0.21234671600E+02  0.27909477321E+02  0.51100000000E-03 0.  1.
         12    1    3    3    0    0  0.52152956719E+01 -0.17490056481E+02 -0.27785075749E+02  0.33243222152E+02  0.00000000000E+00 0. -1.
</event>
<event>
 7    1  0.2688173E-013  0.7246156E+02  0.7816164E-02  0.1226708E+00
        -11   -1    0    0    0    0  0.00000000000E+00  0.00000000000E+00  0.45593999997E+02  0.45594000000E+02  0.51100000000E-03 0.  1.
         11   -1    0    0    0    0 -0.00000000000E+00 -0.00000000000E+00 -0.45593999997E+02  0.45594000000E+02  0.51100000000E-03 0. -1.
    9900012    2    1    2    0    0 -0.11431038721E+02 -0.14881608868E+01  0.14757916988E+02  0.72461564597E+02  0.69999992578E+02 0.  0.
        -12    1    1    2    0    0  0.11431038721E+02  0.14881608868E+01 -0.14757916988E+02  0.18726435403E+02  0.00000000000E+00 0.  1.
         11    1    3    3    0    0 -0.12635337212E+02  0.12795380899E+02  0.31667543063E+02  0.36417122384E+02  0.51100000000E-03 0.  1.
        -11    1    3    3    0    0  0.14051414308E+01 -0.91579622597E+00  0.77847195681E+01  0.79633513161E+01  0.51100000000E-03 0. -1.
         12    1    3    3    0    0 -0.20084294003E+00 -0.13367745560E+02 -0.24694345643E+02  0.28081090897E+02  0.00000000000E+00 0. -1.
</event>
<event>
 7    1  0.2688173E-013  0.7246155E+02  0.7816164E-02  0.1226708E+00
        -11   -1    0    0    0    0  0.00000000000E+00  0.00000000000E+00  0.45593999997E+02  0.45594000000E+02  0.51100000000E-03 0. -1.
         11   -1    0    0    0    0 -0.00000000000E+00 -0.00000000000E+00 -0.45593999997E+02  0.45594000000E+02  0.51100000000E-03 0.  1.
    9900012    2    1    2    0    0  0.36587396584E+01 -0.10433308032E+02  0.15114215223E+02  0.72461553616E+02  0.69999978273E+02 0.  0.
        -12    1    1    2    0    0 -0.36587396584E+01  0.10433308032E+02 -0.15114215223E+02  0.18726446384E+02  0.00000000000E+00 0.  1.
         11    1    3    3    0    0 -0.14250755558E+02 -0.60123938103E+01  0.16964627396E+02  0.22957166555E+02  0.51100000000E-03 0. -1.
        -11    1    3    3    0    0  0.69533700287E+01 -0.20574596327E+01  0.21993226814E+02  0.23157817705E+02  0.51100000000E-03 0.  1.
        -12    1    3    3    0    0  0.10956125188E+02 -0.23634545888E+01 -0.23843638986E+02  0.26346569356E+02  0.00000000000E+00 0.  1.
</event>
<event>
 7    1  0.2688173E-013  0.7246155E+02  0.7816164E-02  0.1226708E+00
        -11   -1    0    0    0    0  0.00000000000E+00  0.00000000000E+00  0.45593999997E+02  0.45594000000E+02  0.51100000000E-03 0.  1.
         11   -1    0    0    0    0 -0.00000000000E+00 -0.00000000000E+00 -0.45593999997E+02  0.45594000000E+02  0.51100000000E-03 0. -1.
    9900012    2    1    2    0    0  0.96730451184E+01  0.15896629570E+02  0.20998632089E+01  0.72461546544E+02  0.69999969061E+02 0.  0.
        -12    1    1    2    0    0 -0.96730451184E+01 -0.15896629570E+02 -0.20998632089E+01  0.18726453456E+02  0.00000000000E+00 0.  1.
         11    1    3    3    0    0  0.26158619602E+01  0.22516111896E+02  0.96264030186E+01  0.24626929651E+02  0.51100000000E-03 0. -1.
        -11    1    3    3    0    0 -0.14763017364E+02 -0.16842500644E+02  0.60011588796E+00  0.22404835392E+02  0.51100000000E-03 0.  1.
         12    1    3    3    0    0  0.21820200522E+02  0.10223018318E+02 -0.81266556976E+01  0.25429781501E+02  0.00000000000E+00 0. -1.
</event>
<event>
 7    1  0.2688173E-013  0.7246166E+02  0.7816164E-02  0.1226708E+00
        -11   -1    0    0    0    0  0.00000000000E+00  0.00000000000E+00  0.45593999997E+02  0.45594000000E+02  0.51100000000E-03 0.  1.
         11   -1    0    0    0    0 -0.00000000000E+00 -0.00000000000E+00 -0.45593999997E+02  0.45594000000E+02  0.51100000000E-03 0. -1.
    9900012    2    1    2    0    0  0.18220706380E+02 -0.38104205759E+01 -0.20401917184E+01  0.72461659509E+02  0.70000116218E+02 0.  0.
        -12    1    1    2    0    0 -0.18220706380E+02  0.38104205759E+01  0.20401917184E+01  0.18726340491E+02  0.00000000000E+00 0.  1.
         11    1    3    3    0    0  0.21144188838E+02  0.53760941277E+01 -0.20052444626E+02  0.29632408702E+02  0.51100000000E-03 0. -1.
        -11    1    3    3    0    0  0.10663184030E+02 -0.17617430283E+02  0.28424873544E+01  0.20788388058E+02  0.51100000000E-03 0.  1.
         12    1    3    3    0    0 -0.13586666489E+02  0.84309155791E+01  0.15169765554E+02  0.22040862749E+02  0.00000000000E+00 0. -1.
</event>
<event>
 7    1  0.2688173E-013  0.7246161E+02  0.7816164E-02  0.1226708E+00
        -11   -1    0    0    0    0  0.00000000000E+00  0.00000000000E+00  0.45593999997E+02  0.45594000000E+02  0.51100000000E-03 0. -1.
         11   -1    0    0    0    0 -0.00000000000E+00 -0.00000000000E+00 -0.45593999997E+02  0.45594000000E+02  0.51100000000E-03 0.  1.
    9900012    2    1    2    0    0  0.15717402053E+02  0.90614588188E+01  0.46401514300E+01  0.72461607701E+02  0.70000048730E+02 0.  0.
        -12    1    1    2    0    0 -0.15717402053E+02 -0.90614588188E+01 -0.46401514300E+01  0.18726392299E+02  0.00000000000E+00 0.  1.
         11    1    3    3    0    0  0.21675756121E+02  0.36234163142E+01 -0.22883348572E+01  0.22095339461E+02  0.51100000000E-03 0. -1.
        -11    1    3    3    0    0  0.15654938329E+01 -0.71764466124E+01  0.25586898545E+02  0.26620321830E+02  0.51100000000E-03 0.  1.
        -12    1    3    3    0    0 -0.75238479006E+01  0.12614489117E+02 -0.18658412258E+02  0.23745946410E+02  0.00000000000E+00 0.  1.
</event>
<event>
 7    1  0.2688173E-013  0.7246156E+02  0.7816164E-02  0.1226708E+00
        -11   -1    0    0    0    0  0.00000000000E+00  0.00000000000E+00  0.45593999997E+02  0.45594000000E+02  0.51100000000E-03 0.  1.
         11   -1    0    0    0    0 -0.00000000000E+00 -0.00000000000E+00 -0.45593999997E+02  0.45594000000E+02  0.51100000000E-03 0. -1.
    9900012    2    1    2    0    0  0.65592299392E+01 -0.23930381236E+01 -0.17376113489E+02  0.72461562836E+02  0.69999990285E+02 0.  0.
        -12    1    1    2    0    0 -0.65592299392E+01  0.23930381236E+01  0.17376113489E+02  0.18726437164E+02  0.00000000000E+00 0.  1.
         11    1    3    3    0    0  0.30742892210E+01 -0.14559905334E+02 -0.13931831169E+02  0.20384749631E+02  0.51100000000E-03 0. -1.
        -11    1    3    3    0    0  0.26006717042E+02  0.10845616987E+02 -0.74908150939E+01  0.29156286632E+02  0.51100000000E-03 0.  1.
        -12    1    3    3    0    0 -0.22521776324E+02  0.13212502234E+01  0.40465327738E+01  0.22920526574E+02  0.00000000000E+00 0.  1.
</event>
<event>
 7    1  0.2688173E-013  0.7246155E+02  0.7816164E-02  0.1226708E+00
        -11   -1    0    0    0    0  0.00000000000E+00  0.00000000000E+00  0.45593999997E+02  0.45594000000E+02  0.51100000000E-03 0.  1.
         11   -1    0    0    0    0 -0.00000000000E+00 -0.00000000000E+00 -0.45593999997E+02  0.45594000000E+02  0.51100000000E-03 0. -1.
    9900012    2    1    2    0    0  0.16909260655E+02  0.76468680139E+01  0.25064078671E+01  0.72461554349E+02  0.69999979228E+02 0.  0.
        -12    1    1    2    0    0 -0.16909260655E+02 -0.76468680139E+01 -0.25064078671E+01  0.18726445651E+02  0.00000000000E+00 0.  1.
         11    1    3    3    0    0 -0.12282739436E+02  0.98070083715E+01  0.65306012447E+01  0.17020336487E+02  0.51100000000E-03 0. -1.
        -11    1    3    3    0    0  0.16460769754E+02  0.17373563942E+02  0.12367389527E+02  0.26939747380E+02  0.51100000000E-03 0.  1.
        -12    1    3    3    0    0  0.12731230337E+02 -0.19533704299E+02 -0.16391582904E+02  0.28501470482E+02  0.00000000000E+00 0.  1.
</event>
<event>
 7    1  0.2688173E-013  0.7246162E+02  0.7816164E-02  0.1226708E+00
        -11   -1    0    0    0    0  0.00000000000E+00  0.00000000000E+00  0.45593999997E+02  0.45594000000E+02  0.51100000000E-03 0. -1.
         11   -1    0    0    0    0 -0.00000000000E+00 -0.00000000000E+00 -0.45593999997E+02  0.45594000000E+02  0.51100000000E-03 0.  1.
    9900012    2    1    2    0    0 -0.68947931925E+01  0.65072976239E+00  0.17398725464E+02  0.72461621007E+02  0.70000066063E+02 0.  0.
        -12    1    1    2    0    0  0.68947931925E+01 -0.65072976239E+00 -0.17398725464E+02  0.18726378993E+02  0.00000000000E+00 0.  1.
         11    1    3    3    0    0  0.17083061265E+02  0.10602380592E+02  0.57137927130E+01  0.20901887088E+02  0.51100000000E-03 0. -1.
        -11    1    3    3    0    0 -0.16016662306E+01  0.15013638676E+02 -0.22272836435E+01  0.15262223747E+02  0.51100000000E-03 0.  1.
         12    1    3    3    0    0 -0.22376188227E+02 -0.24965289506E+02  0.13912216395E+02  0.36297510172E+02  0.00000000000E+00 0. -1.
</event>
<event>
 7    1  0.2688173E-013  0.7246159E+02  0.7816164E-02  0.1226708E+00
        -11   -1    0    0    0    0  0.00000000000E+00  0.00000000000E+00  0.45593999997E+02  0.45594000000E+02  0.51100000000E-03 0. -1.
         11   -1    0    0    0    0 -0.00000000000E+00 -0.00000000000E+00 -0.45593999997E+02  0.45594000000E+02  0.51100000000E-03 0.  1.
    9900012    2    1    2    0    0  0.12277136807E+02  0.47454697016E+01  0.13320319615E+02  0.72461588557E+02  0.70000023791E+02 0.  0.
        -12    1    1    2    0    0 -0.12277136807E+02 -0.47454697016E+01 -0.13320319615E+02  0.18726411443E+02  0.00000000000E+00 0.  1.
         11    1    3    3    0    0 -0.79256677559E+01 -0.55132549356E+01  0.19976847129E+02  0.22187532779E+02  0.51100000000E-03 0. -1.
        -11    1    3    3    0    0 -0.71140319821E+01 -0.12429485979E+02 -0.19128785215E+01  0.14448552773E+02  0.51100000000E-03 0.  1.
         12    1    3    3    0    0  0.27316836545E+02  0.22688210616E+02 -0.47436489917E+01  0.35825503005E+02  0.00000000000E+00 0. -1.
</event>
<event>
 7    1  0.2688173E-013  0.7246163E+02  0.7816164E-02  0.1226708E+00
        -11   -1    0    0    0    0  0.00000000000E+00  0.00000000000E+00  0.45593999997E+02  0.45594000000E+02  0.51100000000E-03 0.  1.
         11   -1    0    0    0    0 -0.00000000000E+00 -0.00000000000E+00 -0.45593999997E+02  0.45594000000E+02  0.51100000000E-03 0. -1.
    9900012    2    1    2    0    0 -0.21663645939E+00  0.65857545858E+01 -0.17528766639E+02  0.72461634771E+02  0.70000083992E+02 0.  0.
        -12    1    1    2    0    0  0.21663645939E+00 -0.65857545858E+01  0.17528766639E+02  0.18726365229E+02  0.00000000000E+00 0.  1.
         11    1    3    3    0    0 -0.10533622738E+02  0.28372404480E+01 -0.27096305383E+02  0.29209876874E+02  0.51100000000E-03 0. -1.
        -11    1    3    3    0    0 -0.45629144820E+01 -0.12911578800E+02 -0.70581412904E+01  0.15406051227E+02  0.51100000000E-03 0.  1.
        -12    1    3    3    0    0  0.14879900760E+02  0.16660092938E+02  0.16625680034E+02  0.27845706670E+02  0.00000000000E+00 0.  1.
</event>
<event>
 7    1  0.2688173E-013  0.7246160E+02  0.7816164E-02  0.1226708E+00
        -11   -1    0    0    0    0  0.00000000000E+00  0.00000000000E+00  0.45593999997E+02  0.45594000000E+02  0.51100000000E-03 0. -1.
         11   -1    0    0    0    0 -0.00000000000E+00 -0.00000000000E+00 -0.45593999997E+02  0.45594000000E+02  0.51100000000E-03 0.  1.
    9900012    2    1    2    0    0  0.11875866939E+02  0.13356101274E+02  0.55907454891E+01  0.72461599066E+02  0.70000037481E+02 0.  0.
        -12    1    1    2    0    0 -0.11875866939E+02 -0.13356101274E+02 -0.55907454891E+01  0.18726400934E+02  0.00000000000E+00 0.  1.
         11    1    3    3    0    0  0.73230500325E+01 -0.34159239223E+01 -0.10125534574E+02  0.12954614957E+02  0.51100000000E-03 0. -1.
        -11    1    3    3    0    0 -0.83967973994E+01  0.16907500900E+01 -0.18245230275E+02  0.20155725501E+02  0.51100000000E-03 0.  1.
         12    1    3    3    0    0  0.12949614306E+02  0.15081275107E+02  0.33961510338E+02  0.39351258607E+02  0.00000000000E+00 0. -1.
</event>
<event>
 7    1  0.2688173E-013  0.7246157E+02  0.7816164E-02  0.1226708E+00
        -11   -1    0    0    0    0  0.00000000000E+00  0.00000000000E+00  0.45593999997E+02  0.45594000000E+02  0.51100000000E-03 0. -1.
         11   -1    0    0    0    0 -0.00000000000E+00 -0.00000000000E+00 -0.45593999997E+02  0.45594000000E+02  0.51100000000E-03 0.  1.
    9900012    2    1    2    0    0 -0.99402711258E+01  0.10750744234E+02  0.11674397634E+02  0.72461573439E+02  0.70000004096E+02 0.  0.
        -12    1    1    2    0    0  0.99402711258E+01 -0.10750744234E+02 -0.11674397634E+02  0.18726426561E+02  0.00000000000E+00 0.  1.
         11    1    3    3    0    0 -0.28950074258E+02  0.23029463319E+02  0.51989893524E+00  0.36996395439E+02  0.51100000000E-03 0. -1.
        -11    1    3    3    0    0 -0.14199260868E+01 -0.32962190201E+01  0.12599983032E+02  0.13101176382E+02  0.51100000000E-03 0.  1.
        -12    1    3    3    0    0  0.20429729219E+02 -0.89825000653E+01 -0.14454843332E+01  0.22364001618E+02  0.00000000000E+00 0.  1.
</event>
<event>
 7    1  0.2688173E-013  0.7246158E+02  0.7816164E-02  0.1226708E+00
        -11   -1    0    0    0    0  0.00000000000E+00  0.00000000000E+00  0.45593999997E+02  0.45594000000E+02  0.51100000000E-03 0. -1.
         11   -1    0    0    0    0 -0.00000000000E+00 -0.00000000000E+00 -0.45593999997E+02  0.45594000000E+02  0.51100000000E-03 0.  1.
    9900012    2    1    2    0    0  0.77514623837E+01  0.41202011370E+01  0.16541394379E+02  0.72461576036E+02  0.70000007479E+02 0.  0.
        -12    1    1    2    0    0 -0.77514623837E+01 -0.41202011370E+01 -0.16541394379E+02  0.18726423964E+02  0.00000000000E+00 0.  1.
         11    1    3    3    0    0 -0.81596796926E+01  0.82492996885E+01 -0.39271915907E+01  0.12249659264E+02  0.51100000000E-03 0. -1.
        -11    1    3    3    0    0  0.64640298260E+01  0.22999860579E+02  0.20506936590E+02  0.31485103093E+02  0.51100000000E-03 0.  1.
        -12    1    3    3    0    0  0.94471122502E+01 -0.27128959130E+02 -0.38350620454E-01  0.28726813679E+02  0.00000000000E+00 0.  1.
</event>
<event>
 8    1  0.2688173E-013  0.7246160E+02  0.7816164E-02  0.1226708E+00
        -11   -1    0    0    0    0  0.00000000000E+00  0.00000000000E+00  0.45593999997E+02  0.45594000000E+02  0.51100000000E-03 0. -1.
         11   -1    0    0    0    0 -0.00000000000E+00 -0.00000000000E+00 -0.45593999997E+02  0.45594000000E+02  0.51100000000E-03 0.  1.
    9900012    2    1    2    0    0  0.53223378767E+01  0.44350457933E+01  0.17397734224E+02  0.72461599711E+02  0.70000038320E+02 0.  0.
         23    2    3    3    0    0 -0.17151655003E+01 -0.41131206922E+01  0.97983132669E+01  0.59032199019E+02  0.58042519102E+02 0.  0.
        -12    1    1    2    0    0 -0.53223378767E+01 -0.44350457933E+01 -0.17397734224E+02  0.18726400289E+02  0.00000000000E+00 0.  1.
         11    1    4    4    0    0 -0.19713220513E+02 -0.23007636603E+02  0.12547021775E+02  0.32793141977E+02  0.51100000000E-03 0. -1.
        -11    1    4    4    0    0  0.17998055013E+02  0.18894515911E+02 -0.27487085079E+01  0.26239057042E+02  0.51100000000E-03 0.  1.
        -12    1    3    3    0    0  0.70375033770E+01  0.85481664855E+01  0.75994209571E+01  0.13429400691E+02  0.00000000000E+00 0.  1.
</event>
<event>
 7    1  0.2688173E-013  0.7246156E+02  0.7816164E-02  0.1226708E+00
        -11   -1    0    0    0    0  0.00000000000E+00  0.00000000000E+00  0.45593999997E+02  0.45594000000E+02  0.51100000000E-03 0. -1.
         11   -1    0    0    0    0 -0.00000000000E+00 -0.00000000000E+00 -0.45593999997E+02  0.45594000000E+02  0.51100000000E-03 0.  1.
    9900012    2    1    2    0    0 -0.11592408097E+01  0.11500647332E+01  0.18655103856E+02  0.72461564460E+02  0.69999992400E+02 0.  0.
        -12    1    1    2    0    0  0.11592408097E+01 -0.11500647332E+01 -0.18655103856E+02  0.18726435540E+02  0.00000000000E+00 0.  1.
         11    1    3    3    0    0  0.60054940565E+01 -0.32324226050E+01  0.33594765604E+01  0.76026704374E+01  0.51100000000E-03 0.  1.
        -11    1    3    3    0    0  0.13065465575E+02 -0.24320429564E+02  0.99098898881E+01  0.29332500792E+02  0.51100000000E-03 0. -1.
         12    1    3    3    0    0 -0.20230200441E+02  0.28702916902E+02  0.53857374078E+01  0.35526393231E+02  0.00000000000E+00 0. -1.
</event>
<event>
 7    1  0.2688173E-013  0.7246126E+02  0.7816164E-02  0.1226709E+00
        -11   -1    0    0    0    0  0.00000000000E+00  0.00000000000E+00  0.45593999997E+02  0.45594000000E+02  0.51100000000E-03 0. -1.
         11   -1    0    0    0    0 -0.00000000000E+00 -0.00000000000E+00 -0.45593999997E+02  0.45594000000E+02  0.51100000000E-03 0.  1.
    9900012    2    1    2    0    0 -0.14205114743E+02 -0.47750873799E+01  0.11229600415E+02  0.72461263236E+02  0.69999599998E+02 0.  0.
        -12    1    1    2    0    0  0.14205114743E+02  0.47750873799E+01 -0.11229600415E+02  0.18726736764E+02  0.00000000000E+00 0.  1.
         11    1    3    3    0    0  0.57052549070E+01  0.12928591076E+01 -0.50908500584E+01  0.77548805796E+01  0.51100000000E-03 0. -1.
        -11    1    3    3    0    0  0.13490880732E+02  0.11590470197E+02 -0.82827005259E+01  0.19620040534E+02  0.51100000000E-03 0.  1.
         12    1    3    3    0    0 -0.33401250382E+02 -0.17658416684E+02  0.24603150999E+02  0.45086342122E+02  0.00000000000E+00 0. -1.
</event>
<event>
 7    1  0.2688173E-013  0.7246155E+02  0.7816164E-02  0.1226708E+00
        -11   -1    0    0    0    0  0.00000000000E+00  0.00000000000E+00  0.45593999997E+02  0.45594000000E+02  0.51100000000E-03 0. -1.
         11   -1    0    0    0    0 -0.00000000000E+00 -0.00000000000E+00 -0.45593999997E+02  0.45594000000E+02  0.51100000000E-03 0.  1.
    9900012    2    1    2    0    0 -0.12700122071E+02 -0.50294409128E+00  0.13752601635E+02  0.72461545314E+02  0.69999967459E+02 0.  0.
        -12    1    1    2    0    0  0.12700122071E+02  0.50294409128E+00 -0.13752601635E+02  0.18726454686E+02  0.00000000000E+00 0.  1.
         11    1    3    3    0    0 -0.19136158722E+02  0.23295696259E+02  0.28142219289E+02  0.41241563277E+02  0.51100000000E-03 0.  1.
        -11    1    3    3    0    0  0.24040609439E+01 -0.28867949236E+01  0.20832427727E+01  0.42956948989E+01  0.51100000000E-03 0. -1.
        -12    1    3    3    0    0  0.40319757069E+01 -0.20911845426E+02 -0.16472860427E+02  0.26924287138E+02  0.00000000000E+00 0.  1.
</event>
<event>
 7    1  0.2688173E-013  0.7246159E+02  0.7816164E-02  0.1226708E+00
        -11   -1    0    0    0    0  0.00000000000E+00  0.00000000000E+00  0.45593999997E+02  0.45594000000E+02  0.51100000000E-03 0. -1.
         11   -1    0    0    0    0 -0.00000000000E+00 -0.00000000000E+00 -0.45593999997E+02  0.45594000000E+02  0.51100000000E-03 0.  1.
    9900012    2    1    2    0    0  0.11005530418E+02 -0.10469697783E+02  0.10951810942E+02  0.72461589924E+02  0.70000025571E+02 0.  0.
        -12    1    1    2    0    0 -0.11005530418E+02  0.10469697783E+02 -0.10951810942E+02  0.18726410076E+02  0.00000000000E+00 0.  1.
         11    1    3    3    0    0 -0.40977068735E+00 -0.10259283033E+01 -0.15306134153E+02  0.15345950080E+02  0.51100000000E-03 0. -1.
        -11    1    3    3    0    0  0.25328529445E+02  0.87179614162E+01  0.83383052390E+01  0.28054671440E+02  0.51100000000E-03 0.  1.
         12    1    3    3    0    0 -0.13913228339E+02 -0.18161730895E+02  0.17919639856E+02  0.29060968403E+02  0.00000000000E+00 0. -1.
</event>
<event>
 7    1  0.2688173E-013  0.7246172E+02  0.7816164E-02  0.1226708E+00
        -11   -1    0    0    0    0  0.00000000000E+00  0.00000000000E+00  0.45593999997E+02  0.45594000000E+02  0.51100000000E-03 0.  1.
         11   -1    0    0    0    0 -0.00000000000E+00 -0.00000000000E+00 -0.45593999997E+02  0.45594000000E+02  0.51100000000E-03 0. -1.
    9900012    2    1    2    0    0  0.14423907460E+02 -0.26267154066E+01 -0.11650102935E+02  0.72461717971E+02  0.70000192376E+02 0.  0.
        -12    1    1    2    0    0 -0.14423907460E+02  0.26267154066E+01  0.11650102935E+02  0.18726282029E+02  0.00000000000E+00 0.  1.
         11    1    3    3    0    0  0.63114708402E+01  0.13673026809E+02  0.37508595189E+01  0.15519512675E+02  0.51100000000E-03 0. -1.
        -11    1    3    3    0    0  0.20993332559E+02  0.11192140707E+02 -0.11193528722E+02  0.26292187263E+02  0.51100000000E-03 0.  1.
        -12    1    3    3    0    0 -0.12880895939E+02 -0.27491882922E+02 -0.42074337320E+01  0.30650018033E+02  0.00000000000E+00 0.  1.
</event>
<event>
 7    1  0.2688173E-013  0.7246154E+02  0.7816164E-02  0.1226708E+00
        -11   -1    0    0    0    0  0.00000000000E+00  0.00000000000E+00  0.45593999997E+02  0.45594000000E+02  0.51100000000E-03 0.  1.
         11   -1    0    0    0    0 -0.00000000000E+00 -0.00000000000E+00 -0.45593999997E+02  0.45594000000E+02  0.51100000000E-03 0. -1.
    9900012    2    1    2    0    0 -0.80510982401E+01 -0.16567193433E+02  0.33746215539E+01  0.72461544069E+02  0.69999965837E+02 0.  0.
        -12    1    1    2    0    0  0.80510982401E+01  0.16567193433E+02 -0.33746215539E+01  0.18726455931E+02  0.00000000000E+00 0.  1.
         11    1    3    3    0    0 -0.11687347677E+01 -0.36893784030E+01  0.85542262791E+01  0.93889425098E+01  0.51100000000E-03 0. -1.
        -11    1    3    3    0    0  0.20944654822E+01 -0.37014920889E+02 -0.20496585076E+01  0.37130745406E+02  0.51100000000E-03 0.  1.
         12    1    3    3    0    0 -0.89768289545E+01  0.24137105860E+02 -0.31299462176E+01  0.25941856154E+02  0.00000000000E+00 0. -1.
</event>
<event>
 7    1  0.2688173E-013  0.7246156E+02  0.7816164E-02  0.1226708E+00
        -11   -1    0    0    0    0  0.00000000000E+00  0.00000000000E+00  0.45593999997E+02  0.45594000000E+02  0.51100000000E-03 0.  1.
         11   -1    0    0    0    0 -0.00000000000E+00 -0.00000000000E+00 -0.45593999997E+02  0.45594000000E+02  0.51100000000E-03 0. -1.
    9900012    2    1    2    0    0 -0.85800853103E+01 -0.15750613128E+02  0.53832861186E+01  0.72461562878E+02  0.69999990339E+02 0.  0.
        -12    1    1    2    0    0  0.85800853103E+01  0.15750613128E+02 -0.53832861186E+01  0.18726437122E+02  0.00000000000E+00 0.  1.
         11    1    3    3    0    0 -0.18584143338E+02 -0.64849837622E+01 -0.75165183823E+01  0.21069490901E+02  0.51100000000E-03 0. -1.
        -11    1    3    3    0    0 -0.30563278135E+01  0.17109839685E+02  0.13414979855E+02  0.21955624303E+02  0.51100000000E-03 0.  1.
         12    1    3    3    0    0  0.13060385841E+02 -0.26375469051E+02 -0.51517535462E+00  0.29436447674E+02  0.00000000000E+00 0. -1.
</event>
<event>
 7    1  0.2688173E-013  0.7246158E+02  0.7816164E-02  0.1226708E+00
        -11   -1    0    0    0    0  0.00000000000E+00  0.00000000000E+00  0.45593999997E+02  0.45594000000E+02  0.51100000000E-03 0.  1.
         11   -1    0    0    0    0 -0.00000000000E+00 -0.00000000000E+00 -0.45593999997E+02  0.45594000000E+02  0.51100000000E-03 0. -1.
    9900012    2    1    2    0    0  0.61653350880E+01 -0.83529437737E+01  0.15585119584E+02  0.72461575384E+02  0.70000006630E+02 0.  0.
        -12    1    1    2    0    0 -0.61653350880E+01  0.83529437737E+01 -0.15585119584E+02  0.18726424616E+02  0.00000000000E+00 0.  1.
         11    1    3    3    0    0  0.52575767292E+01  0.73007326233E+01  0.85912430243E+01  0.12439946417E+02  0.51100000000E-03 0. -1.
        -11    1    3    3    0    0  0.45776434470E+01 -0.36941979619E+02  0.90886518245E+01  0.38317988856E+02  0.51100000000E-03 0.  1.
         12    1    3    3    0    0 -0.36698850882E+01  0.21288303222E+02 -0.20947752643E+01  0.21703640111E+02  0.00000000000E+00 0. -1.
</event>
<event>
 7    1  0.2688173E-013  0.7246153E+02  0.7816164E-02  0.1226708E+00
        -11   -1    0    0    0    0  0.00000000000E+00  0.00000000000E+00  0.45593999997E+02  0.45594000000E+02  0.51100000000E-03 0. -1.
         11   -1    0    0    0    0 -0.00000000000E+00 -0.00000000000E+00 -0.45593999997E+02  0.45594000000E+02  0.51100000000E-03 0.  1.
    9900012    2    1    2    0    0 -0.18715048846E+02  0.24404398943E+00  0.60676382497E+00  0.72461527478E+02  0.69999944223E+02 0.  0.
        -12    1    1    2    0    0  0.18715048846E+02 -0.24404398943E+00 -0.60676382497E+00  0.18726472522E+02  0.00000000000E+00 0.  1.
         11    1    3    3    0    0 -0.23520856726E+02  0.10238416208E+02 -0.12403149305E+01  0.25682567024E+02  0.51100000000E-03 0. -1.
        -11    1    3    3    0    0 -0.18705638993E+02 -0.13260323524E+02 -0.42828610668E+00  0.22932957492E+02  0.51100000000E-03 0.  1.
        -12    1    3    3    0    0  0.23511446873E+02  0.32659513053E+01  0.22753648621E+01  0.23846002961E+02  0.00000000000E+00 0.  1.
</event>
<event>
 7    1  0.2688173E-013  0.7246160E+02  0.7816164E-02  0.1226708E+00
        -11   -1    0    0    0    0  0.00000000000E+00  0.00000000000E+00  0.45593999997E+02  0.45594000000E+02  0.51100000000E-03 0.  1.
         11   -1    0    0    0    0 -0.00000000000E+00 -0.00000000000E+00 -0.45593999997E+02  0.45594000000E+02  0.51100000000E-03 0. -1.
    9900012    2    1    2    0    0  0.63381321037E+01  0.15280835890E+02 -0.87750855849E+01  0.72461601759E+02  0.70000040988E+02 0.  0.
        -12    1    1    2    0    0 -0.63381321037E+01 -0.15280835890E+02  0.87750855849E+01  0.18726398241E+02  0.00000000000E+00 0.  1.
         11    1    3    3    0    0  0.21642312502E+01 -0.15020536756E+02 -0.54957644908E+01  0.16140131627E+02  0.51100000000E-03 0. -1.
        -11    1    3    3    0    0 -0.12793817607E+02 -0.38301047304E+01  0.91967767065E+01  0.16215183417E+02  0.51100000000E-03 0.  1.
        -12    1    3    3    0    0  0.16967718460E+02  0.34131477377E+02 -0.12476097801E+02  0.40106286714E+02  0.00000000000E+00 0.  1.
</event>
<event>
 7    1  0.2688173E-013  0.7246165E+02  0.7816164E-02  0.1226708E+00
        -11   -1    0    0    0    0  0.00000000000E+00  0.00000000000E+00  0.45593999997E+02  0.45594000000E+02  0.51100000000E-03 0.  1.
         11   -1    0    0    0    0 -0.00000000000E+00 -0.00000000000E+00 -0.45593999997E+02  0.45594000000E+02  0.51100000000E-03 0. -1.
    9900012    2    1    2    0    0  0.15787402528E+02  0.83442351290E+01 -0.56398350247E+01  0.72461652850E+02  0.70000107545E+02 0.  0.
        -12    1    1    2    0    0 -0.15787402528E+02 -0.83442351290E+01  0.56398350247E+01  0.18726347150E+02  0.00000000000E+00 0.  1.
         11    1    3    3    0    0  0.10884561121E+02  0.31227106995E+02  0.47834457144E+01  0.33413877884E+02  0.51100000000E-03 0. -1.
        -11    1    3    3    0    0 -0.52620846045E+01 -0.13056502064E+02  0.77133181863E+01  0.16051699543E+02  0.51100000000E-03 0.  1.
        -12    1    3    3    0    0  0.10164926011E+02 -0.98263698019E+01 -0.18136598925E+02  0.22996075423E+02  0.00000000000E+00 0.  1.
</event>
<event>
 7    1  0.2688173E-013  0.7246156E+02  0.7816164E-02  0.1226708E+00
        -11   -1    0    0    0    0  0.00000000000E+00  0.00000000000E+00  0.45593999997E+02  0.45594000000E+02  0.51100000000E-03 0.  1.
         11   -1    0    0    0    0 -0.00000000000E+00 -0.00000000000E+00 -0.45593999997E+02  0.45594000000E+02  0.51100000000E-03 0. -1.
    9900012    2    1    2    0    0  0.13428376683E+02 -0.77620133484E+01 -0.10493311398E+02  0.72461555178E+02  0.69999980308E+02 0.  0.
        -12    1    1    2    0    0 -0.13428376683E+02  0.77620133484E+01  0.10493311398E+02  0.18726444822E+02  0.00000000000E+00 0.  1.
         11    1    3    3    0    0  0.29892370493E+01 -0.11795704937E+02  0.26541972882E+02  0.29198467731E+02  0.51100000000E-03 0. -1.
        -11    1    3    3    0    0  0.70807552040E+01 -0.72157904810E+01 -0.12604853332E+02  0.16158188460E+02  0.51100000000E-03 0.  1.
        -12    1    3    3    0    0  0.33583844302E+01  0.11249482070E+02 -0.24430430948E+02  0.27104898988E+02  0.00000000000E+00 0.  1.
</event>
<event>
 7    1  0.2688173E-013  0.7246156E+02  0.7816164E-02  0.1226708E+00
        -11   -1    0    0    0    0  0.00000000000E+00  0.00000000000E+00  0.45593999997E+02  0.45594000000E+02  0.51100000000E-03 0.  1.
         11   -1    0    0    0    0 -0.00000000000E+00 -0.00000000000E+00 -0.45593999997E+02  0.45594000000E+02  0.51100000000E-03 0. -1.
    9900012    2    1    2    0    0  0.13288364669E+02 -0.12736440617E+02  0.34470363564E+01  0.72461558405E+02  0.69999984512E+02 0.  0.
        -12    1    1    2    0    0 -0.13288364669E+02  0.12736440617E+02 -0.34470363564E+01  0.18726441595E+02  0.00000000000E+00 0.  1.
         11    1    3    3    0    0  0.11033416837E+02  0.91444985815E+01  0.13381398086E+02  0.19606630419E+02  0.51100000000E-03 0. -1.
        -11    1    3    3    0    0 -0.62063800995E+01 -0.37537376241E+01  0.17475704459E+02  0.18921150776E+02  0.51100000000E-03 0.  1.
         12    1    3    3    0    0  0.84613279311E+01 -0.18127201575E+02 -0.27410066188E+02  0.33933777210E+02  0.00000000000E+00 0. -1.
</event>
<event>
 7    1  0.2688173E-013  0.7246157E+02  0.7816164E-02  0.1226708E+00
        -11   -1    0    0    0    0  0.00000000000E+00  0.00000000000E+00  0.45593999997E+02  0.45594000000E+02  0.51100000000E-03 0. -1.
         11   -1    0    0    0    0 -0.00000000000E+00 -0.00000000000E+00 -0.45593999997E+02  0.45594000000E+02  0.51100000000E-03 0.  1.
    9900012    2    1    2    0    0  0.78715153978E+00  0.17003363790E+02  0.78067322779E+01  0.72461573310E+02  0.70000003929E+02 0.  0.
        -12    1    1    2    0    0 -0.78715153978E+00 -0.17003363790E+02 -0.78067322779E+01  0.18726426690E+02  0.00000000000E+00 0.  1.
         11    1    3    3    0    0  0.27330754803E+02  0.12381981615E+02  0.12796074499E+02  0.32619367708E+02  0.51100000000E-03 0. -1.
        -11    1    3    3    0    0  0.19918650988E+01  0.97338033637E+01  0.17271035577E+01  0.10084509976E+02  0.51100000000E-03 0.  1.
        -12    1    3    3    0    0 -0.28535468362E+02 -0.51124211893E+01 -0.67164457786E+01  0.29757695626E+02  0.00000000000E+00 0.  1.
</event>
<event>
 7    1  0.2688173E-013  0.7246152E+02  0.7816164E-02  0.1226708E+00
        -11   -1    0    0    0    0  0.00000000000E+00  0.00000000000E+00  0.45593999997E+02  0.45594000000E+02  0.51100000000E-03 0.  1.
         11   -1    0    0    0    0 -0.00000000000E+00 -0.00000000000E+00 -0.45593999997E+02  0.45594000000E+02  0.51100000000E-03 0. -1.
    9900012    2    1    2    0    0 -0.36745853725E+01  0.16677003294E+02 -0.76847845253E+01  0.72461523297E+02  0.69999938777E+02 0.  0.
        -12    1    1    2    0    0  0.36745853725E+01 -0.16677003294E+02  0.76847845253E+01  0.18726476703E+02  0.00000000000E+00 0.  1.
         11    1    3    3    0    0 -0.13925308267E+01  0.30146993421E+00  0.16162184420E+02  0.16224864613E+02  0.51100000000E-03 0. -1.
        -11    1    3    3    0    0  0.50042604017E+00  0.26922485784E+02  0.31582493686E+01  0.27111717141E+02  0.51100000000E-03 0.  1.
         12    1    3    3    0    0 -0.27824805860E+01 -0.10546952424E+02 -0.27005218314E+02  0.29124941542E+02  0.00000000000E+00 0. -1.
</event>
<event>
 7    1  0.2688173E-013  0.7246175E+02  0.7816164E-02  0.1226708E+00
        -11   -1    0    0    0    0  0.00000000000E+00  0.00000000000E+00  0.45593999997E+02  0.45594000000E+02  0.51100000000E-03 0. -1.
         11   -1    0    0    0    0 -0.00000000000E+00 -0.00000000000E+00 -0.45593999997E+02  0.45594000000E+02  0.51100000000E-03 0.  1.
    9900012    2    1    2    0    0 -0.47988909777E+01  0.17867747264E+02  0.28959655483E+01  0.72461752021E+02  0.70000236733E+02 0.  0.
        -12    1    1    2    0    0  0.47988909777E+01 -0.17867747264E+02 -0.28959655483E+01  0.18726247979E+02  0.00000000000E+00 0.  1.
         11    1    3    3    0    0  0.96769010880E+01  0.10020858090E+02 -0.12698641694E+01  0.13988301069E+02  0.51100000000E-03 0. -1.
        -11    1    3    3    0    0 -0.11065980521E+02  0.31547043242E+02 -0.27666661171E+01  0.33545883560E+02  0.51100000000E-03 0.  1.
         12    1    3    3    0    0 -0.34098115450E+01 -0.23700154067E+02  0.69324958348E+01  0.24927567392E+02  0.00000000000E+00 0. -1.
</event>
<event>
 7    1  0.2688173E-013  0.7246157E+02  0.7816164E-02  0.1226708E+00
        -11   -1    0    0    0    0  0.00000000000E+00  0.00000000000E+00  0.45593999997E+02  0.45594000000E+02  0.51100000000E-03 0. -1.
         11   -1    0    0    0    0 -0.00000000000E+00 -0.00000000000E+00 -0.45593999997E+02  0.45594000000E+02  0.51100000000E-03 0.  1.
    9900012    2    1    2    0    0  0.17934802152E+02 -0.52345069635E+01  0.12735958284E+01  0.72461568473E+02  0.69999997628E+02 0.  0.
        -12    1    1    2    0    0 -0.17934802152E+02  0.52345069635E+01 -0.12735958284E+01  0.18726431527E+02  0.00000000000E+00 0.  1.
         11    1    3    3    0    0 -0.10350575557E+02  0.16547179740E+01  0.12948788646E+01  0.10561686299E+02  0.51100000000E-03 0. -1.
        -11    1    3    3    0    0  0.25501114265E+02  0.85967148703E+01 -0.22076276398E+02  0.34807647367E+02  0.51100000000E-03 0.  1.
         12    1    3    3    0    0  0.27842634442E+01 -0.15485939808E+02  0.22054993362E+02  0.27092234807E+02  0.00000000000E+00 0. -1.
</event>
<event>
 7    1  0.2688173E-013  0.7246175E+02  0.7816164E-02  0.1226708E+00
        -11   -1    0    0    0    0  0.00000000000E+00  0.00000000000E+00  0.45593999997E+02  0.45594000000E+02  0.51100000000E-03 0.  1.
         11   -1    0    0    0    0 -0.00000000000E+00 -0.00000000000E+00 -0.45593999997E+02  0.45594000000E+02  0.51100000000E-03 0. -1.
    9900012    2    1    2    0    0  0.30193122181E+01  0.15763288839E+02  0.96475358911E+01  0.72461749172E+02  0.70000233021E+02 0.  0.
        -12    1    1    2    0    0 -0.30193122181E+01 -0.15763288839E+02 -0.96475358911E+01  0.18726250828E+02  0.00000000000E+00 0.  1.
         11    1    3    3    0    0  0.24121818229E+02  0.18384569051E+02  0.10403855613E+02  0.32063915945E+02  0.51100000000E-03 0. -1.
        -11    1    3    3    0    0 -0.79829554396E+01  0.12198065839E+02 -0.10857351763E+02  0.18176976518E+02  0.51100000000E-03 0.  1.
        -12    1    3    3    0    0 -0.13119550571E+02 -0.14819346051E+02  0.10101032041E+02  0.22220856709E+02  0.00000000000E+00 0.  1.
</event>
<event>
 7    1  0.2688173E-013  0.7246158E+02  0.7816164E-02  0.1226708E+00
        -11   -1    0    0    0    0  0.00000000000E+00  0.00000000000E+00  0.45593999997E+02  0.45594000000E+02  0.51100000000E-03 0. -1.
         11   -1    0    0    0    0 -0.00000000000E+00 -0.00000000000E+00 -0.45593999997E+02  0.45594000000E+02  0.51100000000E-03 0.  1.
    9900012    2    1    2    0    0 -0.61000330827E+01  0.14233834751E+02  0.10529315288E+02  0.72461576536E+02  0.70000008131E+02 0.  0.
        -12    1    1    2    0    0  0.61000330827E+01 -0.14233834751E+02 -0.10529315288E+02  0.18726423464E+02  0.00000000000E+00 0.  1.
         11    1    3    3    0    0 -0.12157759790E+02 -0.17956968045E+02  0.11955872917E+02  0.24763011165E+02  0.51100000000E-03 0. -1.
        -11    1    3    3    0    0 -0.39246233122E+01 -0.56466832228E+01  0.43579602848E+01  0.81412233520E+01  0.51100000000E-03 0.  1.
        -12    1    3    3    0    0  0.99823500192E+01  0.37837486019E+02 -0.57845179133E+01  0.39557342019E+02  0.00000000000E+00 0.  1.
</event>
<event>
 7    1  0.2688173E-013  0.7246160E+02  0.7816164E-02  0.1226708E+00
        -11   -1    0    0    0    0  0.00000000000E+00  0.00000000000E+00  0.45593999997E+02  0.45594000000E+02  0.51100000000E-03 0.  1.
         11   -1    0    0    0    0 -0.00000000000E+00 -0.00000000000E+00 -0.45593999997E+02  0.45594000000E+02  0.51100000000E-03 0. -1.
    9900012    2    1    2    0    0  0.13116385520E+02  0.12905546461E+02  0.34763915100E+01  0.72461601614E+02  0.70000040800E+02 0.  0.
        -12    1    1    2    0    0 -0.13116385520E+02 -0.12905546461E+02 -0.34763915100E+01  0.18726398386E+02  0.00000000000E+00 0.  1.
         11    1    3    3    0    0 -0.26498610338E+00  0.51673566803E+00  0.24457195444E+01  0.25137179111E+01  0.51100000000E-03 0. -1.
        -11    1    3    3    0    0 -0.12631508234E+02  0.20950213815E+02  0.23951166255E+02  0.34236308568E+02  0.51100000000E-03 0.  1.
         12    1    3    3    0    0  0.26012879857E+02 -0.85614030217E+01 -0.22920494290E+02  0.35711575135E+02  0.00000000000E+00 0. -1.
</event>
<event>
 7    1  0.2688173E-013  0.7246159E+02  0.7816164E-02  0.1226708E+00
        -11   -1    0    0    0    0  0.00000000000E+00  0.00000000000E+00  0.45593999997E+02  0.45594000000E+02  0.51100000000E-03 0.  1.
         11   -1    0    0    0    0 -0.00000000000E+00 -0.00000000000E+00 -0.45593999997E+02  0.45594000000E+02  0.51100000000E-03 0. -1.
    9900012    2    1    2    0    0  0.63457406801E+01 -0.14324958603E+02 -0.10256983579E+02  0.72461586145E+02  0.70000020648E+02 0.  0.
        -12    1    1    2    0    0 -0.63457406801E+01  0.14324958603E+02  0.10256983579E+02  0.18726413855E+02  0.00000000000E+00 0.  1.
         11    1    3    3    0    0  0.71512757815E+01 -0.19815878820E+02 -0.22572609978E+02  0.30876083304E+02  0.51100000000E-03 0. -1.
        -11    1    3    3    0    0  0.67249399730E+01  0.11985860611E+02 -0.10104877233E+02  0.17058552588E+02  0.51100000000E-03 0.  1.
         12    1    3    3    0    0 -0.75304750744E+01 -0.64949403931E+01  0.22420503633E+02  0.24526950253E+02  0.00000000000E+00 0. -1.
</event>
<event>
 7    1  0.2688173E-013  0.7246157E+02  0.7816164E-02  0.1226708E+00
        -11   -1    0    0    0    0  0.00000000000E+00  0.00000000000E+00  0.45593999997E+02  0.45594000000E+02  0.51100000000E-03 0. -1.
         11   -1    0    0    0    0 -0.00000000000E+00 -0.00000000000E+00 -0.45593999997E+02  0.45594000000E+02  0.51100000000E-03 0.  1.
    9900012    2    1    2    0    0 -0.38582554438E+01 -0.37864271966E+01  0.17929197337E+02  0.72461567261E+02  0.69999996048E+02 0.  0.
        -12    1    1    2    0    0  0.38582554438E+01  0.37864271966E+01 -0.17929197337E+02  0.18726432739E+02  0.00000000000E+00 0.  1.
         11    1    3    3    0    0  0.10064484357E+02 -0.31661900456E+01 -0.38319999896E+00  0.10557719795E+02  0.51100000000E-03 0. -1.
        -11    1    3    3    0    0  0.18831031437E+02 -0.34273166343E+01  0.21606807762E+02  0.28865349231E+02  0.51100000000E-03 0.  1.
        -12    1    3    3    0    0 -0.32753771238E+02  0.28070794833E+01 -0.32944104262E+01  0.33038498234E+02  0.00000000000E+00 0.  1.
</event>
<event>
 7    1  0.2688173E-013  0.7246159E+02  0.7816164E-02  0.1226708E+00
        -11   -1    0    0    0    0  0.00000000000E+00  0.00000000000E+00  0.45593999997E+02  0.45594000000E+02  0.51100000000E-03 0.  1.
         11   -1    0    0    0    0 -0.00000000000E+00 -0.00000000000E+00 -0.45593999997E+02  0.45594000000E+02  0.51100000000E-03 0. -1.
    9900012    2    1    2    0    0  0.10810829816E+00  0.15810796166E+02 -0.10034219843E+02  0.72461587352E+02  0.70000022221E+02 0.  0.
        -12    1    1    2    0    0 -0.10810829816E+00 -0.15810796166E+02  0.10034219843E+02  0.18726412648E+02  0.00000000000E+00 0.  1.
         11    1    3    3    0    0 -0.20836797007E+01 -0.16506042518E+02 -0.19148172879E+02  0.25366191783E+02  0.51100000000E-03 0. -1.
        -11    1    3    3    0    0 -0.11358503285E+02  0.92161762531E+01 -0.65966544140E+01  0.16045851530E+02  0.51100000000E-03 0.  1.
        -12    1    3    3    0    0  0.13550291284E+02  0.23100662430E+02  0.15710607450E+02  0.31049544039E+02  0.00000000000E+00 0.  1.
</event>
<event>
 7    1  0.2688173E-013  0.7246156E+02  0.7816164E-02  0.1226708E+00
        -11   -1    0    0    0    0  0.00000000000E+00  0.00000000000E+00  0.45593999997E+02  0.45594000000E+02  0.51100000000E-03 0.  1.
         11   -1    0    0    0    0 -0.00000000000E+00 -0.00000000000E+00 -0.45593999997E+02  0.45594000000E+02  0.51100000000E-03 0. -1.
    9900012    2    1    2    0    0  0.11147172592E+02  0.93016070636E+01 -0.11827942997E+02  0.72461559166E+02  0.69999985504E+02 0.  0.
        -12    1    1    2    0    0 -0.11147172592E+02 -0.93016070636E+01  0.11827942997E+02  0.18726440834E+02  0.00000000000E+00 0.  1.
         11    1    3    3    0    0  0.78428797131E+01  0.38200347969E+01 -0.24948436777E+02  0.26429678885E+02  0.51100000000E-03 0. -1.
        -11    1    3    3    0    0  0.10305768927E+02 -0.14395519851E+02 -0.48275631557E+01  0.18350619369E+02  0.51100000000E-03 0.  1.
        -12    1    3    3    0    0 -0.70014760479E+01  0.19877092118E+02  0.17948056936E+02  0.27681260912E+02  0.00000000000E+00 0.  1.
</event>
<event>
 7    1  0.2688173E-013  0.7246154E+02  0.7816164E-02  0.1226708E+00
        -11   -1    0    0    0    0  0.00000000000E+00  0.00000000000E+00  0.45593999997E+02  0.45594000000E+02  0.51100000000E-03 0.  1.
         11   -1    0    0    0    0 -0.00000000000E+00 -0.00000000000E+00 -0.45593999997E+02  0.45594000000E+02  0.51100000000E-03 0. -1.
    9900012    2    1    2    0    0  0.72487897612E+01 -0.11332387569E+02 -0.13027372978E+02  0.72461537234E+02  0.69999956933E+02 0.  0.
        -12    1    1    2    0    0 -0.72487897612E+01  0.11332387569E+02  0.13027372978E+02  0.18726462766E+02  0.00000000000E+00 0.  1.
         11    1    3    3    0    0  0.10796093162E+02  0.96881628758E+01 -0.50289423277E+01  0.15352732286E+02  0.51100000000E-03 0. -1.
        -11    1    3    3    0    0 -0.11715367352E+02  0.95401438976E+01  0.12334769004E+02  0.19504120191E+02  0.51100000000E-03 0.  1.
         12    1    3    3    0    0  0.81680639519E+01 -0.30560694342E+02 -0.20333199655E+02  0.37604684756E+02  0.00000000000E+00 0. -1.
</event>
<event>
 7    1  0.2688173E-013  0.7246152E+02  0.7816164E-02  0.1226708E+00
        -11   -1    0    0    0    0  0.00000000000E+00  0.00000000000E+00  0.45593999997E+02  0.45594000000E+02  0.51100000000E-03 0.  1.
         11   -1    0    0    0    0 -0.00000000000E+00 -0.00000000000E+00 -0.45593999997E+02  0.45594000000E+02  0.51100000000E-03 0. -1.
    9900012    2    1    2    0    0 -0.78790069091E+01 -0.71145067508E+01 -0.15426799006E+02  0.72461519184E+02  0.69999933420E+02 0.  0.
        -12    1    1    2    0    0  0.78790069091E+01  0.71145067508E+01  0.15426799006E+02  0.18726480816E+02  0.00000000000E+00 0.  1.
         11    1    3    3    0    0 -0.22392170786E+02 -0.14750050837E+02 -0.11283254289E+02  0.29090980386E+02  0.51100000000E-03 0. -1.
        -11    1    3    3    0    0  0.93019877005E+01 -0.10244759267E+02  0.12308957847E+02  0.18520056997E+02  0.51100000000E-03 0.  1.
        -12    1    3    3    0    0  0.52111761767E+01  0.17880303353E+02 -0.16452502564E+02  0.24850481801E+02  0.00000000000E+00 0.  1.
</event>
<event>
 7    1  0.2688173E-013  0.7246156E+02  0.7816164E-02  0.1226708E+00
        -11   -1    0    0    0    0  0.00000000000E+00  0.00000000000E+00  0.45593999997E+02  0.45594000000E+02  0.51100000000E-03 0. -1.
         11   -1    0    0    0    0 -0.00000000000E+00 -0.00000000000E+00 -0.45593999997E+02  0.45594000000E+02  0.51100000000E-03 0.  1.
    9900012    2    1    2    0    0 -0.63508191887E+00  0.71482161691E+01  0.17296799358E+02  0.72461559029E+02  0.69999985324E+02 0.  0.
        -12    1    1    2    0    0  0.63508191887E+00 -0.71482161691E+01 -0.17296799358E+02  0.18726440971E+02  0.00000000000E+00 0.  1.
         11    1    3    3    0    0 -0.58581359710E+01 -0.47194819027E+01 -0.39973116279E+00  0.75333293933E+01  0.51100000000E-03 0. -1.
        -11    1    3    3    0    0 -0.12155960948E+02 -0.16074561452E+02 -0.94602951679E+01  0.22263335271E+02  0.51100000000E-03 0.  1.
         12    1    3    3    0    0  0.17379015000E+02  0.27942259524E+02  0.27156825688E+02  0.42664894365E+02  0.00000000000E+00 0. -1.
</event>
<event>
 7    1  0.2688173E-013  0.7246169E+02  0.7816164E-02  0.1226708E+00
        -11   -1    0    0    0    0  0.00000000000E+00  0.00000000000E+00  0.45593999997E+02  0.45594000000E+02  0.51100000000E-03 0. -1.
         11   -1    0    0    0    0 -0.00000000000E+00 -0.00000000000E+00 -0.45593999997E+02  0.45594000000E+02  0.51100000000E-03 0.  1.
    9900012    2    1    2    0    0  0.56743957554E+01  0.17092371372E+02 -0.51309786664E+01  0.72461685137E+02  0.70000149603E+02 0.  0.
        -12    1    1    2    0    0 -0.56743957554E+01 -0.17092371372E+02  0.51309786664E+01  0.18726314863E+02  0.00000000000E+00 0.  1.
         11    1    3    3    0    0  0.95799224062E+01  0.20366375416E+02 -0.62158940351E+01  0.23349550313E+02  0.51100000000E-03 0. -1.
        -11    1    3    3    0    0  0.15729845126E+02  0.20625624531E+01 -0.16008242716E+02  0.22537657968E+02  0.51100000000E-03 0.  1.
         12    1    3    3    0    0 -0.19635371777E+02 -0.53365664980E+01  0.17093158085E+02  0.26574476855E+02  0.00000000000E+00 0. -1.
</event>
<event>
 7    1  0.2688173E-013  0.7246156E+02  0.7816164E-02  0.1226708E+00
        -11   -1    0    0    0    0  0.00000000000E+00  0.00000000000E+00  0.45593999997E+02  0.45594000000E+02  0.51100000000E-03 0. -1.
         11   -1    0    0    0    0 -0.00000000000E+00 -0.00000000000E+00 -0.45593999997E+02  0.45594000000E+02  0.51100000000E-03 0.  1.
    9900012    2    1    2    0    0  0.23821916271E+01  0.39821159552E+01  0.18142423127E+02  0.72461558765E+02  0.69999984981E+02 0.  0.
        -12    1    1    2    0    0 -0.23821916271E+01 -0.39821159552E+01 -0.18142423127E+02  0.18726441235E+02  0.00000000000E+00 0.  1.
         11    1    3    3    0    0 -0.68155561325E+01 -0.55887735057E+01 -0.54447032410E+01  0.10360067004E+02  0.51100000000E-03 0. -1.
        -11    1    3    3    0    0 -0.20624163183E+01 -0.18016384610E+02 -0.69644352061E+01  0.19425422350E+02  0.51100000000E-03 0.  1.
         12    1    3    3    0    0  0.11260164078E+02  0.27587274071E+02  0.30551561574E+02  0.42676069410E+02  0.00000000000E+00 0. -1.
</event>
<event>
 7    1  0.2688173E-013  0.7246155E+02  0.7816164E-02  0.1226708E+00
        -11   -1    0    0    0    0  0.00000000000E+00  0.00000000000E+00  0.45593999997E+02  0.45594000000E+02  0.51100000000E-03 0.  1.
         11   -1    0    0    0    0 -0.00000000000E+00 -0.00000000000E+00 -0.45593999997E+02  0.45594000000E+02  0.51100000000E-03 0. -1.
    9900012    2    1    2    0    0  0.43638980209E+01  0.13026554138E+00 -0.18210416619E+02  0.72461552166E+02  0.69999976385E+02 0.  0.
        -12    1    1    2    0    0 -0.43638980209E+01 -0.13026554138E+00  0.18210416619E+02  0.18726447834E+02  0.00000000000E+00 0.  1.
         11    1    3    3    0    0 -0.17095625612E+02  0.12583121251E+02 -0.32684834109E+02  0.38972987266E+02  0.51100000000E-03 0. -1.
        -11    1    3    3    0    0 -0.15422908448E+01  0.23733342893E+01  0.12330082079E+01  0.30873429029E+01  0.51100000000E-03 0.  1.
        -12    1    3    3    0    0  0.23001814478E+02 -0.14826189999E+02  0.13241409282E+02  0.30401221997E+02  0.00000000000E+00 0.  1.
</event>
<event>
 7    1  0.2688173E-013  0.7246153E+02  0.7816164E-02  0.1226708E+00
        -11   -1    0    0    0    0  0.00000000000E+00  0.00000000000E+00  0.45593999997E+02  0.45594000000E+02  0.51100000000E-03 0. -1.
         11   -1    0    0    0    0 -0.00000000000E+00 -0.00000000000E+00 -0.45593999997E+02  0.45594000000E+02  0.51100000000E-03 0.  1.
    9900012    2    1    2    0    0  0.48262891992E+01  0.10103175246E+02  0.15010441370E+02  0.72461532965E+02  0.69999951371E+02 0.  0.
        -12    1    1    2    0    0 -0.48262891992E+01 -0.10103175246E+02 -0.15010441370E+02  0.18726467035E+02  0.00000000000E+00 0.  1.
         11    1    3    3    0    0 -0.19306032040E+02  0.10136307210E+02 -0.11787298694E+01  0.21837055694E+02  0.51100000000E-03 0. -1.
        -11    1    3    3    0    0 -0.93739372787E+01  0.87975095284E+01  0.13362033106E+01  0.12924871897E+02  0.51100000000E-03 0.  1.
         12    1    3    3    0    0  0.33506258518E+02 -0.88306414926E+01  0.14852967929E+02  0.37699605374E+02  0.00000000000E+00 0. -1.
</event>
<event>
 7    1  0.3228461E-013  0.7246170E+02  0.7816164E-02  0.1226708E+00
        -11   -1    0    0    0    0  0.00000000000E+00  0.00000000000E+00  0.45593999997E+02  0.45594000000E+02  0.51100000000E-03 0. -1.
         11   -1    0    0    0    0 -0.00000000000E+00 -0.00000000000E+00 -0.45593999997E+02  0.45594000000E+02  0.51100000000E-03 0.  1.
    9900012    2    1    2    0    0  0.47117144532E-01  0.10910956387E+02  0.15219173380E+02  0.72461696903E+02  0.70000164931E+02 0.  0.
        -12    1    1    2    0    0 -0.47117144532E-01 -0.10910956387E+02 -0.15219173380E+02  0.18726303097E+02  0.00000000000E+00 0.  1.
         11    1    3    3    0    0 -0.94056939625E+01 -0.17842227152E+02  0.26192538560E+02  0.33058451645E+02  0.51100000000E-03 0. -1.
        -11    1    3    3    0    0  0.13633427436E+01 -0.29566088787E+01 -0.52552440695E+01  0.61820571001E+01  0.51100000000E-03 0.  1.
        -12    1    3    3    0    0  0.80894683634E+01  0.31709792418E+02 -0.57181211108E+01  0.33221188158E+02  0.00000000000E+00 0.  1.
</event>
<event>
 7    1  0.2688173E-013  0.7246147E+02  0.7816164E-02  0.1226708E+00
        -11   -1    0    0    0    0  0.00000000000E+00  0.00000000000E+00  0.45593999997E+02  0.45594000000E+02  0.51100000000E-03 0. -1.
         11   -1    0    0    0    0 -0.00000000000E+00 -0.00000000000E+00 -0.45593999997E+02  0.45594000000E+02  0.51100000000E-03 0.  1.
    9900012    2    1    2    0    0  0.76456602464E+01  0.16742230982E+02  0.34531611922E+01  0.72461474934E+02  0.69999875775E+02 0.  0.
        -12    1    1    2    0    0 -0.76456602464E+01 -0.16742230982E+02 -0.34531611922E+01  0.18726525066E+02  0.00000000000E+00 0.  1.
         11    1    3    3    0    0 -0.17915736042E+02 -0.44158987910E+00 -0.11999713310E+02  0.21567608104E+02  0.51100000000E-03 0. -1.
        -11    1    3    3    0    0  0.60351404592E+01 -0.23060646068E+01 -0.10945508686E+02  0.12710035995E+02  0.51100000000E-03 0.  1.
        -12    1    3    3    0    0  0.19526255829E+02  0.19489885467E+02  0.26398383189E+02  0.38183830835E+02  0.00000000000E+00 0.  1.
</event>
<event>
 7    1  0.2688173E-013  0.7246159E+02  0.7816164E-02  0.1226708E+00
        -11   -1    0    0    0    0  0.00000000000E+00  0.00000000000E+00  0.45593999997E+02  0.45594000000E+02  0.51100000000E-03 0.  1.
         11   -1    0    0    0    0 -0.00000000000E+00 -0.00000000000E+00 -0.45593999997E+02  0.45594000000E+02  0.51100000000E-03 0. -1.
    9900012    2    1    2    0    0 -0.34076733898E+01 -0.12090677708E+02 -0.13888182862E+02  0.72461592213E+02  0.70000028554E+02 0.  0.
        -12    1    1    2    0    0  0.34076733898E+01  0.12090677708E+02  0.13888182862E+02  0.18726407787E+02  0.00000000000E+00 0.  1.
         11    1    3    3    0    0  0.10869196468E+02 -0.13118100930E+01 -0.35751555318E+01  0.11517031515E+02  0.51100000000E-03 0. -1.
        -11    1    3    3    0    0  0.28515911838E+01 -0.28778547644E+02  0.80840674827E+01  0.30028128881E+02  0.51100000000E-03 0.  1.
         12    1    3    3    0    0 -0.17128461041E+02  0.17999680029E+02 -0.18397094813E+02  0.30916431818E+02  0.00000000000E+00 0. -1.
</event>
<event>
 7    1  0.2688173E-013  0.7246152E+02  0.7816164E-02  0.1226708E+00
        -11   -1    0    0    0    0  0.00000000000E+00  0.00000000000E+00  0.45593999997E+02  0.45594000000E+02  0.51100000000E-03 0. -1.
         11   -1    0    0    0    0 -0.00000000000E+00 -0.00000000000E+00 -0.45593999997E+02  0.45594000000E+02  0.51100000000E-03 0.  1.
    9900012    2    1    2    0    0 -0.12249747855E+02 -0.15994440520E+00  0.14163298662E+02  0.72461523190E+02  0.69999938638E+02 0.  0.
        -12    1    1    2    0    0  0.12249747855E+02  0.15994440520E+00 -0.14163298662E+02  0.18726476810E+02  0.00000000000E+00 0.  1.
         11    1    3    3    0    0 -0.68420687369E+01 -0.14115905544E+02  0.26226248113E+02  0.30559593981E+02  0.51100000000E-03 0. -1.
        -11    1    3    3    0    0 -0.64931942603E+01 -0.85414294481E+01  0.66466365177E+01  0.12621226802E+02  0.51100000000E-03 0.  1.
         12    1    3    3    0    0  0.10855151423E+01  0.22497390587E+02 -0.18709585969E+02  0.29280702408E+02  0.00000000000E+00 0. -1.
</event>
<event>
 7    1  0.2688173E-013  0.7246155E+02  0.7816164E-02  0.1226708E+00
        -11   -1    0    0    0    0  0.00000000000E+00  0.00000000000E+00  0.45593999997E+02  0.45594000000E+02  0.51100000000E-03 0. -1.
         11   -1    0    0    0    0 -0.00000000000E+00 -0.00000000000E+00 -0.45593999997E+02  0.45594000000E+02  0.51100000000E-03 0.  1.
    9900012    2    1    2    0    0  0.86546821280E+00 -0.23172793091E+01  0.18562358782E+02  0.72461548596E+02  0.69999971734E+02 0.  0.
        -12    1    1    2    0    0 -0.86546821280E+00  0.23172793091E+01 -0.18562358782E+02  0.18726451404E+02  0.00000000000E+00 0.  1.
         11    1    3    3    0    0 -0.57144573953E+01  0.53701406429E+01  0.76696825967E+01  0.10968931819E+02  0.51100000000E-03 0. -1.
        -11    1    3    3    0    0 -0.22922851504E+02 -0.18121702552E+02  0.48333803569E+01  0.29617812046E+02  0.51100000000E-03 0.  1.
        -12    1    3    3    0    0  0.29502777112E+02  0.10434282600E+02  0.60592958288E+01  0.31874804731E+02  0.00000000000E+00 0.  1.
</event>
<event>
 7    1  0.2688173E-013  0.7246148E+02  0.7816164E-02  0.1226708E+00
        -11   -1    0    0    0    0  0.00000000000E+00  0.00000000000E+00  0.45593999997E+02  0.45594000000E+02  0.51100000000E-03 0. -1.
         11   -1    0    0    0    0 -0.00000000000E+00 -0.00000000000E+00 -0.45593999997E+02  0.45594000000E+02  0.51100000000E-03 0.  1.
    9900012    2    1    2    0    0 -0.10328128309E+02 -0.59428381220E+01  0.14446285940E+02  0.72461475049E+02  0.69999875925E+02 0.  0.
        -12    1    1    2    0    0  0.10328128309E+02  0.59428381220E+01 -0.14446285940E+02  0.18726524951E+02  0.00000000000E+00 0.  1.
         11    1    3    3    0    0  0.11828859401E+02 -0.28619866934E+02  0.21303185804E+02  0.37587822812E+02  0.51100000000E-03 0. -1.
        -11    1    3    3    0    0  0.45379938260E+00  0.34795412156E+00  0.18402853034E+01  0.19270848994E+01  0.51100000000E-03 0.  1.
        -12    1    3    3    0    0 -0.22610787092E+02  0.22329074691E+02 -0.86971851674E+01  0.32946567338E+02  0.00000000000E+00 0.  1.
</event>
<event>
 7    1  0.2688173E-013  0.7246157E+02  0.7816164E-02  0.1226708E+00
        -11   -1    0    0    0    0  0.00000000000E+00  0.00000000000E+00  0.45593999997E+02  0.45594000000E+02  0.51100000000E-03 0.  1.
         11   -1    0    0    0    0 -0.00000000000E+00 -0.00000000000E+00 -0.45593999997E+02  0.45594000000E+02  0.51100000000E-03 0. -1.
    9900012    2    1    2    0    0  0.48157897161E+00 -0.13864953507E+02 -0.12578163392E+02  0.72461573529E+02  0.70000004214E+02 0.  0.
        -12    1    1    2    0    0 -0.48157897161E+00  0.13864953507E+02  0.12578163392E+02  0.18726426471E+02  0.00000000000E+00 0.  1.
         11    1    3    3    0    0  0.21283254173E+01  0.38851661957E+01  0.11382395778E+01  0.45738249909E+01  0.51100000000E-03 0. -1.
        -11    1    3    3    0    0 -0.14617517397E+02 -0.20308733615E+02 -0.34884242371E+02  0.42930488490E+02  0.51100000000E-03 0.  1.
         12    1    3    3    0    0  0.12970770951E+02  0.25586139127E+01  0.21167839401E+02  0.24957260049E+02  0.00000000000E+00 0. -1.
</event>
<event>
 7    1  0.2688173E-013  0.7246157E+02  0.7816164E-02  0.1226708E+00
        -11   -1    0    0    0    0  0.00000000000E+00  0.00000000000E+00  0.45593999997E+02  0.45594000000E+02  0.51100000000E-03 0.  1.
         11   -1    0    0    0    0 -0.00000000000E+00 -0.00000000000E+00 -0.45593999997E+02  0.45594000000E+02  0.51100000000E-03 0. -1.
    9900012    2    1    2    0    0  0.11955484354E+02  0.29525305110E+01 -0.14107726730E+02  0.72461574926E+02  0.70000006034E+02 0.  0.
        -12    1    1    2    0    0 -0.11955484354E+02 -0.29525305110E+01  0.14107726730E+02  0.18726425074E+02  0.00000000000E+00 0.  1.
         11    1    3    3    0    0  0.62139157244E+01 -0.19236149462E+02 -0.20784102529E+01  0.20321466094E+02  0.51100000000E-03 0. -1.
        -11    1    3    3    0    0 -0.16403170273E+02 -0.20928984602E+01  0.14935775918E+01  0.16603463291E+02  0.51100000000E-03 0.  1.
        -12    1    3    3    0    0  0.22144738903E+02  0.24281578434E+02 -0.13522894068E+02  0.35536645541E+02  0.00000000000E+00 0.  1.
</event>
<event>
 7    1  0.2688173E-013  0.7246156E+02  0.7816164E-02  0.1226708E+00
        -11   -1    0    0    0    0  0.00000000000E+00  0.00000000000E+00  0.45593999997E+02  0.45594000000E+02  0.51100000000E-03 0.  1.
         11   -1    0    0    0    0 -0.00000000000E+00 -0.00000000000E+00 -0.45593999997E+02  0.45594000000E+02  0.51100000000E-03 0. -1.
    9900012    2    1    2    0    0 -0.79767937758E+01  0.16027988769E+02  0.54912608581E+01  0.72461558568E+02  0.69999984724E+02 0.  0.
        -12    1    1    2    0    0  0.79767937758E+01 -0.16027988769E+02 -0.54912608581E+01  0.18726441432E+02  0.00000000000E+00 0.  1.
         11    1    3    3    0    0 -0.11706456275E+02  0.10468572822E+02  0.11230116172E+01  0.15744627363E+02  0.51100000000E-03 0. -1.
        -11    1    3    3    0    0  0.73930046338E+01  0.20848992528E+02  0.23286382215E+02  0.32118415338E+02  0.51100000000E-03 0.  1.
         12    1    3    3    0    0 -0.36633421347E+01 -0.15289576581E+02 -0.18918132974E+02  0.24598515866E+02  0.00000000000E+00 0. -1.
</event>
<event>
 7    1  0.2688173E-013  0.7246151E+02  0.7816164E-02  0.1226708E+00
        -11   -1    0    0    0    0  0.00000000000E+00  0.00000000000E+00  0.45593999997E+02  0.45594000000E+02  0.51100000000E-03 0. -1.
         11   -1    0    0    0    0 -0.00000000000E+00 -0.00000000000E+00 -0.45593999997E+02  0.45594000000E+02  0.51100000000E-03 0.  1.
    9900012    2    1    2    0    0 -0.39687426467E+00  0.11324458535E+02  0.14909078735E+02  0.72461508097E+02  0.69999918976E+02 0.  0.
        -12    1    1    2    0    0  0.39687426467E+00 -0.11324458535E+02 -0.14909078735E+02  0.18726491903E+02  0.00000000000E+00 0.  1.
         11    1    3    3    0    0  0.94363556183E+01  0.13106659851E+02 -0.16517646236E+02  0.23101125021E+02  0.51100000000E-03 0. -1.
        -11    1    3    3    0    0 -0.11876194748E+02  0.90127119903E+01 -0.11771301057E+01  0.14955220315E+02  0.51100000000E-03 0.  1.
        -12    1    3    3    0    0  0.20429648653E+01 -0.10794913307E+02  0.32603855076E+02  0.34405162760E+02  0.00000000000E+00 0.  1.
</event>
<event>
 7    1  0.2688173E-013  0.7246156E+02  0.7816164E-02  0.1226708E+00
        -11   -1    0    0    0    0  0.00000000000E+00  0.00000000000E+00  0.45593999997E+02  0.45594000000E+02  0.51100000000E-03 0. -1.
         11   -1    0    0    0    0 -0.00000000000E+00 -0.00000000000E+00 -0.45593999997E+02  0.45594000000E+02  0.51100000000E-03 0.  1.
    9900012    2    1    2    0    0  0.14592882343E+02 -0.11248312670E+02 -0.33470770786E+01  0.72461556718E+02  0.69999982315E+02 0.  0.
        -12    1    1    2    0    0 -0.14592882343E+02  0.11248312670E+02  0.33470770786E+01  0.18726443282E+02  0.00000000000E+00 0.  1.
         11    1    3    3    0    0  0.22938815005E+02 -0.39795933840E+01 -0.25018719550E+02  0.34175469646E+02  0.51100000000E-03 0. -1.
        -11    1    3    3    0    0  0.66252098174E+01  0.79546864148E+00 -0.37855437584E+01  0.76718001337E+01  0.51100000000E-03 0.  1.
        -12    1    3    3    0    0 -0.14971142479E+02 -0.80641879274E+01  0.25457186229E+02  0.30614286939E+02  0.00000000000E+00 0.  1.
</event>
<event>
 7    1  0.2688173E-013  0.7246158E+02  0.7816164E-02  0.1226708E+00
        -11   -1    0    0    0    0  0.00000000000E+00  0.00000000000E+00  0.45593999997E+02  0.45594000000E+02  0.51100000000E-03 0. -1.
         11   -1    0    0    0    0 -0.00000000000E+00 -0.00000000000E+00 -0.45593999997E+02  0.45594000000E+02  0.51100000000E-03 0.  1.
    9900012    2    1    2    0    0  0.10339034216E+02  0.12182585130E+02  0.97656479059E+01  0.72461577811E+02  0.70000009792E+02 0.  0.
        -12    1    1    2    0    0 -0.10339034216E+02 -0.12182585130E+02 -0.97656479059E+01  0.18726422189E+02  0.00000000000E+00 0.  1.
         11    1    3    3    0    0 -0.44854466402E+01  0.22115257922E+02  0.33338402620E+02  0.40257334165E+02  0.51100000000E-03 0. -1.
        -11    1    3    3    0    0  0.46023104565E+01  0.19642651277E+01 -0.16921925254E+01  0.52823399014E+01  0.51100000000E-03 0.  1.
        -12    1    3    3    0    0  0.10222170400E+02 -0.11896937920E+02 -0.21880562189E+02  0.26921903745E+02  0.00000000000E+00 0.  1.
</event>
<event>
 7    1  0.2688173E-013  0.7246159E+02  0.7816164E-02  0.1226708E+00
        -11   -1    0    0    0    0  0.00000000000E+00  0.00000000000E+00  0.45593999997E+02  0.45594000000E+02  0.51100000000E-03 0. -1.
         11   -1    0    0    0    0 -0.00000000000E+00 -0.00000000000E+00 -0.45593999997E+02  0.45594000000E+02  0.51100000000E-03 0.  1.
    9900012    2    1    2    0    0  0.13127552841E+02  0.77305253563E+01  0.10889670509E+02  0.72461585776E+02  0.70000020168E+02 0.  0.
        -12    1    1    2    0    0 -0.13127552841E+02 -0.77305253563E+01 -0.10889670509E+02  0.18726414224E+02  0.00000000000E+00 0.  1.
         11    1    3    3    0    0 -0.12972304081E+02  0.25865553892E+01 -0.12212282145E+02  0.18003076887E+02  0.51100000000E-03 0. -1.
        -11    1    3    3    0    0 -0.35946381423E+01 -0.41828164505E+01 -0.84808091944E+01  0.10116397663E+02  0.51100000000E-03 0.  1.
         12    1    3    3    0    0  0.29694495064E+02  0.93267864175E+01  0.31582761849E+02  0.44342111226E+02  0.00000000000E+00 0. -1.
</event>
<event>
 7    1  0.2688173E-013  0.7246158E+02  0.7816164E-02  0.1226708E+00
        -11   -1    0    0    0    0  0.00000000000E+00  0.00000000000E+00  0.45593999997E+02  0.45594000000E+02  0.51100000000E-03 0.  1.
         11   -1    0    0    0    0 -0.00000000000E+00 -0.00000000000E+00 -0.45593999997E+02  0.45594000000E+02  0.51100000000E-03 0. -1.
    9900012    2    1    2    0    0  0.13571419415E+02 -0.15707288927E+01 -0.12807343342E+02  0.72461583961E+02  0.70000017804E+02 0.  0.
        -12    1    1    2    0    0 -0.13571419415E+02  0.15707288927E+01  0.12807343342E+02  0.18726416039E+02  0.00000000000E+00 0.  1.
         11    1    3    3    0    0 -0.17439384562E+01 -0.31930651209E+02 -0.40769207119E+01  0.32237076337E+02  0.51100000000E-03 0.  1.
        -11    1    3    3    0    0  0.47903765653E+01  0.16161673211E+02 -0.13858047135E+02  0.21821843626E+02  0.51100000000E-03 0. -1.
        -12    1    3    3    0    0  0.10524981306E+02  0.14198249106E+02  0.51276245051E+01  0.18402663998E+02  0.00000000000E+00 0.  1.
</event>
<event>
 7    1  0.2688173E-013  0.7246152E+02  0.7816164E-02  0.1226708E+00
        -11   -1    0    0    0    0  0.00000000000E+00  0.00000000000E+00  0.45593999997E+02  0.45594000000E+02  0.51100000000E-03 0.  1.
         11   -1    0    0    0    0 -0.00000000000E+00 -0.00000000000E+00 -0.45593999997E+02  0.45594000000E+02  0.51100000000E-03 0. -1.
    9900012    2    1    2    0    0 -0.46590383335E+01 -0.15823720722E+02  0.88647699137E+01  0.72461523522E+02  0.69999939070E+02 0.  0.
        -12    1    1    2    0    0  0.46590383335E+01  0.15823720722E+02 -0.88647699137E+01  0.18726476478E+02  0.00000000000E+00 0.  1.
         11    1    3    3    0    0  0.11335732509E+02 -0.10291547276E+02 -0.34283352575E+01  0.15689750149E+02  0.51100000000E-03 0. -1.
        -11    1    3    3    0    0 -0.51179026743E+01 -0.22321655477E+02 -0.11549524739E+02  0.25648406442E+02  0.51100000000E-03 0.  1.
        -12    1    3    3    0    0 -0.10876868168E+02  0.16789482032E+02  0.23842629911E+02  0.31123366931E+02  0.00000000000E+00 0.  1.
</event>
<event>
 7    1  0.2688173E-013  0.7246160E+02  0.7816164E-02  0.1226708E+00
        -11   -1    0    0    0    0  0.00000000000E+00  0.00000000000E+00  0.45593999997E+02  0.45594000000E+02  0.51100000000E-03 0.  1.
         11   -1    0    0    0    0 -0.00000000000E+00 -0.00000000000E+00 -0.45593999997E+02  0.45594000000E+02  0.51100000000E-03 0. -1.
    9900012    2    1    2    0    0 -0.65831741874E+01 -0.14734146117E+02 -0.94997226050E+01  0.72461602222E+02  0.70000041591E+02 0.  0.
        -12    1    1    2    0    0  0.65831741874E+01  0.14734146117E+02  0.94997226050E+01  0.18726397778E+02  0.00000000000E+00 0.  1.
         11    1    3    3    0    0 -0.85199248916E+01 -0.12311700332E+02 -0.14627884188E+01  0.15043498112E+02  0.51100000000E-03 0. -1.
        -11    1    3    3    0    0 -0.12393427016E+02  0.18567348635E+01  0.21172144027E+02  0.24602930324E+02  0.51100000000E-03 0.  1.
        -12    1    3    3    0    0  0.14330177721E+02 -0.42791806490E+01 -0.29209078213E+02  0.32815173786E+02  0.00000000000E+00 0.  1.
</event>
<event>
 7    1  0.2688173E-013  0.7246161E+02  0.7816164E-02  0.1226708E+00
        -11   -1    0    0    0    0  0.00000000000E+00  0.00000000000E+00  0.45593999997E+02  0.45594000000E+02  0.51100000000E-03 0.  1.
         11   -1    0    0    0    0 -0.00000000000E+00 -0.00000000000E+00 -0.45593999997E+02  0.45594000000E+02  0.51100000000E-03 0. -1.
    9900012    2    1    2    0    0 -0.11305111820E+02 -0.10798448414E+02 -0.10308514859E+02  0.72461614337E+02  0.70000057374E+02 0.  0.
        -12    1    1    2    0    0  0.11305111820E+02  0.10798448414E+02  0.10308514859E+02  0.18726385663E+02  0.00000000000E+00 0.  1.
         11    1    3    3    0    0  0.14031110008E+02 -0.15294283017E+02 -0.87062084854E+01  0.22507447823E+02  0.51100000000E-03 0. -1.
        -11    1    3    3    0    0  0.40213308153E+01  0.15149951806E+02 -0.86995015828E+01  0.17926892349E+02  0.51100000000E-03 0.  1.
        -12    1    3    3    0    0 -0.29357552643E+02 -0.10654117203E+02  0.70971952096E+01  0.32027274165E+02  0.00000000000E+00 0.  1.
</event>
<event>
 7    1  0.2688173E-013  0.7246160E+02  0.7816164E-02  0.1226708E+00
        -11   -1    0    0    0    0  0.00000000000E+00  0.00000000000E+00  0.45593999997E+02  0.45594000000E+02  0.51100000000E-03 0.  1.
         11   -1    0    0    0    0 -0.00000000000E+00 -0.00000000000E+00 -0.45593999997E+02  0.45594000000E+02  0.51100000000E-03 0. -1.
    9900012    2    1    2    0    0  0.78831783117E+01 -0.89863847124E+01 -0.14414523102E+02  0.72461599205E+02  0.70000037661E+02 0.  0.
        -12    1    1    2    0    0 -0.78831783117E+01  0.89863847124E+01  0.14414523102E+02  0.18726400795E+02  0.00000000000E+00 0.  1.
         11    1    3    3    0    0 -0.49397960124E+01  0.23705935285E+01  0.66452323659E+00  0.55193196786E+01  0.51100000000E-03 0. -1.
        -11    1    3    3    0    0 -0.21684222706E+02 -0.43175064791E+01  0.94285452692E+01  0.24036302600E+02  0.51100000000E-03 0.  1.
         12    1    3    3    0    0  0.34507197030E+02 -0.70394717617E+01 -0.24507591608E+02  0.42905976926E+02  0.00000000000E+00 0. -1.
</event>
<event>
 7    1  0.2688173E-013  0.7246159E+02  0.7816164E-02  0.1226708E+00
        -11   -1    0    0    0    0  0.00000000000E+00  0.00000000000E+00  0.45593999997E+02  0.45594000000E+02  0.51100000000E-03 0. -1.
         11   -1    0    0    0    0 -0.00000000000E+00 -0.00000000000E+00 -0.45593999997E+02  0.45594000000E+02  0.51100000000E-03 0.  1.
    9900012    2    1    2    0    0 -0.18215937263E+02  0.29248807155E+01  0.32098652182E+01  0.72461587308E+02  0.70000022164E+02 0.  0.
        -12    1    1    2    0    0  0.18215937263E+02 -0.29248807155E+01 -0.32098652182E+01  0.18726412692E+02  0.00000000000E+00 0.  1.
         11    1    3    3    0    0  0.19188756502E+01  0.16228435957E+02  0.56901446333E+01  0.17303813556E+02  0.51100000000E-03 0. -1.
        -11    1    3    3    0    0 -0.25208563426E+01 -0.93667363877E+01  0.22406067141E+02  0.24415616155E+02  0.51100000000E-03 0.  1.
        -12    1    3    3    0    0 -0.17613956571E+02 -0.39368188541E+01 -0.24886346556E+02  0.30742157597E+02  0.00000000000E+00 0.  1.
</event>
<event>
 7    1  0.2688173E-013  0.7246162E+02  0.7816164E-02  0.1226708E+00
        -11   -1    0    0    0    0  0.00000000000E+00  0.00000000000E+00  0.45593999997E+02  0.45594000000E+02  0.51100000000E-03 0.  1.
         11   -1    0    0    0    0 -0.00000000000E+00 -0.00000000000E+00 -0.45593999997E+02  0.45594000000E+02  0.51100000000E-03 0. -1.
    9900012    2    1    2    0    0  0.61488930376E+01 -0.53860261323E+01 -0.16848123343E+02  0.72461616920E+02  0.70000060738E+02 0.  0.
        -12    1    1    2    0    0 -0.61488930376E+01  0.53860261323E+01  0.16848123343E+02  0.18726383080E+02  0.00000000000E+00 0.  1.
         11    1    3    3    0    0  0.67425497754E+01  0.82371037746E+01 -0.25004256805E+02  0.27175811206E+02  0.51100000000E-03 0. -1.
        -11    1    3    3    0    0  0.44511644648E+01  0.14489868826E+02  0.70104963619E+01  0.16700785107E+02  0.51100000000E-03 0.  1.
        -12    1    3    3    0    0 -0.50448212025E+01 -0.28112998733E+02  0.11456371004E+01  0.28585020607E+02  0.00000000000E+00 0.  1.
</event>
<event>
 7    1  0.2688173E-013  0.7246143E+02  0.7816164E-02  0.1226708E+00
        -11   -1    0    0    0    0  0.00000000000E+00  0.00000000000E+00  0.45593999997E+02  0.45594000000E+02  0.51100000000E-03 0.  1.
         11   -1    0    0    0    0 -0.00000000000E+00 -0.00000000000E+00 -0.45593999997E+02  0.45594000000E+02  0.51100000000E-03 0. -1.
    9900012    2    1    2    0    0 -0.10760494978E+02  0.14736935826E+01 -0.15255312679E+02  0.72461425570E+02  0.69999811470E+02 0.  0.
        -12    1    1    2    0    0  0.10760494978E+02 -0.14736935826E+01  0.15255312679E+02  0.18726574430E+02  0.00000000000E+00 0.  1.
         11    1    3    3    0    0  0.39715583664E+00  0.24098163632E+01 -0.26738677227E+02  0.26849987110E+02  0.51100000000E-03 0. -1.
        -11    1    3    3    0    0 -0.31553118926E+00  0.19209451845E+02 -0.15622549074E+01  0.19275456954E+02  0.51100000000E-03 0.  1.
        -12    1    3    3    0    0 -0.10842119625E+02 -0.20145574626E+02  0.13045619455E+02  0.26335981507E+02  0.00000000000E+00 0.  1.
</event>
<event>
 7    1  0.2688173E-013  0.7246161E+02  0.7816164E-02  0.1226708E+00
        -11   -1    0    0    0    0  0.00000000000E+00  0.00000000000E+00  0.45593999997E+02  0.45594000000E+02  0.51100000000E-03 0. -1.
         11   -1    0    0    0    0 -0.00000000000E+00 -0.00000000000E+00 -0.45593999997E+02  0.45594000000E+02  0.51100000000E-03 0.  1.
    9900012    2    1    2    0    0  0.13353876683E+02 -0.92109809717E+01  0.93546476906E+01  0.72461611498E+02  0.70000053675E+02 0.  0.
        -12    1    1    2    0    0 -0.13353876683E+02  0.92109809717E+01 -0.93546476906E+01  0.18726388502E+02  0.00000000000E+00 0.  1.
         11    1    3    3    0    0  0.15458952317E+02 -0.26631254401E+02 -0.35357834993E+01  0.30995236456E+02  0.51100000000E-03 0. -1.
        -11    1    3    3    0    0  0.54739455885E+01 -0.37067113653E+01 -0.82914758271E+01  0.10604355761E+02  0.51100000000E-03 0.  1.
        -12    1    3    3    0    0 -0.75790212225E+01  0.21126984795E+02  0.21181907017E+02  0.30862019281E+02  0.00000000000E+00 0.  1.
</event>
<event>
 7    1  0.2688173E-013  0.7246158E+02  0.7816164E-02  0.1226708E+00
        -11   -1    0    0    0    0  0.00000000000E+00  0.00000000000E+00  0.45593999997E+02  0.45594000000E+02  0.51100000000E-03 0. -1.
         11   -1    0    0    0    0 -0.00000000000E+00 -0.00000000000E+00 -0.45593999997E+02  0.45594000000E+02  0.51100000000E-03 0.  1.
    9900012    2    1    2    0    0  0.14042029282E+02  0.73932895488E+01  0.99417966837E+01  0.72461584486E+02  0.70000018487E+02 0.  0.
        -12    1    1    2    0    0 -0.14042029282E+02 -0.73932895488E+01 -0.99417966837E+01  0.18726415514E+02  0.00000000000E+00 0.  1.
         11    1    3    3    0    0  0.23836055180E+02  0.28324077061E+02  0.24694990140E+02  0.44500038272E+02  0.51100000000E-03 0. -1.
        -11    1    3    3    0    0 -0.18587108384E+01 -0.97893370209E+00 -0.24004437584E+01  0.31898664035E+01  0.51100000000E-03 0.  1.
        -12    1    3    3    0    0 -0.79353150595E+01 -0.19951853810E+02 -0.12352749698E+02  0.24771679811E+02  0.00000000000E+00 0.  1.
</event>
<event>
 7    1  0.2688173E-013  0.7246157E+02  0.7816164E-02  0.1226708E+00
        -11   -1    0    0    0    0  0.00000000000E+00  0.00000000000E+00  0.45593999997E+02  0.45594000000E+02  0.51100000000E-03 0.  1.
         11   -1    0    0    0    0 -0.00000000000E+00 -0.00000000000E+00 -0.45593999997E+02  0.45594000000E+02  0.51100000000E-03 0. -1.
    9900012    2    1    2    0    0 -0.11572094879E+02  0.12405331250E+02 -0.79292923181E+01  0.72461566812E+02  0.69999995463E+02 0.  0.
        -12    1    1    2    0    0  0.11572094879E+02 -0.12405331250E+02  0.79292923181E+01  0.18726433188E+02  0.00000000000E+00 0.  1.
         11    1    3    3    0    0 -0.87886772274E+01  0.13013116686E+02 -0.42526553424E+01  0.16268593394E+02  0.51100000000E-03 0. -1.
        -11    1    3    3    0    0  0.20258986965E+02  0.17488747614E+02 -0.12248668058E+01  0.26791475228E+02  0.51100000000E-03 0.  1.
         12    1    3    3    0    0 -0.23042404616E+02 -0.18096533050E+02 -0.24517701699E+01  0.29401498191E+02  0.00000000000E+00 0. -1.
</event>
<event>
 7    1  0.2688173E-013  0.7246157E+02  0.7816164E-02  0.1226708E+00
        -11   -1    0    0    0    0  0.00000000000E+00  0.00000000000E+00  0.45593999997E+02  0.45594000000E+02  0.51100000000E-03 0.  1.
         11   -1    0    0    0    0 -0.00000000000E+00 -0.00000000000E+00 -0.45593999997E+02  0.45594000000E+02  0.51100000000E-03 0. -1.
    9900012    2    1    2    0    0 -0.12049113812E+02 -0.12886439701E+02 -0.62799512733E+01  0.72461567883E+02  0.69999996859E+02 0.  0.
        -12    1    1    2    0    0  0.12049113812E+02  0.12886439701E+02  0.62799512733E+01  0.18726432117E+02  0.00000000000E+00 0.  1.
         11    1    3    3    0    0  0.41327103533E+01 -0.74944447077E+01  0.95101143448E+01  0.12794071731E+02  0.51100000000E-03 0.  1.
        -11    1    3    3    0    0 -0.79557756875E+01 -0.30278609535E+02 -0.94342348410E+01  0.32696992973E+02  0.51100000000E-03 0. -1.
         12    1    3    3    0    0 -0.82260484781E+01  0.24886614542E+02 -0.63558307772E+01  0.26970503180E+02  0.00000000000E+00 0. -1.
</event>
<event>
 7    1  0.2688173E-013  0.7246150E+02  0.7816164E-02  0.1226708E+00
        -11   -1    0    0    0    0  0.00000000000E+00  0.00000000000E+00  0.45593999997E+02  0.45594000000E+02  0.51100000000E-03 0.  1.
         11   -1    0    0    0    0 -0.00000000000E+00 -0.00000000000E+00 -0.45593999997E+02  0.45594000000E+02  0.51100000000E-03 0. -1.
    9900012    2    1    2    0    0  0.12100208391E+02  0.14084751201E+02  0.24262347758E+01  0.72461498066E+02  0.69999905909E+02 0.  0.
        -12    1    1    2    0    0 -0.12100208391E+02 -0.14084751201E+02 -0.24262347758E+01  0.18726501934E+02  0.00000000000E+00 0.  1.
         11    1    3    3    0    0  0.22102202942E+02  0.22820093627E+02  0.31225759139E+00  0.31770450943E+02  0.51100000000E-03 0.  1.
        -11    1    3    3    0    0  0.11624654697E+02  0.71562829711E+01 -0.92403887501E+00  0.13682062377E+02  0.51100000000E-03 0. -1.
         12    1    3    3    0    0 -0.21626649248E+02 -0.15891625397E+02  0.30380160595E+01  0.27008984746E+02  0.00000000000E+00 0. -1.
</event>
<event>
 7    1  0.2688173E-013  0.7246158E+02  0.7816164E-02  0.1226708E+00
        -11   -1    0    0    0    0  0.00000000000E+00  0.00000000000E+00  0.45593999997E+02  0.45594000000E+02  0.51100000000E-03 0. -1.
         11   -1    0    0    0    0 -0.00000000000E+00 -0.00000000000E+00 -0.45593999997E+02  0.45594000000E+02  0.51100000000E-03 0.  1.
    9900012    2    1    2    0    0  0.18199796759E+01 -0.25715536901E+01  0.18459516925E+02  0.72461575368E+02  0.70000006609E+02 0.  0.
        -12    1    1    2    0    0 -0.18199796759E+01  0.25715536901E+01 -0.18459516925E+02  0.18726424632E+02  0.00000000000E+00 0.  1.
         11    1    3    3    0    0  0.13154929258E+02  0.49426783167E+01  0.13393970746E+02  0.19413415087E+02  0.51100000000E-03 0. -1.
        -11    1    3    3    0    0  0.11439502506E+02 -0.20256185275E+02  0.11816850174E+02  0.26092397509E+02  0.51100000000E-03 0.  1.
        -12    1    3    3    0    0 -0.22774452088E+02  0.12741953268E+02 -0.67513039953E+01  0.26955762772E+02  0.00000000000E+00 0.  1.
</event>
<event>
 7    1  0.2688173E-013  0.7246154E+02  0.7816164E-02  0.1226708E+00
        -11   -1    0    0    0    0  0.00000000000E+00  0.00000000000E+00  0.45593999997E+02  0.45594000000E+02  0.51100000000E-03 0. -1.
         11   -1    0    0    0    0 -0.00000000000E+00 -0.00000000000E+00 -0.45593999997E+02  0.45594000000E+02  0.51100000000E-03 0.  1.
    9900012    2    1    2    0    0  0.10073337067E+01 -0.27625062509E+01  0.18494160473E+02  0.72461544554E+02  0.69999966468E+02 0.  0.
        -12    1    1    2    0    0 -0.10073337067E+01  0.27625062509E+01 -0.18494160473E+02  0.18726455446E+02  0.00000000000E+00 0.  1.
         11    1    3    3    0    0 -0.19634858097E+02 -0.62655567048E+01 -0.51754425325E+01  0.21250177858E+02  0.51100000000E-03 0. -1.
        -11    1    3    3    0    0  0.31834963524E+01  0.17824029245E+02 -0.52857614343E+00  0.18113808560E+02  0.51100000000E-03 0.  1.
        -12    1    3    3    0    0  0.17458695451E+02 -0.14320978791E+02  0.24198179149E+02  0.33097558136E+02  0.00000000000E+00 0.  1.
</event>
<event>
 7    1  0.2688173E-013  0.7246157E+02  0.7816164E-02  0.1226708E+00
        -11   -1    0    0    0    0  0.00000000000E+00  0.00000000000E+00  0.45593999997E+02  0.45594000000E+02  0.51100000000E-03 0. -1.
         11   -1    0    0    0    0 -0.00000000000E+00 -0.00000000000E+00 -0.45593999997E+02  0.45594000000E+02  0.51100000000E-03 0.  1.
    9900012    2    1    2    0    0  0.29683736736E+01  0.16049643333E+02 -0.91802404021E+01  0.72461571958E+02  0.70000002167E+02 0.  0.
        -12    1    1    2    0    0 -0.29683736736E+01 -0.16049643333E+02  0.91802404021E+01  0.18726428042E+02  0.00000000000E+00 0.  1.
         11    1    3    3    0    0 -0.29848608385E+01  0.62578685473E+01  0.63056960327E+01  0.93718789844E+01  0.51100000000E-03 0. -1.
        -11    1    3    3    0    0  0.20640831471E+02  0.29665378912E+02 -0.12287716449E+02  0.38171541829E+02  0.51100000000E-03 0.  1.
         12    1    3    3    0    0 -0.14687596959E+02 -0.19873604126E+02 -0.31982199862E+01  0.24918151145E+02  0.00000000000E+00 0. -1.
</event>
<event>
 7    1  0.2688173E-013  0.7246156E+02  0.7816164E-02  0.1226708E+00
        -11   -1    0    0    0    0  0.00000000000E+00  0.00000000000E+00  0.45593999997E+02  0.45594000000E+02  0.51100000000E-03 0.  1.
         11   -1    0    0    0    0 -0.00000000000E+00 -0.00000000000E+00 -0.45593999997E+02  0.45594000000E+02  0.51100000000E-03 0. -1.
    9900012    2    1    2    0    0  0.95078633083E+01  0.98969608604E+01 -0.12740895957E+02  0.72461555363E+02  0.69999980549E+02 0.  0.
        -12    1    1    2    0    0 -0.95078633083E+01 -0.98969608604E+01  0.12740895957E+02  0.18726444637E+02  0.00000000000E+00 0.  1.
         11    1    3    3    0    0  0.15726093925E+02 -0.23364571716E+01 -0.16709711780E+02  0.23064768160E+02  0.51100000000E-03 0. -1.
        -11    1    3    3    0    0  0.19670078772E+02  0.75521322898E+01  0.84655487736E+01  0.22707096189E+02  0.51100000000E-03 0.  1.
        -12    1    3    3    0    0 -0.25888309389E+02  0.46812857422E+01 -0.44967329508E+01  0.26689691014E+02  0.00000000000E+00 0.  1.
</event>
<event>
 7    1  0.2688173E-013  0.7246156E+02  0.7816164E-02  0.1226708E+00
        -11   -1    0    0    0    0  0.00000000000E+00  0.00000000000E+00  0.45593999997E+02  0.45594000000E+02  0.51100000000E-03 0. -1.
         11   -1    0    0    0    0 -0.00000000000E+00 -0.00000000000E+00 -0.45593999997E+02  0.45594000000E+02  0.51100000000E-03 0.  1.
    9900012    2    1    2    0    0  0.14190211373E+02 -0.10900908245E+02  0.55215565568E+01  0.72461561840E+02  0.69999988986E+02 0.  0.
        -12    1    1    2    0    0 -0.14190211373E+02  0.10900908245E+02 -0.55215565568E+01  0.18726438160E+02  0.00000000000E+00 0.  1.
         11    1    3    3    0    0 -0.11107957961E+02 -0.21181002563E+01  0.13889530194E+02  0.17910670786E+02  0.51100000000E-03 0.  1.
        -11    1    3    3    0    0  0.98677390254E+01  0.18059346640E+02 -0.11253692153E+02  0.23455444185E+02  0.51100000000E-03 0. -1.
         12    1    3    3    0    0  0.15430430308E+02 -0.26842154629E+02  0.28857185163E+01  0.31095446869E+02  0.00000000000E+00 0. -1.
</event>
<event>
 7    1  0.2688173E-013  0.7246157E+02  0.7816164E-02  0.1226708E+00
        -11   -1    0    0    0    0  0.00000000000E+00  0.00000000000E+00  0.45593999997E+02  0.45594000000E+02  0.51100000000E-03 0. -1.
         11   -1    0    0    0    0 -0.00000000000E+00 -0.00000000000E+00 -0.45593999997E+02  0.45594000000E+02  0.51100000000E-03 0.  1.
    9900012    2    1    2    0    0  0.11267324536E+02 -0.14730798189E+02  0.25942408406E+01  0.72461572070E+02  0.70000002313E+02 0.  0.
        -12    1    1    2    0    0 -0.11267324536E+02  0.14730798189E+02 -0.25942408406E+01  0.18726427930E+02  0.00000000000E+00 0.  1.
         11    1    3    3    0    0  0.25766807303E+02  0.11923708373E+02  0.20387947733E+00  0.28392688267E+02  0.51100000000E-03 0. -1.
        -11    1    3    3    0    0  0.48190964682E+01 -0.88629669322E+01 -0.10715611492E+02  0.14717343630E+02  0.51100000000E-03 0.  1.
        -12    1    3    3    0    0 -0.19318579235E+02 -0.17791539629E+02  0.13105972855E+02  0.29351540173E+02  0.00000000000E+00 0.  1.
</event>
<event>
 7    1  0.2688173E-013  0.7246144E+02  0.7816164E-02  0.1226708E+00
        -11   -1    0    0    0    0  0.00000000000E+00  0.00000000000E+00  0.45593999997E+02  0.45594000000E+02  0.51100000000E-03 0.  1.
         11   -1    0    0    0    0 -0.00000000000E+00 -0.00000000000E+00 -0.45593999997E+02  0.45594000000E+02  0.51100000000E-03 0. -1.
    9900012    2    1    2    0    0  0.63595037094E+01 -0.17586150383E+02 -0.98395087711E+00  0.72461437794E+02  0.69999827393E+02 0.  0.
        -12    1    1    2    0    0 -0.63595037094E+01  0.17586150383E+02  0.98395087711E+00  0.18726562206E+02  0.00000000000E+00 0.  1.
         11    1    3    3    0    0 -0.32271287481E+01  0.15824395862E+02  0.22073709127E+01  0.16300256162E+02  0.51100000000E-03 0. -1.
        -11    1    3    3    0    0  0.53629311978E+01 -0.43950282207E+02  0.31561883553E+00  0.44277397763E+02  0.51100000000E-03 0.  1.
         12    1    3    3    0    0  0.42237012597E+01  0.10539735962E+02 -0.35069406254E+01  0.11883783869E+02  0.00000000000E+00 0. -1.
</event>
<event>
 7    1  0.2688173E-013  0.7246159E+02  0.7816164E-02  0.1226708E+00
        -11   -1    0    0    0    0  0.00000000000E+00  0.00000000000E+00  0.45593999997E+02  0.45594000000E+02  0.51100000000E-03 0.  1.
         11   -1    0    0    0    0 -0.00000000000E+00 -0.00000000000E+00 -0.45593999997E+02  0.45594000000E+02  0.51100000000E-03 0. -1.
    9900012    2    1    2    0    0  0.60598484540E+01  0.14609029910E+02 -0.10026619057E+02  0.72461585289E+02  0.70000019534E+02 0.  0.
        -12    1    1    2    0    0 -0.60598484540E+01 -0.14609029910E+02  0.10026619057E+02  0.18726414711E+02  0.00000000000E+00 0.  1.
         11    1    3    3    0    0 -0.89992936535E+01 -0.71479002474E+01 -0.97446649225E+01  0.15067788787E+02  0.51100000000E-03 0. -1.
        -11    1    3    3    0    0  0.24009884346E+02 -0.99247432344E+00  0.15221311564E+02  0.28445524737E+02  0.51100000000E-03 0.  1.
         12    1    3    3    0    0 -0.89507422384E+01  0.22749404481E+02 -0.15503265699E+02  0.28948271765E+02  0.00000000000E+00 0. -1.
</event>
<event>
 7    1  0.2688173E-013  0.7246152E+02  0.7816164E-02  0.1226708E+00
        -11   -1    0    0    0    0  0.00000000000E+00  0.00000000000E+00  0.45593999997E+02  0.45594000000E+02  0.51100000000E-03 0.  1.
         11   -1    0    0    0    0 -0.00000000000E+00 -0.00000000000E+00 -0.45593999997E+02  0.45594000000E+02  0.51100000000E-03 0. -1.
    9900012    2    1    2    0    0 -0.17695142101E+02 -0.55864726775E+01  0.25207483783E+01  0.72461524001E+02  0.69999939695E+02 0.  0.
        -12    1    1    2    0    0  0.17695142101E+02  0.55864726775E+01 -0.25207483783E+01  0.18726475999E+02  0.00000000000E+00 0.  1.
         11    1    3    3    0    0 -0.96822998324E+01  0.31240470227E+00  0.11247529273E+02  0.14844239345E+02  0.51100000000E-03 0. -1.
        -11    1    3    3    0    0 -0.93199793292E+01 -0.17334335677E+02  0.19148520585E+02  0.27459188788E+02  0.51100000000E-03 0.  1.
         12    1    3    3    0    0  0.13071370607E+01  0.11435458297E+02 -0.27875301480E+02  0.30158095867E+02  0.00000000000E+00 0. -1.
</event>
<event>
 7    1  0.2688173E-013  0.7246159E+02  0.7816164E-02  0.1226708E+00
        -11   -1    0    0    0    0  0.00000000000E+00  0.00000000000E+00  0.45593999997E+02  0.45594000000E+02  0.51100000000E-03 0.  1.
         11   -1    0    0    0    0 -0.00000000000E+00 -0.00000000000E+00 -0.45593999997E+02  0.45594000000E+02  0.51100000000E-03 0. -1.
    9900012    2    1    2    0    0  0.40580856598E+01 -0.11256743710E+02 -0.14404726429E+02  0.72461588660E+02  0.70000023925E+02 0.  0.
        -12    1    1    2    0    0 -0.40580856598E+01  0.11256743710E+02  0.14404726429E+02  0.18726411340E+02  0.00000000000E+00 0.  1.
         11    1    3    3    0    0 -0.83927737270E+01  0.45473940762E+01 -0.14674777307E+02  0.17506185564E+02  0.51100000000E-03 0. -1.
        -11    1    3    3    0    0  0.42519050252E+01 -0.34350906884E+02  0.14448674918E+01  0.34643197636E+02  0.51100000000E-03 0.  1.
         12    1    3    3    0    0  0.81989543616E+01  0.18546769098E+02 -0.11748166130E+01  0.20312205460E+02  0.00000000000E+00 0. -1.
</event>
<event>
 7    1  0.2688173E-013  0.7246159E+02  0.7816164E-02  0.1226708E+00
        -11   -1    0    0    0    0  0.00000000000E+00  0.00000000000E+00  0.45593999997E+02  0.45594000000E+02  0.51100000000E-03 0.  1.
         11   -1    0    0    0    0 -0.00000000000E+00 -0.00000000000E+00 -0.45593999997E+02  0.45594000000E+02  0.51100000000E-03 0. -1.
    9900012    2    1    2    0    0 -0.17353671575E+02 -0.67322197869E+01 -0.20508197236E+01  0.72461586517E+02  0.70000021133E+02 0.  0.
        -12    1    1    2    0    0  0.17353671575E+02  0.67322197869E+01  0.20508197236E+01  0.18726413483E+02  0.00000000000E+00 0.  1.
         11    1    3    3    0    0 -0.14889629859E+02  0.98561416342E+01 -0.20817887077E+02  0.27426793978E+02  0.51100000000E-03 0. -1.
        -11    1    3    3    0    0  0.59017375592E+01  0.79239317480E+01 -0.38943054725E+01  0.10620019583E+02  0.51100000000E-03 0.  1.
        -12    1    3    3    0    0 -0.83657792750E+01 -0.24512293169E+02  0.22661372826E+02  0.34414772957E+02  0.00000000000E+00 0.  1.
</event>
<event>
 7    1  0.2688173E-013  0.7246161E+02  0.7816164E-02  0.1226708E+00
        -11   -1    0    0    0    0  0.00000000000E+00  0.00000000000E+00  0.45593999997E+02  0.45594000000E+02  0.51100000000E-03 0.  1.
         11   -1    0    0    0    0 -0.00000000000E+00 -0.00000000000E+00 -0.45593999997E+02  0.45594000000E+02  0.51100000000E-03 0. -1.
    9900012    2    1    2    0    0  0.12020239202E+02  0.12814657696E+02  0.64788837927E+01  0.72461613869E+02  0.70000056764E+02 0.  0.
        -12    1    1    2    0    0 -0.12020239202E+02 -0.12814657696E+02 -0.64788837927E+01  0.18726386131E+02  0.00000000000E+00 0.  1.
         11    1    3    3    0    0  0.14439766315E+02  0.21028099376E+02 -0.28679702328E+01  0.25669302057E+02  0.51100000000E-03 0. -1.
        -11    1    3    3    0    0  0.19725079619E+02 -0.12194267080E+02  0.27930210155E+01  0.23357651471E+02  0.51100000000E-03 0.  1.
         12    1    3    3    0    0 -0.22144606732E+02  0.39808253997E+01  0.65538330100E+01  0.23434660341E+02  0.00000000000E+00 0. -1.
</event>
<event>
 7    1  0.2688173E-013  0.7246157E+02  0.7816164E-02  0.1226708E+00
        -11   -1    0    0    0    0  0.00000000000E+00  0.00000000000E+00  0.45593999997E+02  0.45594000000E+02  0.51100000000E-03 0.  1.
         11   -1    0    0    0    0 -0.00000000000E+00 -0.00000000000E+00 -0.45593999997E+02  0.45594000000E+02  0.51100000000E-03 0. -1.
    9900012    2    1    2    0    0 -0.10792978071E+02 -0.33123643670E+01 -0.14940520691E+02  0.72461567028E+02  0.69999995745E+02 0.  0.
        -12    1    1    2    0    0  0.10792978071E+02  0.33123643670E+01  0.14940520691E+02  0.18726432972E+02  0.00000000000E+00 0.  1.
         11    1    3    3    0    0 -0.23731951119E+02 -0.83481401149E+01 -0.18686861683E+02  0.31338406902E+02  0.51100000000E-03 0. -1.
        -11    1    3    3    0    0 -0.13460325341E+02  0.53372744706E+01  0.24887924943E+01  0.14692206962E+02  0.51100000000E-03 0.  1.
        -12    1    3    3    0    0  0.26399298390E+02 -0.30149872268E+00  0.12575484977E+01  0.26430953164E+02  0.00000000000E+00 0.  1.
</event>
<event>
 7    1  0.2688173E-013  0.7246156E+02  0.7816164E-02  0.1226708E+00
        -11   -1    0    0    0    0  0.00000000000E+00  0.00000000000E+00  0.45593999997E+02  0.45594000000E+02  0.51100000000E-03 0. -1.
         11   -1    0    0    0    0 -0.00000000000E+00 -0.00000000000E+00 -0.45593999997E+02  0.45594000000E+02  0.51100000000E-03 0.  1.
    9900012    2    1    2    0    0  0.76434559352E+01  0.14983039492E+02  0.82320003963E+01  0.72461555555E+02  0.69999980799E+02 0.  0.
        -12    1    1    2    0    0 -0.76434559352E+01 -0.14983039492E+02 -0.82320003963E+01  0.18726444445E+02  0.00000000000E+00 0.  1.
         11    1    3    3    0    0  0.25180701245E+01 -0.67155108548E+01  0.57238782643E+00  0.71948864673E+01  0.51100000000E-03 0. -1.
        -11    1    3    3    0    0  0.88592585579E+01 -0.19022290080E+02 -0.65401339478E+01  0.21979702782E+02  0.51100000000E-03 0.  1.
         12    1    3    3    0    0 -0.37338727473E+01  0.40720840426E+02  0.14199746518E+02  0.43286966305E+02  0.00000000000E+00 0. -1.
</event>
<event>
 7    1  0.2688173E-013  0.7246149E+02  0.7816164E-02  0.1226708E+00
        -11   -1    0    0    0    0  0.00000000000E+00  0.00000000000E+00  0.45593999997E+02  0.45594000000E+02  0.51100000000E-03 0. -1.
         11   -1    0    0    0    0 -0.00000000000E+00 -0.00000000000E+00 -0.45593999997E+02  0.45594000000E+02  0.51100000000E-03 0.  1.
    9900012    2    1    2    0    0  0.51226537564E+01  0.25823358794E+00  0.18010384912E+02  0.72461488559E+02  0.69999893524E+02 0.  0.
        -12    1    1    2    0    0 -0.51226537564E+01 -0.25823358794E+00 -0.18010384912E+02  0.18726511441E+02  0.00000000000E+00 0.  1.
         11    1    3    3    0    0 -0.11410080792E+02  0.17339736784E+02  0.12932141926E+02  0.24456015834E+02  0.51100000000E-03 0. -1.
        -11    1    3    3    0    0 -0.10783818118E+02 -0.63296560329E+00 -0.81012074154E+01  0.13502627170E+02  0.51100000000E-03 0.  1.
        -12    1    3    3    0    0  0.27316552666E+02 -0.16448537593E+02  0.13179450401E+02  0.34502845555E+02  0.00000000000E+00 0.  1.
</event>
<event>
 7    1  0.2688173E-013  0.7246151E+02  0.7816164E-02  0.1226708E+00
        -11   -1    0    0    0    0  0.00000000000E+00  0.00000000000E+00  0.45593999997E+02  0.45594000000E+02  0.51100000000E-03 0.  1.
         11   -1    0    0    0    0 -0.00000000000E+00 -0.00000000000E+00 -0.45593999997E+02  0.45594000000E+02  0.51100000000E-03 0. -1.
    9900012    2    1    2    0    0 -0.15769154735E+02 -0.62281818941E+01  0.79514196103E+01  0.72461506346E+02  0.69999916695E+02 0.  0.
        -12    1    1    2    0    0  0.15769154735E+02  0.62281818941E+01 -0.79514196103E+01  0.18726493654E+02  0.00000000000E+00 0.  1.
         11    1    3    3    0    0 -0.13867689285E+02 -0.13986331289E+02  0.57614012425E+00  0.19704370245E+02  0.51100000000E-03 0. -1.
        -11    1    3    3    0    0  0.23603311475E+01 -0.22024727727E+02  0.29006975877E+01  0.22339960639E+02  0.51100000000E-03 0.  1.
         12    1    3    3    0    0 -0.42617965971E+01  0.29782877122E+02  0.44745818983E+01  0.30417175462E+02  0.00000000000E+00 0. -1.
</event>
<event>
 7    1  0.2688173E-013  0.7246170E+02  0.7816164E-02  0.1226708E+00
        -11   -1    0    0    0    0  0.00000000000E+00  0.00000000000E+00  0.45593999997E+02  0.45594000000E+02  0.51100000000E-03 0.  1.
         11   -1    0    0    0    0 -0.00000000000E+00 -0.00000000000E+00 -0.45593999997E+02  0.45594000000E+02  0.51100000000E-03 0. -1.
    9900012    2    1    2    0    0 -0.13136261926E+02  0.63608510932E+01 -0.11732535271E+02  0.72461703305E+02  0.70000173271E+02 0.  0.
        -12    1    1    2    0    0  0.13136261926E+02 -0.63608510932E+01  0.11732535271E+02  0.18726296695E+02  0.00000000000E+00 0.  1.
         11    1    3    3    0    0 -0.87429188078E+01 -0.25915242873E+02 -0.19804233248E+02  0.33767530221E+02  0.51100000000E-03 0. -1.
        -11    1    3    3    0    0 -0.34297974901E+01  0.17446150051E+02 -0.54556597175E+01  0.18598276416E+02  0.51100000000E-03 0.  1.
        -12    1    3    3    0    0 -0.96354562803E+00  0.14829943915E+02  0.13527357695E+02  0.20095896668E+02  0.00000000000E+00 0.  1.
</event>
<event>
 7    1  0.2688173E-013  0.7246160E+02  0.7816164E-02  0.1226708E+00
        -11   -1    0    0    0    0  0.00000000000E+00  0.00000000000E+00  0.45593999997E+02  0.45594000000E+02  0.51100000000E-03 0.  1.
         11   -1    0    0    0    0 -0.00000000000E+00 -0.00000000000E+00 -0.45593999997E+02  0.45594000000E+02  0.51100000000E-03 0. -1.
    9900012    2    1    2    0    0 -0.18099431163E+01  0.15987894542E+02  0.95806852280E+01  0.72461596304E+02  0.70000033882E+02 0.  0.
        -12    1    1    2    0    0  0.18099431163E+01 -0.15987894542E+02 -0.95806852280E+01  0.18726403696E+02  0.00000000000E+00 0.  1.
         11    1    3    3    0    0  0.12245572412E+02  0.94228083162E+00  0.98672781888E+00  0.12321346067E+02  0.51100000000E-03 0. -1.
        -11    1    3    3    0    0  0.21749934792E+02  0.47448909245E+01  0.35467882485E+01  0.22542257218E+02  0.51100000000E-03 0.  1.
        -12    1    3    3    0    0 -0.35805450320E+02  0.10300722785E+02  0.50471691606E+01  0.37597993019E+02  0.00000000000E+00 0.  1.
</event>
<event>
 7    1  0.2688173E-013  0.7246157E+02  0.7816164E-02  0.1226708E+00
        -11   -1    0    0    0    0  0.00000000000E+00  0.00000000000E+00  0.45593999997E+02  0.45594000000E+02  0.51100000000E-03 0.  1.
         11   -1    0    0    0    0 -0.00000000000E+00 -0.00000000000E+00 -0.45593999997E+02  0.45594000000E+02  0.51100000000E-03 0. -1.
    9900012    2    1    2    0    0 -0.97850971471E+01  0.11217267906E+02 -0.11362388884E+02  0.72461571975E+02  0.70000002189E+02 0.  0.
        -12    1    1    2    0    0  0.97850971471E+01 -0.11217267906E+02  0.11362388884E+02  0.18726428025E+02  0.00000000000E+00 0.  1.
         11    1    3    3    0    0 -0.26898806033E+02  0.20922162721E+01 -0.13690103910E+02  0.30254620808E+02  0.51100000000E-03 0. -1.
        -11    1    3    3    0    0  0.15993844843E+01  0.14481335561E+02 -0.13165423987E+02  0.19636585736E+02  0.51100000000E-03 0.  1.
        -12    1    3    3    0    0  0.15514324402E+02 -0.53562839268E+01  0.15493139013E+02  0.22570365430E+02  0.00000000000E+00 0.  1.
</event>
<event>
 7    1  0.2688173E-013  0.7246153E+02  0.7816164E-02  0.1226708E+00
        -11   -1    0    0    0    0  0.00000000000E+00  0.00000000000E+00  0.45593999997E+02  0.45594000000E+02  0.51100000000E-03 0. -1.
         11   -1    0    0    0    0 -0.00000000000E+00 -0.00000000000E+00 -0.45593999997E+02  0.45594000000E+02  0.51100000000E-03 0.  1.
    9900012    2    1    2    0    0 -0.12517525402E+02 -0.12576734763E+02  0.59848176967E+01  0.72461528300E+02  0.69999945294E+02 0.  0.
        -12    1    1    2    0    0  0.12517525402E+02  0.12576734763E+02 -0.59848176967E+01  0.18726471700E+02  0.00000000000E+00 0.  1.
         11    1    3    3    0    0 -0.94641564943E+01 -0.15439047779E+02 -0.12601796021E+02  0.22062178444E+02  0.51100000000E-03 0. -1.
        -11    1    3    3    0    0 -0.12241118336E+02  0.16762861805E+02  0.25045582206E+02  0.32528751933E+02  0.51100000000E-03 0.  1.
         12    1    3    3    0    0  0.91877494289E+01 -0.13900548789E+02 -0.64589684883E+01  0.17870597923E+02  0.00000000000E+00 0. -1.
</event>
<event>
 7    1  0.2688173E-013  0.7246155E+02  0.7816164E-02  0.1226708E+00
        -11   -1    0    0    0    0  0.00000000000E+00  0.00000000000E+00  0.45593999997E+02  0.45594000000E+02  0.51100000000E-03 0.  1.
         11   -1    0    0    0    0 -0.00000000000E+00 -0.00000000000E+00 -0.45593999997E+02  0.45594000000E+02  0.51100000000E-03 0. -1.
    9900012    2    1    2    0    0 -0.35789423047E+01  0.13380770753E+02  0.12602622938E+02  0.72461549218E+02  0.69999972545E+02 0.  0.
        -12    1    1    2    0    0  0.35789423047E+01 -0.13380770753E+02 -0.12602622938E+02  0.18726450782E+02  0.00000000000E+00 0.  1.
         11    1    3    3    0    0  0.12155343420E+01  0.22366012688E+01  0.38413390575E+01  0.46082312212E+01  0.51100000000E-03 0. -1.
        -11    1    3    3    0    0  0.25935308272E+02  0.11028111268E+02  0.20613703291E+02  0.34916818539E+02  0.51100000000E-03 0.  1.
         12    1    3    3    0    0 -0.30729784918E+02  0.11605821598E+00 -0.11852419410E+02  0.32936499458E+02  0.00000000000E+00 0. -1.
</event>
<event>
 7    1  0.2688173E-013  0.7246156E+02  0.7816164E-02  0.1226708E+00
        -11   -1    0    0    0    0  0.00000000000E+00  0.00000000000E+00  0.45593999997E+02  0.45594000000E+02  0.51100000000E-03 0.  1.
         11   -1    0    0    0    0 -0.00000000000E+00 -0.00000000000E+00 -0.45593999997E+02  0.45594000000E+02  0.51100000000E-03 0. -1.
    9900012    2    1    2    0    0 -0.11799221297E+02  0.52363998118E+01 -0.13566062559E+02  0.72461559880E+02  0.69999986433E+02 0.  0.
        -12    1    1    2    0    0  0.11799221297E+02 -0.52363998118E+01  0.13566062559E+02  0.18726440120E+02  0.00000000000E+00 0.  1.
         11    1    3    3    0    0 -0.27135846946E+02  0.32244372436E+01  0.44736052932E+00  0.27330410109E+02  0.51100000000E-03 0. -1.
        -11    1    3    3    0    0  0.88865665065E+00  0.51254468605E+01  0.13186332574E+02  0.14175305400E+02  0.51100000000E-03 0.  1.
        -12    1    3    3    0    0  0.14447968998E+02 -0.31134842923E+01 -0.27199755663E+02  0.30955844371E+02  0.00000000000E+00 0.  1.
</event>
<event>
 7    1  0.2688173E-013  0.7246155E+02  0.7816164E-02  0.1226708E+00
        -11   -1    0    0    0    0  0.00000000000E+00  0.00000000000E+00  0.45593999997E+02  0.45594000000E+02  0.51100000000E-03 0. -1.
         11   -1    0    0    0    0 -0.00000000000E+00 -0.00000000000E+00 -0.45593999997E+02  0.45594000000E+02  0.51100000000E-03 0.  1.
    9900012    2    1    2    0    0  0.89121037995E+01  0.15758415184E+02  0.47881914644E+01  0.72461547566E+02  0.69999970392E+02 0.  0.
        -12    1    1    2    0    0 -0.89121037995E+01 -0.15758415184E+02 -0.47881914644E+01  0.18726452434E+02  0.00000000000E+00 0.  1.
         11    1    3    3    0    0 -0.49242226127E+01  0.16737745437E+02  0.62396446583E+00  0.17458219341E+02  0.51100000000E-03 0. -1.
        -11    1    3    3    0    0  0.13535711733E+02 -0.27818579446E+01 -0.23509160470E+02  0.27269669085E+02  0.51100000000E-03 0.  1.
         12    1    3    3    0    0  0.30061467937E+00  0.18025276920E+01  0.27673387469E+02  0.27733659140E+02  0.00000000000E+00 0. -1.
</event>
<event>
 7    1  0.2688173E-013  0.7246156E+02  0.7816164E-02  0.1226708E+00
        -11   -1    0    0    0    0  0.00000000000E+00  0.00000000000E+00  0.45593999997E+02  0.45594000000E+02  0.51100000000E-03 0. -1.
         11   -1    0    0    0    0 -0.00000000000E+00 -0.00000000000E+00 -0.45593999997E+02  0.45594000000E+02  0.51100000000E-03 0.  1.
    9900012    2    1    2    0    0 -0.16181989920E+02 -0.14713286381E+01  0.93090182270E+01  0.72461563444E+02  0.69999991076E+02 0.  0.
        -12    1    1    2    0    0  0.16181989920E+02  0.14713286381E+01 -0.93090182270E+01  0.18726436556E+02  0.00000000000E+00 0.  1.
         11    1    3    3    0    0  0.12575318621E+01 -0.75141029386E+01  0.75381230455E+01  0.10717575690E+02  0.51100000000E-03 0. -1.
        -11    1    3    3    0    0 -0.29577939586E+02 -0.15042626538E+02  0.12088887501E+02  0.35316799466E+02  0.51100000000E-03 0.  1.
        -12    1    3    3    0    0  0.12138417803E+02  0.21085400839E+02 -0.10317992319E+02  0.26427188288E+02  0.00000000000E+00 0.  1.
</event>
<event>
 7    1  0.2688173E-013  0.7246149E+02  0.7816164E-02  0.1226708E+00
        -11   -1    0    0    0    0  0.00000000000E+00  0.00000000000E+00  0.45593999997E+02  0.45594000000E+02  0.51100000000E-03 0. -1.
         11   -1    0    0    0    0 -0.00000000000E+00 -0.00000000000E+00 -0.45593999997E+02  0.45594000000E+02  0.51100000000E-03 0.  1.
    9900012    2    1    2    0    0 -0.56029412350E+01  0.34073756953E+01  0.17540776378E+02  0.72461494839E+02  0.69999901705E+02 0.  0.
        -12    1    1    2    0    0  0.56029412350E+01 -0.34073756953E+01 -0.17540776378E+02  0.18726505161E+02  0.00000000000E+00 0.  1.
         11    1    3    3    0    0  0.94821381222E+00 -0.24468862514E+01  0.14377179368E+01  0.29922223995E+01  0.51100000000E-03 0. -1.
        -11    1    3    3    0    0  0.50953360225E+01 -0.13239799243E+02  0.36524599180E+02  0.39182918200E+02  0.51100000000E-03 0.  1.
         12    1    3    3    0    0 -0.11646491070E+02  0.19094061189E+02 -0.20421540739E+02  0.30286354239E+02  0.00000000000E+00 0. -1.
</event>
<event>
 7    1  0.2688173E-013  0.7246160E+02  0.7816164E-02  0.1226708E+00
        -11   -1    0    0    0    0  0.00000000000E+00  0.00000000000E+00  0.45593999997E+02  0.45594000000E+02  0.51100000000E-03 0. -1.
         11   -1    0    0    0    0 -0.00000000000E+00 -0.00000000000E+00 -0.45593999997E+02  0.45594000000E+02  0.51100000000E-03 0.  1.
    9900012    2    1    2    0    0  0.65772688257E+01  0.89888938982E+01  0.15053813310E+02  0.72461602218E+02  0.70000041586E+02 0.  0.
        -12    1    1    2    0    0 -0.65772688257E+01 -0.89888938982E+01 -0.15053813310E+02  0.18726397782E+02  0.00000000000E+00 0.  1.
         11    1    3    3    0    0  0.16131071754E+02 -0.15216664292E+02  0.25006983010E+02  0.33423158851E+02  0.51100000000E-03 0. -1.
        -11    1    3    3    0    0  0.81040071565E+01  0.20730720720E+01 -0.63387174687E+01  0.10495327494E+02  0.51100000000E-03 0.  1.
        -12    1    3    3    0    0 -0.17657810084E+02  0.22132486118E+02 -0.36144522310E+01  0.28543115872E+02  0.00000000000E+00 0.  1.
</event>
<event>
 7    1  0.2688173E-013  0.7246159E+02  0.7816164E-02  0.1226708E+00
        -11   -1    0    0    0    0  0.00000000000E+00  0.00000000000E+00  0.45593999997E+02  0.45594000000E+02  0.51100000000E-03 0. -1.
         11   -1    0    0    0    0 -0.00000000000E+00 -0.00000000000E+00 -0.45593999997E+02  0.45594000000E+02  0.51100000000E-03 0.  1.
    9900012    2    1    2    0    0 -0.10135157550E+02 -0.59901849879E+01  0.14562790248E+02  0.72461585646E+02  0.70000019998E+02 0.  0.
        -12    1    1    2    0    0  0.10135157550E+02  0.59901849879E+01 -0.14562790248E+02  0.18726414354E+02  0.00000000000E+00 0.  1.
         11    1    3    3    0    0 -0.23676334782E+02 -0.14503830425E+02  0.26375826799E+01  0.27890621513E+02  0.51100000000E-03 0. -1.
        -11    1    3    3    0    0  0.60389515317E+01  0.14920294714E+02 -0.11079074880E+02  0.19540471602E+02  0.51100000000E-03 0.  1.
        -12    1    3    3    0    0  0.75022257004E+01 -0.64066492775E+01  0.23004282448E+02  0.25030492531E+02  0.00000000000E+00 0.  1.
</event>
<event>
 7    1  0.2688173E-013  0.7246168E+02  0.7816164E-02  0.1226708E+00
        -11   -1    0    0    0    0  0.00000000000E+00  0.00000000000E+00  0.45593999997E+02  0.45594000000E+02  0.51100000000E-03 0.  1.
         11   -1    0    0    0    0 -0.00000000000E+00 -0.00000000000E+00 -0.45593999997E+02  0.45594000000E+02  0.51100000000E-03 0. -1.
    9900012    2    1    2    0    0  0.16389601195E+02 -0.59581414149E+01  0.68232500751E+01  0.72461675800E+02  0.70000137441E+02 0.  0.
        -12    1    1    2    0    0 -0.16389601195E+02  0.59581414149E+01 -0.68232500751E+01  0.18726324200E+02  0.00000000000E+00 0.  1.
         11    1    3    3    0    0  0.24068846832E+02 -0.42002966717E+01 -0.13852082032E+02  0.28086154184E+02  0.51100000000E-03 0. -1.
        -11    1    3    3    0    0  0.79816731440E+01 -0.72020853040E+01 -0.64843901413E+01  0.12554857812E+02  0.51100000000E-03 0.  1.
        -12    1    3    3    0    0 -0.15660918780E+02  0.54442405608E+01  0.27159722249E+02  0.31820663805E+02  0.00000000000E+00 0.  1.
</event>
<event>
 7    1  0.2688173E-013  0.7246162E+02  0.7816164E-02  0.1226708E+00
        -11   -1    0    0    0    0  0.00000000000E+00  0.00000000000E+00  0.45593999997E+02  0.45594000000E+02  0.51100000000E-03 0.  1.
         11   -1    0    0    0    0 -0.00000000000E+00 -0.00000000000E+00 -0.45593999997E+02  0.45594000000E+02  0.51100000000E-03 0. -1.
    9900012    2    1    2    0    0 -0.97961909296E+01 -0.15804642644E+02 -0.22192787790E+01  0.72461620635E+02  0.70000065578E+02 0.  0.
        -12    1    1    2    0    0  0.97961909296E+01  0.15804642644E+02  0.22192787790E+01  0.18726379365E+02  0.00000000000E+00 0.  1.
         11    1    3    3    0    0 -0.28140067759E+02 -0.26345105805E+02 -0.23904356814E+01  0.38621783962E+02  0.51100000000E-03 0. -1.
        -11    1    3    3    0    0  0.70829773701E+00 -0.32314289896E+01 -0.90520783719E+01  0.96376315613E+01  0.51100000000E-03 0.  1.
        -12    1    3    3    0    0  0.17635579092E+02  0.13771892151E+02  0.92232352743E+01  0.24202205112E+02  0.00000000000E+00 0.  1.
</event>
<event>
 7    1  0.2688173E-013  0.7246161E+02  0.7816164E-02  0.1226708E+00
        -11   -1    0    0    0    0  0.00000000000E+00  0.00000000000E+00  0.45593999997E+02  0.45594000000E+02  0.51100000000E-03 0. -1.
         11   -1    0    0    0    0 -0.00000000000E+00 -0.00000000000E+00 -0.45593999997E+02  0.45594000000E+02  0.51100000000E-03 0.  1.
    9900012    2    1    2    0    0 -0.14774643226E+02 -0.33873270117E+00  0.11501000147E+02  0.72461606148E+02  0.70000046707E+02 0.  0.
        -12    1    1    2    0    0  0.14774643226E+02  0.33873270117E+00 -0.11501000147E+02  0.18726393852E+02  0.00000000000E+00 0.  1.
         11    1    3    3    0    0 -0.15577370706E+01  0.86883891439E+01  0.10474879959E+01  0.88888628103E+01  0.51100000000E-03 0. -1.
        -11    1    3    3    0    0 -0.20152777711E+02  0.21778370575E+02 -0.17412549440E+01  0.29723119678E+02  0.51100000000E-03 0.  1.
         12    1    3    3    0    0  0.69358715552E+01 -0.30805492420E+02  0.12194767095E+02  0.33849623660E+02  0.00000000000E+00 0. -1.
</event>
<event>
 7    1  0.2688173E-013  0.7246150E+02  0.7816164E-02  0.1226708E+00
        -11   -1    0    0    0    0  0.00000000000E+00  0.00000000000E+00  0.45593999997E+02  0.45594000000E+02  0.51100000000E-03 0.  1.
         11   -1    0    0    0    0 -0.00000000000E+00 -0.00000000000E+00 -0.45593999997E+02  0.45594000000E+02  0.51100000000E-03 0. -1.
    9900012    2    1    2    0    0 -0.12551068725E+02  0.49823544941E+01 -0.12974152488E+02  0.72461499654E+02  0.69999907978E+02 0.  0.
        -12    1    1    2    0    0  0.12551068725E+02 -0.49823544941E+01  0.12974152488E+02  0.18726500346E+02  0.00000000000E+00 0.  1.
         11    1    3    3    0    0 -0.14906949982E+02 -0.17452161409E+02  0.17333546061E+02  0.28761900405E+02  0.51100000000E-03 0.  1.
        -11    1    3    3    0    0  0.11967819513E+01  0.44356939385E+00 -0.18817471605E+02  0.18860707270E+02  0.51100000000E-03 0. -1.
        -12    1    3    3    0    0  0.11590993057E+01  0.21990946509E+02 -0.11490226943E+02  0.24838891979E+02  0.00000000000E+00 0.  1.
</event>
<event>
 7    1  0.2688173E-013  0.7246158E+02  0.7816164E-02  0.1226708E+00
        -11   -1    0    0    0    0  0.00000000000E+00  0.00000000000E+00  0.45593999997E+02  0.45594000000E+02  0.51100000000E-03 0. -1.
         11   -1    0    0    0    0 -0.00000000000E+00 -0.00000000000E+00 -0.45593999997E+02  0.45594000000E+02  0.51100000000E-03 0.  1.
    9900012    2    1    2    0    0 -0.35265498752E+01 -0.17069737142E+02  0.68458933233E+01  0.72461581883E+02  0.70000015096E+02 0.  0.
        -12    1    1    2    0    0  0.35265498752E+01  0.17069737142E+02 -0.68458933233E+01  0.18726418117E+02  0.00000000000E+00 0.  1.
         11    1    3    3    0    0  0.14452812987E+02 -0.94260682777E-01  0.21308055696E+02  0.25747347943E+02  0.51100000000E-03 0. -1.
        -11    1    3    3    0    0  0.13155826788E+01  0.10625409107E+02 -0.26878605927E+01  0.11038780336E+02  0.51100000000E-03 0.  1.
        -12    1    3    3    0    0 -0.19294945541E+02 -0.27600885565E+02 -0.11774301780E+02  0.35675453604E+02  0.00000000000E+00 0.  1.
</event>
<event>
 7    1  0.2688173E-013  0.7246128E+02  0.7816164E-02  0.1226709E+00
        -11   -1    0    0    0    0  0.00000000000E+00  0.00000000000E+00  0.45593999997E+02  0.45594000000E+02  0.51100000000E-03 0. -1.
         11   -1    0    0    0    0 -0.00000000000E+00 -0.00000000000E+00 -0.45593999997E+02  0.45594000000E+02  0.51100000000E-03 0.  1.
    9900012    2    1    2    0    0 -0.32510995853E+01 -0.18166533180E+02  0.31776588441E+01  0.72461278663E+02  0.69999620095E+02 0.  0.
        -12    1    1    2    0    0  0.32510995853E+01  0.18166533180E+02 -0.31776588441E+01  0.18726721337E+02  0.00000000000E+00 0.  1.
         11    1    3    3    0    0  0.47267770864E+01 -0.23525100968E+02  0.93350079984E+01  0.25747139099E+02  0.51100000000E-03 0. -1.
        -11    1    3    3    0    0 -0.20743526595E+02 -0.11581407772E+02  0.23217521507E+01  0.23870765277E+02  0.51100000000E-03 0.  1.
        -12    1    3    3    0    0  0.12765649923E+02  0.16939975559E+02 -0.84791013051E+01  0.22843374288E+02  0.00000000000E+00 0.  1.
</event>
<event>
 7    1  0.2688173E-013  0.7246157E+02  0.7816164E-02  0.1226708E+00
        -11   -1    0    0    0    0  0.00000000000E+00  0.00000000000E+00  0.45593999997E+02  0.45594000000E+02  0.51100000000E-03 0.  1.
         11   -1    0    0    0    0 -0.00000000000E+00 -0.00000000000E+00 -0.45593999997E+02  0.45594000000E+02  0.51100000000E-03 0. -1.
    9900012    2    1    2    0    0  0.10577312056E+02  0.10368398887E+02 -0.11458448026E+02  0.72461567959E+02  0.69999996958E+02 0.  0.
        -12    1    1    2    0    0 -0.10577312056E+02 -0.10368398887E+02  0.11458448026E+02  0.18726432041E+02  0.00000000000E+00 0.  1.
         11    1    3    3    0    0 -0.15064220932E+02 -0.90372445107E+00  0.12326778532E+02  0.19485813799E+02  0.51100000000E-03 0. -1.
        -11    1    3    3    0    0  0.38189567390E+01 -0.87845378302E+01  0.57178821580E+01  0.11155568659E+02  0.51100000000E-03 0.  1.
         12    1    3    3    0    0  0.21822576249E+02  0.20056661169E+02 -0.29503108717E+02  0.41820185501E+02  0.00000000000E+00 0. -1.
</event>
<event>
 7    1  0.2688173E-013  0.7246165E+02  0.7816164E-02  0.1226708E+00
        -11   -1    0    0    0    0  0.00000000000E+00  0.00000000000E+00  0.45593999997E+02  0.45594000000E+02  0.51100000000E-03 0. -1.
         11   -1    0    0    0    0 -0.00000000000E+00 -0.00000000000E+00 -0.45593999997E+02  0.45594000000E+02  0.51100000000E-03 0.  1.
    9900012    2    1    2    0    0 -0.14821591317E+02 -0.42419305026E+01  0.10630268077E+02  0.72461651105E+02  0.70000105271E+02 0.  0.
        -12    1    1    2    0    0  0.14821591317E+02  0.42419305026E+01 -0.10630268077E+02  0.18726348895E+02  0.00000000000E+00 0.  1.
         11    1    3    3    0    0 -0.35044291378E+02 -0.28161899222E+01  0.13500293373E+02  0.37660207186E+02  0.51100000000E-03 0. -1.
        -11    1    3    3    0    0  0.78448605118E+01  0.11209561321E+02  0.60870505897E+01  0.14974921923E+02  0.51100000000E-03 0.  1.
        -12    1    3    3    0    0  0.12377839549E+02 -0.12635301902E+02 -0.89570758851E+01  0.19826521996E+02  0.00000000000E+00 0.  1.
</event>
<event>
 7    1  0.2688173E-013  0.7246165E+02  0.7816164E-02  0.1226708E+00
        -11   -1    0    0    0    0  0.00000000000E+00  0.00000000000E+00  0.45593999997E+02  0.45594000000E+02  0.51100000000E-03 0.  1.
         11   -1    0    0    0    0 -0.00000000000E+00 -0.00000000000E+00 -0.45593999997E+02  0.45594000000E+02  0.51100000000E-03 0. -1.
    9900012    2    1    2    0    0  0.78946338160E+01 -0.99556029086E+01 -0.13756345370E+02  0.72461646637E+02  0.70000099450E+02 0.  0.
        -12    1    1    2    0    0 -0.78946338160E+01  0.99556029086E+01  0.13756345370E+02  0.18726353363E+02  0.00000000000E+00 0.  1.
         11    1    3    3    0    0  0.57519381362E+01  0.19115425129E+01  0.28666286243E+01  0.67049494429E+01  0.51100000000E-03 0. -1.
        -11    1    3    3    0    0 -0.40554682570E+01 -0.31436574789E+02  0.89762778705E+01  0.32943567231E+02  0.51100000000E-03 0.  1.
         12    1    3    3    0    0  0.61981639368E+01  0.19569429367E+02 -0.25599251864E+02  0.32813129963E+02  0.00000000000E+00 0. -1.
</event>
<event>
 7    1  0.2688173E-013  0.7246157E+02  0.7816164E-02  0.1226708E+00
        -11   -1    0    0    0    0  0.00000000000E+00  0.00000000000E+00  0.45593999997E+02  0.45594000000E+02  0.51100000000E-03 0. -1.
         11   -1    0    0    0    0 -0.00000000000E+00 -0.00000000000E+00 -0.45593999997E+02  0.45594000000E+02  0.51100000000E-03 0.  1.
    9900012    2    1    2    0    0 -0.52860060806E+01 -0.16548809114E+02  0.69910233463E+01  0.72461565454E+02  0.69999993695E+02 0.  0.
        -12    1    1    2    0    0  0.52860060806E+01  0.16548809114E+02 -0.69910233463E+01  0.18726434546E+02  0.00000000000E+00 0.  1.
         11    1    3    3    0    0  0.12266859941E+02 -0.27333444260E+02  0.14102918081E+02  0.33113219816E+02  0.51100000000E-03 0. -1.
        -11    1    3    3    0    0 -0.34269325859E+01  0.65004845687E+01  0.12681499908E+02  0.14656759763E+02  0.51100000000E-03 0.  1.
        -12    1    3    3    0    0 -0.14125933436E+02  0.42841505775E+01 -0.19793394642E+02  0.24691585876E+02  0.00000000000E+00 0.  1.
</event>
<event>
 7    1  0.2688173E-013  0.7246157E+02  0.7816164E-02  0.1226708E+00
        -11   -1    0    0    0    0  0.00000000000E+00  0.00000000000E+00  0.45593999997E+02  0.45594000000E+02  0.51100000000E-03 0. -1.
         11   -1    0    0    0    0 -0.00000000000E+00 -0.00000000000E+00 -0.45593999997E+02  0.45594000000E+02  0.51100000000E-03 0.  1.
    9900012    2    1    2    0    0 -0.16891013915E+01  0.16726953420E+02  0.82483352196E+01  0.72461573002E+02  0.70000003527E+02 0.  0.
        -12    1    1    2    0    0  0.16891013915E+01 -0.16726953420E+02 -0.82483352196E+01  0.18726426998E+02  0.00000000000E+00 0.  1.
         11    1    3    3    0    0 -0.91587502993E+01 -0.13989801655E+02  0.66717767160E+01  0.18003051469E+02  0.51100000000E-03 0. -1.
        -11    1    3    3    0    0  0.15873538178E+02  0.22397617892E+02  0.19010927682E+02  0.33392182814E+02  0.51100000000E-03 0.  1.
         12    1    3    3    0    0 -0.84038892698E+01  0.83191371839E+01 -0.17434369178E+02  0.21066338718E+02  0.00000000000E+00 0. -1.
</event>
<event>
 7    1  0.2688173E-013  0.7246161E+02  0.7816164E-02  0.1226708E+00
        -11   -1    0    0    0    0  0.00000000000E+00  0.00000000000E+00  0.45593999997E+02  0.45594000000E+02  0.51100000000E-03 0.  1.
         11   -1    0    0    0    0 -0.00000000000E+00 -0.00000000000E+00 -0.45593999997E+02  0.45594000000E+02  0.51100000000E-03 0. -1.
    9900012    2    1    2    0    0 -0.79914617596E+01  0.15321345089E+02 -0.72160085562E+01  0.72461605369E+02  0.70000045692E+02 0.  0.
        -12    1    1    2    0    0  0.79914617596E+01 -0.15321345089E+02  0.72160085562E+01  0.18726394631E+02  0.00000000000E+00 0.  1.
         11    1    3    3    0    0  0.57631370336E+01 -0.56346550510E+01  0.64056902324E+01  0.10295433630E+02  0.51100000000E-03 0. -1.
        -11    1    3    3    0    0 -0.68127702561E+01  0.35618501903E+02  0.59457737479E+01  0.36748384211E+02  0.51100000000E-03 0.  1.
         12    1    3    3    0    0 -0.69418285371E+01 -0.14662501763E+02 -0.19567472536E+02  0.25417787529E+02  0.00000000000E+00 0. -1.
</event>
<event>
 7    1  0.2688173E-013  0.7246160E+02  0.7816164E-02  0.1226708E+00
        -11   -1    0    0    0    0  0.00000000000E+00  0.00000000000E+00  0.45593999997E+02  0.45594000000E+02  0.51100000000E-03 0.  1.
         11   -1    0    0    0    0 -0.00000000000E+00 -0.00000000000E+00 -0.45593999997E+02  0.45594000000E+02  0.51100000000E-03 0. -1.
    9900012    2    1    2    0    0 -0.10464485985E+02  0.86370362290E+01 -0.12906368046E+02  0.72461596237E+02  0.70000033795E+02 0.  0.
        -12    1    1    2    0    0  0.10464485985E+02 -0.86370362290E+01  0.12906368046E+02  0.18726403763E+02  0.00000000000E+00 0.  1.
         11    1    3    3    0    0 -0.55721729226E+01  0.14108187508E+02 -0.33153711289E+02  0.36458999415E+02  0.51100000000E-03 0. -1.
        -11    1    3    3    0    0  0.44940279419E+00 -0.20998545682E+01 -0.73677379033E+01  0.76743021932E+01  0.51100000000E-03 0.  1.
        -12    1    3    3    0    0 -0.53417158571E+01 -0.33712967107E+01  0.27615081147E+02  0.28328294629E+02  0.00000000000E+00 0.  1.
</event>
<event>
 7    1  0.2688173E-013  0.7246153E+02  0.7816164E-02  0.1226708E+00
        -11   -1    0    0    0    0  0.00000000000E+00  0.00000000000E+00  0.45593999997E+02  0.45594000000E+02  0.51100000000E-03 0.  1.
         11   -1    0    0    0    0 -0.00000000000E+00 -0.00000000000E+00 -0.45593999997E+02  0.45594000000E+02  0.51100000000E-03 0. -1.
    9900012    2    1    2    0    0 -0.82482387891E+01  0.16183726546E+02 -0.45534714045E+01  0.72461533439E+02  0.69999951989E+02 0.  0.
        -12    1    1    2    0    0  0.82482387891E+01 -0.16183726546E+02  0.45534714045E+01  0.18726466561E+02  0.00000000000E+00 0.  1.
         11    1    3    3    0    0 -0.53627403998E+00  0.14399663037E+01 -0.22391641698E+02  0.22444302418E+02  0.51100000000E-03 0. -1.
        -11    1    3    3    0    0 -0.31046005980E+01 -0.15541719505E+02  0.85403531470E+01  0.18003366968E+02  0.51100000000E-03 0.  1.
        -12    1    3    3    0    0 -0.46073641511E+01  0.30285479747E+02  0.92978171469E+01  0.32013864053E+02  0.00000000000E+00 0.  1.
</event>
<event>
 7    1  0.2688173E-013  0.7246155E+02  0.7816164E-02  0.1226708E+00
        -11   -1    0    0    0    0  0.00000000000E+00  0.00000000000E+00  0.45593999997E+02  0.45594000000E+02  0.51100000000E-03 0.  1.
         11   -1    0    0    0    0 -0.00000000000E+00 -0.00000000000E+00 -0.45593999997E+02  0.45594000000E+02  0.51100000000E-03 0. -1.
    9900012    2    1    2    0    0 -0.18496217027E+02  0.18278252738E+00  0.29217392474E+01  0.72461547746E+02  0.69999970627E+02 0.  0.
        -12    1    1    2    0    0  0.18496217027E+02 -0.18278252738E+00 -0.29217392474E+01  0.18726452254E+02  0.00000000000E+00 0.  1.
         11    1    3    3    0    0  0.42197951594E+01  0.82289946588E+01  0.22718701638E+01  0.95228366879E+01  0.51100000000E-03 0. -1.
        -11    1    3    3    0    0  0.15912783702E+02 -0.16732240986E+02  0.29509079547E+01  0.23278583109E+02  0.51100000000E-03 0.  1.
         12    1    3    3    0    0 -0.38628795889E+02  0.86860288546E+01 -0.23010388710E+01  0.39660127949E+02  0.00000000000E+00 0. -1.
</event>
<event>
 7    1  0.2688173E-013  0.7246155E+02  0.7816164E-02  0.1226708E+00
        -11   -1    0    0    0    0  0.00000000000E+00  0.00000000000E+00  0.45593999997E+02  0.45594000000E+02  0.51100000000E-03 0. -1.
         11   -1    0    0    0    0 -0.00000000000E+00 -0.00000000000E+00 -0.45593999997E+02  0.45594000000E+02  0.51100000000E-03 0.  1.
    9900012    2    1    2    0    0 -0.69273340176E+01  0.14160795422E+02 -0.10107608182E+02  0.72461552747E+02  0.69999977141E+02 0.  0.
        -12    1    1    2    0    0  0.69273340176E+01 -0.14160795422E+02  0.10107608182E+02  0.18726447253E+02  0.00000000000E+00 0.  1.
         11    1    3    3    0    0  0.18672012597E+01 -0.21089802161E+02 -0.95805926742E+01  0.23239060910E+02  0.51100000000E-03 0. -1.
        -11    1    3    3    0    0  0.11033851371E+02  0.31651573761E+01  0.51215225824E+00  0.11490274039E+02  0.51100000000E-03 0.  1.
         12    1    3    3    0    0 -0.19828386648E+02  0.32085440206E+02 -0.10391677657E+01  0.37732217798E+02  0.00000000000E+00 0. -1.
</event>
<event>
 7    1  0.2688173E-013  0.7246149E+02  0.7816164E-02  0.1226708E+00
        -11   -1    0    0    0    0  0.00000000000E+00  0.00000000000E+00  0.45593999997E+02  0.45594000000E+02  0.51100000000E-03 0. -1.
         11   -1    0    0    0    0 -0.00000000000E+00 -0.00000000000E+00 -0.45593999997E+02  0.45594000000E+02  0.51100000000E-03 0.  1.
    9900012    2    1    2    0    0 -0.66254801103E+01 -0.16016026844E+02  0.70902773301E+01  0.72461491111E+02  0.69999896848E+02 0.  0.
        -12    1    1    2    0    0  0.66254801103E+01  0.16016026844E+02 -0.70902773301E+01  0.18726508889E+02  0.00000000000E+00 0.  1.
         11    1    3    3    0    0  0.45553933790E+01 -0.82195772929E+01  0.11125360655E+02  0.14563197096E+02  0.51100000000E-03 0. -1.
        -11    1    3    3    0    0  0.14672581125E+02 -0.16858362723E+02  0.12788425220E+02  0.25749424274E+02  0.51100000000E-03 0.  1.
         12    1    3    3    0    0 -0.25853454614E+02  0.90619131716E+01 -0.16823508544E+02  0.32148869740E+02  0.00000000000E+00 0. -1.
</event>
<event>
 7    1  0.2688173E-013  0.7246165E+02  0.7816164E-02  0.1226708E+00
        -11   -1    0    0    0    0  0.00000000000E+00  0.00000000000E+00  0.45593999997E+02  0.45594000000E+02  0.51100000000E-03 0.  1.
         11   -1    0    0    0    0 -0.00000000000E+00 -0.00000000000E+00 -0.45593999997E+02  0.45594000000E+02  0.51100000000E-03 0. -1.
    9900012    2    1    2    0    0  0.23533878337E+00 -0.11090094508E+02 -0.15087427921E+02  0.72461653271E+02  0.70000108092E+02 0.  0.
        -12    1    1    2    0    0 -0.23533878337E+00  0.11090094508E+02  0.15087427921E+02  0.18726346729E+02  0.00000000000E+00 0.  1.
         11    1    3    3    0    0 -0.21796739766E+02 -0.62692101062E+01 -0.46271694213E+01  0.23147603696E+02  0.51100000000E-03 0. -1.
        -11    1    3    3    0    0  0.22381611346E+02  0.54300379874E+00 -0.25150281153E+02  0.33671471930E+02  0.51100000000E-03 0.  1.
         12    1    3    3    0    0 -0.34953279691E+00 -0.53638882010E+01  0.14690022653E+02  0.15642577644E+02  0.00000000000E+00 0. -1.
</event>
<event>
 7    1  0.2688173E-013  0.7246154E+02  0.7816164E-02  0.1226708E+00
        -11   -1    0    0    0    0  0.00000000000E+00  0.00000000000E+00  0.45593999997E+02  0.45594000000E+02  0.51100000000E-03 0.  1.
         11   -1    0    0    0    0 -0.00000000000E+00 -0.00000000000E+00 -0.45593999997E+02  0.45594000000E+02  0.51100000000E-03 0. -1.
    9900012    2    1    2    0    0  0.13457571775E+02 -0.23463386694E+01 -0.12808937597E+02  0.72461536757E+02  0.69999956311E+02 0.  0.
        -12    1    1    2    0    0 -0.13457571775E+02  0.23463386694E+01  0.12808937597E+02  0.18726463243E+02  0.00000000000E+00 0.  1.
         11    1    3    3    0    0 -0.10396058072E+02 -0.16889677391E+01 -0.84928730971E+01  0.13529949341E+02  0.51100000000E-03 0.  1.
        -11    1    3    3    0    0  0.17686198946E+02  0.19978425533E+02  0.14468945198E+02  0.30352751034E+02  0.51100000000E-03 0. -1.
         12    1    3    3    0    0  0.61674309016E+01 -0.20635796463E+02 -0.18785009698E+02  0.28578836382E+02  0.00000000000E+00 0. -1.
</event>
<event>
 7    1  0.2688173E-013  0.7246149E+02  0.7816164E-02  0.1226708E+00
        -11   -1    0    0    0    0  0.00000000000E+00  0.00000000000E+00  0.45593999997E+02  0.45594000000E+02  0.51100000000E-03 0. -1.
         11   -1    0    0    0    0 -0.00000000000E+00 -0.00000000000E+00 -0.45593999997E+02  0.45594000000E+02  0.51100000000E-03 0.  1.
    9900012    2    1    2    0    0 -0.13799768516E+02  0.11548644871E+02  0.51843272265E+01  0.72461493165E+02  0.69999899524E+02 0.  0.
        -12    1    1    2    0    0  0.13799768516E+02 -0.11548644871E+02 -0.51843272265E+01  0.18726506835E+02  0.00000000000E+00 0.  1.
         11    1    3    3    0    0  0.10956147830E+02  0.60282852011E+01 -0.17900127405E+02  0.21835566379E+02  0.51100000000E-03 0. -1.
        -11    1    3    3    0    0 -0.36495650882E+01  0.10599819569E+02 -0.72301516486E+01  0.13339812343E+02  0.51100000000E-03 0.  1.
         12    1    3    3    0    0 -0.21106351258E+02 -0.50794598990E+01  0.30314606280E+02  0.37286114442E+02  0.00000000000E+00 0. -1.
</event>
<event>
 7    1  0.2688173E-013  0.7246154E+02  0.7816164E-02  0.1226708E+00
        -11   -1    0    0    0    0  0.00000000000E+00  0.00000000000E+00  0.45593999997E+02  0.45594000000E+02  0.51100000000E-03 0.  1.
         11   -1    0    0    0    0 -0.00000000000E+00 -0.00000000000E+00 -0.45593999997E+02  0.45594000000E+02  0.51100000000E-03 0. -1.
    9900012    2    1    2    0    0 -0.68523836448E+00  0.15458170205E+02 -0.10547785492E+02  0.72461538602E+02  0.69999958715E+02 0.  0.
        -12    1    1    2    0    0  0.68523836448E+00 -0.15458170205E+02  0.10547785492E+02  0.18726461398E+02  0.00000000000E+00 0.  1.
         11    1    3    3    0    0 -0.12085336341E+02 -0.24086335808E+01 -0.70386153810E+01  0.14191510735E+02  0.51100000000E-03 0. -1.
        -11    1    3    3    0    0 -0.15538821606E+02 -0.10714453355E+02 -0.17313550201E+01  0.18953946240E+02  0.51100000000E-03 0.  1.
        -12    1    3    3    0    0  0.26938919583E+02  0.28581257141E+02 -0.17778150910E+01  0.39316081627E+02  0.00000000000E+00 0.  1.
</event>
<event>
 7    1  0.2688173E-013  0.7246155E+02  0.7816164E-02  0.1226708E+00
        -11   -1    0    0    0    0  0.00000000000E+00  0.00000000000E+00  0.45593999997E+02  0.45594000000E+02  0.51100000000E-03 0.  1.
         11   -1    0    0    0    0 -0.00000000000E+00 -0.00000000000E+00 -0.45593999997E+02  0.45594000000E+02  0.51100000000E-03 0. -1.
    9900012    2    1    2    0    0 -0.17336390697E+02  0.68977758462E+01  0.15969554325E+01  0.72461547568E+02  0.69999970395E+02 0.  0.
        -12    1    1    2    0    0  0.17336390697E+02 -0.68977758462E+01 -0.15969554325E+01  0.18726452432E+02  0.00000000000E+00 0.  1.
         11    1    3    3    0    0 -0.56747236507E+01  0.43337376538E+01 -0.19434100500E+02  0.20704299869E+02  0.51100000000E-03 0. -1.
        -11    1    3    3    0    0  0.99435673549E+01 -0.14647016052E+02  0.11822415910E+01  0.17742809992E+02  0.51100000000E-03 0.  1.
        -12    1    3    3    0    0 -0.21605234402E+02  0.17211054244E+02  0.19848814342E+02  0.34014437707E+02  0.00000000000E+00 0.  1.
</event>
<event>
 7    1  0.2688173E-013  0.7246155E+02  0.7816164E-02  0.1226708E+00
        -11   -1    0    0    0    0  0.00000000000E+00  0.00000000000E+00  0.45593999997E+02  0.45594000000E+02  0.51100000000E-03 0. -1.
         11   -1    0    0    0    0 -0.00000000000E+00 -0.00000000000E+00 -0.45593999997E+02  0.45594000000E+02  0.51100000000E-03 0.  1.
    9900012    2    1    2    0    0 -0.98757755338E+01  0.57283838407E+01  0.14843676182E+02  0.72461546881E+02  0.69999969499E+02 0.  0.
        -12    1    1    2    0    0  0.98757755338E+01 -0.57283838407E+01 -0.14843676182E+02  0.18726453119E+02  0.00000000000E+00 0.  1.
         11    1    3    3    0    0  0.66176685187E+01  0.12096891671E+02  0.53417326611E+01  0.14787238850E+02  0.51100000000E-03 0. -1.
        -11    1    3    3    0    0 -0.56928605902E+01  0.15128795713E+02  0.24479622431E+02  0.29334979735E+02  0.51100000000E-03 0.  1.
        -12    1    3    3    0    0 -0.10800583462E+02 -0.21497303543E+02 -0.14977678909E+02  0.28339328296E+02  0.00000000000E+00 0.  1.
</event>
<event>
 7    1  0.2688173E-013  0.7246157E+02  0.7816164E-02  0.1226708E+00
        -11   -1    0    0    0    0  0.00000000000E+00  0.00000000000E+00  0.45593999997E+02  0.45594000000E+02  0.51100000000E-03 0.  1.
         11   -1    0    0    0    0 -0.00000000000E+00 -0.00000000000E+00 -0.45593999997E+02  0.45594000000E+02  0.51100000000E-03 0. -1.
    9900012    2    1    2    0    0  0.87663661015E+01  0.15323648355E+02 -0.62462623652E+01  0.72461570360E+02  0.70000000085E+02 0.  0.
        -12    1    1    2    0    0 -0.87663661015E+01 -0.15323648355E+02  0.62462623652E+01  0.18726429640E+02  0.00000000000E+00 0.  1.
         11    1    3    3    0    0  0.13637795293E+02  0.12604732472E+02  0.42008227316E+00  0.18575392607E+02  0.51100000000E-03 0. -1.
        -11    1    3    3    0    0 -0.24833438712E+02  0.82794947569E+01  0.92431367943E+01  0.27761219169E+02  0.51100000000E-03 0.  1.
         12    1    3    3    0    0  0.19962009521E+02 -0.55605788736E+01 -0.15909481433E+02  0.26124958583E+02  0.00000000000E+00 0. -1.
</event>
<event>
 7    1  0.2688173E-013  0.7246152E+02  0.7816164E-02  0.1226708E+00
        -11   -1    0    0    0    0  0.00000000000E+00  0.00000000000E+00  0.45593999997E+02  0.45594000000E+02  0.51100000000E-03 0. -1.
         11   -1    0    0    0    0 -0.00000000000E+00 -0.00000000000E+00 -0.45593999997E+02  0.45594000000E+02  0.51100000000E-03 0.  1.
    9900012    2    1    2    0    0 -0.36733563096E+01 -0.34266552322E+01  0.18040108725E+02  0.72461520473E+02  0.69999935099E+02 0.  0.
        -12    1    1    2    0    0  0.36733563096E+01  0.34266552322E+01 -0.18040108725E+02  0.18726479527E+02  0.00000000000E+00 0.  1.
         11    1    3    3    0    0 -0.23441064830E+02  0.14127100189E+02 -0.80124684096E+01  0.28517681014E+02  0.51100000000E-03 0. -1.
        -11    1    3    3    0    0 -0.24111864910E+01  0.38007665888E+01  0.44756484133E+01  0.63475251821E+01  0.51100000000E-03 0.  1.
        -12    1    3    3    0    0  0.22178895012E+02 -0.21354522010E+02  0.21576928721E+02  0.37596314277E+02  0.00000000000E+00 0.  1.
</event>
<event>
 7    1  0.2688173E-013  0.7246161E+02  0.7816164E-02  0.1226708E+00
        -11   -1    0    0    0    0  0.00000000000E+00  0.00000000000E+00  0.45593999997E+02  0.45594000000E+02  0.51100000000E-03 0. -1.
         11   -1    0    0    0    0 -0.00000000000E+00 -0.00000000000E+00 -0.45593999997E+02  0.45594000000E+02  0.51100000000E-03 0.  1.
    9900012    2    1    2    0    0  0.14254011661E+02  0.19873190034E+01  0.11981289876E+02  0.72461612405E+02  0.70000054857E+02 0.  0.
        -12    1    1    2    0    0 -0.14254011661E+02 -0.19873190034E+01 -0.11981289876E+02  0.18726387595E+02  0.00000000000E+00 0.  1.
         11    1    3    3    0    0  0.12643276248E+02  0.24583231796E+02  0.33446209466E+01  0.27845542001E+02  0.51100000000E-03 0. -1.
        -11    1    3    3    0    0  0.52180971434E+01 -0.23689488887E+02 -0.95301424021E+01  0.26062310642E+02  0.51100000000E-03 0.  1.
         12    1    3    3    0    0 -0.36073617302E+01  0.10935760952E+01  0.18166811332E+02  0.18553759762E+02  0.00000000000E+00 0. -1.
</event>
<event>
 7    1  0.2688173E-013  0.7246153E+02  0.7816164E-02  0.1226708E+00
        -11   -1    0    0    0    0  0.00000000000E+00  0.00000000000E+00  0.45593999997E+02  0.45594000000E+02  0.51100000000E-03 0.  1.
         11   -1    0    0    0    0 -0.00000000000E+00 -0.00000000000E+00 -0.45593999997E+02  0.45594000000E+02  0.51100000000E-03 0. -1.
    9900012    2    1    2    0    0  0.26920519612E+01 -0.15364147666E+02 -0.10362262929E+02  0.72461530224E+02  0.69999947801E+02 0.  0.
        -12    1    1    2    0    0 -0.26920519612E+01  0.15364147666E+02  0.10362262929E+02  0.18726469776E+02  0.00000000000E+00 0.  1.
         11    1    3    3    0    0  0.23873555039E+01  0.12932355057E+02  0.33620117615E+00  0.13155162679E+02  0.51100000000E-03 0. -1.
        -11    1    3    3    0    0  0.74843424535E+01  0.15739207967E+01  0.16556659009E+02  0.18237751134E+02  0.51100000000E-03 0.  1.
         12    1    3    3    0    0 -0.71796459963E+01 -0.29870423520E+02 -0.27255123114E+02  0.41068616410E+02  0.00000000000E+00 0. -1.
</event>
<event>
 7    1  0.2688173E-013  0.7246159E+02  0.7816164E-02  0.1226708E+00
        -11   -1    0    0    0    0  0.00000000000E+00  0.00000000000E+00  0.45593999997E+02  0.45594000000E+02  0.51100000000E-03 0. -1.
         11   -1    0    0    0    0 -0.00000000000E+00 -0.00000000000E+00 -0.45593999997E+02  0.45594000000E+02  0.51100000000E-03 0.  1.
    9900012    2    1    2    0    0  0.87167210342E+01  0.16247215074E+02  0.32749310712E+01  0.72461590927E+02  0.70000026877E+02 0.  0.
        -12    1    1    2    0    0 -0.87167210342E+01 -0.16247215074E+02 -0.32749310712E+01  0.18726409073E+02  0.00000000000E+00 0.  1.
         11    1    3    3    0    0  0.14973795861E+02  0.87732145938E+01  0.25735794124E+02  0.31040537306E+02  0.51100000000E-03 0. -1.
        -11    1    3    3    0    0  0.56565828245E+01  0.23286677992E+01  0.69594590686E+01  0.92657268338E+01  0.51100000000E-03 0.  1.
        -12    1    3    3    0    0 -0.11913657651E+02  0.51453326814E+01 -0.29420322122E+02  0.32155326787E+02  0.00000000000E+00 0.  1.
</event>
<event>
 7    1  0.2688173E-013  0.7246188E+02  0.7816164E-02  0.1226707E+00
        -11   -1    0    0    0    0  0.00000000000E+00  0.00000000000E+00  0.45593999997E+02  0.45594000000E+02  0.51100000000E-03 0.  1.
         11   -1    0    0    0    0 -0.00000000000E+00 -0.00000000000E+00 -0.45593999997E+02  0.45594000000E+02  0.51100000000E-03 0. -1.
    9900012    2    1    2    0    0  0.12187886685E+02 -0.13711504581E+02 -0.37573298263E+01  0.72461882753E+02  0.70000407034E+02 0.  0.
        -12    1    1    2    0    0 -0.12187886685E+02  0.13711504581E+02  0.37573298263E+01  0.18726117247E+02  0.00000000000E+00 0.  1.
         11    1    3    3    0    0 -0.98835854077E+00 -0.71577632047E+01 -0.13503128582E+01  0.73507667475E+01  0.51100000000E-03 0. -1.
        -11    1    3    3    0    0  0.23310170315E+02  0.12433794503E+02  0.20678224280E+02  0.33549251042E+02  0.51100000000E-03 0.  1.
         12    1    3    3    0    0 -0.10133925089E+02 -0.18987535880E+02 -0.23085241248E+02  0.31561864963E+02  0.00000000000E+00 0. -1.
</event>
<event>
 7    1  0.2688173E-013  0.7246159E+02  0.7816164E-02  0.1226708E+00
        -11   -1    0    0    0    0  0.00000000000E+00  0.00000000000E+00  0.45593999997E+02  0.45594000000E+02  0.51100000000E-03 0. -1.
         11   -1    0    0    0    0 -0.00000000000E+00 -0.00000000000E+00 -0.45593999997E+02  0.45594000000E+02  0.51100000000E-03 0.  1.
    9900012    2    1    2    0    0  0.11095011127E+02 -0.14152051624E+02  0.52248204213E+01  0.72461585888E+02  0.70000020313E+02 0.  0.
        -12    1    1    2    0    0 -0.11095011127E+02  0.14152051624E+02 -0.52248204213E+01  0.18726414112E+02  0.00000000000E+00 0.  1.
         11    1    3    3    0    0  0.33860932290E+02 -0.19387353252E+01  0.57034606182E+01  0.34392599400E+02  0.51100000000E-03 0. -1.
        -11    1    3    3    0    0  0.31169310450E+01  0.29840875663E+01 -0.61602883640E+01  0.75212492799E+01  0.51100000000E-03 0.  1.
        -12    1    3    3    0    0 -0.25882852208E+02 -0.15197403865E+02  0.56816481671E+01  0.30547737208E+02  0.00000000000E+00 0.  1.
</event>
<event>
 7    1  0.2688173E-013  0.7246159E+02  0.7816164E-02  0.1226708E+00
        -11   -1    0    0    0    0  0.00000000000E+00  0.00000000000E+00  0.45593999997E+02  0.45594000000E+02  0.51100000000E-03 0.  1.
         11   -1    0    0    0    0 -0.00000000000E+00 -0.00000000000E+00 -0.45593999997E+02  0.45594000000E+02  0.51100000000E-03 0. -1.
    9900012    2    1    2    0    0  0.80283172203E+01  0.16757846197E+02 -0.23235895717E+01  0.72461592041E+02  0.70000028329E+02 0.  0.
        -12    1    1    2    0    0 -0.80283172203E+01 -0.16757846197E+02  0.23235895717E+01  0.18726407959E+02  0.00000000000E+00 0.  1.
         11    1    3    3    0    0  0.36257310871E+01  0.18230318551E+02 -0.48722070207E+01  0.19215328306E+02  0.51100000000E-03 0. -1.
        -11    1    3    3    0    0  0.16514470246E+02 -0.82630263611E+01  0.22393775632E+02  0.29025618330E+02  0.51100000000E-03 0.  1.
         12    1    3    3    0    0 -0.12111884113E+02  0.67905540075E+01 -0.19845158183E+02  0.24220645404E+02  0.00000000000E+00 0. -1.
</event>
<event>
 7    1  0.2688173E-013  0.7246140E+02  0.7816164E-02  0.1226708E+00
        -11   -1    0    0    0    0  0.00000000000E+00  0.00000000000E+00  0.45593999997E+02  0.45594000000E+02  0.51100000000E-03 0. -1.
         11   -1    0    0    0    0 -0.00000000000E+00 -0.00000000000E+00 -0.45593999997E+02  0.45594000000E+02  0.51100000000E-03 0.  1.
    9900012    2    1    2    0    0  0.90407617546E+01  0.15064791997E+02  0.64809151668E+01  0.72461398803E+02  0.69999776600E+02 0.  0.
        -12    1    1    2    0    0 -0.90407617546E+01 -0.15064791997E+02 -0.64809151668E+01  0.18726601197E+02  0.00000000000E+00 0.  1.
         11    1    3    3    0    0 -0.20232879286E+02  0.12069938166E+02  0.17897820891E+02  0.29586902583E+02  0.51100000000E-03 0. -1.
        -11    1    3    3    0    0 -0.20883673371E+01  0.87460081662E+01  0.44884146876E-01  0.89919937626E+01  0.51100000000E-03 0.  1.
        -12    1    3    3    0    0  0.31362008378E+02 -0.57511543360E+01 -0.11461789871E+02  0.33882502457E+02  0.00000000000E+00 0.  1.
</event>
<event>
 7    1  0.2688173E-013  0.7246156E+02  0.7816164E-02  0.1226708E+00
        -11   -1    0    0    0    0  0.00000000000E+00  0.00000000000E+00  0.45593999997E+02  0.45594000000E+02  0.51100000000E-03 0. -1.
         11   -1    0    0    0    0 -0.00000000000E+00 -0.00000000000E+00 -0.45593999997E+02  0.45594000000E+02  0.51100000000E-03 0.  1.
    9900012    2    1    2    0    0  0.71677513437E+01  0.14133249904E+02  0.99776831063E+01  0.72461559539E+02  0.69999985989E+02 0.  0.
        -12    1    1    2    0    0 -0.71677513437E+01 -0.14133249904E+02 -0.99776831063E+01  0.18726440461E+02  0.00000000000E+00 0.  1.
         11    1    3    3    0    0  0.27756806329E+01 -0.34188112762E+01 -0.27571981248E+00  0.44123344382E+01  0.51100000000E-03 0. -1.
        -11    1    3    3    0    0  0.12268603021E+02 -0.15603928025E+02 -0.15622525449E+02  0.25259938471E+02  0.51100000000E-03 0.  1.
         12    1    3    3    0    0 -0.78765323101E+01  0.33155989205E+02  0.25875928368E+02  0.42789286630E+02  0.00000000000E+00 0. -1.
</event>
<event>
 7    1  0.2688173E-013  0.7246157E+02  0.7816164E-02  0.1226708E+00
        -11   -1    0    0    0    0  0.00000000000E+00  0.00000000000E+00  0.45593999997E+02  0.45594000000E+02  0.51100000000E-03 0.  1.
         11   -1    0    0    0    0 -0.00000000000E+00 -0.00000000000E+00 -0.45593999997E+02  0.45594000000E+02  0.51100000000E-03 0. -1.
    9900012    2    1    2    0    0 -0.33849251461E+01  0.16072834070E+02 -0.89936298201E+01  0.72461572401E+02  0.70000002744E+02 0.  0.
        -12    1    1    2    0    0  0.33849251461E+01 -0.16072834070E+02  0.89936298201E+01  0.18726427599E+02  0.00000000000E+00 0.  1.
         11    1    3    3    0    0  0.23188908813E+02  0.13632398546E+02 -0.14524755602E+02  0.30570186581E+02  0.51100000000E-03 0. -1.
        -11    1    3    3    0    0 -0.11356701197E+02  0.14111750442E+02  0.11912389501E+02  0.21679972014E+02  0.51100000000E-03 0.  1.
        -12    1    3    3    0    0 -0.15217132762E+02 -0.11671314917E+02 -0.63812637186E+01  0.20211413806E+02  0.00000000000E+00 0.  1.
</event>
<event>
 7    1  0.2688173E-013  0.7246156E+02  0.7816164E-02  0.1226708E+00
        -11   -1    0    0    0    0  0.00000000000E+00  0.00000000000E+00  0.45593999997E+02  0.45594000000E+02  0.51100000000E-03 0. -1.
         11   -1    0    0    0    0 -0.00000000000E+00 -0.00000000000E+00 -0.45593999997E+02  0.45594000000E+02  0.51100000000E-03 0.  1.
    9900012    2    1    2    0    0  0.12119727255E+02  0.50972919598E+01  0.13334523127E+02  0.72461556636E+02  0.69999982207E+02 0.  0.
        -12    1    1    2    0    0 -0.12119727255E+02 -0.50972919598E+01 -0.13334523127E+02  0.18726443364E+02  0.00000000000E+00 0.  1.
         11    1    3    3    0    0 -0.10752006926E+02  0.24370042260E+02  0.18258739100E+02  0.32293748102E+02  0.51100000000E-03 0. -1.
        -11    1    3    3    0    0  0.30642393306E+01  0.33247151227E+01 -0.87760304071E+01  0.98722846034E+01  0.51100000000E-03 0.  1.
         12    1    3    3    0    0  0.19807494851E+02 -0.22597465423E+02  0.38518144335E+01  0.30295523930E+02  0.00000000000E+00 0. -1.
</event>
<event>
 7    1  0.2688173E-013  0.7246160E+02  0.7816164E-02  0.1226708E+00
        -11   -1    0    0    0    0  0.00000000000E+00  0.00000000000E+00  0.45593999997E+02  0.45594000000E+02  0.51100000000E-03 0.  1.
         11   -1    0    0    0    0 -0.00000000000E+00 -0.00000000000E+00 -0.45593999997E+02  0.45594000000E+02  0.51100000000E-03 0. -1.
    9900012    2    1    2    0    0  0.16871631213E+02  0.74767034356E+01 -0.31820008675E+01  0.72461597153E+02  0.70000034989E+02 0.  0.
        -12    1    1    2    0    0 -0.16871631213E+02 -0.74767034356E+01  0.31820008675E+01  0.18726402847E+02  0.00000000000E+00 0.  1.
         11    1    3    3    0    0  0.82294926224E+01 -0.14045686202E+02 -0.67863903861E+01  0.17636919925E+02  0.51100000000E-03 0. -1.
        -11    1    3    3    0    0  0.17291380258E+02 -0.38400102335E+01  0.17275365376E+02  0.24742185816E+02  0.51100000000E-03 0.  1.
        -12    1    3    3    0    0 -0.86492416675E+01  0.25362399871E+02 -0.13670975857E+02  0.30082491412E+02  0.00000000000E+00 0.  1.
</event>
<event>
 7    1  0.2688173E-013  0.7246156E+02  0.7816164E-02  0.1226708E+00
        -11   -1    0    0    0    0  0.00000000000E+00  0.00000000000E+00  0.45593999997E+02  0.45594000000E+02  0.51100000000E-03 0.  1.
         11   -1    0    0    0    0 -0.00000000000E+00 -0.00000000000E+00 -0.45593999997E+02  0.45594000000E+02  0.51100000000E-03 0. -1.
    9900012    2    1    2    0    0 -0.55637053370E+01 -0.17262810245E+02 -0.46604887381E+01  0.72461559069E+02  0.69999985377E+02 0.  0.
        -12    1    1    2    0    0  0.55637053370E+01  0.17262810245E+02  0.46604887381E+01  0.18726440931E+02  0.00000000000E+00 0.  1.
         11    1    3    3    0    0  0.15800521816E+02 -0.21601260703E+02 -0.22356984202E+02  0.34872707042E+02  0.51100000000E-03 0. -1.
        -11    1    3    3    0    0 -0.14214505874E+02 -0.66275442564E+01  0.18763000201E+02  0.24454584374E+02  0.51100000000E-03 0.  1.
        -12    1    3    3    0    0 -0.71497212784E+01  0.10965994714E+02 -0.10665047368E+01  0.13134267653E+02  0.00000000000E+00 0.  1.
</event>
<event>
 7    1  0.2688173E-013  0.7246159E+02  0.7816164E-02  0.1226708E+00
        -11   -1    0    0    0    0  0.00000000000E+00  0.00000000000E+00  0.45593999997E+02  0.45594000000E+02  0.51100000000E-03 0. -1.
         11   -1    0    0    0    0 -0.00000000000E+00 -0.00000000000E+00 -0.45593999997E+02  0.45594000000E+02  0.51100000000E-03 0.  1.
    9900012    2    1    2    0    0 -0.60672618577E+01  0.12907431915E+02  0.12135272761E+02  0.72461593242E+02  0.70000029894E+02 0.  0.
        -12    1    1    2    0    0  0.60672618577E+01 -0.12907431915E+02 -0.12135272761E+02  0.18726406758E+02  0.00000000000E+00 0.  1.
         11    1    3    3    0    0  0.86142813354E+01  0.32943505319E+02  0.59566916574E+01  0.34568230522E+02  0.51100000000E-03 0. -1.
        -11    1    3    3    0    0  0.11961509420E+01  0.63995369608E+01  0.17342025853E+01  0.67373814837E+01  0.51100000000E-03 0.  1.
        -12    1    3    3    0    0 -0.15877694135E+02 -0.26435610365E+02  0.44443785180E+01  0.31155981237E+02  0.00000000000E+00 0.  1.
</event>
<event>
 7    1  0.2688173E-013  0.7246154E+02  0.7816164E-02  0.1226708E+00
        -11   -1    0    0    0    0  0.00000000000E+00  0.00000000000E+00  0.45593999997E+02  0.45594000000E+02  0.51100000000E-03 0. -1.
         11   -1    0    0    0    0 -0.00000000000E+00 -0.00000000000E+00 -0.45593999997E+02  0.45594000000E+02  0.51100000000E-03 0.  1.
    9900012    2    1    2    0    0 -0.17398754209E+00  0.17996675241E+02 -0.51739390613E+01  0.72461541798E+02  0.69999962878E+02 0.  0.
        -12    1    1    2    0    0  0.17398754209E+00 -0.17996675241E+02  0.51739390613E+01  0.18726458202E+02  0.00000000000E+00 0.  1.
         11    1    3    3    0    0  0.10462692564E+02  0.83522959550E+00  0.18777576711E+02  0.21511925334E+02  0.51100000000E-03 0. -1.
        -11    1    3    3    0    0  0.14014784833E+02  0.41400210253E+01 -0.16602972885E+02  0.22118152655E+02  0.51100000000E-03 0.  1.
        -12    1    3    3    0    0 -0.24651464939E+02  0.13021424620E+02 -0.73485428875E+01  0.28831463809E+02  0.00000000000E+00 0.  1.
</event>
<event>
 7    1  0.2688173E-013  0.7246155E+02  0.7816164E-02  0.1226708E+00
        -11   -1    0    0    0    0  0.00000000000E+00  0.00000000000E+00  0.45593999997E+02  0.45594000000E+02  0.51100000000E-03 0. -1.
         11   -1    0    0    0    0 -0.00000000000E+00 -0.00000000000E+00 -0.45593999997E+02  0.45594000000E+02  0.51100000000E-03 0.  1.
    9900012    2    1    2    0    0  0.12974449253E+02  0.22142328911E+01  0.13320685635E+02  0.72461552753E+02  0.69999977150E+02 0.  0.
        -12    1    1    2    0    0 -0.12974449253E+02 -0.22142328911E+01 -0.13320685635E+02  0.18726447247E+02  0.00000000000E+00 0.  1.
         11    1    3    3    0    0 -0.11279393920E+02  0.22087141892E+02  0.62173699274E+01  0.25567992749E+02  0.51100000000E-03 0. -1.
        -11    1    3    3    0    0 -0.51839823930E+01 -0.85335527143E+01  0.11288736977E+02  0.15070858575E+02  0.51100000000E-03 0.  1.
        -12    1    3    3    0    0  0.29437825566E+02 -0.11339356286E+02 -0.41854212699E+01  0.31822701429E+02  0.00000000000E+00 0.  1.
</event>
<event>
 7    1  0.2688173E-013  0.7246160E+02  0.7816164E-02  0.1226708E+00
        -11   -1    0    0    0    0  0.00000000000E+00  0.00000000000E+00  0.45593999997E+02  0.45594000000E+02  0.51100000000E-03 0. -1.
         11   -1    0    0    0    0 -0.00000000000E+00 -0.00000000000E+00 -0.45593999997E+02  0.45594000000E+02  0.51100000000E-03 0.  1.
    9900012    2    1    2    0    0  0.33022259240E+01 -0.15296092996E+02 -0.10286054471E+02  0.72461599556E+02  0.70000038119E+02 0.  0.
        -12    1    1    2    0    0 -0.33022259240E+01  0.15296092996E+02  0.10286054471E+02  0.18726400444E+02  0.00000000000E+00 0.  1.
         11    1    3    3    0    0 -0.47513486072E+01  0.21379009760E+02 -0.10833899007E+02  0.24433803222E+02  0.51100000000E-03 0. -1.
        -11    1    3    3    0    0 -0.42494881860E+01 -0.29806471683E+00  0.78566511352E+01  0.89372232679E+01  0.51100000000E-03 0.  1.
        -12    1    3    3    0    0  0.12303062717E+02 -0.36377038040E+02 -0.73088065993E+01  0.39090573067E+02  0.00000000000E+00 0.  1.
</event>
<event>
 7    1  0.2688173E-013  0.7246160E+02  0.7816164E-02  0.1226708E+00
        -11   -1    0    0    0    0  0.00000000000E+00  0.00000000000E+00  0.45593999997E+02  0.45594000000E+02  0.51100000000E-03 0.  1.
         11   -1    0    0    0    0 -0.00000000000E+00 -0.00000000000E+00 -0.45593999997E+02  0.45594000000E+02  0.51100000000E-03 0. -1.
    9900012    2    1    2    0    0  0.17408934405E+02  0.48795236280E+01 -0.48782662999E+01  0.72461595378E+02  0.70000032677E+02 0.  0.
        -12    1    1    2    0    0 -0.17408934405E+02 -0.48795236280E+01  0.48782662999E+01  0.18726404622E+02  0.00000000000E+00 0.  1.
         11    1    3    3    0    0 -0.69575103353E+01  0.14561279313E+02 -0.38329674187E+01  0.16587026400E+02  0.51100000000E-03 0. -1.
        -11    1    3    3    0    0 -0.13876233903E+02 -0.95080245340E+01  0.40272155390E+01  0.17296556395E+02  0.51100000000E-03 0.  1.
         12    1    3    3    0    0  0.38242678644E+02 -0.17373115075E+00 -0.50725144202E+01  0.38578012584E+02  0.00000000000E+00 0. -1.
</event>
<event>
 7    1  0.2688173E-013  0.7246169E+02  0.7816164E-02  0.1226708E+00
        -11   -1    0    0    0    0  0.00000000000E+00  0.00000000000E+00  0.45593999997E+02  0.45594000000E+02  0.51100000000E-03 0.  1.
         11   -1    0    0    0    0 -0.00000000000E+00 -0.00000000000E+00 -0.45593999997E+02  0.45594000000E+02  0.51100000000E-03 0. -1.
    9900012    2    1    2    0    0 -0.89883134900E+01 -0.14940205571E+02 -0.68319355863E+01  0.72461685206E+02  0.70000149694E+02 0.  0.
        -12    1    1    2    0    0  0.89883134900E+01  0.14940205571E+02  0.68319355863E+01  0.18726314794E+02  0.00000000000E+00 0.  1.
         11    1    3    3    0    0 -0.41414908375E+00 -0.15525960657E+02  0.19108826621E+02  0.24624667081E+02  0.51100000000E-03 0.  1.
        -11    1    3    3    0    0 -0.21345116813E+02  0.65891551610E+01 -0.55134103993E+01  0.23009317069E+02  0.51100000000E-03 0. -1.
         12    1    3    3    0    0  0.12770952407E+02 -0.60034000754E+01 -0.20427351808E+02  0.24827701056E+02  0.00000000000E+00 0. -1.
</event>
<event>
 7    1  0.2688173E-013  0.7246157E+02  0.7816164E-02  0.1226708E+00
        -11   -1    0    0    0    0  0.00000000000E+00  0.00000000000E+00  0.45593999997E+02  0.45594000000E+02  0.51100000000E-03 0.  1.
         11   -1    0    0    0    0 -0.00000000000E+00 -0.00000000000E+00 -0.45593999997E+02  0.45594000000E+02  0.51100000000E-03 0. -1.
    9900012    2    1    2    0    0  0.17998929099E+02 -0.19895882090E+01 -0.47706500484E+01  0.72461574504E+02  0.70000005484E+02 0.  0.
        -12    1    1    2    0    0 -0.17998929099E+02  0.19895882090E+01  0.47706500484E+01  0.18726425496E+02  0.00000000000E+00 0.  1.
         11    1    3    3    0    0 -0.12925334600E+02 -0.26764783762E+01  0.10335358279E+02  0.16764469632E+02  0.51100000000E-03 0. -1.
        -11    1    3    3    0    0 -0.71743162035E+01 -0.34104675893E+01  0.77351517477E+01  0.11087591036E+02  0.51100000000E-03 0.  1.
         12    1    3    3    0    0  0.38098579902E+02  0.40973577565E+01 -0.22841160075E+02  0.44609513837E+02  0.00000000000E+00 0. -1.
</event>
<event>
 7    1  0.2688173E-013  0.7246152E+02  0.7816164E-02  0.1226708E+00
        -11   -1    0    0    0    0  0.00000000000E+00  0.00000000000E+00  0.45593999997E+02  0.45594000000E+02  0.51100000000E-03 0.  1.
         11   -1    0    0    0    0 -0.00000000000E+00 -0.00000000000E+00 -0.45593999997E+02  0.45594000000E+02  0.51100000000E-03 0. -1.
    9900012    2    1    2    0    0  0.88536329001E+01 -0.61476084143E+01 -0.15313429274E+02  0.72461520863E+02  0.69999935606E+02 0.  0.
        -12    1    1    2    0    0 -0.88536329001E+01  0.61476084143E+01  0.15313429274E+02  0.18726479137E+02  0.00000000000E+00 0.  1.
         11    1    3    3    0    0  0.67493071349E+01 -0.88931985178E+01  0.78219153162E+01  0.13631745528E+02  0.51100000000E-03 0. -1.
        -11    1    3    3    0    0  0.23724960783E+02  0.13825489955E+02 -0.20751696125E+02  0.34418756935E+02  0.51100000000E-03 0.  1.
         12    1    3    3    0    0 -0.21620635018E+02 -0.11079899851E+02 -0.23836484655E+01  0.24411018399E+02  0.00000000000E+00 0. -1.
</event>
<event>
 7    1  0.2688173E-013  0.7246154E+02  0.7816164E-02  0.1226708E+00
        -11   -1    0    0    0    0  0.00000000000E+00  0.00000000000E+00  0.45593999997E+02  0.45594000000E+02  0.51100000000E-03 0.  1.
         11   -1    0    0    0    0 -0.00000000000E+00 -0.00000000000E+00 -0.45593999997E+02  0.45594000000E+02  0.51100000000E-03 0. -1.
    9900012    2    1    2    0    0 -0.12907757110E+02  0.12957256594E+02  0.40223674034E+01  0.72461544607E+02  0.69999966538E+02 0.  0.
        -12    1    1    2    0    0  0.12907757110E+02 -0.12957256594E+02 -0.40223674034E+01  0.18726455393E+02  0.00000000000E+00 0.  1.
         11    1    3    3    0    0 -0.10845709327E+01 -0.13891472565E+02  0.24061193414E+02  0.27804502025E+02  0.51100000000E-03 0. -1.
        -11    1    3    3    0    0 -0.66383554848E+01  0.27456964743E+02 -0.49342258780E+01  0.28675760875E+02  0.51100000000E-03 0.  1.
        -12    1    3    3    0    0 -0.51848306925E+01 -0.60823558470E+00 -0.15104600132E+02  0.15981281707E+02  0.00000000000E+00 0.  1.
</event>
<event>
 7    1  0.2688173E-013  0.7246141E+02  0.7816164E-02  0.1226708E+00
        -11   -1    0    0    0    0  0.00000000000E+00  0.00000000000E+00  0.45593999997E+02  0.45594000000E+02  0.51100000000E-03 0. -1.
         11   -1    0    0    0    0 -0.00000000000E+00 -0.00000000000E+00 -0.45593999997E+02  0.45594000000E+02  0.51100000000E-03 0.  1.
    9900012    2    1    2    0    0 -0.33685233496E+01  0.17350659864E+02  0.61881341549E+01  0.72461405233E+02  0.69999784976E+02 0.  0.
        -12    1    1    2    0    0  0.33685233496E+01 -0.17350659864E+02 -0.61881341549E+01  0.18726594767E+02  0.00000000000E+00 0.  1.
         11    1    3    3    0    0 -0.13192188010E+02  0.25861134796E+02 -0.19249148042E+02  0.34833343480E+02  0.51100000000E-03 0. -1.
        -11    1    3    3    0    0 -0.14300308362E+01 -0.14892086745E+01 -0.44631244451E+01  0.49175411277E+01  0.51100000000E-03 0.  1.
         12    1    3    3    0    0  0.11253695497E+02 -0.70212662576E+01  0.29900406642E+02  0.32710520625E+02  0.00000000000E+00 0. -1.
</event>
<event>
 7    1  0.2688173E-013  0.7246154E+02  0.7816164E-02  0.1226708E+00
        -11   -1    0    0    0    0  0.00000000000E+00  0.00000000000E+00  0.45593999997E+02  0.45594000000E+02  0.51100000000E-03 0.  1.
         11   -1    0    0    0    0 -0.00000000000E+00 -0.00000000000E+00 -0.45593999997E+02  0.45594000000E+02  0.51100000000E-03 0. -1.
    9900012    2    1    2    0    0 -0.18217437997E+02 -0.43164445559E+01  0.41650953635E+00  0.72461542220E+02  0.69999963428E+02 0.  0.
        -12    1    1    2    0    0  0.18217437997E+02  0.43164445559E+01 -0.41650953635E+00  0.18726457780E+02  0.00000000000E+00 0.  1.
         11    1    3    3    0    0  0.44075205288E+01 -0.11553351051E+02 -0.17252543050E+02  0.21226313850E+02  0.51100000000E-03 0. -1.
        -11    1    3    3    0    0 -0.49531615937E+01 -0.43992152746E+00  0.28636596203E+02  0.29065133460E+02  0.51100000000E-03 0.  1.
         12    1    3    3    0    0 -0.17671796932E+02  0.76768280225E+01 -0.10967543617E+02  0.22170094909E+02  0.00000000000E+00 0. -1.
</event>
<event>
 7    1  0.2688173E-013  0.7246156E+02  0.7816164E-02  0.1226708E+00
        -11   -1    0    0    0    0  0.00000000000E+00  0.00000000000E+00  0.45593999997E+02  0.45594000000E+02  0.51100000000E-03 0.  1.
         11   -1    0    0    0    0 -0.00000000000E+00 -0.00000000000E+00 -0.45593999997E+02  0.45594000000E+02  0.51100000000E-03 0. -1.
    9900012    2    1    2    0    0 -0.16935426986E+02  0.24990429957E+01 -0.75911571292E+01  0.72461559611E+02  0.69999986083E+02 0.  0.
        -12    1    1    2    0    0  0.16935426986E+02 -0.24990429957E+01  0.75911571292E+01  0.18726440389E+02  0.00000000000E+00 0.  1.
         11    1    3    3    0    0 -0.15667714088E+02 -0.24455316121E+01  0.14906612550E+02  0.21763845882E+02  0.51100000000E-03 0. -1.
        -11    1    3    3    0    0  0.60894878375E+01 -0.76572336593E+01  0.10661263296E+02  0.14469886826E+02  0.51100000000E-03 0.  1.
         12    1    3    3    0    0 -0.73572007355E+01  0.12601808267E+02 -0.33159032975E+02  0.36227826903E+02  0.00000000000E+00 0. -1.
</event>
<event>
 7    1  0.2688173E-013  0.7246130E+02  0.7816164E-02  0.1226709E+00
        -11   -1    0    0    0    0  0.00000000000E+00  0.00000000000E+00  0.45593999997E+02  0.45594000000E+02  0.51100000000E-03 0.  1.
         11   -1    0    0    0    0 -0.00000000000E+00 -0.00000000000E+00 -0.45593999997E+02  0.45594000000E+02  0.51100000000E-03 0. -1.
    9900012    2    1    2    0    0 -0.18537587860E+02 -0.42009560294E+00 -0.26212101411E+01  0.72461297498E+02  0.69999644631E+02 0.  0.
        -12    1    1    2    0    0  0.18537587860E+02  0.42009560294E+00  0.26212101411E+01  0.18726702502E+02  0.00000000000E+00 0.  1.
         11    1    3    3    0    0 -0.16249770573E+02  0.13945894669E+02 -0.15843039423E+02  0.26637284400E+02  0.51100000000E-03 0. -1.
        -11    1    3    3    0    0  0.19862357217E+01 -0.66507489730E+01 -0.14853827050E+02  0.16395541240E+02  0.51100000000E-03 0.  1.
        -12    1    3    3    0    0 -0.42740530095E+01 -0.77152412987E+01  0.28075656332E+02  0.29428471858E+02  0.00000000000E+00 0.  1.
</event>
<event>
 7    1  0.2688173E-013  0.7246156E+02  0.7816164E-02  0.1226708E+00
        -11   -1    0    0    0    0  0.00000000000E+00  0.00000000000E+00  0.45593999997E+02  0.45594000000E+02  0.51100000000E-03 0.  1.
         11   -1    0    0    0    0 -0.00000000000E+00 -0.00000000000E+00 -0.45593999997E+02  0.45594000000E+02  0.51100000000E-03 0. -1.
    9900012    2    1    2    0    0 -0.17016683672E+01  0.72149016902E+01 -0.17196770816E+02  0.72461563924E+02  0.69999991701E+02 0.  0.
        -12    1    1    2    0    0  0.17016683672E+01 -0.72149016902E+01  0.17196770816E+02  0.18726436076E+02  0.00000000000E+00 0.  1.
         11    1    3    3    0    0 -0.45829139390E+01  0.18695392573E+02  0.14413340412E+01  0.19302804141E+02  0.51100000000E-03 0. -1.
        -11    1    3    3    0    0 -0.63980428603E+01  0.16376048671E+02  0.13597628061E+01  0.17634026134E+02  0.51100000000E-03 0.  1.
        -12    1    3    3    0    0  0.92792884321E+01 -0.27856539554E+02 -0.19997867663E+02  0.35524733649E+02  0.00000000000E+00 0.  1.
</event>
<event>
 7    1  0.2688173E-013  0.7246162E+02  0.7816164E-02  0.1226708E+00
        -11   -1    0    0    0    0  0.00000000000E+00  0.00000000000E+00  0.45593999997E+02  0.45594000000E+02  0.51100000000E-03 0.  1.
         11   -1    0    0    0    0 -0.00000000000E+00 -0.00000000000E+00 -0.45593999997E+02  0.45594000000E+02  0.51100000000E-03 0. -1.
    9900012    2    1    2    0    0 -0.45889144287E+01  0.23739385710E+01 -0.17999546608E+02  0.72461617592E+02  0.70000061614E+02 0.  0.
        -12    1    1    2    0    0  0.45889144287E+01 -0.23739385710E+01  0.17999546608E+02  0.18726382408E+02  0.00000000000E+00 0.  1.
         11    1    3    3    0    0 -0.64877697024E+01 -0.19999313229E+01  0.62230494669E+01  0.92096268077E+01  0.51100000000E-03 0. -1.
        -11    1    3    3    0    0 -0.18664751654E+01  0.17729092182E+02  0.13949516217E+02  0.22636109253E+02  0.51100000000E-03 0.  1.
         12    1    3    3    0    0  0.37653304391E+01 -0.13355222289E+02 -0.38172112293E+02  0.40615881531E+02  0.00000000000E+00 0. -1.
</event>
<event>
 7    1  0.2688173E-013  0.7246135E+02  0.7816164E-02  0.1226709E+00
        -11   -1    0    0    0    0  0.00000000000E+00  0.00000000000E+00  0.45593999997E+02  0.45594000000E+02  0.51100000000E-03 0.  1.
         11   -1    0    0    0    0 -0.00000000000E+00 -0.00000000000E+00 -0.45593999997E+02  0.45594000000E+02  0.51100000000E-03 0. -1.
    9900012    2    1    2    0    0  0.32186915366E+01  0.17739278159E+02 -0.50641481989E+01  0.72461346220E+02  0.69999708101E+02 0.  0.
        -12    1    1    2    0    0 -0.32186915366E+01 -0.17739278159E+02  0.50641481989E+01  0.18726653780E+02  0.00000000000E+00 0.  1.
         11    1    3    3    0    0  0.16532627702E+02 -0.12359754048E+01 -0.16249811115E+02  0.23214473405E+02  0.51100000000E-03 0. -1.
        -11    1    3    3    0    0  0.13258226111E+02  0.82468683759E+01 -0.49253159860E+01  0.16372236727E+02  0.51100000000E-03 0.  1.
        -12    1    3    3    0    0 -0.26572162276E+02  0.10728385188E+02  0.16110978902E+02  0.32874636088E+02  0.00000000000E+00 0.  1.
</event>
<event>
 7    1  0.2688173E-013  0.7246163E+02  0.7816164E-02  0.1226708E+00
        -11   -1    0    0    0    0  0.00000000000E+00  0.00000000000E+00  0.45593999997E+02  0.45594000000E+02  0.51100000000E-03 0.  1.
         11   -1    0    0    0    0 -0.00000000000E+00 -0.00000000000E+00 -0.45593999997E+02  0.45594000000E+02  0.51100000000E-03 0. -1.
    9900012    2    1    2    0    0 -0.10553710411E+01  0.85609522314E+01 -0.16621473689E+02  0.72461625585E+02  0.70000072027E+02 0.  0.
        -12    1    1    2    0    0  0.10553710411E+01 -0.85609522314E+01  0.16621473689E+02  0.18726374415E+02  0.00000000000E+00 0.  1.
         11    1    3    3    0    0  0.75135658673E+01 -0.14153850705E+02 -0.53626643808E+01  0.16898027439E+02  0.51100000000E-03 0.  1.
        -11    1    3    3    0    0 -0.16134433059E+02 -0.83547914685E+01  0.61156458582E+01  0.19170904912E+02  0.51100000000E-03 0. -1.
         12    1    3    3    0    0  0.75654961511E+01  0.31069594405E+02 -0.17374455166E+02  0.36392693234E+02  0.00000000000E+00 0. -1.
</event>
<event>
 7    1  0.2688173E-013  0.7246157E+02  0.7816164E-02  0.1226708E+00
        -11   -1    0    0    0    0  0.00000000000E+00  0.00000000000E+00  0.45593999997E+02  0.45594000000E+02  0.51100000000E-03 0.  1.
         11   -1    0    0    0    0 -0.00000000000E+00 -0.00000000000E+00 -0.45593999997E+02  0.45594000000E+02  0.51100000000E-03 0. -1.
    9900012    2    1    2    0    0 -0.36337390467E+01 -0.44552562379E+01 -0.17822061943E+02  0.72461567892E+02  0.69999996870E+02 0.  0.
        -12    1    1    2    0    0  0.36337390467E+01  0.44552562379E+01  0.17822061943E+02  0.18726432108E+02  0.00000000000E+00 0.  1.
         11    1    3    3    0    0 -0.28627720301E+01 -0.99401626018E+01 -0.41970576937E+01  0.11163224883E+02  0.51100000000E-03 0. -1.
        -11    1    3    3    0    0 -0.19651866525E+02  0.84654439077E+01  0.15527596911E+02  0.26437962565E+02  0.51100000000E-03 0.  1.
         12    1    3    3    0    0  0.18880899508E+02 -0.29805375438E+01 -0.29152601160E+02  0.34860380444E+02  0.00000000000E+00 0. -1.
</event>
<event>
 7    1  0.2688173E-013  0.7246156E+02  0.7816164E-02  0.1226708E+00
        -11   -1    0    0    0    0  0.00000000000E+00  0.00000000000E+00  0.45593999997E+02  0.45594000000E+02  0.51100000000E-03 0. -1.
         11   -1    0    0    0    0 -0.00000000000E+00 -0.00000000000E+00 -0.45593999997E+02  0.45594000000E+02  0.51100000000E-03 0.  1.
    9900012    2    1    2    0    0  0.15657864115E+02  0.19208035342E+01  0.10090662267E+02  0.72461557203E+02  0.69999982946E+02 0.  0.
        -12    1    1    2    0    0 -0.15657864115E+02 -0.19208035342E+01 -0.10090662267E+02  0.18726442797E+02  0.00000000000E+00 0.  1.
         11    1    3    3    0    0  0.64231372224E+01  0.73233799801E+01  0.32810960066E+01  0.10278821789E+02  0.51100000000E-03 0. -1.
        -11    1    3    3    0    0  0.17481941493E+02  0.20669544911E+02  0.18135700865E+02  0.32584536384E+02  0.51100000000E-03 0.  1.
         12    1    3    3    0    0 -0.82472146006E+01 -0.26072121357E+02 -0.11326134605E+02  0.29598199030E+02  0.00000000000E+00 0. -1.
</event>
<event>
 7    1  0.2688173E-013  0.7246159E+02  0.7816164E-02  0.1226708E+00
        -11   -1    0    0    0    0  0.00000000000E+00  0.00000000000E+00  0.45593999997E+02  0.45594000000E+02  0.51100000000E-03 0.  1.
         11   -1    0    0    0    0 -0.00000000000E+00 -0.00000000000E+00 -0.45593999997E+02  0.45594000000E+02  0.51100000000E-03 0. -1.
    9900012    2    1    2    0    0  0.13824132374E+02  0.10185989475E+02 -0.74710974085E+01  0.72461593138E+02  0.70000029758E+02 0.  0.
        -12    1    1    2    0    0 -0.13824132374E+02 -0.10185989475E+02  0.74710974085E+01  0.18726406862E+02  0.00000000000E+00 0.  1.
         11    1    3    3    0    0 -0.23755485727E+02  0.11064768342E+02  0.11842131581E+02  0.28757403938E+02  0.51100000000E-03 0.  1.
        -11    1    3    3    0    0  0.23991017124E+01 -0.24857824947E+01 -0.40455807087E+01  0.53199179664E+01  0.51100000000E-03 0. -1.
        -12    1    3    3    0    0  0.35180516389E+02  0.16070036275E+01 -0.15267648281E+02  0.38384271233E+02  0.00000000000E+00 0.  1.
</event>
<event>
 7    1  0.2688173E-013  0.7246158E+02  0.7816164E-02  0.1226708E+00
        -11   -1    0    0    0    0  0.00000000000E+00  0.00000000000E+00  0.45593999997E+02  0.45594000000E+02  0.51100000000E-03 0. -1.
         11   -1    0    0    0    0 -0.00000000000E+00 -0.00000000000E+00 -0.45593999997E+02  0.45594000000E+02  0.51100000000E-03 0.  1.
    9900012    2    1    2    0    0  0.18574007875E+02 -0.55395114346E+00 -0.23190591388E+01  0.72461583746E+02  0.70000017524E+02 0.  0.
        -12    1    1    2    0    0 -0.18574007875E+02  0.55395114346E+00  0.23190591388E+01  0.18726416254E+02  0.00000000000E+00 0.  1.
         11    1    3    3    0    0 -0.13662601950E+02  0.45380137796E+00 -0.76421269741E+00  0.13691480893E+02  0.51100000000E-03 0. -1.
        -11    1    3    3    0    0 -0.37626507616E+01 -0.15852555501E+02  0.87443689872E+01  0.18491215371E+02  0.51100000000E-03 0.  1.
         12    1    3    3    0    0  0.35999260587E+02  0.14844802979E+02 -0.10299215429E+02  0.40278887482E+02  0.00000000000E+00 0. -1.
</event>
<event>
 7    1  0.2688173E-013  0.7246154E+02  0.7816164E-02  0.1226708E+00
        -11   -1    0    0    0    0  0.00000000000E+00  0.00000000000E+00  0.45593999997E+02  0.45594000000E+02  0.51100000000E-03 0.  1.
         11   -1    0    0    0    0 -0.00000000000E+00 -0.00000000000E+00 -0.45593999997E+02  0.45594000000E+02  0.51100000000E-03 0. -1.
    9900012    2    1    2    0    0  0.11627670580E+02  0.76487206323E+01  0.12528946519E+02  0.72461544081E+02  0.69999965852E+02 0.  0.
        -12    1    1    2    0    0 -0.11627670580E+02 -0.76487206323E+01 -0.12528946519E+02  0.18726455919E+02  0.00000000000E+00 0.  1.
         11    1    3    3    0    0  0.10424397320E+02 -0.29133476911E+01 -0.91200637162E+01  0.14153841058E+02  0.51100000000E-03 0. -1.
        -11    1    3    3    0    0 -0.71708723535E+01  0.23485005533E+02 -0.72145357899E+01  0.25593288615E+02  0.51100000000E-03 0.  1.
         12    1    3    3    0    0  0.83741456131E+01 -0.12922937209E+02  0.28863546025E+02  0.32714414408E+02  0.00000000000E+00 0. -1.
</event>
<event>
 7    1  0.2688173E-013  0.7246159E+02  0.7816164E-02  0.1226708E+00
        -11   -1    0    0    0    0  0.00000000000E+00  0.00000000000E+00  0.45593999997E+02  0.45594000000E+02  0.51100000000E-03 0. -1.
         11   -1    0    0    0    0 -0.00000000000E+00 -0.00000000000E+00 -0.45593999997E+02  0.45594000000E+02  0.51100000000E-03 0.  1.
    9900012    2    1    2    0    0  0.70657449524E+01 -0.13223807470E+02  0.11219836130E+02  0.72461586608E+02  0.70000021252E+02 0.  0.
        -12    1    1    2    0    0 -0.70657449524E+01  0.13223807470E+02 -0.11219836130E+02  0.18726413392E+02  0.00000000000E+00 0.  1.
         11    1    3    3    0    0  0.14492895812E+02  0.50519638001E+01  0.53320017643E+01  0.16247972499E+02  0.51100000000E-03 0. -1.
        -11    1    3    3    0    0  0.19102627641E+02 -0.30782056224E+01  0.14807247873E+02  0.24364735223E+02  0.51100000000E-03 0.  1.
        -12    1    3    3    0    0 -0.26529778501E+02 -0.15197565648E+02 -0.89194135071E+01  0.31848878885E+02  0.00000000000E+00 0.  1.
</event>
<event>
 7    1  0.2688173E-013  0.7246150E+02  0.7816164E-02  0.1226708E+00
        -11   -1    0    0    0    0  0.00000000000E+00  0.00000000000E+00  0.45593999997E+02  0.45594000000E+02  0.51100000000E-03 0. -1.
         11   -1    0    0    0    0 -0.00000000000E+00 -0.00000000000E+00 -0.45593999997E+02  0.45594000000E+02  0.51100000000E-03 0.  1.
    9900012    2    1    2    0    0  0.11259776303E+02 -0.14862061087E+02 -0.17373293837E+01  0.72461501781E+02  0.69999910749E+02 0.  0.
        -12    1    1    2    0    0 -0.11259776303E+02  0.14862061087E+02  0.17373293837E+01  0.18726498219E+02  0.00000000000E+00 0.  1.
         11    1    3    3    0    0  0.39012757683E+01 -0.16017813123E+02 -0.52900925524E+01  0.17314022332E+02  0.51100000000E-03 0. -1.
        -11    1    3    3    0    0  0.22550054349E+01  0.48146441176E+01 -0.25180695049E+02  0.25735835927E+02  0.51100000000E-03 0.  1.
         12    1    3    3    0    0  0.51034950997E+01 -0.36588920822E+01  0.28733458217E+02  0.29411643521E+02  0.00000000000E+00 0. -1.
</event>
<event>
 7    1  0.2688173E-013  0.7246156E+02  0.7816164E-02  0.1226708E+00
        -11   -1    0    0    0    0  0.00000000000E+00  0.00000000000E+00  0.45593999997E+02  0.45594000000E+02  0.51100000000E-03 0.  1.
         11   -1    0    0    0    0 -0.00000000000E+00 -0.00000000000E+00 -0.45593999997E+02  0.45594000000E+02  0.51100000000E-03 0. -1.
    9900012    2    1    2    0    0 -0.10429917680E+02  0.15422112837E+02  0.20136493399E+01  0.72461560647E+02  0.69999987432E+02 0.  0.
        -12    1    1    2    0    0  0.10429917680E+02 -0.15422112837E+02 -0.20136493399E+01  0.18726439353E+02  0.00000000000E+00 0.  1.
         11    1    3    3    0    0  0.82361997531E+01 -0.87339188802E+01 -0.78480071333E+01  0.14342508205E+02  0.51100000000E-03 0. -1.
        -11    1    3    3    0    0 -0.33354721642E+02  0.62159036618E+01  0.37141293643E+01  0.34131652045E+02  0.51100000000E-03 0.  1.
         12    1    3    3    0    0  0.14688604209E+02  0.17940128056E+02  0.61475271090E+01  0.23987400397E+02  0.00000000000E+00 0. -1.
</event>
<event>
 7    1  0.2688173E-013  0.7246161E+02  0.7816164E-02  0.1226708E+00
        -11   -1    0    0    0    0  0.00000000000E+00  0.00000000000E+00  0.45593999997E+02  0.45594000000E+02  0.51100000000E-03 0. -1.
         11   -1    0    0    0    0 -0.00000000000E+00 -0.00000000000E+00 -0.45593999997E+02  0.45594000000E+02  0.51100000000E-03 0.  1.
    9900012    2    1    2    0    0 -0.14002998882E+02  0.11291180804E+02  0.52060490700E+01  0.72461609837E+02  0.70000051511E+02 0.  0.
        -12    1    1    2    0    0  0.14002998882E+02 -0.11291180804E+02 -0.52060490700E+01  0.18726390163E+02  0.00000000000E+00 0.  1.
         11    1    3    3    0    0 -0.19761886434E+02 -0.13155660655E+01  0.22330292397E+02  0.29848028885E+02  0.51100000000E-03 0. -1.
        -11    1    3    3    0    0  0.71743468272E+01  0.17532315008E+02  0.52519622207E+01  0.19657986401E+02  0.51100000000E-03 0.  1.
        -12    1    3    3    0    0 -0.14154592746E+01 -0.49255681381E+01 -0.22376205548E+02  0.22955594550E+02  0.00000000000E+00 0.  1.
</event>
<event>
 7    1  0.2688173E-013  0.7246157E+02  0.7816164E-02  0.1226708E+00
        -11   -1    0    0    0    0  0.00000000000E+00  0.00000000000E+00  0.45593999997E+02  0.45594000000E+02  0.51100000000E-03 0.  1.
         11   -1    0    0    0    0 -0.00000000000E+00 -0.00000000000E+00 -0.45593999997E+02  0.45594000000E+02  0.51100000000E-03 0. -1.
    9900012    2    1    2    0    0  0.13481241623E+02  0.28322797436E+01 -0.12685170426E+02  0.72461568599E+02  0.69999997792E+02 0.  0.
        -12    1    1    2    0    0 -0.13481241623E+02 -0.28322797436E+01  0.12685170426E+02  0.18726431401E+02  0.00000000000E+00 0.  1.
         11    1    3    3    0    0 -0.17884489169E+02 -0.12735307587E+01  0.10326443947E+01  0.17959487413E+02  0.51100000000E-03 0. -1.
        -11    1    3    3    0    0  0.37300997396E+01  0.75154455903E+01  0.13285967195E+02  0.15713449369E+02  0.51100000000E-03 0.  1.
        -12    1    3    3    0    0  0.27635631053E+02 -0.34096350879E+01 -0.27003782016E+02  0.38788631818E+02  0.00000000000E+00 0.  1.
</event>
<event>
 7    1  0.2688173E-013  0.7246158E+02  0.7816164E-02  0.1226708E+00
        -11   -1    0    0    0    0  0.00000000000E+00  0.00000000000E+00  0.45593999997E+02  0.45594000000E+02  0.51100000000E-03 0.  1.
         11   -1    0    0    0    0 -0.00000000000E+00 -0.00000000000E+00 -0.45593999997E+02  0.45594000000E+02  0.51100000000E-03 0. -1.
    9900012    2    1    2    0    0 -0.90122789251E+01  0.12030153473E+02 -0.11168399289E+02  0.72461577312E+02  0.70000009142E+02 0.  0.
        -12    1    1    2    0    0  0.90122789251E+01 -0.12030153473E+02  0.11168399289E+02  0.18726422688E+02  0.00000000000E+00 0.  1.
         11    1    3    3    0    0 -0.31649370723E+02  0.17279999186E+02 -0.24219028722E+02  0.43437799111E+02  0.51100000000E-03 0. -1.
        -11    1    3    3    0    0  0.64063084460E+01 -0.56906514740E+01  0.65039419505E+00  0.85934460476E+01  0.51100000000E-03 0.  1.
        -12    1    3    3    0    0  0.16230783352E+02  0.44080576040E+00  0.12400235238E+02  0.20430332154E+02  0.00000000000E+00 0.  1.
</event>
<event>
 7    1  0.2688173E-013  0.7246153E+02  0.7816164E-02  0.1226708E+00
        -11   -1    0    0    0    0  0.00000000000E+00  0.00000000000E+00  0.45593999997E+02  0.45594000000E+02  0.51100000000E-03 0. -1.
         11   -1    0    0    0    0 -0.00000000000E+00 -0.00000000000E+00 -0.45593999997E+02  0.45594000000E+02  0.51100000000E-03 0.  1.
    9900012    2    1    2    0    0 -0.42246200264E+01 -0.11263585824E+01  0.18208917616E+02  0.72461527328E+02  0.69999944028E+02 0.  0.
        -12    1    1    2    0    0  0.42246200264E+01  0.11263585824E+01 -0.18208917616E+02  0.18726472672E+02  0.00000000000E+00 0.  1.
         11    1    3    3    0    0  0.73614163385E+01 -0.59409237741E+00  0.45137048174E+01  0.86554565276E+01  0.51100000000E-03 0. -1.
        -11    1    3    3    0    0  0.15471309594E+02 -0.18674078595E+02 -0.69646949310E+01  0.25230727451E+02  0.51100000000E-03 0.  1.
        -12    1    3    3    0    0 -0.27057345959E+02  0.18141812390E+02  0.20659907729E+02  0.38575343349E+02  0.00000000000E+00 0.  1.
</event>
<event>
 7    1  0.2688173E-013  0.7246156E+02  0.7816164E-02  0.1226708E+00
        -11   -1    0    0    0    0  0.00000000000E+00  0.00000000000E+00  0.45593999997E+02  0.45594000000E+02  0.51100000000E-03 0. -1.
         11   -1    0    0    0    0 -0.00000000000E+00 -0.00000000000E+00 -0.45593999997E+02  0.45594000000E+02  0.51100000000E-03 0.  1.
    9900012    2    1    2    0    0  0.18183263629E+02  0.42251681241E+01 -0.14819933369E+01  0.72461563443E+02  0.69999991075E+02 0.  0.
        -12    1    1    2    0    0 -0.18183263629E+02 -0.42251681241E+01  0.14819933369E+01  0.18726436557E+02  0.00000000000E+00 0.  1.
         11    1    3    3    0    0  0.67962140362E+01 -0.14197442438E+02  0.16897360527E+02  0.23092784371E+02  0.51100000000E-03 0. -1.
        -11    1    3    3    0    0 -0.92901442575E+00 -0.86219713700E+01 -0.17624347296E+02  0.19642277769E+02  0.51100000000E-03 0.  1.
        -12    1    3    3    0    0  0.12316064018E+02  0.27044581932E+02 -0.75500656778E+00  0.29726501302E+02  0.00000000000E+00 0.  1.
</event>
<event>
 7    1  0.2688173E-013  0.7246158E+02  0.7816164E-02  0.1226708E+00
        -11   -1    0    0    0    0  0.00000000000E+00  0.00000000000E+00  0.45593999997E+02  0.45594000000E+02  0.51100000000E-03 0.  1.
         11   -1    0    0    0    0 -0.00000000000E+00 -0.00000000000E+00 -0.45593999997E+02  0.45594000000E+02  0.51100000000E-03 0. -1.
    9900012    2    1    2    0    0 -0.18469111697E+02  0.29600455579E+01 -0.89939974546E+00  0.72461578118E+02  0.70000010192E+02 0.  0.
        -12    1    1    2    0    0  0.18469111697E+02 -0.29600455579E+01  0.89939974546E+00  0.18726421882E+02  0.00000000000E+00 0.  1.
         11    1    3    3    0    0 -0.87721985690E+01  0.89462183403E+01 -0.26287169984E+02  0.29120466966E+02  0.51100000000E-03 0. -1.
        -11    1    3    3    0    0 -0.14071179694E+02 -0.30762161431E+01 -0.27955396081E+01  0.14672295175E+02  0.51100000000E-03 0.  1.
        -12    1    3    3    0    0  0.43742665661E+01 -0.29099566394E+01  0.28183309846E+02  0.28668815977E+02  0.00000000000E+00 0.  1.
</event>
<event>
 7    1  0.2688173E-013  0.7246160E+02  0.7816164E-02  0.1226708E+00
        -11   -1    0    0    0    0  0.00000000000E+00  0.00000000000E+00  0.45593999997E+02  0.45594000000E+02  0.51100000000E-03 0.  1.
         11   -1    0    0    0    0 -0.00000000000E+00 -0.00000000000E+00 -0.45593999997E+02  0.45594000000E+02  0.51100000000E-03 0. -1.
    9900012    2    1    2    0    0 -0.16198377677E+02 -0.17579942485E+01 -0.92303969472E+01  0.72461595888E+02  0.70000033341E+02 0.  0.
        -12    1    1    2    0    0  0.16198377677E+02  0.17579942485E+01  0.92303969472E+01  0.18726404112E+02  0.00000000000E+00 0.  1.
         11    1    3    3    0    0 -0.33934280815E+02  0.11185756206E+02  0.23597512479E+01  0.35808169215E+02  0.51100000000E-03 0. -1.
        -11    1    3    3    0    0  0.27175578983E+01  0.70148131692E+01 -0.87116266836E+01  0.11510220001E+02  0.51100000000E-03 0.  1.
        -12    1    3    3    0    0  0.15018345240E+02 -0.19958563624E+02 -0.28785215116E+01  0.25143206672E+02  0.00000000000E+00 0.  1.
</event>
<event>
 7    1  0.2688173E-013  0.7246156E+02  0.7816164E-02  0.1226708E+00
        -11   -1    0    0    0    0  0.00000000000E+00  0.00000000000E+00  0.45593999997E+02  0.45594000000E+02  0.51100000000E-03 0.  1.
         11   -1    0    0    0    0 -0.00000000000E+00 -0.00000000000E+00 -0.45593999997E+02  0.45594000000E+02  0.51100000000E-03 0. -1.
    9900012    2    1    2    0    0 -0.93252134439E+01  0.16114187757E+02  0.20131662038E+01  0.72461561711E+02  0.69999988818E+02 0.  0.
        -12    1    1    2    0    0  0.93252134439E+01 -0.16114187757E+02 -0.20131662038E+01  0.18726438289E+02  0.00000000000E+00 0.  1.
         11    1    3    3    0    0 -0.28032874300E+02  0.27749732748E+02  0.99486254961E+01  0.40680030219E+02  0.51100000000E-03 0.  1.
        -11    1    3    3    0    0  0.10624481992E+02  0.37767946973E+01 -0.88798380795E+01  0.14352537071E+02  0.51100000000E-03 0. -1.
        -12    1    3    3    0    0  0.80831788638E+01 -0.15412339689E+02  0.94437878721E+00  0.17428994421E+02  0.00000000000E+00 0.  1.
</event>
<event>
 7    1  0.2688173E-013  0.7246158E+02  0.7816164E-02  0.1226708E+00
        -11   -1    0    0    0    0  0.00000000000E+00  0.00000000000E+00  0.45593999997E+02  0.45594000000E+02  0.51100000000E-03 0.  1.
         11   -1    0    0    0    0 -0.00000000000E+00 -0.00000000000E+00 -0.45593999997E+02  0.45594000000E+02  0.51100000000E-03 0. -1.
    9900012    2    1    2    0    0 -0.15615287895E+02 -0.60700253484E+01 -0.83663907822E+01  0.72461576997E+02  0.70000008731E+02 0.  0.
        -12    1    1    2    0    0  0.15615287895E+02  0.60700253484E+01  0.83663907822E+01  0.18726423003E+02  0.00000000000E+00 0.  1.
         11    1    3    3    0    0  0.65079440774E+01  0.64810937124E+01  0.88874240883E+01  0.12780618882E+02  0.51100000000E-03 0. -1.
        -11    1    3    3    0    0 -0.17069291831E+02  0.14331027976E+02  0.67517075856E+01  0.23287864695E+02  0.51100000000E-03 0.  1.
         12    1    3    3    0    0 -0.50539401420E+01 -0.26882147037E+02 -0.24005522456E+02  0.36393093420E+02  0.00000000000E+00 0. -1.
</event>
<event>
 7    1  0.2688173E-013  0.7246159E+02  0.7816164E-02  0.1226708E+00
        -11   -1    0    0    0    0  0.00000000000E+00  0.00000000000E+00  0.45593999997E+02  0.45594000000E+02  0.51100000000E-03 0. -1.
         11   -1    0    0    0    0 -0.00000000000E+00 -0.00000000000E+00 -0.45593999997E+02  0.45594000000E+02  0.51100000000E-03 0.  1.
    9900012    2    1    2    0    0  0.14386686322E+02 -0.17534232795E+01  0.11858631626E+02  0.72461591359E+02  0.70000027441E+02 0.  0.
        -12    1    1    2    0    0 -0.14386686322E+02  0.17534232795E+01 -0.11858631626E+02  0.18726408641E+02  0.00000000000E+00 0.  1.
         11    1    3    3    0    0  0.67622231509E+01 -0.22154968161E+02  0.14746896246E+02  0.27459811094E+02  0.51100000000E-03 0. -1.
        -11    1    3    3    0    0  0.65482988232E+01 -0.10648686937E+02  0.41009508368E+01  0.13156464152E+02  0.51100000000E-03 0.  1.
        -12    1    3    3    0    0  0.10761643480E+01  0.31050231818E+02 -0.69892154565E+01  0.31845316113E+02  0.00000000000E+00 0.  1.
</event>
<event>
 7    1  0.2688173E-013  0.7246150E+02  0.7816164E-02  0.1226708E+00
        -11   -1    0    0    0    0  0.00000000000E+00  0.00000000000E+00  0.45593999997E+02  0.45594000000E+02  0.51100000000E-03 0.  1.
         11   -1    0    0    0    0 -0.00000000000E+00 -0.00000000000E+00 -0.45593999997E+02  0.45594000000E+02  0.51100000000E-03 0. -1.
    9900012    2    1    2    0    0 -0.76826713772E+01  0.60372327095E+01 -0.15975301926E+02  0.72461497660E+02  0.69999905380E+02 0.  0.
        -12    1    1    2    0    0  0.76826713772E+01 -0.60372327095E+01  0.15975301926E+02  0.18726502340E+02  0.00000000000E+00 0.  1.
         11    1    3    3    0    0  0.45679633699E+01  0.29598841103E+02 -0.97704654138E+01  0.31502693196E+02  0.51100000000E-03 0. -1.
        -11    1    3    3    0    0 -0.60284957395E+01 -0.49295595654E+01 -0.16888850533E+02  0.18597757687E+02  0.51100000000E-03 0.  1.
        -12    1    3    3    0    0 -0.62221390075E+01 -0.18632048828E+02  0.10684014021E+02  0.22361046777E+02  0.00000000000E+00 0.  1.
</event>
<event>
 7    1  0.2688173E-013  0.7246163E+02  0.7816164E-02  0.1226708E+00
        -11   -1    0    0    0    0  0.00000000000E+00  0.00000000000E+00  0.45593999997E+02  0.45594000000E+02  0.51100000000E-03 0.  1.
         11   -1    0    0    0    0 -0.00000000000E+00 -0.00000000000E+00 -0.45593999997E+02  0.45594000000E+02  0.51100000000E-03 0. -1.
    9900012    2    1    2    0    0  0.23448165168E+00  0.18192407360E+02 -0.44337557619E+01  0.72461632029E+02  0.70000080421E+02 0.  0.
        -12    1    1    2    0    0 -0.23448165168E+00 -0.18192407360E+02  0.44337557619E+01  0.18726367971E+02  0.00000000000E+00 0.  1.
         11    1    3    3    0    0 -0.17995589801E+02  0.93495238342E+01 -0.27206171466E+02  0.33932736617E+02  0.51100000000E-03 0. -1.
        -11    1    3    3    0    0  0.13315891301E+01  0.43290297769E+01 -0.43342615310E+01  0.62689274762E+01  0.51100000000E-03 0.  1.
        -12    1    3    3    0    0  0.16898482323E+02  0.45138537493E+01  0.27106677235E+02  0.32259967936E+02  0.00000000000E+00 0.  1.
</event>
<event>
 7    1  0.2688173E-013  0.7246157E+02  0.7816164E-02  0.1226708E+00
        -11   -1    0    0    0    0  0.00000000000E+00  0.00000000000E+00  0.45593999997E+02  0.45594000000E+02  0.51100000000E-03 0. -1.
         11   -1    0    0    0    0 -0.00000000000E+00 -0.00000000000E+00 -0.45593999997E+02  0.45594000000E+02  0.51100000000E-03 0.  1.
    9900012    2    1    2    0    0  0.71909151788E+01  0.16439293308E+02 -0.53590582547E+01  0.72461571324E+02  0.70000001342E+02 0.  0.
        -12    1    1    2    0    0 -0.71909151788E+01 -0.16439293308E+02  0.53590582547E+01  0.18726428676E+02  0.00000000000E+00 0.  1.
         11    1    3    3    0    0 -0.16367777119E+02 -0.15605774313E+02  0.12378211702E+01  0.22648984993E+02  0.51100000000E-03 0. -1.
        -11    1    3    3    0    0  0.10588133918E+02  0.56961665835E+00 -0.11242325162E+02  0.15453896542E+02  0.51100000000E-03 0.  1.
         12    1    3    3    0    0  0.12970558379E+02  0.31475450962E+02  0.46454457372E+01  0.34358689789E+02  0.00000000000E+00 0. -1.
</event>
<event>
 7    1  0.2688173E-013  0.7246170E+02  0.7816164E-02  0.1226708E+00
        -11   -1    0    0    0    0  0.00000000000E+00  0.00000000000E+00  0.45593999997E+02  0.45594000000E+02  0.51100000000E-03 0. -1.
         11   -1    0    0    0    0 -0.00000000000E+00 -0.00000000000E+00 -0.45593999997E+02  0.45594000000E+02  0.51100000000E-03 0.  1.
    9900012    2    1    2    0    0 -0.18285243003E+02 -0.39727304055E+01 -0.73605180464E+00  0.72461695751E+02  0.70000163430E+02 0.  0.
        -12    1    1    2    0    0  0.18285243003E+02  0.39727304055E+01  0.73605180464E+00  0.18726304249E+02  0.00000000000E+00 0.  1.
         11    1    3    3    0    0  0.28407354617E+01 -0.31924705474E+01 -0.78937712643E+01  0.89762615377E+01  0.51100000000E-03 0. -1.
        -11    1    3    3    0    0  0.13944220758E+02  0.18199972398E+02  0.54785740347E+01  0.23573185223E+02  0.51100000000E-03 0.  1.
         12    1    3    3    0    0 -0.35070199223E+02 -0.18980232256E+02  0.16791454249E+01  0.39912248990E+02  0.00000000000E+00 0. -1.
</event>
<event>
 7    1  0.2688173E-013  0.7246156E+02  0.7816164E-02  0.1226708E+00
        -11   -1    0    0    0    0  0.00000000000E+00  0.00000000000E+00  0.45593999997E+02  0.45594000000E+02  0.51100000000E-03 0. -1.
         11   -1    0    0    0    0 -0.00000000000E+00 -0.00000000000E+00 -0.45593999997E+02  0.45594000000E+02  0.51100000000E-03 0.  1.
    9900012    2    1    2    0    0 -0.77258448796E+01  0.16898339955E+02  0.23317009055E+01  0.72461564102E+02  0.69999991934E+02 0.  0.
        -12    1    1    2    0    0  0.77258448796E+01 -0.16898339955E+02 -0.23317009055E+01  0.18726435898E+02  0.00000000000E+00 0.  1.
         11    1    3    3    0    0  0.30936937657E+01  0.32703777188E+01 -0.50659317025E+01  0.67771657656E+01  0.51100000000E-03 0. -1.
        -11    1    3    3    0    0 -0.45935999051E+01 -0.80912920355E+01 -0.24721518127E+02  0.26414458647E+02  0.51100000000E-03 0.  1.
         12    1    3    3    0    0 -0.62259387401E+01  0.21719254271E+02  0.32119150734E+02  0.39269939689E+02  0.00000000000E+00 0. -1.
</event>
<event>
 7    1  0.2688173E-013  0.7246155E+02  0.7816164E-02  0.1226708E+00
        -11   -1    0    0    0    0  0.00000000000E+00  0.00000000000E+00  0.45593999997E+02  0.45594000000E+02  0.51100000000E-03 0.  1.
         11   -1    0    0    0    0 -0.00000000000E+00 -0.00000000000E+00 -0.45593999997E+02  0.45594000000E+02  0.51100000000E-03 0. -1.
    9900012    2    1    2    0    0  0.14640833149E+02 -0.11361645835E+01  0.11620460246E+02  0.72461549146E+02  0.69999972450E+02 0.  0.
        -12    1    1    2    0    0 -0.14640833149E+02  0.11361645835E+01 -0.11620460246E+02  0.18726450854E+02  0.00000000000E+00 0.  1.
         11    1    3    3    0    0  0.66422767018E+01 -0.66142343338E+01 -0.23320476463E+02  0.25133892622E+02  0.51100000000E-03 0. -1.
        -11    1    3    3    0    0  0.26131299890E+01  0.15769541975E+02  0.77594735815E+01  0.17768408285E+02  0.51100000000E-03 0.  1.
        -12    1    3    3    0    0  0.53854264585E+01 -0.10291472225E+02  0.27181463128E+02  0.29559248239E+02  0.00000000000E+00 0.  1.
</event>
<event>
 7    1  0.2688173E-013  0.7246158E+02  0.7816164E-02  0.1226708E+00
        -11   -1    0    0    0    0  0.00000000000E+00  0.00000000000E+00  0.45593999997E+02  0.45594000000E+02  0.51100000000E-03 0. -1.
         11   -1    0    0    0    0 -0.00000000000E+00 -0.00000000000E+00 -0.45593999997E+02  0.45594000000E+02  0.51100000000E-03 0.  1.
    9900012    2    1    2    0    0 -0.48991468590E+01 -0.46706926913E+01  0.17460287765E+02  0.72461583925E+02  0.70000017757E+02 0.  0.
        -12    1    1    2    0    0  0.48991468590E+01  0.46706926913E+01 -0.17460287765E+02  0.18726416075E+02  0.00000000000E+00 0.  1.
         11    1    3    3    0    0  0.13169346812E+02 -0.25799615321E+02  0.65800853798E+01  0.29704366178E+02  0.51100000000E-03 0. -1.
        -11    1    3    3    0    0  0.40248080168E+01  0.13180713982E+02 -0.47202499572E+01  0.14567465825E+02  0.51100000000E-03 0.  1.
        -12    1    3    3    0    0 -0.22093301688E+02  0.79482086481E+01  0.15600452343E+02  0.28189751923E+02  0.00000000000E+00 0.  1.
</event>
<event>
 7    1  0.2688173E-013  0.7246156E+02  0.7816164E-02  0.1226708E+00
        -11   -1    0    0    0    0  0.00000000000E+00  0.00000000000E+00  0.45593999997E+02  0.45594000000E+02  0.51100000000E-03 0.  1.
         11   -1    0    0    0    0 -0.00000000000E+00 -0.00000000000E+00 -0.45593999997E+02  0.45594000000E+02  0.51100000000E-03 0. -1.
    9900012    2    1    2    0    0 -0.33401354331E+01  0.14088745286E+02 -0.11875623606E+02  0.72461556545E+02  0.69999982088E+02 0.  0.
        -12    1    1    2    0    0  0.33401354331E+01 -0.14088745286E+02  0.11875623606E+02  0.18726443455E+02  0.00000000000E+00 0.  1.
         11    1    3    3    0    0 -0.82421824484E+01 -0.73283612192E+01 -0.22109548553E+00  0.11031198174E+02  0.51100000000E-03 0. -1.
        -11    1    3    3    0    0 -0.95899250651E+01  0.27351994998E+02  0.13362281044E+02  0.31916278731E+02  0.51100000000E-03 0.  1.
         12    1    3    3    0    0  0.14491972080E+02 -0.59348884923E+01 -0.25016809165E+02  0.29514079640E+02  0.00000000000E+00 0. -1.
</event>
<event>
 7    1  0.2688173E-013  0.7246144E+02  0.7816164E-02  0.1226708E+00
        -11   -1    0    0    0    0  0.00000000000E+00  0.00000000000E+00  0.45593999997E+02  0.45594000000E+02  0.51100000000E-03 0. -1.
         11   -1    0    0    0    0 -0.00000000000E+00 -0.00000000000E+00 -0.45593999997E+02  0.45594000000E+02  0.51100000000E-03 0.  1.
    9900012    2    1    2    0    0 -0.38614970965E+01 -0.26516503787E+01  0.18131231355E+02  0.72461442388E+02  0.69999833378E+02 0.  0.
        -12    1    1    2    0    0  0.38614970965E+01  0.26516503787E+01 -0.18131231355E+02  0.18726557612E+02  0.00000000000E+00 0.  1.
         11    1    3    3    0    0 -0.97968971964E-01  0.78628594252E+00 -0.34415652881E+00  0.86387932046E+00  0.51100000000E-03 0. -1.
        -11    1    3    3    0    0  0.90448401203E+01 -0.57950480772E+01 -0.24468329906E+02  0.26722478995E+02  0.51100000000E-03 0.  1.
         12    1    3    3    0    0 -0.12808368245E+02  0.23571117559E+01  0.42943717789E+02  0.44875084072E+02  0.00000000000E+00 0. -1.
</event>
<event>
 7    1  0.2688173E-013  0.7246161E+02  0.7816164E-02  0.1226708E+00
        -11   -1    0    0    0    0  0.00000000000E+00  0.00000000000E+00  0.45593999997E+02  0.45594000000E+02  0.51100000000E-03 0. -1.
         11   -1    0    0    0    0 -0.00000000000E+00 -0.00000000000E+00 -0.45593999997E+02  0.45594000000E+02  0.51100000000E-03 0.  1.
    9900012    2    1    2    0    0 -0.17815077184E+01  0.14925267202E+02  0.11168720073E+02  0.72461610095E+02  0.70000051848E+02 0.  0.
        -12    1    1    2    0    0  0.17815077184E+01 -0.14925267202E+02 -0.11168720073E+02  0.18726389905E+02  0.00000000000E+00 0.  1.
         11    1    3    3    0    0 -0.11703594696E+01 -0.93033053158E+01  0.29999737881E+02  0.31430964101E+02  0.51100000000E-03 0. -1.
        -11    1    3    3    0    0 -0.52666887368E+01 -0.10124214993E+01  0.39908556307E+01  0.66850532137E+01  0.51100000000E-03 0.  1.
         12    1    3    3    0    0  0.46555404881E+01  0.25240994017E+02 -0.22821873439E+02  0.34345592781E+02  0.00000000000E+00 0. -1.
</event>
<event>
 7    1  0.2688173E-013  0.7246156E+02  0.7816164E-02  0.1226708E+00
        -11   -1    0    0    0    0  0.00000000000E+00  0.00000000000E+00  0.45593999997E+02  0.45594000000E+02  0.51100000000E-03 0. -1.
         11   -1    0    0    0    0 -0.00000000000E+00 -0.00000000000E+00 -0.45593999997E+02  0.45594000000E+02  0.51100000000E-03 0.  1.
    9900012    2    1    2    0    0  0.41001192213E+00  0.10728803750E+02  0.15342883231E+02  0.72461563994E+02  0.69999991792E+02 0.  0.
        -12    1    1    2    0    0 -0.41001192213E+00 -0.10728803750E+02 -0.15342883231E+02  0.18726436006E+02  0.00000000000E+00 0.  1.
         11    1    3    3    0    0 -0.17549837607E+02 -0.84246208610E+01  0.10285660169E+02  0.22017398621E+02  0.51100000000E-03 0. -1.
        -11    1    3    3    0    0 -0.12832215530E+02  0.22926549453E+01  0.78677685906E+01  0.15225761228E+02  0.51100000000E-03 0.  1.
        -12    1    3    3    0    0  0.30792065059E+02  0.16860769665E+02 -0.28105455285E+01  0.35218404144E+02  0.00000000000E+00 0.  1.
</event>
<event>
 7    1  0.2688173E-013  0.7246159E+02  0.7816164E-02  0.1226708E+00
        -11   -1    0    0    0    0  0.00000000000E+00  0.00000000000E+00  0.45593999997E+02  0.45594000000E+02  0.51100000000E-03 0. -1.
         11   -1    0    0    0    0 -0.00000000000E+00 -0.00000000000E+00 -0.45593999997E+02  0.45594000000E+02  0.51100000000E-03 0.  1.
    9900012    2    1    2    0    0  0.17377095311E+00  0.11801742475E+02  0.14538468071E+02  0.72461591491E+02  0.70000027613E+02 0.  0.
        -12    1    1    2    0    0 -0.17377095311E+00 -0.11801742475E+02 -0.14538468071E+02  0.18726408509E+02  0.00000000000E+00 0.  1.
         11    1    3    3    0    0 -0.24583824247E+02 -0.46813538385E+01  0.13513231472E+02  0.28440937282E+02  0.51100000000E-03 0. -1.
        -11    1    3    3    0    0  0.72040192952E+01  0.10500803568E+02 -0.14882902775E+02  0.19587382797E+02  0.51100000000E-03 0.  1.
        -12    1    3    3    0    0  0.17553575905E+02  0.59822927454E+01  0.15908139374E+02  0.24433271412E+02  0.00000000000E+00 0.  1.
</event>
<event>
 7    1  0.2688173E-013  0.7246157E+02  0.7816164E-02  0.1226708E+00
        -11   -1    0    0    0    0  0.00000000000E+00  0.00000000000E+00  0.45593999997E+02  0.45594000000E+02  0.51100000000E-03 0. -1.
         11   -1    0    0    0    0 -0.00000000000E+00 -0.00000000000E+00 -0.45593999997E+02  0.45594000000E+02  0.51100000000E-03 0.  1.
    9900012    2    1    2    0    0  0.14635316956E+02  0.29352267610E+01  0.11308014121E+02  0.72461568361E+02  0.69999997482E+02 0.  0.
        -12    1    1    2    0    0 -0.14635316956E+02 -0.29352267610E+01 -0.11308014121E+02  0.18726431639E+02  0.00000000000E+00 0.  1.
         11    1    3    3    0    0 -0.12857535056E+02  0.47616103273E+01  0.58021298645E+01  0.14888043923E+02  0.51100000000E-03 0. -1.
        -11    1    3    3    0    0 -0.54917483214E+00 -0.20717798867E+02 -0.64572259865E+01  0.21707707171E+02  0.51100000000E-03 0.  1.
         12    1    3    3    0    0  0.28042026844E+02  0.18891415301E+02  0.11963110243E+02  0.35865817268E+02  0.00000000000E+00 0. -1.
</event>
<event>
 7    1  0.2688173E-013  0.7246151E+02  0.7816164E-02  0.1226708E+00
        -11   -1    0    0    0    0  0.00000000000E+00  0.00000000000E+00  0.45593999997E+02  0.45594000000E+02  0.51100000000E-03 0.  1.
         11   -1    0    0    0    0 -0.00000000000E+00 -0.00000000000E+00 -0.45593999997E+02  0.45594000000E+02  0.51100000000E-03 0. -1.
    9900012    2    1    2    0    0 -0.69964072060E+01  0.36898504185E+01 -0.16974004015E+02  0.72461507478E+02  0.69999918169E+02 0.  0.
        -12    1    1    2    0    0  0.69964072060E+01 -0.36898504185E+01  0.16974004015E+02  0.18726492522E+02  0.00000000000E+00 0.  1.
         11    1    3    3    0    0 -0.10924253104E+00  0.11406844288E+02  0.40309633334E+01  0.12098623731E+02  0.51100000000E-03 0. -1.
        -11    1    3    3    0    0  0.99926011462E+01 -0.67797648527E+01  0.15785199830E+02  0.19874350884E+02  0.51100000000E-03 0.  1.
         12    1    3    3    0    0 -0.16879765821E+02 -0.93722901636E+00 -0.36790167178E+02  0.40488532863E+02  0.00000000000E+00 0. -1.
</event>
<event>
 7    1  0.2688173E-013  0.7246147E+02  0.7816164E-02  0.1226708E+00
        -11   -1    0    0    0    0  0.00000000000E+00  0.00000000000E+00  0.45593999997E+02  0.45594000000E+02  0.51100000000E-03 0. -1.
         11   -1    0    0    0    0 -0.00000000000E+00 -0.00000000000E+00 -0.45593999997E+02  0.45594000000E+02  0.51100000000E-03 0.  1.
    9900012    2    1    2    0    0  0.25111908871E+01 -0.47083569196E+01  0.17950163890E+02  0.72461465664E+02  0.69999863700E+02 0.  0.
        -12    1    1    2    0    0 -0.25111908871E+01  0.47083569196E+01 -0.17950163890E+02  0.18726534336E+02  0.00000000000E+00 0.  1.
         11    1    3    3    0    0  0.25959339829E+02 -0.18551207415E+02  0.43906015327E+01  0.32207328405E+02  0.51100000000E-03 0. -1.
        -11    1    3    3    0    0  0.13140672912E+01  0.84732548805E+01  0.12158253625E+02  0.14877699842E+02  0.51100000000E-03 0.  1.
        -12    1    3    3    0    0 -0.24762216233E+02  0.53695956149E+01  0.14013087323E+01  0.25376437417E+02  0.00000000000E+00 0.  1.
</event>
<event>
 7    1  0.2688173E-013  0.7246121E+02  0.7816164E-02  0.1226709E+00
        -11   -1    0    0    0    0  0.00000000000E+00  0.00000000000E+00  0.45593999997E+02  0.45594000000E+02  0.51100000000E-03 0. -1.
         11   -1    0    0    0    0 -0.00000000000E+00 -0.00000000000E+00 -0.45593999997E+02  0.45594000000E+02  0.51100000000E-03 0.  1.
    9900012    2    1    2    0    0 -0.85920294105E+00 -0.69708326045E+01  0.17359776869E+02  0.72461211972E+02  0.69999533217E+02 0.  0.
        -12    1    1    2    0    0  0.85920294105E+00  0.69708326045E+01 -0.17359776869E+02  0.18726788028E+02  0.00000000000E+00 0.  1.
         11    1    3    3    0    0 -0.75519289570E+00 -0.97722231303E+01  0.16670051017E+02  0.19337974619E+02  0.51100000000E-03 0. -1.
        -11    1    3    3    0    0  0.18450302158E+02  0.66423262246E+01 -0.17920567467E+02  0.26564654826E+02  0.51100000000E-03 0.  1.
         12    1    3    3    0    0 -0.18554312203E+02 -0.38409356987E+01  0.18610293320E+02  0.26558582527E+02  0.00000000000E+00 0. -1.
</event>
<event>
 7    1  0.2688173E-013  0.7246138E+02  0.7816164E-02  0.1226709E+00
        -11   -1    0    0    0    0  0.00000000000E+00  0.00000000000E+00  0.45593999997E+02  0.45594000000E+02  0.51100000000E-03 0. -1.
         11   -1    0    0    0    0 -0.00000000000E+00 -0.00000000000E+00 -0.45593999997E+02  0.45594000000E+02  0.51100000000E-03 0.  1.
    9900012    2    1    2    0    0 -0.89856961172E+00 -0.55540498750E+00  0.18696805670E+02  0.72461376057E+02  0.69999746969E+02 0.  0.
        -12    1    1    2    0    0  0.89856961172E+00  0.55540498750E+00 -0.18696805670E+02  0.18726623943E+02  0.00000000000E+00 0.  1.
         11    1    3    3    0    0 -0.86590916158E+01 -0.11530436071E+01 -0.15994611536E+00  0.87369880503E+01  0.51100000000E-03 0. -1.
        -11    1    3    3    0    0 -0.69712522896E+01  0.21825026695E+01 -0.20451182842E+02  0.21716642380E+02  0.51100000000E-03 0.  1.
         12    1    3    3    0    0  0.14731774294E+02 -0.15848640499E+01  0.39307934627E+02  0.42007745626E+02  0.00000000000E+00 0. -1.
</event>
<event>
 7    1  0.2688173E-013  0.7246155E+02  0.7816164E-02  0.1226708E+00
        -11   -1    0    0    0    0  0.00000000000E+00  0.00000000000E+00  0.45593999997E+02  0.45594000000E+02  0.51100000000E-03 0. -1.
         11   -1    0    0    0    0 -0.00000000000E+00 -0.00000000000E+00 -0.45593999997E+02  0.45594000000E+02  0.51100000000E-03 0.  1.
    9900012    2    1    2    0    0 -0.12954486902E+02  0.13444959875E+02  0.14471933592E+01  0.72461546904E+02  0.69999969530E+02 0.  0.
        -12    1    1    2    0    0  0.12954486902E+02 -0.13444959875E+02 -0.14471933592E+01  0.18726453096E+02  0.00000000000E+00 0.  1.
         11    1    3    3    0    0 -0.27185176225E+01  0.24378916589E+02  0.29234667841E+01  0.24703614522E+02  0.51100000000E-03 0. -1.
        -11    1    3    3    0    0 -0.71838401589E+01  0.36078939379E+00 -0.22541696603E+02  0.23661483775E+02  0.51100000000E-03 0.  1.
         12    1    3    3    0    0 -0.30521291205E+01 -0.11294746108E+02  0.21065423178E+02  0.24096448608E+02  0.00000000000E+00 0. -1.
</event>
<event>
 7    1  0.2688173E-013  0.7246154E+02  0.7816164E-02  0.1226708E+00
        -11   -1    0    0    0    0  0.00000000000E+00  0.00000000000E+00  0.45593999997E+02  0.45594000000E+02  0.51100000000E-03 0.  1.
         11   -1    0    0    0    0 -0.00000000000E+00 -0.00000000000E+00 -0.45593999997E+02  0.45594000000E+02  0.51100000000E-03 0. -1.
    9900012    2    1    2    0    0  0.12014512732E+02 -0.92239017990E+01 -0.11011428921E+02  0.72461536173E+02  0.69999955551E+02 0.  0.
        -12    1    1    2    0    0 -0.12014512732E+02  0.92239017990E+01  0.11011428921E+02  0.18726463827E+02  0.00000000000E+00 0.  1.
         11    1    3    3    0    0  0.23763337115E+02 -0.29080413504E+01  0.48063922174E+01  0.24418318979E+02  0.51100000000E-03 0. -1.
        -11    1    3    3    0    0  0.55065439425E+01 -0.89537794595E+01  0.11528058007E+02  0.15600907489E+02  0.51100000000E-03 0.  1.
         12    1    3    3    0    0 -0.17255368326E+02  0.26379190108E+01 -0.27345879145E+02  0.32442309705E+02  0.00000000000E+00 0. -1.
</event>
<event>
 7    1  0.2688173E-013  0.7246142E+02  0.7816164E-02  0.1226708E+00
        -11   -1    0    0    0    0  0.00000000000E+00  0.00000000000E+00  0.45593999997E+02  0.45594000000E+02  0.51100000000E-03 0. -1.
         11   -1    0    0    0    0 -0.00000000000E+00 -0.00000000000E+00 -0.45593999997E+02  0.45594000000E+02  0.51100000000E-03 0.  1.
    9900012    2    1    2    0    0 -0.11724435031E+02  0.14231813688E+02  0.32677048321E+01  0.72461420160E+02  0.69999804421E+02 0.  0.
        -12    1    1    2    0    0  0.11724435031E+02 -0.14231813688E+02 -0.32677048321E+01  0.18726579840E+02  0.00000000000E+00 0.  1.
         11    1    3    3    0    0  0.50707375047E+01  0.80646138529E+01 -0.15981861168E+01  0.96594293084E+01  0.51100000000E-03 0. -1.
        -11    1    3    3    0    0  0.19027845817E+02 -0.44087013922E+01 -0.10776128942E+02  0.22307409523E+02  0.51100000000E-03 0.  1.
         12    1    3    3    0    0 -0.35823018353E+02  0.10575901228E+02  0.15642019891E+02  0.40494581328E+02  0.00000000000E+00 0. -1.
</event>
<event>
 7    1  0.2688173E-013  0.7246155E+02  0.7816164E-02  0.1226708E+00
        -11   -1    0    0    0    0  0.00000000000E+00  0.00000000000E+00  0.45593999997E+02  0.45594000000E+02  0.51100000000E-03 0.  1.
         11   -1    0    0    0    0 -0.00000000000E+00 -0.00000000000E+00 -0.45593999997E+02  0.45594000000E+02  0.51100000000E-03 0. -1.
    9900012    2    1    2    0    0 -0.85785575912E+00  0.13975049705E+02 -0.12435517081E+02  0.72461547698E+02  0.69999970564E+02 0.  0.
        -12    1    1    2    0    0  0.85785575912E+00 -0.13975049705E+02  0.12435517081E+02  0.18726452302E+02  0.00000000000E+00 0.  1.
         11    1    3    3    0    0 -0.16378214455E+02  0.12869830911E+02 -0.40609360680E+01  0.21221914579E+02  0.51100000000E-03 0. -1.
        -11    1    3    3    0    0 -0.26138444417E+01 -0.51691860085E+01  0.17837473814E+02  0.18754416522E+02  0.51100000000E-03 0.  1.
         12    1    3    3    0    0  0.18134203138E+02  0.62744048028E+01 -0.26212054827E+02  0.32485216596E+02  0.00000000000E+00 0. -1.
</event>
<event>
 7    1  0.2688173E-013  0.7246162E+02  0.7816164E-02  0.1226708E+00
        -11   -1    0    0    0    0  0.00000000000E+00  0.00000000000E+00  0.45593999997E+02  0.45594000000E+02  0.51100000000E-03 0.  1.
         11   -1    0    0    0    0 -0.00000000000E+00 -0.00000000000E+00 -0.45593999997E+02  0.45594000000E+02  0.51100000000E-03 0. -1.
    9900012    2    1    2    0    0  0.15830516526E+02  0.58217508794E+01 -0.81350627137E+01  0.72461620688E+02  0.70000065647E+02 0.  0.
        -12    1    1    2    0    0 -0.15830516526E+02 -0.58217508794E+01  0.81350627137E+01  0.18726379312E+02  0.00000000000E+00 0.  1.
         11    1    3    3    0    0  0.13056590658E+02 -0.21836036608E+02 -0.18331012475E+02  0.31357823155E+02  0.51100000000E-03 0. -1.
        -11    1    3    3    0    0  0.10198221979E+02  0.29673434343E+00  0.74248550366E+01  0.12618250884E+02  0.51100000000E-03 0.  1.
         12    1    3    3    0    0 -0.74242961115E+01  0.27361053144E+02  0.27710947246E+01  0.28485546649E+02  0.00000000000E+00 0. -1.
</event>
<event>
 7    1  0.2688173E-013  0.7246155E+02  0.7816164E-02  0.1226708E+00
        -11   -1    0    0    0    0  0.00000000000E+00  0.00000000000E+00  0.45593999997E+02  0.45594000000E+02  0.51100000000E-03 0.  1.
         11   -1    0    0    0    0 -0.00000000000E+00 -0.00000000000E+00 -0.45593999997E+02  0.45594000000E+02  0.51100000000E-03 0. -1.
    9900012    2    1    2    0    0 -0.11320987128E+02  0.10595180144E+02  0.10500342939E+02  0.72461553629E+02  0.69999978290E+02 0.  0.
        -12    1    1    2    0    0  0.11320987128E+02 -0.10595180144E+02 -0.10500342939E+02  0.18726446371E+02  0.00000000000E+00 0.  1.
         11    1    3    3    0    0 -0.70068071313E+00  0.10584461687E+01  0.24534007828E+01  0.27623246399E+01  0.51100000000E-03 0. -1.
        -11    1    3    3    0    0 -0.26744170369E+02  0.80965181768E+01  0.30921112391E+02  0.41676365569E+02  0.51100000000E-03 0.  1.
         12    1    3    3    0    0  0.16123863953E+02  0.14402157990E+01 -0.22874170235E+02  0.28022863420E+02  0.00000000000E+00 0. -1.
</event>
<event>
 7    1  0.2688173E-013  0.7246163E+02  0.7816164E-02  0.1226708E+00
        -11   -1    0    0    0    0  0.00000000000E+00  0.00000000000E+00  0.45593999997E+02  0.45594000000E+02  0.51100000000E-03 0. -1.
         11   -1    0    0    0    0 -0.00000000000E+00 -0.00000000000E+00 -0.45593999997E+02  0.45594000000E+02  0.51100000000E-03 0.  1.
    9900012    2    1    2    0    0  0.12181028937E+02 -0.12882931183E+02 -0.60274110340E+01  0.72461626470E+02  0.70000073179E+02 0.  0.
        -12    1    1    2    0    0 -0.12181028937E+02  0.12882931183E+02  0.60274110340E+01  0.18726373530E+02  0.00000000000E+00 0.  1.
         11    1    3    3    0    0 -0.21409639366E+01  0.17513935903E+01 -0.12579549412E+01  0.30386768471E+01  0.51100000000E-03 0. -1.
        -11    1    3    3    0    0  0.22432347471E+01  0.20796908365E+02 -0.20064780681E+02  0.28985150056E+02  0.51100000000E-03 0.  1.
         12    1    3    3    0    0  0.12078758126E+02 -0.35431233138E+02  0.15295324589E+02  0.40437799567E+02  0.00000000000E+00 0. -1.
</event>
<event>
 7    1  0.2688173E-013  0.7246156E+02  0.7816164E-02  0.1226708E+00
        -11   -1    0    0    0    0  0.00000000000E+00  0.00000000000E+00  0.45593999997E+02  0.45594000000E+02  0.51100000000E-03 0. -1.
         11   -1    0    0    0    0 -0.00000000000E+00 -0.00000000000E+00 -0.45593999997E+02  0.45594000000E+02  0.51100000000E-03 0.  1.
    9900012    2    1    2    0    0 -0.15283044642E+02 -0.67133978491E+01  0.84875440274E+01  0.72461559660E+02  0.69999986147E+02 0.  0.
        -12    1    1    2    0    0  0.15283044642E+02  0.67133978491E+01 -0.84875440274E+01  0.18726440340E+02  0.00000000000E+00 0.  1.
         11    1    3    3    0    0 -0.99036404503E+01  0.50854867710E+01  0.72947433301E+01  0.13310054485E+02  0.51100000000E-03 0. -1.
        -11    1    3    3    0    0 -0.26135096929E+02 -0.21720804323E+02 -0.70640946317E+01  0.34709336858E+02  0.51100000000E-03 0.  1.
        -12    1    3    3    0    0  0.20755692737E+02  0.99219197026E+01  0.82568953290E+01  0.24442168318E+02  0.00000000000E+00 0.  1.
</event>
<event>
 7    1  0.2688173E-013  0.7246157E+02  0.7816164E-02  0.1226708E+00
        -11   -1    0    0    0    0  0.00000000000E+00  0.00000000000E+00  0.45593999997E+02  0.45594000000E+02  0.51100000000E-03 0.  1.
         11   -1    0    0    0    0 -0.00000000000E+00 -0.00000000000E+00 -0.45593999997E+02  0.45594000000E+02  0.51100000000E-03 0. -1.
    9900012    2    1    2    0    0  0.17068325682E+02 -0.45335957638E+01  0.62288005682E+01  0.72461569784E+02  0.69999999335E+02 0.  0.
        -12    1    1    2    0    0 -0.17068325682E+02  0.45335957638E+01 -0.62288005682E+01  0.18726430216E+02  0.00000000000E+00 0.  1.
         11    1    3    3    0    0 -0.23039070725E+01  0.13851961334E+02 -0.61269079488E+01  0.15320699131E+02  0.51100000000E-03 0. -1.
        -11    1    3    3    0    0 -0.94580952864E+01  0.10026184608E+02  0.91348698047E+01  0.16535591639E+02  0.51100000000E-03 0.  1.
        -12    1    3    3    0    0  0.28830328041E+02 -0.28411741706E+02  0.32208387122E+01  0.40605279013E+02  0.00000000000E+00 0.  1.
</event>
<event>
 7    1  0.2688173E-013  0.7246147E+02  0.7816164E-02  0.1226708E+00
        -11   -1    0    0    0    0  0.00000000000E+00  0.00000000000E+00  0.45593999997E+02  0.45594000000E+02  0.51100000000E-03 0.  1.
         11   -1    0    0    0    0 -0.00000000000E+00 -0.00000000000E+00 -0.45593999997E+02  0.45594000000E+02  0.51100000000E-03 0. -1.
    9900012    2    1    2    0    0  0.17057773388E+02 -0.49130925551E+01 -0.59646425684E+01  0.72461466087E+02  0.69999864251E+02 0.  0.
        -12    1    1    2    0    0 -0.17057773388E+02  0.49130925551E+01  0.59646425684E+01  0.18726533913E+02  0.00000000000E+00 0.  1.
         11    1    3    3    0    0  0.21225694928E+02  0.19911750053E+02 -0.19794929999E+02  0.35197260821E+02  0.51100000000E-03 0. -1.
        -11    1    3    3    0    0  0.24036359900E+01 -0.24874585170E+00 -0.50404026820E+01  0.55897227059E+01  0.51100000000E-03 0.  1.
        -12    1    3    3    0    0 -0.65715575299E+01 -0.24576096756E+02  0.18870690113E+02  0.31674482560E+02  0.00000000000E+00 0.  1.
</event>
<event>
 7    1  0.2688173E-013  0.7246116E+02  0.7816164E-02  0.1226709E+00
        -11   -1    0    0    0    0  0.00000000000E+00  0.00000000000E+00  0.45593999997E+02  0.45594000000E+02  0.51100000000E-03 0.  1.
         11   -1    0    0    0    0 -0.00000000000E+00 -0.00000000000E+00 -0.45593999997E+02  0.45594000000E+02  0.51100000000E-03 0. -1.
    9900012    2    1    2    0    0 -0.34531981906E+01 -0.18083113931E+02 -0.34308848832E+01  0.72461159415E+02  0.69999464752E+02 0.  0.
        -12    1    1    2    0    0  0.34531981906E+01  0.18083113931E+02  0.34308848832E+01  0.18726840585E+02  0.00000000000E+00 0.  1.
         11    1    3    3    0    0  0.21365727994E+02  0.17712544783E+01 -0.45807107439E+01  0.21922923763E+02  0.51100000000E-03 0. -1.
        -11    1    3    3    0    0 -0.59162065101E+01 -0.27847062016E+02  0.67640724400E+01  0.29261118205E+02  0.51100000000E-03 0.  1.
        -12    1    3    3    0    0 -0.18902719675E+02  0.79926936060E+01 -0.56142465794E+01  0.21277117447E+02  0.00000000000E+00 0.  1.
</event>
<event>
 7    1  0.2688173E-013  0.7246152E+02  0.7816164E-02  0.1226708E+00
        -11   -1    0    0    0    0  0.00000000000E+00  0.00000000000E+00  0.45593999997E+02  0.45594000000E+02  0.51100000000E-03 0. -1.
         11   -1    0    0    0    0 -0.00000000000E+00 -0.00000000000E+00 -0.45593999997E+02  0.45594000000E+02  0.51100000000E-03 0.  1.
    9900012    2    1    2    0    0 -0.79506121797E+01  0.11719710042E+02  0.12252237714E+02  0.72461516974E+02  0.69999930541E+02 0.  0.
        -12    1    1    2    0    0  0.79506121797E+01 -0.11719710042E+02 -0.12252237714E+02  0.18726483026E+02  0.00000000000E+00 0.  1.
         11    1    3    3    0    0 -0.32227998943E+01  0.19321507917E+02  0.17266650358E+01  0.19664396247E+02  0.51100000000E-03 0. -1.
        -11    1    3    3    0    0  0.12384189013E+02  0.16417401059E+02 -0.21909326029E+01  0.20680894105E+02  0.51100000000E-03 0.  1.
        -12    1    3    3    0    0 -0.17112001298E+02 -0.24019198934E+02  0.12716505281E+02  0.32116226622E+02  0.00000000000E+00 0.  1.
</event>
<event>
 7    1  0.2688173E-013  0.7246161E+02  0.7816164E-02  0.1226708E+00
        -11   -1    0    0    0    0  0.00000000000E+00  0.00000000000E+00  0.45593999997E+02  0.45594000000E+02  0.51100000000E-03 0.  1.
         11   -1    0    0    0    0 -0.00000000000E+00 -0.00000000000E+00 -0.45593999997E+02  0.45594000000E+02  0.51100000000E-03 0. -1.
    9900012    2    1    2    0    0  0.42905437205E+00 -0.94075243499E+01 -0.16186166705E+02  0.72461612344E+02  0.70000054777E+02 0.  0.
        -12    1    1    2    0    0 -0.42905437205E+00  0.94075243499E+01  0.16186166705E+02  0.18726387656E+02  0.00000000000E+00 0.  1.
         11    1    3    3    0    0 -0.49577303637E+01  0.23023027020E+01  0.26481845374E+01  0.60739253943E+01  0.51100000000E-03 0. -1.
        -11    1    3    3    0    0 -0.23639728696E+02  0.99973823165E+01 -0.27831062334E+00  0.25668305029E+02  0.51100000000E-03 0.  1.
         12    1    3    3    0    0  0.29026513432E+02 -0.21707209368E+02 -0.18556040619E+02  0.40719381921E+02  0.00000000000E+00 0. -1.
</event>
<event>
 7    1  0.2688173E-013  0.7246157E+02  0.7816164E-02  0.1226708E+00
        -11   -1    0    0    0    0  0.00000000000E+00  0.00000000000E+00  0.45593999997E+02  0.45594000000E+02  0.51100000000E-03 0.  1.
         11   -1    0    0    0    0 -0.00000000000E+00 -0.00000000000E+00 -0.45593999997E+02  0.45594000000E+02  0.51100000000E-03 0. -1.
    9900012    2    1    2    0    0 -0.10089417716E+02  0.85390360099E+01 -0.13265284517E+02  0.72461567902E+02  0.69999996883E+02 0.  0.
        -12    1    1    2    0    0  0.10089417716E+02 -0.85390360099E+01  0.13265284517E+02  0.18726432098E+02  0.00000000000E+00 0.  1.
         11    1    3    3    0    0  0.12267979306E+02  0.10966729497E+02 -0.97409439779E+01  0.19122198146E+02  0.51100000000E-03 0. -1.
        -11    1    3    3    0    0  0.11256500136E+02  0.82958890200E+01  0.81379862210E+01  0.16178918071E+02  0.51100000000E-03 0.  1.
        -12    1    3    3    0    0 -0.33613897158E+02 -0.10723582507E+02 -0.11662326760E+02  0.37160451684E+02  0.00000000000E+00 0.  1.
</event>
<event>
 7    1  0.2688173E-013  0.7246160E+02  0.7816164E-02  0.1226708E+00
        -11   -1    0    0    0    0  0.00000000000E+00  0.00000000000E+00  0.45593999997E+02  0.45594000000E+02  0.51100000000E-03 0.  1.
         11   -1    0    0    0    0 -0.00000000000E+00 -0.00000000000E+00 -0.45593999997E+02  0.45594000000E+02  0.51100000000E-03 0. -1.
    9900012    2    1    2    0    0 -0.27329799274E+00  0.47028907770E+01 -0.18124192352E+02  0.72461595597E+02  0.70000032961E+02 0.  0.
        -12    1    1    2    0    0  0.27329799274E+00 -0.47028907770E+01  0.18124192352E+02  0.18726404403E+02  0.00000000000E+00 0.  1.
         11    1    3    3    0    0  0.32440900946E+01 -0.83255610232E+01 -0.19348338920E+02  0.21311905267E+02  0.51100000000E-03 0. -1.
        -11    1    3    3    0    0 -0.25469370134E+02  0.14182283204E+02  0.54110121198E+00  0.29156796167E+02  0.51100000000E-03 0.  1.
         12    1    3    3    0    0  0.21951982047E+02 -0.11538314044E+01  0.68304535595E+00  0.21992894163E+02  0.00000000000E+00 0. -1.
</event>
<event>
 7    1  0.2688173E-013  0.7246144E+02  0.7816164E-02  0.1226708E+00
        -11   -1    0    0    0    0  0.00000000000E+00  0.00000000000E+00  0.45593999997E+02  0.45594000000E+02  0.51100000000E-03 0.  1.
         11   -1    0    0    0    0 -0.00000000000E+00 -0.00000000000E+00 -0.45593999997E+02  0.45594000000E+02  0.51100000000E-03 0. -1.
    9900012    2    1    2    0    0  0.17404378293E+02  0.12683258340E+01  0.67943273985E+01  0.72461443483E+02  0.69999834805E+02 0.  0.
        -12    1    1    2    0    0 -0.17404378293E+02 -0.12683258340E+01 -0.67943273985E+01  0.18726556517E+02  0.00000000000E+00 0.  1.
         11    1    3    3    0    0 -0.45219886328E+01  0.27842069295E+01 -0.12704960305E+02  0.13770120044E+02  0.51100000000E-03 0. -1.
        -11    1    3    3    0    0 -0.79638210809E+01 -0.17041840799E+02  0.16241304119E+02  0.24852097372E+02  0.51100000000E-03 0.  1.
         12    1    3    3    0    0  0.29890188006E+02  0.15525959704E+02  0.32579835838E+01  0.33839226067E+02  0.00000000000E+00 0. -1.
</event>
<event>
 7    1  0.2688173E-013  0.7246145E+02  0.7816164E-02  0.1226708E+00
        -11   -1    0    0    0    0  0.00000000000E+00  0.00000000000E+00  0.45593999997E+02  0.45594000000E+02  0.51100000000E-03 0.  1.
         11   -1    0    0    0    0 -0.00000000000E+00 -0.00000000000E+00 -0.45593999997E+02  0.45594000000E+02  0.51100000000E-03 0. -1.
    9900012    2    1    2    0    0 -0.50184754084E+01  0.70346490968E+01 -0.16613619060E+02  0.72461448753E+02  0.69999841670E+02 0.  0.
        -12    1    1    2    0    0  0.50184754084E+01 -0.70346490968E+01  0.16613619060E+02  0.18726551247E+02  0.00000000000E+00 0.  1.
         11    1    3    3    0    0  0.10007985819E+02  0.56373772638E+01 -0.70597034402E+01  0.13482552262E+02  0.51100000000E-03 0. -1.
        -11    1    3    3    0    0  0.17576952488E+02  0.12456098205E+02 -0.11642353817E+02  0.24487712100E+02  0.51100000000E-03 0.  1.
         12    1    3    3    0    0 -0.32603413715E+02 -0.11058826372E+02  0.20884381979E+01  0.34491184391E+02  0.00000000000E+00 0. -1.
</event>
<event>
 7    1  0.2688173E-013  0.7246156E+02  0.7816164E-02  0.1226708E+00
        -11   -1    0    0    0    0  0.00000000000E+00  0.00000000000E+00  0.45593999997E+02  0.45594000000E+02  0.51100000000E-03 0. -1.
         11   -1    0    0    0    0 -0.00000000000E+00 -0.00000000000E+00 -0.45593999997E+02  0.45594000000E+02  0.51100000000E-03 0.  1.
    9900012    2    1    2    0    0  0.78296971956E+01 -0.10870408755E+02  0.13084710157E+02  0.72461559213E+02  0.69999985564E+02 0.  0.
        -12    1    1    2    0    0 -0.78296971956E+01  0.10870408755E+02 -0.13084710157E+02  0.18726440787E+02  0.00000000000E+00 0.  1.
         11    1    3    3    0    0 -0.15749674512E+02  0.15562961504E+02  0.36739790307E+01  0.22444512473E+02  0.51100000000E-03 0.  1.
        -11    1    3    3    0    0 -0.78502886290E+01 -0.12338234425E+02  0.17334837369E+01  0.14726303895E+02  0.51100000000E-03 0. -1.
         12    1    3    3    0    0  0.31429660336E+02 -0.14095135834E+02  0.76772473893E+01  0.35290742844E+02  0.00000000000E+00 0. -1.
</event>
<event>
 7    1  0.2688173E-013  0.7246156E+02  0.7816164E-02  0.1226708E+00
        -11   -1    0    0    0    0  0.00000000000E+00  0.00000000000E+00  0.45593999997E+02  0.45594000000E+02  0.51100000000E-03 0.  1.
         11   -1    0    0    0    0 -0.00000000000E+00 -0.00000000000E+00 -0.45593999997E+02  0.45594000000E+02  0.51100000000E-03 0. -1.
    9900012    2    1    2    0    0  0.92590912123E+01 -0.70693641473E+01 -0.14661950832E+02  0.72461561959E+02  0.69999989141E+02 0.  0.
        -12    1    1    2    0    0 -0.92590912123E+01  0.70693641473E+01  0.14661950832E+02  0.18726438041E+02  0.00000000000E+00 0.  1.
         11    1    3    3    0    0  0.50357437948E+01  0.20575151589E+02 -0.11495825198E+02  0.24100821059E+02  0.51100000000E-03 0. -1.
        -11    1    3    3    0    0  0.36867645173E+01  0.85308048876E+01  0.59700137945E+01  0.11045719968E+02  0.51100000000E-03 0.  1.
        -12    1    3    3    0    0  0.53658290021E+00 -0.36175320624E+02 -0.91361394280E+01  0.37315020932E+02  0.00000000000E+00 0.  1.
</event>
<event>
 7    1  0.2688173E-013  0.7246157E+02  0.7816164E-02  0.1226708E+00
        -11   -1    0    0    0    0  0.00000000000E+00  0.00000000000E+00  0.45593999997E+02  0.45594000000E+02  0.51100000000E-03 0. -1.
         11   -1    0    0    0    0 -0.00000000000E+00 -0.00000000000E+00 -0.45593999997E+02  0.45594000000E+02  0.51100000000E-03 0.  1.
    9900012    2    1    2    0    0  0.79320699445E+01 -0.13814338959E+02  0.98450734305E+01  0.72461570406E+02  0.70000000145E+02 0.  0.
        -12    1    1    2    0    0 -0.79320699445E+01  0.13814338959E+02 -0.98450734305E+01  0.18726429594E+02  0.00000000000E+00 0.  1.
         11    1    3    3    0    0  0.19154698957E+02  0.17532865849E+01  0.14086534105E+02  0.23841286654E+02  0.51100000000E-03 0. -1.
        -11    1    3    3    0    0 -0.25443167224E+02  0.88203798048E+00 -0.77116770554E+01  0.26600802858E+02  0.51100000000E-03 0.  1.
         12    1    3    3    0    0  0.14220538212E+02 -0.16449663525E+02  0.34702163811E+01  0.22019480894E+02  0.00000000000E+00 0. -1.
</event>
<event>
 7    1  0.2688173E-013  0.7246159E+02  0.7816164E-02  0.1226708E+00
        -11   -1    0    0    0    0  0.00000000000E+00  0.00000000000E+00  0.45593999997E+02  0.45594000000E+02  0.51100000000E-03 0.  1.
         11   -1    0    0    0    0 -0.00000000000E+00 -0.00000000000E+00 -0.45593999997E+02  0.45594000000E+02  0.51100000000E-03 0. -1.
    9900012    2    1    2    0    0  0.89187270358E+01 -0.30768891766E+01 -0.16176141774E+02  0.72461588127E+02  0.70000023230E+02 0.  0.
        -12    1    1    2    0    0 -0.89187270358E+01  0.30768891766E+01  0.16176141774E+02  0.18726411873E+02  0.00000000000E+00 0.  1.
         11    1    3    3    0    0 -0.83824812979E+01 -0.52424153037E+00  0.11587491356E+01  0.84784150472E+01  0.51100000000E-03 0. -1.
        -11    1    3    3    0    0  0.12254214051E+02 -0.10687765151E+02  0.19807533413E+02  0.25626791959E+02  0.51100000000E-03 0.  1.
         12    1    3    3    0    0  0.50469942831E+01  0.81351175049E+01 -0.37142424323E+02  0.38356381121E+02  0.00000000000E+00 0. -1.
</event>
<event>
 7    1  0.2688173E-013  0.7246156E+02  0.7816164E-02  0.1226708E+00
        -11   -1    0    0    0    0  0.00000000000E+00  0.00000000000E+00  0.45593999997E+02  0.45594000000E+02  0.51100000000E-03 0. -1.
         11   -1    0    0    0    0 -0.00000000000E+00 -0.00000000000E+00 -0.45593999997E+02  0.45594000000E+02  0.51100000000E-03 0.  1.
    9900012    2    1    2    0    0 -0.12551201846E+02 -0.13244609144E+02  0.42103522690E+01  0.72461563996E+02  0.69999991796E+02 0.  0.
        -12    1    1    2    0    0  0.12551201846E+02  0.13244609144E+02 -0.42103522690E+01  0.18726436004E+02  0.00000000000E+00 0.  1.
         11    1    3    3    0    0 -0.23393676027E+02  0.56591577414E+01  0.24215684872E+02  0.34142195865E+02  0.51100000000E-03 0. -1.
        -11    1    3    3    0    0 -0.26039905856E+01  0.34901572736E+01  0.13725373813E+01  0.45657227126E+01  0.51100000000E-03 0.  1.
        -12    1    3    3    0    0  0.13446464767E+02 -0.22393924159E+02 -0.21377869985E+02  0.33753645419E+02  0.00000000000E+00 0.  1.
</event>
<event>
 7    1  0.2688173E-013  0.7246157E+02  0.7816164E-02  0.1226708E+00
        -11   -1    0    0    0    0  0.00000000000E+00  0.00000000000E+00  0.45593999997E+02  0.45594000000E+02  0.51100000000E-03 0. -1.
         11   -1    0    0    0    0 -0.00000000000E+00 -0.00000000000E+00 -0.45593999997E+02  0.45594000000E+02  0.51100000000E-03 0.  1.
    9900012    2    1    2    0    0  0.14222602258E+02  0.12327861792E+01  0.12119281282E+02  0.72461570667E+02  0.70000000486E+02 0.  0.
        -12    1    1    2    0    0 -0.14222602258E+02 -0.12327861792E+01 -0.12119281282E+02  0.18726429333E+02  0.00000000000E+00 0.  1.
         11    1    3    3    0    0  0.17630659710E+02 -0.95394063898E+00  0.27017445156E+02  0.32275261542E+02  0.51100000000E-03 0. -1.
        -11    1    3    3    0    0 -0.77436835182E+00 -0.66419177482E+01  0.10902628760E+02  0.12789919150E+02  0.51100000000E-03 0.  1.
        -12    1    3    3    0    0 -0.26336891001E+01  0.88286445664E+01 -0.25800792634E+02  0.27396389976E+02  0.00000000000E+00 0.  1.
</event>
<event>
 7    1  0.2688173E-013  0.7246152E+02  0.7816164E-02  0.1226708E+00
        -11   -1    0    0    0    0  0.00000000000E+00  0.00000000000E+00  0.45593999997E+02  0.45594000000E+02  0.51100000000E-03 0.  1.
         11   -1    0    0    0    0 -0.00000000000E+00 -0.00000000000E+00 -0.45593999997E+02  0.45594000000E+02  0.51100000000E-03 0. -1.
    9900012    2    1    2    0    0  0.16828072324E+02 -0.81915054500E+01 -0.62935608864E+00  0.72461524924E+02  0.69999940897E+02 0.  0.
        -12    1    1    2    0    0 -0.16828072324E+02  0.81915054500E+01  0.62935608864E+00  0.18726475076E+02  0.00000000000E+00 0.  1.
         11    1    3    3    0    0  0.72444450496E+01  0.21896931304E+02 -0.74251401246E+01  0.24229946156E+02  0.51100000000E-03 0. -1.
        -11    1    3    3    0    0  0.86204632975E+01 -0.14065462662E+02 -0.14224858470E+02  0.21782934286E+02  0.51100000000E-03 0.  1.
        -12    1    3    3    0    0  0.96316397674E+00 -0.16022974091E+02  0.21020642506E+02  0.26448644482E+02  0.00000000000E+00 0.  1.
</event>
<event>
 7    1  0.2688173E-013  0.7246154E+02  0.7816164E-02  0.1226708E+00
        -11   -1    0    0    0    0  0.00000000000E+00  0.00000000000E+00  0.45593999997E+02  0.45594000000E+02  0.51100000000E-03 0.  1.
         11   -1    0    0    0    0 -0.00000000000E+00 -0.00000000000E+00 -0.45593999997E+02  0.45594000000E+02  0.51100000000E-03 0. -1.
    9900012    2    1    2    0    0 -0.15658831650E+02  0.37893465430E+01 -0.95457892881E+01  0.72461541472E+02  0.69999962453E+02 0.  0.
        -12    1    1    2    0    0  0.15658831650E+02 -0.37893465430E+01  0.95457892881E+01  0.18726458528E+02  0.00000000000E+00 0.  1.
         11    1    3    3    0    0 -0.22002444242E+02  0.25255624038E+01 -0.23454251968E+02  0.32258145541E+02  0.51100000000E-03 0. -1.
        -11    1    3    3    0    0 -0.76276529883E+01 -0.10968497888E+02  0.16741737577E+02  0.21419029236E+02  0.51100000000E-03 0.  1.
         12    1    3    3    0    0  0.13971265580E+02  0.12232282027E+02 -0.28332748971E+01  0.18784366696E+02  0.00000000000E+00 0. -1.
</event>
<event>
 7    1  0.2688173E-013  0.7246158E+02  0.7816164E-02  0.1226708E+00
        -11   -1    0    0    0    0  0.00000000000E+00  0.00000000000E+00  0.45593999997E+02  0.45594000000E+02  0.51100000000E-03 0.  1.
         11   -1    0    0    0    0 -0.00000000000E+00 -0.00000000000E+00 -0.45593999997E+02  0.45594000000E+02  0.51100000000E-03 0. -1.
    9900012    2    1    2    0    0  0.76087890929E+01 -0.17108966018E+02 -0.26154538086E+00  0.72461580277E+02  0.70000013004E+02 0.  0.
        -12    1    1    2    0    0 -0.76087890929E+01  0.17108966018E+02  0.26154538086E+00  0.18726419723E+02  0.00000000000E+00 0.  1.
         11    1    3    3    0    0  0.26658761930E+01  0.17085538990E+01 -0.88442293608E+01  0.93939579278E+01  0.51100000000E-03 0. -1.
        -11    1    3    3    0    0 -0.33767251832E+01  0.51128343814E+01 -0.22297677872E+02  0.23124225114E+02  0.51100000000E-03 0.  1.
        -12    1    3    3    0    0  0.83196380831E+01 -0.23930354298E+02  0.30880361852E+02  0.39943397236E+02  0.00000000000E+00 0.  1.
</event>
<event>
 7    1  0.2688173E-013  0.7246157E+02  0.7816164E-02  0.1226708E+00
        -11   -1    0    0    0    0  0.00000000000E+00  0.00000000000E+00  0.45593999997E+02  0.45594000000E+02  0.51100000000E-03 0.  1.
         11   -1    0    0    0    0 -0.00000000000E+00 -0.00000000000E+00 -0.45593999997E+02  0.45594000000E+02  0.51100000000E-03 0. -1.
    9900012    2    1    2    0    0 -0.11992661598E+02 -0.15333408655E+01 -0.14300492100E+02  0.72461571064E+02  0.70000001002E+02 0.  0.
        -12    1    1    2    0    0  0.11992661598E+02  0.15333408655E+01  0.14300492100E+02  0.18726428936E+02  0.00000000000E+00 0.  1.
         11    1    3    3    0    0  0.27695780905E+02 -0.99300695336E+00 -0.24015736396E+01  0.27817438756E+02  0.51100000000E-03 0. -1.
        -11    1    3    3    0    0 -0.59262749887E+01 -0.36769685761E+01 -0.78421336312E+01  0.10494755514E+02  0.51100000000E-03 0.  1.
        -12    1    3    3    0    0 -0.33762167514E+02  0.31366346640E+01 -0.40567848288E+01  0.34149376794E+02  0.00000000000E+00 0.  1.
</event>
<event>
 7    1  0.2688173E-013  0.7246158E+02  0.7816164E-02  0.1226708E+00
        -11   -1    0    0    0    0  0.00000000000E+00  0.00000000000E+00  0.45593999997E+02  0.45594000000E+02  0.51100000000E-03 0. -1.
         11   -1    0    0    0    0 -0.00000000000E+00 -0.00000000000E+00 -0.45593999997E+02  0.45594000000E+02  0.51100000000E-03 0.  1.
    9900012    2    1    2    0    0  0.15108250332E+02  0.10762208635E+02  0.25679963149E+01  0.72461575678E+02  0.70000007014E+02 0.  0.
        -12    1    1    2    0    0 -0.15108250332E+02 -0.10762208635E+02 -0.25679963149E+01  0.18726424322E+02  0.00000000000E+00 0.  1.
         11    1    3    3    0    0 -0.34488503024E+01 -0.66040973704E+01  0.29184004327E+01  0.80016080779E+01  0.51100000000E-03 0. -1.
        -11    1    3    3    0    0 -0.14336440136E+02 -0.44530509676E+01  0.15815198494E+02  0.21805588329E+02  0.51100000000E-03 0.  1.
        -12    1    3    3    0    0  0.32893540771E+02  0.21819356973E+02 -0.16165602612E+02  0.42654379271E+02  0.00000000000E+00 0.  1.
</event>
<event>
 7    1  0.2688173E-013  0.7246154E+02  0.7816164E-02  0.1226708E+00
        -11   -1    0    0    0    0  0.00000000000E+00  0.00000000000E+00  0.45593999997E+02  0.45594000000E+02  0.51100000000E-03 0. -1.
         11   -1    0    0    0    0 -0.00000000000E+00 -0.00000000000E+00 -0.45593999997E+02  0.45594000000E+02  0.51100000000E-03 0.  1.
    9900012    2    1    2    0    0 -0.69396647844E+01 -0.17386797066E+02  0.46974684776E+00  0.72461539532E+02  0.69999959927E+02 0.  0.
        -12    1    1    2    0    0  0.69396647844E+01  0.17386797066E+02 -0.46974684776E+00  0.18726460468E+02  0.00000000000E+00 0.  1.
         11    1    3    3    0    0  0.12817933098E+02 -0.15937685122E+02  0.51155412851E+01  0.21082646391E+02  0.51100000000E-03 0. -1.
        -11    1    3    3    0    0  0.10373434890E+02 -0.14588116432E+02 -0.47024900668E+01  0.18507693145E+02  0.51100000000E-03 0.  1.
         12    1    3    3    0    0 -0.30131032772E+02  0.13139004488E+02  0.56695629463E-01  0.32871199997E+02  0.00000000000E+00 0. -1.
</event>
<event>
 7    1  0.2688173E-013  0.7246158E+02  0.7816164E-02  0.1226708E+00
        -11   -1    0    0    0    0  0.00000000000E+00  0.00000000000E+00  0.45593999997E+02  0.45594000000E+02  0.51100000000E-03 0.  1.
         11   -1    0    0    0    0 -0.00000000000E+00 -0.00000000000E+00 -0.45593999997E+02  0.45594000000E+02  0.51100000000E-03 0. -1.
    9900012    2    1    2    0    0 -0.64827826946E+01  0.14748210168E+02 -0.95468647153E+01  0.72461580147E+02  0.70000012834E+02 0.  0.
        -12    1    1    2    0    0  0.64827826946E+01 -0.14748210168E+02  0.95468647153E+01  0.18726419853E+02  0.00000000000E+00 0.  1.
         11    1    3    3    0    0  0.74563157231E+01  0.15904543096E+01  0.98185162909E+01  0.12430987551E+02  0.51100000000E-03 0. -1.
        -11    1    3    3    0    0  0.16811987114E+02 -0.87616736230E+01 -0.48080757224E+01  0.19558308409E+02  0.51100000000E-03 0.  1.
         12    1    3    3    0    0 -0.30751085532E+02  0.21919429482E+02 -0.14557305284E+02  0.40472284187E+02  0.00000000000E+00 0. -1.
</event>
<event>
 7    1  0.2688173E-013  0.7246158E+02  0.7816164E-02  0.1226708E+00
        -11   -1    0    0    0    0  0.00000000000E+00  0.00000000000E+00  0.45593999997E+02  0.45594000000E+02  0.51100000000E-03 0. -1.
         11   -1    0    0    0    0 -0.00000000000E+00 -0.00000000000E+00 -0.45593999997E+02  0.45594000000E+02  0.51100000000E-03 0.  1.
    9900012    2    1    2    0    0 -0.10778466545E+02 -0.15035043526E+02  0.29070725533E+01  0.72461576270E+02  0.70000007784E+02 0.  0.
        -12    1    1    2    0    0  0.10778466545E+02  0.15035043526E+02 -0.29070725533E+01  0.18726423730E+02  0.00000000000E+00 0.  1.
         11    1    3    3    0    0 -0.28761421510E+02  0.12412255030E+02  0.79111351016E+01  0.32308969359E+02  0.51100000000E-03 0. -1.
        -11    1    3    3    0    0 -0.30778703464E+01 -0.96225867639E+01 -0.73025712279E+01  0.12465753435E+02  0.51100000000E-03 0.  1.
        -12    1    3    3    0    0  0.21060825311E+02 -0.17824711792E+02  0.22985086796E+01  0.27686853476E+02  0.00000000000E+00 0.  1.
</event>
<event>
 7    1  0.2688173E-013  0.7246185E+02  0.7816164E-02  0.1226707E+00
        -11   -1    0    0    0    0  0.00000000000E+00  0.00000000000E+00  0.45593999997E+02  0.45594000000E+02  0.51100000000E-03 0.  1.
         11   -1    0    0    0    0 -0.00000000000E+00 -0.00000000000E+00 -0.45593999997E+02  0.45594000000E+02  0.51100000000E-03 0. -1.
    9900012    2    1    2    0    0  0.15802998665E+02  0.30381762409E+01 -0.95761968279E+01  0.72461846435E+02  0.70000359723E+02 0.  0.
        -12    1    1    2    0    0 -0.15802998665E+02 -0.30381762409E+01  0.95761968279E+01  0.18726153565E+02  0.00000000000E+00 0.  1.
         11    1    3    3    0    0  0.21710129196E+02  0.11576313769E+02 -0.58205771765E+01  0.25282797889E+02  0.51100000000E-03 0. -1.
        -11    1    3    3    0    0 -0.99167366043E+01  0.11025706543E+02  0.14046521767E+02  0.20425783796E+02  0.51100000000E-03 0.  1.
         12    1    3    3    0    0  0.40096060731E+01 -0.19563844071E+02 -0.17802141418E+02  0.26753264750E+02  0.00000000000E+00 0. -1.
</event>
<event>
 7    1  0.2688173E-013  0.7246156E+02  0.7816164E-02  0.1226708E+00
        -11   -1    0    0    0    0  0.00000000000E+00  0.00000000000E+00  0.45593999997E+02  0.45594000000E+02  0.51100000000E-03 0. -1.
         11   -1    0    0    0    0 -0.00000000000E+00 -0.00000000000E+00 -0.45593999997E+02  0.45594000000E+02  0.51100000000E-03 0.  1.
    9900012    2    1    2    0    0 -0.34201625441E+01 -0.53226991936E+01  0.17625286650E+02  0.72461564994E+02  0.69999993095E+02 0.  0.
        -12    1    1    2    0    0  0.34201625441E+01  0.53226991936E+01 -0.17625286650E+02  0.18726435006E+02  0.00000000000E+00 0.  1.
         11    1    3    3    0    0 -0.12532446530E+02 -0.23642727688E+02  0.12885133533E+02  0.29699620452E+02  0.51100000000E-03 0. -1.
        -11    1    3    3    0    0  0.15461288785E+02 -0.65433587901E+01  0.87920925130E+00  0.16811900675E+02  0.51100000000E-03 0.  1.
        -12    1    3    3    0    0 -0.63490047984E+01  0.24863387284E+02  0.38609438661E+01  0.25950043867E+02  0.00000000000E+00 0.  1.
</event>
<event>
 7    1  0.2688173E-013  0.7246163E+02  0.7816164E-02  0.1226708E+00
        -11   -1    0    0    0    0  0.00000000000E+00  0.00000000000E+00  0.45593999997E+02  0.45594000000E+02  0.51100000000E-03 0. -1.
         11   -1    0    0    0    0 -0.00000000000E+00 -0.00000000000E+00 -0.45593999997E+02  0.45594000000E+02  0.51100000000E-03 0.  1.
    9900012    2    1    2    0    0 -0.12936483423E+02  0.56343712662E+01  0.12311705128E+02  0.72461632865E+02  0.70000081510E+02 0.  0.
        -12    1    1    2    0    0  0.12936483423E+02 -0.56343712662E+01 -0.12311705128E+02  0.18726367135E+02  0.00000000000E+00 0.  1.
         11    1    3    3    0    0  0.10144803154E+02 -0.11367256889E+02 -0.61793537486E+01  0.16441288673E+02  0.51100000000E-03 0. -1.
        -11    1    3    3    0    0 -0.12178961822E+02 -0.13243068105E+02 -0.16746688073E+01  0.18069600985E+02  0.51100000000E-03 0.  1.
         12    1    3    3    0    0 -0.10902324755E+02  0.30244696260E+02  0.20165727683E+02  0.37950743207E+02  0.00000000000E+00 0. -1.
</event>
<event>
 7    1  0.2688173E-013  0.7246156E+02  0.7816164E-02  0.1226708E+00
        -11   -1    0    0    0    0  0.00000000000E+00  0.00000000000E+00  0.45593999997E+02  0.45594000000E+02  0.51100000000E-03 0.  1.
         11   -1    0    0    0    0 -0.00000000000E+00 -0.00000000000E+00 -0.45593999997E+02  0.45594000000E+02  0.51100000000E-03 0. -1.
    9900012    2    1    2    0    0 -0.17635745752E+02 -0.50295164901E+01  0.37899936386E+01  0.72461558370E+02  0.69999984466E+02 0.  0.
        -12    1    1    2    0    0  0.17635745752E+02  0.50295164901E+01 -0.37899936386E+01  0.18726441630E+02  0.00000000000E+00 0.  1.
         11    1    3    3    0    0 -0.27295570895E+02 -0.12530620976E+02 -0.99558266233E+01  0.31641478103E+02  0.51100000000E-03 0. -1.
        -11    1    3    3    0    0 -0.57980805976E+01 -0.87061020840E+01 -0.50184046150E+01  0.11601652350E+02  0.51100000000E-03 0.  1.
        -12    1    3    3    0    0  0.15457905741E+02  0.16207206570E+02  0.18764224877E+02  0.29218427917E+02  0.00000000000E+00 0.  1.
</event>
<event>
 7    1  0.2688173E-013  0.7246151E+02  0.7816164E-02  0.1226708E+00
        -11   -1    0    0    0    0  0.00000000000E+00  0.00000000000E+00  0.45593999997E+02  0.45594000000E+02  0.51100000000E-03 0.  1.
         11   -1    0    0    0    0 -0.00000000000E+00 -0.00000000000E+00 -0.45593999997E+02  0.45594000000E+02  0.51100000000E-03 0. -1.
    9900012    2    1    2    0    0  0.95279098226E+01 -0.17570005223E+01 -0.16025394032E+02  0.72461511533E+02  0.69999923452E+02 0.  0.
        -12    1    1    2    0    0 -0.95279098226E+01  0.17570005223E+01  0.16025394032E+02  0.18726488467E+02  0.00000000000E+00 0.  1.
         11    1    3    3    0    0 -0.19977750923E+02  0.17051586759E+01 -0.19884304715E+02  0.28238336925E+02  0.51100000000E-03 0. -1.
        -11    1    3    3    0    0 -0.45052351377E+01 -0.29933667733E+01  0.83138571849E+01  0.99185487768E+01  0.51100000000E-03 0.  1.
        -12    1    3    3    0    0  0.34010895883E+02 -0.46879242491E+00 -0.44549465020E+01  0.34304625831E+02  0.00000000000E+00 0.  1.
</event>
<event>
 7    1  0.2688173E-013  0.7246157E+02  0.7816164E-02  0.1226708E+00
        -11   -1    0    0    0    0  0.00000000000E+00  0.00000000000E+00  0.45593999997E+02  0.45594000000E+02  0.51100000000E-03 0.  1.
         11   -1    0    0    0    0 -0.00000000000E+00 -0.00000000000E+00 -0.45593999997E+02  0.45594000000E+02  0.51100000000E-03 0. -1.
    9900012    2    1    2    0    0 -0.12384592213E+02  0.29699205234E+01  0.13728830877E+02  0.72461565490E+02  0.69999993742E+02 0.  0.
        -12    1    1    2    0    0  0.12384592213E+02 -0.29699205234E+01 -0.13728830877E+02  0.18726434510E+02  0.00000000000E+00 0.  1.
         11    1    3    3    0    0  0.12904489846E+02  0.80037071287E+00  0.10161905196E+02  0.16444779383E+02  0.51100000000E-03 0. -1.
        -11    1    3    3    0    0  0.73086937849E+00  0.11338681666E+02  0.20648710869E+02  0.23568392665E+02  0.51100000000E-03 0.  1.
         12    1    3    3    0    0 -0.26019951438E+02 -0.91691318555E+01 -0.17081785189E+02  0.32448393443E+02  0.00000000000E+00 0. -1.
</event>
<event>
 7    1  0.2688173E-013  0.7246156E+02  0.7816164E-02  0.1226708E+00
        -11   -1    0    0    0    0  0.00000000000E+00  0.00000000000E+00  0.45593999997E+02  0.45594000000E+02  0.51100000000E-03 0. -1.
         11   -1    0    0    0    0 -0.00000000000E+00 -0.00000000000E+00 -0.45593999997E+02  0.45594000000E+02  0.51100000000E-03 0.  1.
    9900012    2    1    2    0    0 -0.93085506168E+01  0.13998538043E+02 -0.82505395805E+01  0.72461559193E+02  0.69999985538E+02 0.  0.
        -12    1    1    2    0    0  0.93085506168E+01 -0.13998538043E+02  0.82505395805E+01  0.18726440807E+02  0.00000000000E+00 0.  1.
         11    1    3    3    0    0 -0.22578105038E+02  0.60988489045E+01  0.77028756247E+01  0.24623181724E+02  0.51100000000E-03 0. -1.
        -11    1    3    3    0    0 -0.15397867132E+02  0.32469902418E+01 -0.83613396882E+01  0.17819911882E+02  0.51100000000E-03 0.  1.
        -12    1    3    3    0    0  0.28667421553E+02  0.46526988972E+01 -0.75920755169E+01  0.30018465587E+02  0.00000000000E+00 0.  1.
</event>
<event>
 7    1  0.2688173E-013  0.7246167E+02  0.7816164E-02  0.1226708E+00
        -11   -1    0    0    0    0  0.00000000000E+00  0.00000000000E+00  0.45593999997E+02  0.45594000000E+02  0.51100000000E-03 0. -1.
         11   -1    0    0    0    0 -0.00000000000E+00 -0.00000000000E+00 -0.45593999997E+02  0.45594000000E+02  0.51100000000E-03 0.  1.
    9900012    2    1    2    0    0 -0.16143793150E+02  0.56476446377E+01  0.76261076580E+01  0.72461669200E+02  0.70000128842E+02 0.  0.
        -12    1    1    2    0    0  0.16143793150E+02 -0.56476446377E+01 -0.76261076580E+01  0.18726330800E+02  0.00000000000E+00 0.  1.
         11    1    3    3    0    0  0.18232547724E+00  0.39300395581E+01  0.43957063955E+01  0.58992108357E+01  0.51100000000E-03 0. -1.
        -11    1    3    3    0    0 -0.22178633108E+02  0.30120449401E+02  0.20522882163E+00  0.37405552499E+02  0.51100000000E-03 0.  1.
         12    1    3    3    0    0  0.58525144802E+01 -0.28402844322E+02  0.30251724408E+01  0.29156905865E+02  0.00000000000E+00 0. -1.
</event>
<event>
 7    1  0.2688173E-013  0.7246165E+02  0.7816164E-02  0.1226708E+00
        -11   -1    0    0    0    0  0.00000000000E+00  0.00000000000E+00  0.45593999997E+02  0.45594000000E+02  0.51100000000E-03 0.  1.
         11   -1    0    0    0    0 -0.00000000000E+00 -0.00000000000E+00 -0.45593999997E+02  0.45594000000E+02  0.51100000000E-03 0. -1.
    9900012    2    1    2    0    0 -0.93860580031E+00  0.76662980841E+01 -0.17059403643E+02  0.72461645314E+02  0.70000097727E+02 0.  0.
        -12    1    1    2    0    0  0.93860580031E+00 -0.76662980841E+01  0.17059403643E+02  0.18726354686E+02  0.00000000000E+00 0.  1.
         11    1    3    3    0    0 -0.11557831451E+02 -0.53915605259E+00 -0.14112401053E+02  0.18249219733E+02  0.51100000000E-03 0. -1.
        -11    1    3    3    0    0  0.11455985328E+02  0.30087390756E+02 -0.27733509531E+01  0.32313807546E+02  0.51100000000E-03 0.  1.
         12    1    3    3    0    0 -0.83675967728E+00 -0.21881936619E+02 -0.17365163660E+00  0.21898618035E+02  0.00000000000E+00 0. -1.
</event>
<event>
 7    1  0.2688173E-013  0.7246154E+02  0.7816164E-02  0.1226708E+00
        -11   -1    0    0    0    0  0.00000000000E+00  0.00000000000E+00  0.45593999997E+02  0.45594000000E+02  0.51100000000E-03 0.  1.
         11   -1    0    0    0    0 -0.00000000000E+00 -0.00000000000E+00 -0.45593999997E+02  0.45594000000E+02  0.51100000000E-03 0. -1.
    9900012    2    1    2    0    0 -0.16853143903E+02  0.75191064031E+01 -0.31803898350E+01  0.72461540110E+02  0.69999960679E+02 0.  0.
        -12    1    1    2    0    0  0.16853143903E+02 -0.75191064031E+01  0.31803898350E+01  0.18726459890E+02  0.00000000000E+00 0.  1.
         11    1    3    3    0    0  0.57719711101E+01  0.76392452955E+01 -0.54353977069E+01  0.11009871374E+02  0.51100000000E-03 0. -1.
        -11    1    3    3    0    0  0.76648237780E+01  0.19672266589E+02 -0.98499159531E+01  0.23297391288E+02  0.51100000000E-03 0.  1.
        -12    1    3    3    0    0 -0.30289938791E+02 -0.19792405481E+02  0.12104923825E+02  0.38154277447E+02  0.00000000000E+00 0.  1.
</event>
<event>
 7    1  0.2688173E-013  0.7246152E+02  0.7816164E-02  0.1226708E+00
        -11   -1    0    0    0    0  0.00000000000E+00  0.00000000000E+00  0.45593999997E+02  0.45594000000E+02  0.51100000000E-03 0.  1.
         11   -1    0    0    0    0 -0.00000000000E+00 -0.00000000000E+00 -0.45593999997E+02  0.45594000000E+02  0.51100000000E-03 0. -1.
    9900012    2    1    2    0    0  0.11181514310E+02  0.10010409167E+02 -0.11200282379E+02  0.72461524642E+02  0.69999940529E+02 0.  0.
        -12    1    1    2    0    0 -0.11181514310E+02 -0.10010409167E+02  0.11200282379E+02  0.18726475358E+02  0.00000000000E+00 0.  1.
         11    1    3    3    0    0  0.68593957333E+01  0.28150936021E+01  0.31282577538E+01  0.80474877229E+01  0.51100000000E-03 0. -1.
        -11    1    3    3    0    0  0.30044860449E+02  0.69132943180E+01 -0.21644982654E+02  0.37669517545E+02  0.51100000000E-03 0.  1.
         12    1    3    3    0    0 -0.25722741872E+02  0.28202124638E+00  0.73164425205E+01  0.26744519374E+02  0.00000000000E+00 0. -1.
</event>
<event>
 7    1  0.2688173E-013  0.7246160E+02  0.7816164E-02  0.1226708E+00
        -11   -1    0    0    0    0  0.00000000000E+00  0.00000000000E+00  0.45593999997E+02  0.45594000000E+02  0.51100000000E-03 0. -1.
         11   -1    0    0    0    0 -0.00000000000E+00 -0.00000000000E+00 -0.45593999997E+02  0.45594000000E+02  0.51100000000E-03 0.  1.
    9900012    2    1    2    0    0  0.13795363861E+02  0.85292345505E+01 -0.93604551726E+01  0.72461600797E+02  0.70000039735E+02 0.  0.
        -12    1    1    2    0    0 -0.13795363861E+02 -0.85292345505E+01  0.93604551726E+01  0.18726399203E+02  0.00000000000E+00 0.  1.
         11    1    3    3    0    0  0.14495703233E+01  0.19787250073E+01 -0.13802193160E+02  0.14018457228E+02  0.51100000000E-03 0. -1.
        -11    1    3    3    0    0  0.31969199587E+02  0.16165858515E+02 -0.13042147775E+01  0.35847812768E+02  0.51100000000E-03 0.  1.
         12    1    3    3    0    0 -0.19623406049E+02 -0.96153489721E+01  0.57459527648E+01  0.22595330801E+02  0.00000000000E+00 0. -1.
</event>
<event>
 7    1  0.2688173E-013  0.7246150E+02  0.7816164E-02  0.1226708E+00
        -11   -1    0    0    0    0  0.00000000000E+00  0.00000000000E+00  0.45593999997E+02  0.45594000000E+02  0.51100000000E-03 0.  1.
         11   -1    0    0    0    0 -0.00000000000E+00 -0.00000000000E+00 -0.45593999997E+02  0.45594000000E+02  0.51100000000E-03 0. -1.
    9900012    2    1    2    0    0 -0.17406181403E+02 -0.64464756501E+01 -0.24798214242E+01  0.72461502366E+02  0.69999911511E+02 0.  0.
        -12    1    1    2    0    0  0.17406181403E+02  0.64464756501E+01  0.24798214242E+01  0.18726497634E+02  0.00000000000E+00 0.  1.
         11    1    3    3    0    0  0.14036602375E+02 -0.10265932717E+02  0.43919915807E+01  0.17936141477E+02  0.51100000000E-03 0. -1.
        -11    1    3    3    0    0  0.10091850968E+02 -0.30104318510E+01  0.36357770649E+01  0.11141231127E+02  0.51100000000E-03 0.  1.
         12    1    3    3    0    0 -0.41534634746E+02  0.68298889178E+01 -0.10507590070E+02  0.43384129762E+02  0.00000000000E+00 0. -1.
</event>
<event>
 7    1  0.2688173E-013  0.7246164E+02  0.7816164E-02  0.1226708E+00
        -11   -1    0    0    0    0  0.00000000000E+00  0.00000000000E+00  0.45593999997E+02  0.45594000000E+02  0.51100000000E-03 0. -1.
         11   -1    0    0    0    0 -0.00000000000E+00 -0.00000000000E+00 -0.45593999997E+02  0.45594000000E+02  0.51100000000E-03 0.  1.
    9900012    2    1    2    0    0  0.13218325585E+01 -0.31375168940E+01  0.18414271308E+02  0.72461637797E+02  0.70000087934E+02 0.  0.
        -12    1    1    2    0    0 -0.13218325585E+01  0.31375168940E+01 -0.18414271308E+02  0.18726362203E+02  0.00000000000E+00 0.  1.
         11    1    3    3    0    0  0.19036481536E+00  0.71304588433E+01 -0.17664594450E+02  0.19050395781E+02  0.51100000000E-03 0. -1.
        -11    1    3    3    0    0 -0.15846252162E+02 -0.82279429532E+01  0.60449787672E+01  0.18850584113E+02  0.51100000000E-03 0.  1.
         12    1    3    3    0    0  0.16977719905E+02 -0.20400327841E+01  0.30033886990E+02  0.34560657903E+02  0.00000000000E+00 0. -1.
</event>
<event>
 7    1  0.2688173E-013  0.7246172E+02  0.7816164E-02  0.1226708E+00
        -11   -1    0    0    0    0  0.00000000000E+00  0.00000000000E+00  0.45593999997E+02  0.45594000000E+02  0.51100000000E-03 0. -1.
         11   -1    0    0    0    0 -0.00000000000E+00 -0.00000000000E+00 -0.45593999997E+02  0.45594000000E+02  0.51100000000E-03 0.  1.
    9900012    2    1    2    0    0  0.10512872671E+02 -0.15248015506E+02  0.27660943060E+01  0.72461715094E+02  0.70000188629E+02 0.  0.
        -12    1    1    2    0    0 -0.10512872671E+02  0.15248015506E+02 -0.27660943060E+01  0.18726284906E+02  0.00000000000E+00 0.  1.
         11    1    3    3    0    0  0.12419539981E+01  0.14636662790E+01 -0.33708914187E+01  0.38791336568E+01  0.51100000000E-03 0. -1.
        -11    1    3    3    0    0  0.20847487580E+02  0.72566714999E+01 -0.21073281329E+02  0.30518194670E+02  0.51100000000E-03 0.  1.
         12    1    3    3    0    0 -0.11576568908E+02 -0.23968353285E+02  0.27210267054E+02  0.38064386768E+02  0.00000000000E+00 0. -1.
</event>
<event>
 7    1  0.2688173E-013  0.7246158E+02  0.7816164E-02  0.1226708E+00
        -11   -1    0    0    0    0  0.00000000000E+00  0.00000000000E+00  0.45593999997E+02  0.45594000000E+02  0.51100000000E-03 0.  1.
         11   -1    0    0    0    0 -0.00000000000E+00 -0.00000000000E+00 -0.45593999997E+02  0.45594000000E+02  0.51100000000E-03 0. -1.
    9900012    2    1    2    0    0 -0.59556654157E+00 -0.14000559338E+02  0.12422094712E+02  0.72461580205E+02  0.70000012911E+02 0.  0.
        -12    1    1    2    0    0  0.59556654157E+00  0.14000559338E+02 -0.12422094712E+02  0.18726419795E+02  0.00000000000E+00 0.  1.
         11    1    3    3    0    0 -0.20318339102E+02 -0.15610388824E+02  0.24151655911E+02  0.35211100900E+02  0.51100000000E-03 0. -1.
        -11    1    3    3    0    0  0.83667109006E+01 -0.13208990482E+02 -0.88761740790E+00  0.15661007176E+02  0.51100000000E-03 0.  1.
        -12    1    3    3    0    0  0.11356061660E+02  0.14818819967E+02 -0.10841943791E+02  0.21589472129E+02  0.00000000000E+00 0.  1.
</event>
<event>
 7    1  0.2688173E-013  0.7246158E+02  0.7816164E-02  0.1226708E+00
        -11   -1    0    0    0    0  0.00000000000E+00  0.00000000000E+00  0.45593999997E+02  0.45594000000E+02  0.51100000000E-03 0.  1.
         11   -1    0    0    0    0 -0.00000000000E+00 -0.00000000000E+00 -0.45593999997E+02  0.45594000000E+02  0.51100000000E-03 0. -1.
    9900012    2    1    2    0    0  0.80762274465E+01  0.84463396324E+01 -0.14632592346E+02  0.72461578513E+02  0.70000010706E+02 0.  0.
        -12    1    1    2    0    0 -0.80762274465E+01 -0.84463396324E+01  0.14632592346E+02  0.18726421487E+02  0.00000000000E+00 0.  1.
         11    1    3    3    0    0  0.52645073221E+01  0.27187651927E+02 -0.87752941497E+01  0.29049771812E+02  0.51100000000E-03 0. -1.
        -11    1    3    3    0    0  0.10784201119E+02 -0.39225231115E+01  0.13529508237E+02  0.17740709534E+02  0.51100000000E-03 0.  1.
        -12    1    3    3    0    0 -0.79724809951E+01 -0.14818789183E+02 -0.19386806434E+02  0.25671097167E+02  0.00000000000E+00 0.  1.
</event>
<event>
 7    1  0.2688173E-013  0.7246171E+02  0.7816164E-02  0.1226708E+00
        -11   -1    0    0    0    0  0.00000000000E+00  0.00000000000E+00  0.45593999997E+02  0.45594000000E+02  0.51100000000E-03 0. -1.
         11   -1    0    0    0    0 -0.00000000000E+00 -0.00000000000E+00 -0.45593999997E+02  0.45594000000E+02  0.51100000000E-03 0.  1.
    9900012    2    1    2    0    0  0.10597850789E+02 -0.83092310647E+01  0.13012149947E+02  0.72461713436E+02  0.70000186468E+02 0.  0.
        -12    1    1    2    0    0 -0.10597850789E+02  0.83092310647E+01 -0.13012149947E+02  0.18726286564E+02  0.00000000000E+00 0.  1.
         11    1    3    3    0    0 -0.70506296182E+01  0.26016441860E+02  0.99682630493E+01  0.28739048236E+02  0.51100000000E-03 0. -1.
        -11    1    3    3    0    0  0.31304955650E+01  0.18211718460E+01 -0.24659929555E+01  0.43815283741E+01  0.51100000000E-03 0.  1.
        -12    1    3    3    0    0  0.14517984842E+02 -0.36146844770E+02  0.55098798535E+01  0.39341136826E+02  0.00000000000E+00 0.  1.
</event>
<event>
 7    1  0.2688173E-013  0.7246152E+02  0.7816164E-02  0.1226708E+00
        -11   -1    0    0    0    0  0.00000000000E+00  0.00000000000E+00  0.45593999997E+02  0.45594000000E+02  0.51100000000E-03 0.  1.
         11   -1    0    0    0    0 -0.00000000000E+00 -0.00000000000E+00 -0.45593999997E+02  0.45594000000E+02  0.51100000000E-03 0. -1.
    9900012    2    1    2    0    0 -0.66852287082E+01 -0.80260943380E+01 -0.15542546918E+02  0.72461515068E+02  0.69999928057E+02 0.  0.
        -12    1    1    2    0    0  0.66852287082E+01  0.80260943380E+01  0.15542546918E+02  0.18726484932E+02  0.00000000000E+00 0.  1.
         11    1    3    3    0    0  0.77653279005E+01  0.33793548563E+01 -0.40001349437E+02  0.40887997184E+02  0.51100000000E-03 0. -1.
        -11    1    3    3    0    0  0.83866824220E+00 -0.14842763934E+01  0.26557838261E+01  0.31558879614E+01  0.51100000000E-03 0.  1.
        -12    1    3    3    0    0 -0.15289224851E+02 -0.99211728009E+01  0.21803018693E+02  0.28417629923E+02  0.00000000000E+00 0.  1.
</event>
<event>
 7    1  0.2688173E-013  0.7246158E+02  0.7816164E-02  0.1226708E+00
        -11   -1    0    0    0    0  0.00000000000E+00  0.00000000000E+00  0.45593999997E+02  0.45594000000E+02  0.51100000000E-03 0. -1.
         11   -1    0    0    0    0 -0.00000000000E+00 -0.00000000000E+00 -0.45593999997E+02  0.45594000000E+02  0.51100000000E-03 0.  1.
    9900012    2    1    2    0    0  0.78337253786E+01  0.86934388209E+00  0.16986933324E+02  0.72461577067E+02  0.70000008823E+02 0.  0.
        -12    1    1    2    0    0 -0.78337253786E+01 -0.86934388209E+00 -0.16986933324E+02  0.18726422933E+02  0.00000000000E+00 0.  1.
         11    1    3    3    0    0 -0.49427441825E+01 -0.42262131498E+01 -0.16854790716E+02  0.18065867485E+02  0.51100000000E-03 0. -1.
        -11    1    3    3    0    0  0.15015257762E+01  0.36863985732E+01 -0.91231646901E+01  0.99537052558E+01  0.51100000000E-03 0.  1.
        -12    1    3    3    0    0  0.11274943785E+02  0.14091584587E+01  0.42964888731E+02  0.44442004326E+02  0.00000000000E+00 0.  1.
</event>
<event>
 7    1  0.2688173E-013  0.7246156E+02  0.7816164E-02  0.1226708E+00
        -11   -1    0    0    0    0  0.00000000000E+00  0.00000000000E+00  0.45593999997E+02  0.45594000000E+02  0.51100000000E-03 0.  1.
         11   -1    0    0    0    0 -0.00000000000E+00 -0.00000000000E+00 -0.45593999997E+02  0.45594000000E+02  0.51100000000E-03 0. -1.
    9900012    2    1    2    0    0  0.16755485810E+02  0.11082228945E+01 -0.82888538249E+01  0.72461559857E+02  0.69999986403E+02 0.  0.
        -12    1    1    2    0    0 -0.16755485810E+02 -0.11082228945E+01  0.82888538249E+01  0.18726440143E+02  0.00000000000E+00 0.  1.
         11    1    3    3    0    0  0.15420791993E+02  0.18812714682E+02 -0.19033352906E+02  0.30886689407E+02  0.51100000000E-03 0. -1.
        -11    1    3    3    0    0  0.17238026574E+02 -0.63363625200E+01  0.12077164914E+02  0.21980831712E+02  0.51100000000E-03 0.  1.
        -12    1    3    3    0    0 -0.15903332758E+02 -0.11368129267E+02 -0.13326658326E+01  0.19594038738E+02  0.00000000000E+00 0.  1.
</event>
<event>
 7    1  0.2688173E-013  0.7246159E+02  0.7816164E-02  0.1226708E+00
        -11   -1    0    0    0    0  0.00000000000E+00  0.00000000000E+00  0.45593999997E+02  0.45594000000E+02  0.51100000000E-03 0.  1.
         11   -1    0    0    0    0 -0.00000000000E+00 -0.00000000000E+00 -0.45593999997E+02  0.45594000000E+02  0.51100000000E-03 0. -1.
    9900012    2    1    2    0    0  0.87084537428E+01 -0.13450912401E+02 -0.96909413181E+01  0.72461586712E+02  0.70000021387E+02 0.  0.
        -12    1    1    2    0    0 -0.87084537428E+01  0.13450912401E+02  0.96909413181E+01  0.18726413288E+02  0.00000000000E+00 0.  1.
         11    1    3    3    0    0  0.49900852192E+01 -0.15979677052E+02 -0.21834282250E+02  0.27513395116E+02  0.51100000000E-03 0. -1.
        -11    1    3    3    0    0  0.37061881083E+01 -0.19935520309E+02  0.22489494175E+01  0.20401435588E+02  0.51100000000E-03 0.  1.
         12    1    3    3    0    0  0.12180415246E-01  0.22464284960E+02  0.98943915140E+01  0.24546756008E+02  0.00000000000E+00 0. -1.
</event>
<event>
 7    1  0.2688173E-013  0.7246157E+02  0.7816164E-02  0.1226708E+00
        -11   -1    0    0    0    0  0.00000000000E+00  0.00000000000E+00  0.45593999997E+02  0.45594000000E+02  0.51100000000E-03 0. -1.
         11   -1    0    0    0    0 -0.00000000000E+00 -0.00000000000E+00 -0.45593999997E+02  0.45594000000E+02  0.51100000000E-03 0.  1.
    9900012    2    1    2    0    0  0.15385816097E+02  0.89088201408E+01  0.58812168390E+01  0.72461571489E+02  0.70000001556E+02 0.  0.
        -12    1    1    2    0    0 -0.15385816097E+02 -0.89088201408E+01 -0.58812168390E+01  0.18726428511E+02  0.00000000000E+00 0.  1.
         11    1    3    3    0    0 -0.16963266677E+02  0.19147314470E+02  0.47187939917E+01  0.26012287188E+02  0.51100000000E-03 0. -1.
        -11    1    3    3    0    0 -0.44918641817E+01  0.47560727213E+01  0.13182983880E+01  0.66734535630E+01  0.51100000000E-03 0.  1.
        -12    1    3    3    0    0  0.36840946956E+02 -0.14994567051E+02 -0.15587554067E+00  0.39775830737E+02  0.00000000000E+00 0.  1.
</event>
<event>
 7    1  0.2688173E-013  0.7246165E+02  0.7816164E-02  0.1226708E+00
        -11   -1    0    0    0    0  0.00000000000E+00  0.00000000000E+00  0.45593999997E+02  0.45594000000E+02  0.51100000000E-03 0. -1.
         11   -1    0    0    0    0 -0.00000000000E+00 -0.00000000000E+00 -0.45593999997E+02  0.45594000000E+02  0.51100000000E-03 0.  1.
    9900012    2    1    2    0    0  0.89984131163E+01 -0.37982530310E+01  0.15977419598E+02  0.72461652206E+02  0.70000106705E+02 0.  0.
        -12    1    1    2    0    0 -0.89984131163E+01  0.37982530310E+01 -0.15977419598E+02  0.18726347794E+02  0.00000000000E+00 0.  1.
         11    1    3    3    0    0  0.14155728877E+00 -0.61255913414E+01 -0.78602820496E+00  0.61774386559E+01  0.51100000000E-03 0. -1.
        -11    1    3    3    0    0  0.11275569013E+01 -0.19991596800E+02 -0.16183439186E+02  0.25745660436E+02  0.51100000000E-03 0.  1.
         12    1    3    3    0    0  0.77292989262E+01  0.22318935110E+02  0.32946886988E+02  0.40538553114E+02  0.00000000000E+00 0. -1.
</event>
<event>
 7    1  0.2688173E-013  0.7246157E+02  0.7816164E-02  0.1226708E+00
        -11   -1    0    0    0    0  0.00000000000E+00  0.00000000000E+00  0.45593999997E+02  0.45594000000E+02  0.51100000000E-03 0.  1.
         11   -1    0    0    0    0 -0.00000000000E+00 -0.00000000000E+00 -0.45593999997E+02  0.45594000000E+02  0.51100000000E-03 0. -1.
    9900012    2    1    2    0    0 -0.39723706363E+01 -0.17618523306E+02 -0.49484429340E+01  0.72461570030E+02  0.69999999655E+02 0.  0.
        -12    1    1    2    0    0  0.39723706363E+01  0.17618523306E+02  0.49484429340E+01  0.18726429970E+02  0.00000000000E+00 0.  1.
         11    1    3    3    0    0 -0.96920675093E-01 -0.15765508050E+01  0.31632299094E+01  0.35356653941E+01  0.51100000000E-03 0. -1.
        -11    1    3    3    0    0  0.19128928041E+02 -0.27504886257E+01  0.21656716473E+02  0.29025754845E+02  0.51100000000E-03 0.  1.
         12    1    3    3    0    0 -0.23004378002E+02 -0.13291483875E+02 -0.29768389316E+02  0.39900149791E+02  0.00000000000E+00 0. -1.
</event>
<event>
 7    1  0.2688173E-013  0.7246113E+02  0.7816164E-02  0.1226709E+00
        -11   -1    0    0    0    0  0.00000000000E+00  0.00000000000E+00  0.45593999997E+02  0.45594000000E+02  0.51100000000E-03 0. -1.
         11   -1    0    0    0    0 -0.00000000000E+00 -0.00000000000E+00 -0.45593999997E+02  0.45594000000E+02  0.51100000000E-03 0.  1.
    9900012    2    1    2    0    0  0.17753079249E+02 -0.56497036021E+01  0.18985814247E+01  0.72461132001E+02  0.69999429039E+02 0.  0.
        -12    1    1    2    0    0 -0.17753079249E+02  0.56497036021E+01 -0.18985814247E+01  0.18726867999E+02  0.00000000000E+00 0.  1.
         11    1    3    3    0    0  0.20764763049E+02 -0.29840074005E+02  0.98562040293E+01  0.37666300047E+02  0.51100000000E-03 0. -1.
        -11    1    3    3    0    0 -0.27013062026E+01 -0.23398383881E+01  0.42805792311E+01  0.55763121951E+01  0.51100000000E-03 0.  1.
        -12    1    3    3    0    0 -0.31037759714E+00  0.26530208791E+02 -0.12238201836E+02  0.29218519759E+02  0.00000000000E+00 0.  1.
</event>
<event>
 7    1  0.2688173E-013  0.7246161E+02  0.7816164E-02  0.1226708E+00
        -11   -1    0    0    0    0  0.00000000000E+00  0.00000000000E+00  0.45593999997E+02  0.45594000000E+02  0.51100000000E-03 0.  1.
         11   -1    0    0    0    0 -0.00000000000E+00 -0.00000000000E+00 -0.45593999997E+02  0.45594000000E+02  0.51100000000E-03 0. -1.
    9900012    2    1    2    0    0  0.17146673423E+02  0.66248541609E+01  0.35749771487E+01  0.72461613169E+02  0.70000055853E+02 0.  0.
        -12    1    1    2    0    0 -0.17146673423E+02 -0.66248541609E+01 -0.35749771487E+01  0.18726386831E+02  0.00000000000E+00 0.  1.
         11    1    3    3    0    0  0.50420138391E+01 -0.10228313912E+02 -0.91600994287E+01  0.14626952206E+02  0.51100000000E-03 0. -1.
        -11    1    3    3    0    0 -0.20367739199E+02  0.76899181014E+01  0.10075535724E+02  0.23989498971E+02  0.51100000000E-03 0.  1.
         12    1    3    3    0    0  0.32472398783E+02  0.91632499711E+01  0.26595408533E+01  0.33845161992E+02  0.00000000000E+00 0. -1.
</event>
<event>
 7    1  0.2688173E-013  0.7246154E+02  0.7816164E-02  0.1226708E+00
        -11   -1    0    0    0    0  0.00000000000E+00  0.00000000000E+00  0.45593999997E+02  0.45594000000E+02  0.51100000000E-03 0.  1.
         11   -1    0    0    0    0 -0.00000000000E+00 -0.00000000000E+00 -0.45593999997E+02  0.45594000000E+02  0.51100000000E-03 0. -1.
    9900012    2    1    2    0    0 -0.17316971135E+02  0.13012161315E+00  0.71264104210E+01  0.72461544211E+02  0.69999966021E+02 0.  0.
        -12    1    1    2    0    0  0.17316971135E+02 -0.13012161315E+00 -0.71264104210E+01  0.18726455789E+02  0.00000000000E+00 0.  1.
         11    1    3    3    0    0 -0.75523767244E+01 -0.21282540630E+02 -0.17455336465E+01  0.22650205691E+02  0.51100000000E-03 0. -1.
        -11    1    3    3    0    0  0.10665253549E+01 -0.12333213065E+02 -0.24218744687E+01  0.12613924728E+02  0.51100000000E-03 0.  1.
        -12    1    3    3    0    0 -0.10831119766E+02  0.33745875308E+02  0.11293818536E+02  0.37197413792E+02  0.00000000000E+00 0.  1.
</event>
<event>
 7    1  0.2688173E-013  0.7246155E+02  0.7816164E-02  0.1226708E+00
        -11   -1    0    0    0    0  0.00000000000E+00  0.00000000000E+00  0.45593999997E+02  0.45594000000E+02  0.51100000000E-03 0. -1.
         11   -1    0    0    0    0 -0.00000000000E+00 -0.00000000000E+00 -0.45593999997E+02  0.45594000000E+02  0.51100000000E-03 0.  1.
    9900012    2    1    2    0    0 -0.40203792137E+01 -0.17739590024E+02  0.44523314543E+01  0.72461554566E+02  0.69999979510E+02 0.  0.
        -12    1    1    2    0    0  0.40203792137E+01  0.17739590024E+02 -0.44523314543E+01  0.18726445434E+02  0.00000000000E+00 0.  1.
         11    1    3    3    0    0 -0.20601651081E+02 -0.47268135335E+01  0.22568791443E+01  0.21257099924E+02  0.51100000000E-03 0. -1.
        -11    1    3    3    0    0 -0.96513427680E+01  0.10139211736E+02  0.73959730084E+01  0.15832007101E+02  0.51100000000E-03 0.  1.
        -12    1    3    3    0    0  0.26232614635E+02 -0.23151988226E+02 -0.52005206984E+01  0.35372447540E+02  0.00000000000E+00 0.  1.
</event>
<event>
 7    1  0.2688173E-013  0.7246147E+02  0.7816164E-02  0.1226708E+00
        -11   -1    0    0    0    0  0.00000000000E+00  0.00000000000E+00  0.45593999997E+02  0.45594000000E+02  0.51100000000E-03 0.  1.
         11   -1    0    0    0    0 -0.00000000000E+00 -0.00000000000E+00 -0.45593999997E+02  0.45594000000E+02  0.51100000000E-03 0. -1.
    9900012    2    1    2    0    0 -0.61082018058E+01  0.12161083909E+02 -0.12863930491E+02  0.72461473391E+02  0.69999873766E+02 0.  0.
        -12    1    1    2    0    0  0.61082018058E+01 -0.12161083909E+02  0.12863930491E+02  0.18726526609E+02  0.00000000000E+00 0.  1.
         11    1    3    3    0    0 -0.51497263186E+01 -0.18740539648E+01 -0.20774222855E+01  0.58606691626E+01  0.51100000000E-03 0. -1.
        -11    1    3    3    0    0 -0.21699441698E+02 -0.13659475091E+02 -0.17907951535E+02  0.31275257924E+02  0.51100000000E-03 0.  1.
         12    1    3    3    0    0  0.20740966211E+02  0.27694612965E+02  0.71214433294E+01  0.35325546305E+02  0.00000000000E+00 0. -1.
</event>
<event>
 7    1  0.2688173E-013  0.7246151E+02  0.7816164E-02  0.1226708E+00
        -11   -1    0    0    0    0  0.00000000000E+00  0.00000000000E+00  0.45593999997E+02  0.45594000000E+02  0.51100000000E-03 0.  1.
         11   -1    0    0    0    0 -0.00000000000E+00 -0.00000000000E+00 -0.45593999997E+02  0.45594000000E+02  0.51100000000E-03 0. -1.
    9900012    2    1    2    0    0  0.11192879517E+01 -0.18495008165E+02  0.27135713072E+01  0.72461505352E+02  0.69999915401E+02 0.  0.
        -12    1    1    2    0    0 -0.11192879517E+01  0.18495008165E+02 -0.27135713072E+01  0.18726494648E+02  0.00000000000E+00 0.  1.
         11    1    3    3    0    0  0.47590527824E+01 -0.23061413914E+02 -0.11531546669E+02  0.26219343316E+02  0.51100000000E-03 0. -1.
        -11    1    3    3    0    0  0.12308534905E+02 -0.11185009862E+02  0.16850420041E+02  0.23675749892E+02  0.51100000000E-03 0.  1.
        -12    1    3    3    0    0 -0.15948299736E+02  0.15751415611E+02 -0.26053020648E+01  0.22566412144E+02  0.00000000000E+00 0.  1.
</event>
<event>
 7    1  0.2688173E-013  0.7246172E+02  0.7816164E-02  0.1226708E+00
        -11   -1    0    0    0    0  0.00000000000E+00  0.00000000000E+00  0.45593999997E+02  0.45594000000E+02  0.51100000000E-03 0.  1.
         11   -1    0    0    0    0 -0.00000000000E+00 -0.00000000000E+00 -0.45593999997E+02  0.45594000000E+02  0.51100000000E-03 0. -1.
    9900012    2    1    2    0    0 -0.59855325372E+01 -0.14764029731E+02 -0.98422785644E+01  0.72461718442E+02  0.70000192989E+02 0.  0.
        -12    1    1    2    0    0  0.59855325372E+01  0.14764029731E+02  0.98422785644E+01  0.18726281558E+02  0.00000000000E+00 0.  1.
         11    1    3    3    0    0 -0.34148535572E+02 -0.64140306553E+01 -0.17168114671E+02  0.38755727739E+02  0.51100000000E-03 0. -1.
        -11    1    3    3    0    0 -0.98605662184E+00 -0.63746987151E+00 -0.18477345883E+01  0.21892461873E+01  0.51100000000E-03 0.  1.
        -12    1    3    3    0    0  0.29149059656E+02 -0.77125292043E+01  0.91735706953E+01  0.31516744516E+02  0.00000000000E+00 0.  1.
</event>
<event>
 7    1  0.2688173E-013  0.7246158E+02  0.7816164E-02  0.1226708E+00
        -11   -1    0    0    0    0  0.00000000000E+00  0.00000000000E+00  0.45593999997E+02  0.45594000000E+02  0.51100000000E-03 0.  1.
         11   -1    0    0    0    0 -0.00000000000E+00 -0.00000000000E+00 -0.45593999997E+02  0.45594000000E+02  0.51100000000E-03 0. -1.
    9900012    2    1    2    0    0 -0.13186303101E+02  0.13289336951E+02 -0.44020464801E+00  0.72461578927E+02  0.70000011246E+02 0.  0.
        -12    1    1    2    0    0  0.13186303101E+02 -0.13289336951E+02  0.44020464801E+00  0.18726421073E+02  0.00000000000E+00 0.  1.
         11    1    3    3    0    0  0.16119589742E+02  0.14395132553E+01 -0.18434292200E+01  0.16288388607E+02  0.51100000000E-03 0. -1.
        -11    1    3    3    0    0  0.76253033169E+01  0.13194259498E+02 -0.91056885096E+01  0.17752388512E+02  0.51100000000E-03 0.  1.
        -12    1    3    3    0    0 -0.36931196160E+02 -0.13444358028E+01  0.10508913082E+02  0.38420801808E+02  0.00000000000E+00 0.  1.
</event>
<event>
 7    1  0.2688173E-013  0.7246166E+02  0.7816164E-02  0.1226708E+00
        -11   -1    0    0    0    0  0.00000000000E+00  0.00000000000E+00  0.45593999997E+02  0.45594000000E+02  0.51100000000E-03 0. -1.
         11   -1    0    0    0    0 -0.00000000000E+00 -0.00000000000E+00 -0.45593999997E+02  0.45594000000E+02  0.51100000000E-03 0.  1.
    9900012    2    1    2    0    0 -0.27454954468E+01  0.10387070179E+02  0.15337753642E+02  0.72461664028E+02  0.70000122105E+02 0.  0.
        -12    1    1    2    0    0  0.27454954468E+01 -0.10387070179E+02 -0.15337753642E+02  0.18726335972E+02  0.00000000000E+00 0.  1.
         11    1    3    3    0    0 -0.26643730929E+02  0.17063566570E+02  0.52249563088E+01  0.32067957069E+02  0.51100000000E-03 0. -1.
        -11    1    3    3    0    0 -0.79557864897E-01  0.88827842726E+01 -0.23842145275E+01  0.91975358146E+01  0.51100000000E-03 0.  1.
        -12    1    3    3    0    0  0.23977793347E+02 -0.15559280664E+02  0.12497011861E+02  0.31196171144E+02  0.00000000000E+00 0.  1.
</event>
<event>
 7    1  0.2688173E-013  0.7246157E+02  0.7816164E-02  0.1226708E+00
        -11   -1    0    0    0    0  0.00000000000E+00  0.00000000000E+00  0.45593999997E+02  0.45594000000E+02  0.51100000000E-03 0.  1.
         11   -1    0    0    0    0 -0.00000000000E+00 -0.00000000000E+00 -0.45593999997E+02  0.45594000000E+02  0.51100000000E-03 0. -1.
    9900012    2    1    2    0    0  0.16197121169E+02 -0.86690363614E+01  0.36304862711E+01  0.72461565311E+02  0.69999993508E+02 0.  0.
        -12    1    1    2    0    0 -0.16197121169E+02  0.86690363614E+01 -0.36304862711E+01  0.18726434689E+02  0.00000000000E+00 0.  1.
         11    1    3    3    0    0  0.22083319444E+02 -0.10299310623E+02 -0.22101556754E+02  0.32897227971E+02  0.51100000000E-03 0. -1.
        -11    1    3    3    0    0  0.76344594036E+01 -0.88282557672E+01  0.50085012404E+01  0.12700714752E+02  0.51100000000E-03 0.  1.
         12    1    3    3    0    0 -0.13520657679E+02  0.10458530029E+02  0.20723541785E+02  0.26863622588E+02  0.00000000000E+00 0. -1.
</event>
<event>
 7    1  0.2688173E-013  0.7246156E+02  0.7816164E-02  0.1226708E+00
        -11   -1    0    0    0    0  0.00000000000E+00  0.00000000000E+00  0.45593999997E+02  0.45594000000E+02  0.51100000000E-03 0. -1.
         11   -1    0    0    0    0 -0.00000000000E+00 -0.00000000000E+00 -0.45593999997E+02  0.45594000000E+02  0.51100000000E-03 0.  1.
    9900012    2    1    2    0    0  0.17219607924E+02 -0.42507918260E+01 -0.60079537748E+01  0.72461557818E+02  0.69999983748E+02 0.  0.
        -12    1    1    2    0    0 -0.17219607924E+02  0.42507918260E+01  0.60079537748E+01  0.18726442182E+02  0.00000000000E+00 0.  1.
         11    1    3    3    0    0  0.55820719276E+00 -0.24884002467E+00  0.91425050178E+00  0.10997139942E+01  0.51100000000E-03 0. -1.
        -11    1    3    3    0    0 -0.86583062055E+01  0.15313809852E+02  0.22119288632E+02  0.28262023430E+02  0.51100000000E-03 0.  1.
         12    1    3    3    0    0  0.25319706937E+02 -0.19315761654E+02 -0.29041492908E+02  0.43099820394E+02  0.00000000000E+00 0. -1.
</event>
<event>
 7    1  0.2688173E-013  0.7246156E+02  0.7816164E-02  0.1226708E+00
        -11   -1    0    0    0    0  0.00000000000E+00  0.00000000000E+00  0.45593999997E+02  0.45594000000E+02  0.51100000000E-03 0. -1.
         11   -1    0    0    0    0 -0.00000000000E+00 -0.00000000000E+00 -0.45593999997E+02  0.45594000000E+02  0.51100000000E-03 0.  1.
    9900012    2    1    2    0    0  0.91706539383E+01  0.16190089343E+02 -0.21117721809E+01  0.72461562316E+02  0.69999989607E+02 0.  0.
        -12    1    1    2    0    0 -0.91706539383E+01 -0.16190089343E+02  0.21117721809E+01  0.18726437684E+02  0.00000000000E+00 0.  1.
         11    1    3    3    0    0 -0.11438720965E+02 -0.93118578483E+01  0.16169440047E+02  0.21886201717E+02  0.51100000000E-03 0. -1.
        -11    1    3    3    0    0 -0.73252457029E+00 -0.63909949034E+01  0.25395676987E+01  0.69159823929E+01  0.51100000000E-03 0.  1.
         12    1    3    3    0    0  0.21341899474E+02  0.31892942094E+02 -0.20820779927E+02  0.43659378206E+02  0.00000000000E+00 0. -1.
</event>
<event>
 7    1  0.2688173E-013  0.7246151E+02  0.7816164E-02  0.1226708E+00
        -11   -1    0    0    0    0  0.00000000000E+00  0.00000000000E+00  0.45593999997E+02  0.45594000000E+02  0.51100000000E-03 0. -1.
         11   -1    0    0    0    0 -0.00000000000E+00 -0.00000000000E+00 -0.45593999997E+02  0.45594000000E+02  0.51100000000E-03 0.  1.
    9900012    2    1    2    0    0 -0.14044288909E+02  0.11759119481E+02  0.38939245148E+01  0.72461505665E+02  0.69999915808E+02 0.  0.
        -12    1    1    2    0    0  0.14044288909E+02 -0.11759119481E+02 -0.38939245148E+01  0.18726494335E+02  0.00000000000E+00 0.  1.
         11    1    3    3    0    0 -0.89833665176E+01  0.27749147372E+01  0.93885003992E+01  0.13287022458E+02  0.51100000000E-03 0. -1.
        -11    1    3    3    0    0 -0.31568097997E+02  0.27540438839E+01 -0.31540580612E+01  0.31844585904E+02  0.51100000000E-03 0.  1.
         12    1    3    3    0    0  0.26507175605E+02  0.62301608604E+01 -0.23405178232E+01  0.27329897303E+02  0.00000000000E+00 0. -1.
</event>
<event>
 7    1  0.2688173E-013  0.7246157E+02  0.7816164E-02  0.1226708E+00
        -11   -1    0    0    0    0  0.00000000000E+00  0.00000000000E+00  0.45593999997E+02  0.45594000000E+02  0.51100000000E-03 0. -1.
         11   -1    0    0    0    0 -0.00000000000E+00 -0.00000000000E+00 -0.45593999997E+02  0.45594000000E+02  0.51100000000E-03 0.  1.
    9900012    2    1    2    0    0  0.98146189872E+01  0.48559597917E+01  0.15191186735E+02  0.72461568258E+02  0.69999997347E+02 0.  0.
        -12    1    1    2    0    0 -0.98146189872E+01 -0.48559597917E+01 -0.15191186735E+02  0.18726431742E+02  0.00000000000E+00 0.  1.
         11    1    3    3    0    0  0.32067267952E+01 -0.39360537946E+01  0.71543522770E+01  0.87727061377E+01  0.51100000000E-03 0. -1.
        -11    1    3    3    0    0  0.19789638750E+02  0.68207765382E+01 -0.22280696660E+02  0.30570937806E+02  0.51100000000E-03 0.  1.
         12    1    3    3    0    0 -0.13181746558E+02  0.19712370481E+01  0.30317531118E+02  0.33117924315E+02  0.00000000000E+00 0. -1.
</event>
<event>
 7    1  0.2688173E-013  0.7246158E+02  0.7816164E-02  0.1226708E+00
        -11   -1    0    0    0    0  0.00000000000E+00  0.00000000000E+00  0.45593999997E+02  0.45594000000E+02  0.51100000000E-03 0.  1.
         11   -1    0    0    0    0 -0.00000000000E+00 -0.00000000000E+00 -0.45593999997E+02  0.45594000000E+02  0.51100000000E-03 0. -1.
    9900012    2    1    2    0    0  0.22797328236E+01  0.66262802062E+00 -0.18575323674E+02  0.72461577297E+02  0.70000009123E+02 0.  0.
        -12    1    1    2    0    0 -0.22797328236E+01 -0.66262802062E+00  0.18575323674E+02  0.18726422703E+02  0.00000000000E+00 0.  1.
         11    1    3    3    0    0  0.43210302021E+01 -0.36309765029E+01 -0.16126777392E+02  0.17085907693E+02  0.51100000000E-03 0. -1.
        -11    1    3    3    0    0 -0.27635539615E+02  0.60033944437E+01 -0.74419350289E+01  0.29242882757E+02  0.51100000000E-03 0.  1.
         12    1    3    3    0    0  0.25594242237E+02 -0.17097899202E+01  0.49933887470E+01  0.26132786848E+02  0.00000000000E+00 0. -1.
</event>
<event>
 7    1  0.2688173E-013  0.7246156E+02  0.7816164E-02  0.1226708E+00
        -11   -1    0    0    0    0  0.00000000000E+00  0.00000000000E+00  0.45593999997E+02  0.45594000000E+02  0.51100000000E-03 0.  1.
         11   -1    0    0    0    0 -0.00000000000E+00 -0.00000000000E+00 -0.45593999997E+02  0.45594000000E+02  0.51100000000E-03 0. -1.
    9900012    2    1    2    0    0 -0.78465056754E+01 -0.83077668731E+01 -0.14835524386E+02  0.72461563459E+02  0.69999991095E+02 0.  0.
        -12    1    1    2    0    0  0.78465056754E+01  0.83077668731E+01  0.14835524386E+02  0.18726436541E+02  0.00000000000E+00 0.  1.
         11    1    3    3    0    0 -0.21217856808E+01  0.81244249436E+01 -0.18432351780E+02  0.20254872192E+02  0.51100000000E-03 0. -1.
        -11    1    3    3    0    0  0.14711378386E+02  0.86104662150E+01 -0.66519434850E+01  0.18297899739E+02  0.51100000000E-03 0.  1.
        -12    1    3    3    0    0 -0.20436098381E+02 -0.25042658032E+02  0.10248770879E+02  0.33908791527E+02  0.00000000000E+00 0.  1.
</event>
<event>
 7    1  0.2688173E-013  0.7246173E+02  0.7816164E-02  0.1226708E+00
        -11   -1    0    0    0    0  0.00000000000E+00  0.00000000000E+00  0.45593999997E+02  0.45594000000E+02  0.51100000000E-03 0.  1.
         11   -1    0    0    0    0 -0.00000000000E+00 -0.00000000000E+00 -0.45593999997E+02  0.45594000000E+02  0.51100000000E-03 0. -1.
    9900012    2    1    2    0    0 -0.86313708738E+01 -0.15266311133E+02 -0.65660053402E+01  0.72461728484E+02  0.70000206071E+02 0.  0.
        -12    1    1    2    0    0  0.86313708738E+01  0.15266311133E+02  0.65660053402E+01  0.18726271516E+02  0.00000000000E+00 0.  1.
         11    1    3    3    0    0 -0.14523026272E+02 -0.15142805056E+02 -0.25095070208E+02  0.32710631086E+02  0.51100000000E-03 0. -1.
        -11    1    3    3    0    0 -0.10686935230E+02 -0.98295841440E+01  0.13653668042E+02  0.19931230777E+02  0.51100000000E-03 0.  1.
         12    1    3    3    0    0  0.16578590628E+02  0.97060780674E+01  0.48753968261E+01  0.19819866621E+02  0.00000000000E+00 0. -1.
</event>
<event>
 7    1  0.2688173E-013  0.7246168E+02  0.7816164E-02  0.1226708E+00
        -11   -1    0    0    0    0  0.00000000000E+00  0.00000000000E+00  0.45593999997E+02  0.45594000000E+02  0.51100000000E-03 0. -1.
         11   -1    0    0    0    0 -0.00000000000E+00 -0.00000000000E+00 -0.45593999997E+02  0.45594000000E+02  0.51100000000E-03 0.  1.
    9900012    2    1    2    0    0 -0.15233996454E+02 -0.72430260811E+01  0.81325843145E+01  0.72461681557E+02  0.70000144941E+02 0.  0.
        -12    1    1    2    0    0  0.15233996454E+02  0.72430260811E+01 -0.81325843145E+01  0.18726318443E+02  0.00000000000E+00 0.  1.
         11    1    3    3    0    0 -0.79381214158E+00  0.18434361843E+02 -0.65568895981E+01  0.19581844544E+02  0.51100000000E-03 0. -1.
        -11    1    3    3    0    0  0.47950476421E+01  0.91203592471E+01 -0.50196959457E+00  0.10316269113E+02  0.51100000000E-03 0.  1.
        -12    1    3    3    0    0 -0.19235231955E+02 -0.34797747171E+02  0.15191443507E+02  0.42563567900E+02  0.00000000000E+00 0.  1.
</event>
<event>
 7    1  0.2688173E-013  0.7246152E+02  0.7816164E-02  0.1226708E+00
        -11   -1    0    0    0    0  0.00000000000E+00  0.00000000000E+00  0.45593999997E+02  0.45594000000E+02  0.51100000000E-03 0.  1.
         11   -1    0    0    0    0 -0.00000000000E+00 -0.00000000000E+00 -0.45593999997E+02  0.45594000000E+02  0.51100000000E-03 0. -1.
    9900012    2    1    2    0    0 -0.13756460320E+02 -0.11578191502E+02 -0.52331877791E+01  0.72461522132E+02  0.69999937260E+02 0.  0.
        -12    1    1    2    0    0  0.13756460320E+02  0.11578191502E+02  0.52331877791E+01  0.18726477868E+02  0.00000000000E+00 0.  1.
         11    1    3    3    0    0  0.13545567046E+02  0.19934967530E+01  0.40397076605E+01  0.14275001021E+02  0.51100000000E-03 0. -1.
        -11    1    3    3    0    0 -0.57476614836E+01 -0.28958000130E+02  0.15827679661E+01  0.29565292807E+02  0.51100000000E-03 0.  1.
         12    1    3    3    0    0 -0.21554365882E+02  0.15386311875E+02 -0.10855663406E+02  0.28621228305E+02  0.00000000000E+00 0. -1.
</event>
<event>
 7    1  0.2688173E-013  0.7246141E+02  0.7816164E-02  0.1226708E+00
        -11   -1    0    0    0    0  0.00000000000E+00  0.00000000000E+00  0.45593999997E+02  0.45594000000E+02  0.51100000000E-03 0. -1.
         11   -1    0    0    0    0 -0.00000000000E+00 -0.00000000000E+00 -0.45593999997E+02  0.45594000000E+02  0.51100000000E-03 0.  1.
    9900012    2    1    2    0    0  0.17745852281E+02 -0.51005447898E+01 -0.31232015176E+01  0.72461408798E+02  0.69999789620E+02 0.  0.
        -12    1    1    2    0    0 -0.17745852281E+02  0.51005447898E+01  0.31232015176E+01  0.18726591202E+02  0.00000000000E+00 0.  1.
         11    1    3    3    0    0 -0.31945500838E+01 -0.29154874783E+01  0.22832114919E+02  0.23238130075E+02  0.51100000000E-03 0. -1.
        -11    1    3    3    0    0 -0.77994553823E+01  0.43418020298E+01 -0.15622164716E+02  0.17992631264E+02  0.51100000000E-03 0.  1.
        -12    1    3    3    0    0  0.28739857747E+02 -0.65268593413E+01 -0.10333151721E+02  0.31230647459E+02  0.00000000000E+00 0.  1.
</event>
<event>
 7    1  0.2688173E-013  0.7246152E+02  0.7816164E-02  0.1226708E+00
        -11   -1    0    0    0    0  0.00000000000E+00  0.00000000000E+00  0.45593999997E+02  0.45594000000E+02  0.51100000000E-03 0.  1.
         11   -1    0    0    0    0 -0.00000000000E+00 -0.00000000000E+00 -0.45593999997E+02  0.45594000000E+02  0.51100000000E-03 0. -1.
    9900012    2    1    2    0    0  0.12915555712E+02 -0.30425945921E+01 -0.13214080287E+02  0.72461524650E+02  0.69999940540E+02 0.  0.
        -12    1    1    2    0    0 -0.12915555712E+02  0.30425945921E+01  0.13214080287E+02  0.18726475350E+02  0.00000000000E+00 0.  1.
         11    1    3    3    0    0 -0.74309460069E+01 -0.11317745836E+02 -0.30588531353E+01  0.13880450718E+02  0.51100000000E-03 0. -1.
        -11    1    3    3    0    0  0.17664815266E+02 -0.13011990846E+02  0.14191509869E+02  0.26129610728E+02  0.51100000000E-03 0.  1.
         12    1    3    3    0    0  0.26816864535E+01  0.21287142089E+02 -0.24346737021E+02  0.32451463205E+02  0.00000000000E+00 0. -1.
</event>
<event>
 7    1  0.2688173E-013  0.7246160E+02  0.7816164E-02  0.1226708E+00
        -11   -1    0    0    0    0  0.00000000000E+00  0.00000000000E+00  0.45593999997E+02  0.45594000000E+02  0.51100000000E-03 0.  1.
         11   -1    0    0    0    0 -0.00000000000E+00 -0.00000000000E+00 -0.45593999997E+02  0.45594000000E+02  0.51100000000E-03 0. -1.
    9900012    2    1    2    0    0 -0.80276954893E+01  0.76688149815E+01 -0.15080568609E+02  0.72461597044E+02  0.70000034847E+02 0.  0.
        -12    1    1    2    0    0  0.80276954893E+01 -0.76688149815E+01  0.15080568609E+02  0.18726402956E+02  0.00000000000E+00 0.  1.
         11    1    3    3    0    0 -0.13808608060E+02  0.18399014964E+02  0.15886394691E+01  0.23059167023E+02  0.51100000000E-03 0. -1.
        -11    1    3    3    0    0 -0.11531262890E+02  0.82301379934E+01  0.57764667370E+01  0.15299436703E+02  0.51100000000E-03 0.  1.
         12    1    3    3    0    0  0.17312175460E+02 -0.18960337976E+02 -0.22445674815E+02  0.34102993318E+02  0.00000000000E+00 0. -1.
</event>
<event>
 8    1  0.2688173E-013  0.7246208E+02  0.7816164E-02  0.1226707E+00
        -11   -1    0    0    0    0  0.00000000000E+00  0.00000000000E+00  0.45593999997E+02  0.45594000000E+02  0.51100000000E-03 0.  1.
         11   -1    0    0    0    0 -0.00000000000E+00 -0.00000000000E+00 -0.45593999997E+02  0.45594000000E+02  0.51100000000E-03 0. -1.
    9900012    2    1    2    0    0  0.77095968958E+01 -0.20847978946E+01 -0.16937413502E+02  0.72462075652E+02  0.70000658319E+02 0.  0.
         23    2    3    3    0    0 -0.21486585070E+00 -0.11249543823E+02 -0.18404001399E+02  0.60257955126E+02  0.56264691281E+02 0.  0.
        -12    1    1    2    0    0 -0.77095968958E+01  0.20847978946E+01  0.16937413502E+02  0.18725924348E+02  0.00000000000E+00 0.  1.
         11    1    4    4    0    0 -0.26156021825E+02 -0.62680476705E+01 -0.20414369108E+02  0.33766438450E+02  0.51100000000E-03 0. -1.
        -11    1    4    4    0    0  0.25941155974E+02 -0.49814961525E+01  0.20103677091E+01  0.26491516676E+02  0.51100000000E-03 0.  1.
        -12    1    3    3    0    0  0.79244627465E+01  0.91647459284E+01  0.14665878966E+01  0.12204120526E+02  0.00000000000E+00 0.  1.
</event>
<event>
 7    1  0.2688173E-013  0.7246150E+02  0.7816164E-02  0.1226708E+00
        -11   -1    0    0    0    0  0.00000000000E+00  0.00000000000E+00  0.45593999997E+02  0.45594000000E+02  0.51100000000E-03 0. -1.
         11   -1    0    0    0    0 -0.00000000000E+00 -0.00000000000E+00 -0.45593999997E+02  0.45594000000E+02  0.51100000000E-03 0.  1.
    9900012    2    1    2    0    0 -0.97250322374E+01  0.57771080573E+01  0.14924155567E+02  0.72461504094E+02  0.69999913762E+02 0.  0.
        -12    1    1    2    0    0  0.97250322374E+01 -0.57771080573E+01 -0.14924155567E+02  0.18726495906E+02  0.00000000000E+00 0.  1.
         11    1    3    3    0    0  0.53720515452E+01 -0.29795798203E+01  0.11204220179E+02  0.12777769124E+02  0.51100000000E-03 0. -1.
        -11    1    3    3    0    0  0.20754246775E+02  0.10768901478E+02  0.42867796469E+01  0.23771505594E+02  0.51100000000E-03 0.  1.
        -12    1    3    3    0    0 -0.35851330557E+02 -0.20122136001E+01 -0.56684425920E+00  0.35912229375E+02  0.00000000000E+00 0.  1.
</event>
<event>
 7    1  0.2688173E-013  0.7246110E+02  0.7816164E-02  0.1226709E+00
        -11   -1    0    0    0    0  0.00000000000E+00  0.00000000000E+00  0.45593999997E+02  0.45594000000E+02  0.51100000000E-03 0.  1.
         11   -1    0    0    0    0 -0.00000000000E+00 -0.00000000000E+00 -0.45593999997E+02  0.45594000000E+02  0.51100000000E-03 0. -1.
    9900012    2    1    2    0    0  0.57702465485E+01 -0.81678390693E+01  0.15833116242E+02  0.72461096620E+02  0.69999382948E+02 0.  0.
        -12    1    1    2    0    0 -0.57702465485E+01  0.81678390693E+01 -0.15833116242E+02  0.18726903380E+02  0.00000000000E+00 0.  1.
         11    1    3    3    0    0  0.23131045252E+00  0.12601397582E+02  0.16796150154E+02  0.20999032973E+02  0.51100000000E-03 0. -1.
        -11    1    3    3    0    0  0.17666465702E+02 -0.30886207267E+02 -0.19732248690E+01  0.35636433974E+02  0.51100000000E-03 0.  1.
         12    1    3    3    0    0 -0.12127529606E+02  0.10116970616E+02  0.10101909567E+01  0.15825629673E+02  0.00000000000E+00 0. -1.
</event>
<event>
 7    1  0.2688173E-013  0.7246158E+02  0.7816164E-02  0.1226708E+00
        -11   -1    0    0    0    0  0.00000000000E+00  0.00000000000E+00  0.45593999997E+02  0.45594000000E+02  0.51100000000E-03 0. -1.
         11   -1    0    0    0    0 -0.00000000000E+00 -0.00000000000E+00 -0.45593999997E+02  0.45594000000E+02  0.51100000000E-03 0.  1.
    9900012    2    1    2    0    0 -0.14019375816E+02  0.59884221107E+01 -0.10875416362E+02  0.72461580730E+02  0.70000013594E+02 0.  0.
        -12    1    1    2    0    0  0.14019375816E+02 -0.59884221107E+01  0.10875416362E+02  0.18726419270E+02  0.00000000000E+00 0.  1.
         11    1    3    3    0    0 -0.14017611695E+02  0.67858236980E+01 -0.22513106722E+02  0.27374820829E+02  0.51100000000E-03 0. -1.
        -11    1    3    3    0    0  0.26677924730E+01 -0.11645541321E+02 -0.13229276138E+02  0.17825529354E+02  0.51100000000E-03 0.  1.
         12    1    3    3    0    0 -0.26695565940E+01  0.10848139734E+02  0.24866966498E+02  0.27261230547E+02  0.00000000000E+00 0. -1.
</event>
<event>
 7    1  0.2688173E-013  0.7246154E+02  0.7816164E-02  0.1226708E+00
        -11   -1    0    0    0    0  0.00000000000E+00  0.00000000000E+00  0.45593999997E+02  0.45594000000E+02  0.51100000000E-03 0.  1.
         11   -1    0    0    0    0 -0.00000000000E+00 -0.00000000000E+00 -0.45593999997E+02  0.45594000000E+02  0.51100000000E-03 0. -1.
    9900012    2    1    2    0    0 -0.11340383434E+01  0.10208219333E+02 -0.15658430407E+02  0.72461542041E+02  0.69999963194E+02 0.  0.
        -12    1    1    2    0    0  0.11340383434E+01 -0.10208219333E+02  0.15658430407E+02  0.18726457959E+02  0.00000000000E+00 0.  1.
         11    1    3    3    0    0 -0.16300883154E+02 -0.37484210996E+01 -0.21519210617E+02  0.27255199104E+02  0.51100000000E-03 0. -1.
        -11    1    3    3    0    0 -0.12880237248E+02  0.85927637135E+01  0.61219717238E+01  0.16649763898E+02  0.51100000000E-03 0.  1.
        -12    1    3    3    0    0  0.28047082058E+02  0.53638767189E+01 -0.26119151306E+00  0.28556579039E+02  0.00000000000E+00 0.  1.
</event>
<event>
 7    1  0.2688173E-013  0.7246157E+02  0.7816164E-02  0.1226708E+00
        -11   -1    0    0    0    0  0.00000000000E+00  0.00000000000E+00  0.45593999997E+02  0.45594000000E+02  0.51100000000E-03 0. -1.
         11   -1    0    0    0    0 -0.00000000000E+00 -0.00000000000E+00 -0.45593999997E+02  0.45594000000E+02  0.51100000000E-03 0.  1.
    9900012    2    1    2    0    0  0.14144902710E+02  0.21092104700E+01  0.12089342949E+02  0.72461568027E+02  0.69999997047E+02 0.  0.
        -12    1    1    2    0    0 -0.14144902710E+02 -0.21092104700E+01 -0.12089342949E+02  0.18726431973E+02  0.00000000000E+00 0.  1.
         11    1    3    3    0    0 -0.93297213190E+01 -0.62568525913E+01 -0.69836534611E-01  0.11233734092E+02  0.51100000000E-03 0. -1.
        -11    1    3    3    0    0  0.11854366517E+02 -0.21513892791E+02 -0.46938772594E+01  0.25008120132E+02  0.51100000000E-03 0.  1.
         12    1    3    3    0    0  0.11620257512E+02  0.29879955853E+02  0.16853056743E+02  0.36219713803E+02  0.00000000000E+00 0. -1.
</event>
<event>
 7    1  0.2688173E-013  0.7246159E+02  0.7816164E-02  0.1226708E+00
        -11   -1    0    0    0    0  0.00000000000E+00  0.00000000000E+00  0.45593999997E+02  0.45594000000E+02  0.51100000000E-03 0.  1.
         11   -1    0    0    0    0 -0.00000000000E+00 -0.00000000000E+00 -0.45593999997E+02  0.45594000000E+02  0.51100000000E-03 0. -1.
    9900012    2    1    2    0    0 -0.17692225882E+02  0.51026659663E+01 -0.34097530882E+01  0.72461588899E+02  0.70000024236E+02 0.  0.
        -12    1    1    2    0    0  0.17692225882E+02 -0.51026659663E+01  0.34097530882E+01  0.18726411101E+02  0.00000000000E+00 0.  1.
         11    1    3    3    0    0 -0.17087829580E+02  0.25207233303E+02 -0.12640232381E+01  0.30479440375E+02  0.51100000000E-03 0. -1.
        -11    1    3    3    0    0 -0.13741109549E+02 -0.11656929440E+02 -0.13631821816E+02  0.22594881320E+02  0.51100000000E-03 0.  1.
        -12    1    3    3    0    0  0.13136713248E+02 -0.84476378964E+01  0.11486091966E+02  0.19387267204E+02  0.00000000000E+00 0.  1.
</event>
<event>
 7    1  0.2688173E-013  0.7246161E+02  0.7816164E-02  0.1226708E+00
        -11   -1    0    0    0    0  0.00000000000E+00  0.00000000000E+00  0.45593999997E+02  0.45594000000E+02  0.51100000000E-03 0.  1.
         11   -1    0    0    0    0 -0.00000000000E+00 -0.00000000000E+00 -0.45593999997E+02  0.45594000000E+02  0.51100000000E-03 0. -1.
    9900012    2    1    2    0    0  0.11958612694E+02 -0.24149184613E+01 -0.14206951451E+02  0.72461609043E+02  0.70000050477E+02 0.  0.
        -12    1    1    2    0    0 -0.11958612694E+02  0.24149184613E+01  0.14206951451E+02  0.18726390957E+02  0.00000000000E+00 0.  1.
         11    1    3    3    0    0  0.11741529773E+02  0.17462264945E+02 -0.64581514909E+01  0.22011404756E+02  0.51100000000E-03 0. -1.
        -11    1    3    3    0    0 -0.12806242211E+02 -0.27765279700E+01 -0.21323170248E+02  0.25027715374E+02  0.51100000000E-03 0.  1.
         12    1    3    3    0    0  0.13023325132E+02 -0.17100655436E+02  0.13574370288E+02  0.25422488913E+02  0.00000000000E+00 0. -1.
</event>
<event>
 7    1  0.2688173E-013  0.7246157E+02  0.7816164E-02  0.1226708E+00
        -11   -1    0    0    0    0  0.00000000000E+00  0.00000000000E+00  0.45593999997E+02  0.45594000000E+02  0.51100000000E-03 0.  1.
         11   -1    0    0    0    0 -0.00000000000E+00 -0.00000000000E+00 -0.45593999997E+02  0.45594000000E+02  0.51100000000E-03 0. -1.
    9900012    2    1    2    0    0 -0.12625787689E+02  0.13089863894E+02 -0.44636615081E+01  0.72461566127E+02  0.69999994571E+02 0.  0.
        -12    1    1    2    0    0  0.12625787689E+02 -0.13089863894E+02  0.44636615081E+01  0.18726433873E+02  0.00000000000E+00 0.  1.
         11    1    3    3    0    0  0.12879542898E+02  0.20165591878E+02  0.93823732903E+01  0.25701413383E+02  0.51100000000E-03 0.  1.
        -11    1    3    3    0    0 -0.31867987435E+02 -0.67088613893E+01 -0.11879476142E+01  0.32588167547E+02  0.51100000000E-03 0. -1.
         12    1    3    3    0    0  0.63626568470E+01 -0.36686659457E+00 -0.12658087184E+02  0.14171985197E+02  0.00000000000E+00 0. -1.
</event>
<event>
 7    1  0.2688173E-013  0.7246156E+02  0.7816164E-02  0.1226708E+00
        -11   -1    0    0    0    0  0.00000000000E+00  0.00000000000E+00  0.45593999997E+02  0.45594000000E+02  0.51100000000E-03 0.  1.
         11   -1    0    0    0    0 -0.00000000000E+00 -0.00000000000E+00 -0.45593999997E+02  0.45594000000E+02  0.51100000000E-03 0. -1.
    9900012    2    1    2    0    0  0.10037840231E+02  0.70007560812E+01 -0.14174303345E+02  0.72461556196E+02  0.69999981635E+02 0.  0.
        -12    1    1    2    0    0 -0.10037840231E+02 -0.70007560812E+01  0.14174303345E+02  0.18726443804E+02  0.00000000000E+00 0.  1.
         11    1    3    3    0    0  0.10133585003E+02  0.46463377075E+01 -0.17661786169E+02  0.20885801159E+02  0.51100000000E-03 0. -1.
        -11    1    3    3    0    0  0.10829803737E+02  0.94105686219E+01  0.23603213705E+02  0.27621642751E+02  0.51100000000E-03 0.  1.
         12    1    3    3    0    0 -0.10925548509E+02 -0.70561502483E+01 -0.20115730881E+02  0.23954112287E+02  0.00000000000E+00 0. -1.
</event>
<event>
 7    1  0.2688173E-013  0.7246131E+02  0.7816164E-02  0.1226709E+00
        -11   -1    0    0    0    0  0.00000000000E+00  0.00000000000E+00  0.45593999997E+02  0.45594000000E+02  0.51100000000E-03 0.  1.
         11   -1    0    0    0    0 -0.00000000000E+00 -0.00000000000E+00 -0.45593999997E+02  0.45594000000E+02  0.51100000000E-03 0. -1.
    9900012    2    1    2    0    0 -0.55922837214E+01 -0.10053923815E+02  0.14776125060E+02  0.72461310674E+02  0.69999661796E+02 0.  0.
        -12    1    1    2    0    0  0.55922837214E+01  0.10053923815E+02 -0.14776125060E+02  0.18726689326E+02  0.00000000000E+00 0.  1.
         11    1    3    3    0    0  0.20571508736E+02 -0.50348865756E+01 -0.76047991128E+01  0.22502667049E+02  0.51100000000E-03 0. -1.
        -11    1    3    3    0    0 -0.14308739462E+02  0.13305766799E+02  0.12486311684E+01  0.19579135199E+02  0.51100000000E-03 0.  1.
         12    1    3    3    0    0 -0.11855052996E+02 -0.18324804038E+02  0.21132293005E+02  0.30379508426E+02  0.00000000000E+00 0. -1.
</event>
<event>
 7    1  0.2688173E-013  0.7246182E+02  0.7816164E-02  0.1226707E+00
        -11   -1    0    0    0    0  0.00000000000E+00  0.00000000000E+00  0.45593999997E+02  0.45594000000E+02  0.51100000000E-03 0.  1.
         11   -1    0    0    0    0 -0.00000000000E+00 -0.00000000000E+00 -0.45593999997E+02  0.45594000000E+02  0.51100000000E-03 0. -1.
    9900012    2    1    2    0    0 -0.17004649236E+02  0.62964790971E+01 -0.46761096382E+01  0.72461821906E+02  0.70000327770E+02 0.  0.
        -12    1    1    2    0    0  0.17004649236E+02 -0.62964790971E+01  0.46761096382E+01  0.18726178094E+02  0.00000000000E+00 0.  1.
         11    1    3    3    0    0 -0.61332894399E+01  0.49498587026E+01 -0.34543018139E+02  0.35430755607E+02  0.51100000000E-03 0. -1.
        -11    1    3    3    0    0  0.49067576922E+01 -0.21866903149E+00  0.27773909519E+01  0.56425161015E+01  0.51100000000E-03 0.  1.
         12    1    3    3    0    0 -0.15778117488E+02  0.15652894259E+01  0.27089517549E+02  0.31388550197E+02  0.00000000000E+00 0. -1.
</event>
<event>
 7    1  0.2688173E-013  0.7246184E+02  0.7816164E-02  0.1226707E+00
        -11   -1    0    0    0    0  0.00000000000E+00  0.00000000000E+00  0.45593999997E+02  0.45594000000E+02  0.51100000000E-03 0.  1.
         11   -1    0    0    0    0 -0.00000000000E+00 -0.00000000000E+00 -0.45593999997E+02  0.45594000000E+02  0.51100000000E-03 0. -1.
    9900012    2    1    2    0    0  0.13108937498E+02  0.12004867698E+02 -0.58913556801E+01  0.72461837486E+02  0.70000348066E+02 0.  0.
        -12    1    1    2    0    0 -0.13108937498E+02 -0.12004867698E+02  0.58913556801E+01  0.18726162514E+02  0.00000000000E+00 0.  1.
         11    1    3    3    0    0  0.16259638146E+01 -0.23069066411E+02 -0.70921877263E+01  0.24189351177E+02  0.51100000000E-03 0. -1.
        -11    1    3    3    0    0 -0.26046721660E+00  0.37674752653E+00  0.10475851802E+02  0.10485859675E+02  0.51100000000E-03 0.  1.
         12    1    3    3    0    0  0.11743440900E+02  0.34697186582E+02 -0.92750197563E+01  0.37786626633E+02  0.00000000000E+00 0. -1.
</event>
<event>
 7    1  0.2688173E-013  0.7246170E+02  0.7816164E-02  0.1226708E+00
        -11   -1    0    0    0    0  0.00000000000E+00  0.00000000000E+00  0.45593999997E+02  0.45594000000E+02  0.51100000000E-03 0.  1.
         11   -1    0    0    0    0 -0.00000000000E+00 -0.00000000000E+00 -0.45593999997E+02  0.45594000000E+02  0.51100000000E-03 0. -1.
    9900012    2    1    2    0    0 -0.12701088136E+01 -0.18503954041E+02 -0.25816551018E+01  0.72461696718E+02  0.70000164690E+02 0.  0.
        -12    1    1    2    0    0  0.12701088136E+01  0.18503954041E+02  0.25816551018E+01  0.18726303282E+02  0.00000000000E+00 0.  1.
         11    1    3    3    0    0 -0.68721242519E+01 -0.25185001584E+02 -0.12103374734E+02  0.28775025226E+02  0.51100000000E-03 0. -1.
        -11    1    3    3    0    0  0.87932441271E+00 -0.13246267216E+01 -0.16230593788E+02  0.16308280790E+02  0.51100000000E-03 0.  1.
        -12    1    3    3    0    0  0.47226910256E+01  0.80056742645E+01  0.25752313420E+02  0.27378390702E+02  0.00000000000E+00 0.  1.
</event>
<event>
 7    1  0.2688173E-013  0.7246156E+02  0.7816164E-02  0.1226708E+00
        -11   -1    0    0    0    0  0.00000000000E+00  0.00000000000E+00  0.45593999997E+02  0.45594000000E+02  0.51100000000E-03 0.  1.
         11   -1    0    0    0    0 -0.00000000000E+00 -0.00000000000E+00 -0.45593999997E+02  0.45594000000E+02  0.51100000000E-03 0. -1.
    9900012    2    1    2    0    0  0.37270719521E+00 -0.17326437861E+02  0.70947179952E+01  0.72461564593E+02  0.69999992573E+02 0.  0.
        -12    1    1    2    0    0 -0.37270719521E+00  0.17326437861E+02 -0.70947179952E+01  0.18726435407E+02  0.00000000000E+00 0.  1.
         11    1    3    3    0    0  0.14214011194E+00 -0.14704286887E+02  0.16764950118E+02  0.22300219941E+02  0.51100000000E-03 0.  1.
        -11    1    3    3    0    0 -0.23011746899E+02 -0.37078705346E+01 -0.12948796495E+02  0.26663835624E+02  0.51100000000E-03 0. -1.
        -12    1    3    3    0    0  0.23242313982E+02  0.10857195604E+01  0.32785643718E+01  0.23497509029E+02  0.00000000000E+00 0.  1.
</event>
<event>
 7    1  0.2688173E-013  0.7246161E+02  0.7816164E-02  0.1226708E+00
        -11   -1    0    0    0    0  0.00000000000E+00  0.00000000000E+00  0.45593999997E+02  0.45594000000E+02  0.51100000000E-03 0.  1.
         11   -1    0    0    0    0 -0.00000000000E+00 -0.00000000000E+00 -0.45593999997E+02  0.45594000000E+02  0.51100000000E-03 0. -1.
    9900012    2    1    2    0    0 -0.14954867487E+01  0.13205005191E+01 -0.18619819156E+02  0.72461605055E+02  0.70000045282E+02 0.  0.
        -12    1    1    2    0    0  0.14954867487E+01 -0.13205005191E+01  0.18619819156E+02  0.18726394945E+02  0.00000000000E+00 0.  1.
         11    1    3    3    0    0 -0.23300757436E+01 -0.11087147635E+02 -0.36425851118E+02  0.38147040849E+02  0.51100000000E-03 0. -1.
        -11    1    3    3    0    0  0.63124743895E+01  0.47210580345E+01 -0.52028863514E+01  0.94448794873E+01  0.51100000000E-03 0.  1.
        -12    1    3    3    0    0 -0.54778853947E+01  0.76865901194E+01  0.23008918313E+02  0.24869684718E+02  0.00000000000E+00 0.  1.
</event>
<event>
 7    1  0.2688173E-013  0.7246169E+02  0.7816164E-02  0.1226708E+00
        -11   -1    0    0    0    0  0.00000000000E+00  0.00000000000E+00  0.45593999997E+02  0.45594000000E+02  0.51100000000E-03 0.  1.
         11   -1    0    0    0    0 -0.00000000000E+00 -0.00000000000E+00 -0.45593999997E+02  0.45594000000E+02  0.51100000000E-03 0. -1.
    9900012    2    1    2    0    0  0.57683023888E+01  0.11804579919E+02 -0.13343658030E+02  0.72461691524E+02  0.70000157924E+02 0.  0.
        -12    1    1    2    0    0 -0.57683023888E+01 -0.11804579919E+02  0.13343658030E+02  0.18726308476E+02  0.00000000000E+00 0.  1.
         11    1    3    3    0    0 -0.15668723940E+02  0.11305442163E+02  0.83203324619E+01  0.21036869181E+02  0.51100000000E-03 0. -1.
        -11    1    3    3    0    0 -0.91884494336E+01 -0.10632722754E+02 -0.64646440593E+01  0.15468484710E+02  0.51100000000E-03 0.  1.
        -12    1    3    3    0    0  0.30625475762E+02  0.11131860510E+02 -0.15199346432E+02  0.35956337634E+02  0.00000000000E+00 0.  1.
</event>
<event>
 7    1  0.2688173E-013  0.7246133E+02  0.7816164E-02  0.1226709E+00
        -11   -1    0    0    0    0  0.00000000000E+00  0.00000000000E+00  0.45593999997E+02  0.45594000000E+02  0.51100000000E-03 0.  1.
         11   -1    0    0    0    0 -0.00000000000E+00 -0.00000000000E+00 -0.45593999997E+02  0.45594000000E+02  0.51100000000E-03 0. -1.
    9900012    2    1    2    0    0  0.53358553949E+01  0.11548637484E+02 -0.13742111594E+02  0.72461334211E+02  0.69999692457E+02 0.  0.
        -12    1    1    2    0    0 -0.53358553949E+01 -0.11548637484E+02  0.13742111594E+02  0.18726665789E+02  0.00000000000E+00 0.  1.
         11    1    3    3    0    0 -0.94518091952E+01 -0.16636415351E+02 -0.25173145263E+02  0.31619523328E+02  0.51100000000E-03 0. -1.
        -11    1    3    3    0    0  0.62908227278E+01  0.58063840987E+01  0.14367794479E+02  0.16724893582E+02  0.51100000000E-03 0.  1.
        -12    1    3    3    0    0  0.84968418623E+01  0.22378668736E+02 -0.29367608094E+01  0.24116917301E+02  0.00000000000E+00 0.  1.
</event>
<event>
 7    1  0.2688173E-013  0.7246162E+02  0.7816164E-02  0.1226708E+00
        -11   -1    0    0    0    0  0.00000000000E+00  0.00000000000E+00  0.45593999997E+02  0.45594000000E+02  0.51100000000E-03 0.  1.
         11   -1    0    0    0    0 -0.00000000000E+00 -0.00000000000E+00 -0.45593999997E+02  0.45594000000E+02  0.51100000000E-03 0. -1.
    9900012    2    1    2    0    0  0.37070240652E-01  0.54111379712E+01 -0.17927502972E+02  0.72461624185E+02  0.70000070202E+02 0.  0.
        -12    1    1    2    0    0 -0.37070240652E-01 -0.54111379712E+01  0.17927502972E+02  0.18726375815E+02  0.00000000000E+00 0.  1.
         11    1    3    3    0    0 -0.77622258931E+01  0.16242941420E+02  0.54164523867E+01  0.18799554610E+02  0.51100000000E-03 0. -1.
        -11    1    3    3    0    0 -0.16075695990E+02 -0.24502999422E+01  0.36467669556E+01  0.16665259699E+02  0.51100000000E-03 0.  1.
         12    1    3    3    0    0  0.23874992123E+02 -0.83815035071E+01 -0.26990722315E+02  0.36996809876E+02  0.00000000000E+00 0. -1.
</event>
<event>
 7    1  0.2688173E-013  0.7246153E+02  0.7816164E-02  0.1226708E+00
        -11   -1    0    0    0    0  0.00000000000E+00  0.00000000000E+00  0.45593999997E+02  0.45594000000E+02  0.51100000000E-03 0.  1.
         11   -1    0    0    0    0 -0.00000000000E+00 -0.00000000000E+00 -0.45593999997E+02  0.45594000000E+02  0.51100000000E-03 0. -1.
    9900012    2    1    2    0    0 -0.51342092876E+01 -0.16131011939E+02  0.80069333972E+01  0.72461531203E+02  0.69999949076E+02 0.  0.
        -12    1    1    2    0    0  0.51342092876E+01  0.16131011939E+02 -0.80069333972E+01  0.18726468797E+02  0.00000000000E+00 0.  1.
         11    1    3    3    0    0 -0.30531790094E+02  0.62190174926E+01  0.54121039659E+01  0.31625262916E+02  0.51100000000E-03 0.  1.
        -11    1    3    3    0    0  0.84544503191E+01  0.15059255650E+01 -0.58389940134E+01  0.10384574780E+02  0.51100000000E-03 0. -1.
        -12    1    3    3    0    0  0.16943130488E+02 -0.23855954997E+02  0.84338234447E+01  0.30451693507E+02  0.00000000000E+00 0.  1.
</event>
<event>
 7    1  0.2688173E-013  0.7246224E+02  0.7816164E-02  0.1226706E+00
        -11   -1    0    0    0    0  0.00000000000E+00  0.00000000000E+00  0.45593999997E+02  0.45594000000E+02  0.51100000000E-03 0.  1.
         11   -1    0    0    0    0 -0.00000000000E+00 -0.00000000000E+00 -0.45593999997E+02  0.45594000000E+02  0.51100000000E-03 0. -1.
    9900012    2    1    2    0    0  0.42402786740E+00 -0.32597451774E+01 -0.18434975573E+02  0.72462240666E+02  0.70000873279E+02 0.  0.
        -12    1    1    2    0    0 -0.42402786740E+00  0.32597451774E+01  0.18434975573E+02  0.18725759334E+02  0.00000000000E+00 0.  1.
         11    1    3    3    0    0 -0.30956701166E+02 -0.63231543580E+01 -0.17718005815E+02  0.36224678859E+02  0.51100000000E-03 0. -1.
        -11    1    3    3    0    0  0.67252108477E+01  0.59173535525E+01 -0.61035959380E+01  0.10839622579E+02  0.51100000000E-03 0.  1.
        -12    1    3    3    0    0  0.24655518186E+02 -0.28539443719E+01  0.53866261800E+01  0.25397939229E+02  0.00000000000E+00 0.  1.
</event>
<event>
 7    1  0.2688173E-013  0.7246157E+02  0.7816164E-02  0.1226708E+00
        -11   -1    0    0    0    0  0.00000000000E+00  0.00000000000E+00  0.45593999997E+02  0.45594000000E+02  0.51100000000E-03 0.  1.
         11   -1    0    0    0    0 -0.00000000000E+00 -0.00000000000E+00 -0.45593999997E+02  0.45594000000E+02  0.51100000000E-03 0. -1.
    9900012    2    1    2    0    0 -0.28935984170E+01 -0.46137221871E+01 -0.17917026596E+02  0.72461569847E+02  0.69999999418E+02 0.  0.
        -12    1    1    2    0    0  0.28935984170E+01  0.46137221871E+01  0.17917026596E+02  0.18726430153E+02  0.00000000000E+00 0.  1.
         11    1    3    3    0    0  0.10821939812E+02  0.24442100907E+01  0.27415209596E+01  0.11428231784E+02  0.51100000000E-03 0. -1.
        -11    1    3    3    0    0  0.12473180257E+02 -0.65207425133E+00  0.12920170837E+02  0.17970426853E+02  0.51100000000E-03 0.  1.
         12    1    3    3    0    0 -0.26188718487E+02 -0.64058580265E+01 -0.33578718393E+02  0.43062911211E+02  0.00000000000E+00 0. -1.
</event>
<event>
 7    1  0.2688173E-013  0.7246156E+02  0.7816164E-02  0.1226708E+00
        -11   -1    0    0    0    0  0.00000000000E+00  0.00000000000E+00  0.45593999997E+02  0.45594000000E+02  0.51100000000E-03 0.  1.
         11   -1    0    0    0    0 -0.00000000000E+00 -0.00000000000E+00 -0.45593999997E+02  0.45594000000E+02  0.51100000000E-03 0. -1.
    9900012    2    1    2    0    0 -0.94403113559E+01 -0.16027635961E+02 -0.21622017380E+01  0.72461555881E+02  0.69999981223E+02 0.  0.
        -12    1    1    2    0    0  0.94403113559E+01  0.16027635961E+02  0.21622017380E+01  0.18726444119E+02  0.00000000000E+00 0.  1.
         11    1    3    3    0    0 -0.23890151233E+02 -0.10736711325E+02  0.14322416825E+01  0.26231042917E+02  0.51100000000E-03 0. -1.
        -11    1    3    3    0    0  0.82446467633E+01 -0.24134973711E+02 -0.61273678042E+01  0.26230055142E+02  0.51100000000E-03 0.  1.
         12    1    3    3    0    0  0.62051931142E+01  0.18844049075E+02  0.25329243836E+01  0.20000457821E+02  0.00000000000E+00 0. -1.
</event>
<event>
 7    1  0.2688173E-013  0.7246145E+02  0.7816164E-02  0.1226708E+00
        -11   -1    0    0    0    0  0.00000000000E+00  0.00000000000E+00  0.45593999997E+02  0.45594000000E+02  0.51100000000E-03 0. -1.
         11   -1    0    0    0    0 -0.00000000000E+00 -0.00000000000E+00 -0.45593999997E+02  0.45594000000E+02  0.51100000000E-03 0.  1.
    9900012    2    1    2    0    0  0.16253362282E+02 -0.86290642142E+01 -0.34714564113E+01  0.72461453487E+02  0.69999847836E+02 0.  0.
        -12    1    1    2    0    0 -0.16253362282E+02  0.86290642142E+01  0.34714564113E+01  0.18726546513E+02  0.00000000000E+00 0.  1.
         11    1    3    3    0    0 -0.67588239438E+01 -0.56368954362E+01 -0.13406961542E+02  0.16037546861E+02  0.51100000000E-03 0. -1.
        -11    1    3    3    0    0  0.49362395990E+01  0.63985167929E+01 -0.19224405421E+02  0.20853902334E+02  0.51100000000E-03 0.  1.
         12    1    3    3    0    0  0.18075946627E+02 -0.93906855709E+01  0.29159910551E+02  0.35570004292E+02  0.00000000000E+00 0. -1.
</event>
<event>
 7    1  0.2688173E-013  0.7246154E+02  0.7816164E-02  0.1226708E+00
        -11   -1    0    0    0    0  0.00000000000E+00  0.00000000000E+00  0.45593999997E+02  0.45594000000E+02  0.51100000000E-03 0.  1.
         11   -1    0    0    0    0 -0.00000000000E+00 -0.00000000000E+00 -0.45593999997E+02  0.45594000000E+02  0.51100000000E-03 0. -1.
    9900012    2    1    2    0    0 -0.18165455494E+02 -0.45168081163E+01  0.54317396112E+00  0.72461538326E+02  0.69999958355E+02 0.  0.
        -12    1    1    2    0    0  0.18165455494E+02  0.45168081163E+01 -0.54317396112E+00  0.18726461674E+02  0.00000000000E+00 0.  1.
         11    1    3    3    0    0 -0.69660278861E+01  0.51070787534E+01  0.12895187701E+02  0.15520749467E+02  0.51100000000E-03 0. -1.
        -11    1    3    3    0    0  0.45132999598E+01  0.13275528560E+02 -0.23214250711E+02  0.27120305519E+02  0.51100000000E-03 0.  1.
         12    1    3    3    0    0 -0.15712727568E+02 -0.22899415430E+02  0.10862236972E+02  0.29820483341E+02  0.00000000000E+00 0. -1.
</event>
<event>
 7    1  0.2688173E-013  0.7246162E+02  0.7816164E-02  0.1226708E+00
        -11   -1    0    0    0    0  0.00000000000E+00  0.00000000000E+00  0.45593999997E+02  0.45594000000E+02  0.51100000000E-03 0.  1.
         11   -1    0    0    0    0 -0.00000000000E+00 -0.00000000000E+00 -0.45593999997E+02  0.45594000000E+02  0.51100000000E-03 0. -1.
    9900012    2    1    2    0    0 -0.71174998278E+01  0.13309146657E+01 -0.17269837507E+02  0.72461616869E+02  0.70000060672E+02 0.  0.
        -12    1    1    2    0    0  0.71174998278E+01 -0.13309146657E+01  0.17269837507E+02  0.18726383131E+02  0.00000000000E+00 0.  1.
         11    1    3    3    0    0  0.99381286575E+00 -0.55250507228E+01 -0.50617930556E+01  0.75588093441E+01  0.51100000000E-03 0. -1.
        -11    1    3    3    0    0  0.69558212176E+01 -0.26332244648E+02 -0.38229331782E+01  0.27502461260E+02  0.51100000000E-03 0.  1.
        -12    1    3    3    0    0 -0.15067133911E+02  0.33188210036E+02 -0.83851112732E+01  0.37400346265E+02  0.00000000000E+00 0.  1.
</event>
<event>
 7    1  0.2688173E-013  0.7246158E+02  0.7816164E-02  0.1226708E+00
        -11   -1    0    0    0    0  0.00000000000E+00  0.00000000000E+00  0.45593999997E+02  0.45594000000E+02  0.51100000000E-03 0.  1.
         11   -1    0    0    0    0 -0.00000000000E+00 -0.00000000000E+00 -0.45593999997E+02  0.45594000000E+02  0.51100000000E-03 0. -1.
    9900012    2    1    2    0    0 -0.41140290672E+01  0.15846882712E+01 -0.18200066449E+02  0.72461577735E+02  0.70000009693E+02 0.  0.
        -12    1    1    2    0    0  0.41140290672E+01 -0.15846882712E+01  0.18200066449E+02  0.18726422265E+02  0.00000000000E+00 0.  1.
         11    1    3    3    0    0  0.16488038463E+02  0.23154717216E+02 -0.46113797120E+01  0.28796895055E+02  0.51100000000E-03 0. -1.
        -11    1    3    3    0    0  0.13382582116E+01  0.19340199097E+00 -0.12675811571E+02  0.12747726802E+02  0.51100000000E-03 0.  1.
        -12    1    3    3    0    0 -0.21940325742E+02 -0.21763430935E+02 -0.91287516580E+00  0.30916955879E+02  0.00000000000E+00 0.  1.
</event>
<event>
 7    1  0.2688173E-013  0.7246161E+02  0.7816164E-02  0.1226708E+00
        -11   -1    0    0    0    0  0.00000000000E+00  0.00000000000E+00  0.45593999997E+02  0.45594000000E+02  0.51100000000E-03 0.  1.
         11   -1    0    0    0    0 -0.00000000000E+00 -0.00000000000E+00 -0.45593999997E+02  0.45594000000E+02  0.51100000000E-03 0. -1.
    9900012    2    1    2    0    0 -0.14453213954E+02 -0.82238545962E+01 -0.86110666583E+01  0.72461610945E+02  0.70000052956E+02 0.  0.
        -12    1    1    2    0    0  0.14453213954E+02  0.82238545962E+01  0.86110666583E+01  0.18726389055E+02  0.00000000000E+00 0.  1.
         11    1    3    3    0    0 -0.28600542421E+02 -0.11847386988E+02 -0.29030666324E+02  0.42439736011E+02  0.51100000000E-03 0. -1.
        -11    1    3    3    0    0 -0.16967677872E+01 -0.27304764416E+01 -0.23812981772E+00  0.32235428635E+01  0.51100000000E-03 0.  1.
        -12    1    3    3    0    0  0.15844096254E+02  0.63540088330E+01  0.20657729483E+02  0.26798332071E+02  0.00000000000E+00 0.  1.
</event>
<event>
 7    1  0.2688173E-013  0.7246180E+02  0.7816164E-02  0.1226707E+00
        -11   -1    0    0    0    0  0.00000000000E+00  0.00000000000E+00  0.45593999997E+02  0.45594000000E+02  0.51100000000E-03 0. -1.
         11   -1    0    0    0    0 -0.00000000000E+00 -0.00000000000E+00 -0.45593999997E+02  0.45594000000E+02  0.51100000000E-03 0.  1.
    9900012    2    1    2    0    0 -0.77997001234E+01 -0.54381673978E+01  0.16132629731E+02  0.72461795667E+02  0.70000293590E+02 0.  0.
        -12    1    1    2    0    0  0.77997001234E+01  0.54381673978E+01 -0.16132629731E+02  0.18726204333E+02  0.00000000000E+00 0.  1.
         11    1    3    3    0    0 -0.64323881128E+01 -0.31188645357E+02  0.18460829508E+02  0.36809094561E+02  0.51100000000E-03 0. -1.
        -11    1    3    3    0    0  0.52391572905E+01 -0.21188825101E+01 -0.40601611141E+01  0.69586881479E+01  0.51100000000E-03 0.  1.
        -12    1    3    3    0    0 -0.66064693011E+01  0.27869360469E+02  0.17319613377E+01  0.28694012959E+02  0.00000000000E+00 0.  1.
</event>
<event>
 7    1  0.2688173E-013  0.7246158E+02  0.7816164E-02  0.1226708E+00
        -11   -1    0    0    0    0  0.00000000000E+00  0.00000000000E+00  0.45593999997E+02  0.45594000000E+02  0.51100000000E-03 0. -1.
         11   -1    0    0    0    0 -0.00000000000E+00 -0.00000000000E+00 -0.45593999997E+02  0.45594000000E+02  0.51100000000E-03 0.  1.
    9900012    2    1    2    0    0  0.54438425904E+01  0.17851993921E+02 -0.15329113744E+01  0.72461576786E+02  0.70000008457E+02 0.  0.
        -12    1    1    2    0    0 -0.54438425904E+01 -0.17851993921E+02  0.15329113744E+01  0.18726423214E+02  0.00000000000E+00 0.  1.
         11    1    3    3    0    0 -0.55539524513E+01  0.12710989776E+01 -0.18839172621E+02  0.19681882678E+02  0.51100000000E-03 0. -1.
        -11    1    3    3    0    0 -0.89887592040E+01  0.17177250491E+02 -0.76145170601E+01  0.20828744484E+02  0.51100000000E-03 0.  1.
         12    1    3    3    0    0  0.19986554246E+02 -0.59635554737E+00  0.24920778306E+02  0.31950949625E+02  0.00000000000E+00 0. -1.
</event>
<event>
 7    1  0.2688173E-013  0.7246155E+02  0.7816164E-02  0.1226708E+00
        -11   -1    0    0    0    0  0.00000000000E+00  0.00000000000E+00  0.45593999997E+02  0.45594000000E+02  0.51100000000E-03 0.  1.
         11   -1    0    0    0    0 -0.00000000000E+00 -0.00000000000E+00 -0.45593999997E+02  0.45594000000E+02  0.51100000000E-03 0. -1.
    9900012    2    1    2    0    0  0.11641546818E+02  0.63901232093E+01  0.13203053176E+02  0.72461550787E+02  0.69999974588E+02 0.  0.
        -12    1    1    2    0    0 -0.11641546818E+02 -0.63901232093E+01 -0.13203053176E+02  0.18726449213E+02  0.00000000000E+00 0.  1.
         11    1    3    3    0    0 -0.15390908704E+02 -0.19844883972E+01  0.91027640153E+01  0.17991069394E+02  0.51100000000E-03 0. -1.
        -11    1    3    3    0    0 -0.11670537483E+02  0.79977026163E+01  0.67487418840E+01  0.15675146237E+02  0.51100000000E-03 0.  1.
        -12    1    3    3    0    0  0.38702993006E+02  0.37690899014E+00 -0.26484527228E+01  0.38795335156E+02  0.00000000000E+00 0.  1.
</event>
<event>
 7    1  0.2688173E-013  0.7246156E+02  0.7816164E-02  0.1226708E+00
        -11   -1    0    0    0    0  0.00000000000E+00  0.00000000000E+00  0.45593999997E+02  0.45594000000E+02  0.51100000000E-03 0.  1.
         11   -1    0    0    0    0 -0.00000000000E+00 -0.00000000000E+00 -0.45593999997E+02  0.45594000000E+02  0.51100000000E-03 0. -1.
    9900012    2    1    2    0    0  0.27309329768E+01 -0.18135273730E+02  0.37859576409E+01  0.72461558175E+02  0.69999984212E+02 0.  0.
        -12    1    1    2    0    0 -0.27309329768E+01  0.18135273730E+02 -0.37859576409E+01  0.18726441825E+02  0.00000000000E+00 0.  1.
         11    1    3    3    0    0 -0.51820964159E+01  0.32342808156E+01 -0.56224118398E+00  0.61343957378E+01  0.51100000000E-03 0. -1.
        -11    1    3    3    0    0 -0.16211318760E+02  0.14516676339E+02  0.73835641463E+01  0.22979507558E+02  0.51100000000E-03 0.  1.
         12    1    3    3    0    0  0.24124348152E+02 -0.35886230884E+02 -0.30353653214E+01  0.43347654879E+02  0.00000000000E+00 0. -1.
</event>
<event>
 7    1  0.2688173E-013  0.7246158E+02  0.7816164E-02  0.1226708E+00
        -11   -1    0    0    0    0  0.00000000000E+00  0.00000000000E+00  0.45593999997E+02  0.45594000000E+02  0.51100000000E-03 0.  1.
         11   -1    0    0    0    0 -0.00000000000E+00 -0.00000000000E+00 -0.45593999997E+02  0.45594000000E+02  0.51100000000E-03 0. -1.
    9900012    2    1    2    0    0 -0.24928583288E+01 -0.13342444544E+02 -0.12901302482E+02  0.72461580834E+02  0.70000013730E+02 0.  0.
        -12    1    1    2    0    0  0.24928583288E+01  0.13342444544E+02  0.12901302482E+02  0.18726419166E+02  0.00000000000E+00 0.  1.
         11    1    3    3    0    0  0.33544748749E+01 -0.25818017593E+02 -0.44990077123E+01  0.26420893338E+02  0.51100000000E-03 0. -1.
        -11    1    3    3    0    0  0.21740260235E+01 -0.15745651261E+02 -0.21098307466E+01  0.16034441332E+02  0.51100000000E-03 0.  1.
        -12    1    3    3    0    0 -0.80213592273E+01  0.28221224310E+02 -0.62924640231E+01  0.30006246165E+02  0.00000000000E+00 0.  1.
</event>
<event>
 7    1  0.2688173E-013  0.7246158E+02  0.7816164E-02  0.1226708E+00
        -11   -1    0    0    0    0  0.00000000000E+00  0.00000000000E+00  0.45593999997E+02  0.45594000000E+02  0.51100000000E-03 0. -1.
         11   -1    0    0    0    0 -0.00000000000E+00 -0.00000000000E+00 -0.45593999997E+02  0.45594000000E+02  0.51100000000E-03 0.  1.
    9900012    2    1    2    0    0  0.94718800270E+01  0.15170226095E+02  0.55521495934E+01  0.72461584536E+02  0.70000018553E+02 0.  0.
        -12    1    1    2    0    0 -0.94718800270E+01 -0.15170226095E+02 -0.55521495934E+01  0.18726415464E+02  0.00000000000E+00 0.  1.
         11    1    3    3    0    0 -0.24804116939E+01 -0.87924287480E+01 -0.10547452512E+02  0.13953780857E+02  0.51100000000E-03 0.  1.
        -11    1    3    3    0    0  0.15037167738E+02 -0.67451100433E+01 -0.89544620055E+01  0.18756207323E+02  0.51100000000E-03 0. -1.
         12    1    3    3    0    0 -0.30848760169E+01  0.30707764886E+02  0.25054064111E+02  0.39751596356E+02  0.00000000000E+00 0. -1.
</event>
<event>
 7    1  0.2688173E-013  0.7246160E+02  0.7816164E-02  0.1226708E+00
        -11   -1    0    0    0    0  0.00000000000E+00  0.00000000000E+00  0.45593999997E+02  0.45594000000E+02  0.51100000000E-03 0.  1.
         11   -1    0    0    0    0 -0.00000000000E+00 -0.00000000000E+00 -0.45593999997E+02  0.45594000000E+02  0.51100000000E-03 0. -1.
    9900012    2    1    2    0    0  0.10579638686E+02  0.27951306128E+01 -0.15196597401E+02  0.72461599319E+02  0.70000037811E+02 0.  0.
        -12    1    1    2    0    0 -0.10579638686E+02 -0.27951306128E+01  0.15196597401E+02  0.18726400681E+02  0.00000000000E+00 0.  1.
         11    1    3    3    0    0 -0.16537067963E+02 -0.57587162418E+01 -0.25568576377E+01  0.17696749725E+02  0.51100000000E-03 0. -1.
        -11    1    3    3    0    0  0.46937222227E+01 -0.17286727784E+02  0.98288613779E+00  0.17939566640E+02  0.51100000000E-03 0.  1.
         12    1    3    3    0    0  0.22422984427E+02  0.25840574639E+02 -0.13622625901E+02  0.36825282955E+02  0.00000000000E+00 0. -1.
</event>
<event>
 7    1  0.2688173E-013  0.7246161E+02  0.7816164E-02  0.1226708E+00
        -11   -1    0    0    0    0  0.00000000000E+00  0.00000000000E+00  0.45593999997E+02  0.45594000000E+02  0.51100000000E-03 0.  1.
         11   -1    0    0    0    0 -0.00000000000E+00 -0.00000000000E+00 -0.45593999997E+02  0.45594000000E+02  0.51100000000E-03 0. -1.
    9900012    2    1    2    0    0  0.72652428198E+01 -0.13928456186E+02  0.10192748672E+02  0.72461607650E+02  0.70000048663E+02 0.  0.
        -12    1    1    2    0    0 -0.72652428198E+01  0.13928456186E+02 -0.10192748672E+02  0.18726392350E+02  0.00000000000E+00 0.  1.
         11    1    3    3    0    0  0.21319298433E+01  0.84210016861E+01 -0.89943484125E+01  0.12504267187E+02  0.51100000000E-03 0. -1.
        -11    1    3    3    0    0  0.12732039944E+02 -0.12904049619E+02 -0.15098300215E+02  0.23591905547E+02  0.51100000000E-03 0.  1.
        -12    1    3    3    0    0 -0.75987269676E+01 -0.94454082532E+01  0.34285397300E+02  0.36365434916E+02  0.00000000000E+00 0.  1.
</event>
<event>
 7    1  0.2688173E-013  0.7246157E+02  0.7816164E-02  0.1226708E+00
        -11   -1    0    0    0    0  0.00000000000E+00  0.00000000000E+00  0.45593999997E+02  0.45594000000E+02  0.51100000000E-03 0.  1.
         11   -1    0    0    0    0 -0.00000000000E+00 -0.00000000000E+00 -0.45593999997E+02  0.45594000000E+02  0.51100000000E-03 0. -1.
    9900012    2    1    2    0    0 -0.11419069691E+02 -0.12770114653E+02 -0.75635992416E+01  0.72461574438E+02  0.70000005398E+02 0.  0.
        -12    1    1    2    0    0  0.11419069691E+02  0.12770114653E+02  0.75635992416E+01  0.18726425562E+02  0.00000000000E+00 0.  1.
         11    1    3    3    0    0  0.21949438734E+02 -0.25573288361E+01 -0.20555298338E+02  0.30180094128E+02  0.51100000000E-03 0.  1.
        -11    1    3    3    0    0 -0.54221200863E+01 -0.56844987113E+01  0.11505522672E+02  0.13931617424E+02  0.51100000000E-03 0. -1.
        -12    1    3    3    0    0 -0.27946388339E+02 -0.45282871057E+01  0.14861764243E+01  0.28349862886E+02  0.00000000000E+00 0.  1.
</event>
<event>
 7    1  0.2688173E-013  0.7246163E+02  0.7816164E-02  0.1226708E+00
        -11   -1    0    0    0    0  0.00000000000E+00  0.00000000000E+00  0.45593999997E+02  0.45594000000E+02  0.51100000000E-03 0. -1.
         11   -1    0    0    0    0 -0.00000000000E+00 -0.00000000000E+00 -0.45593999997E+02  0.45594000000E+02  0.51100000000E-03 0.  1.
    9900012    2    1    2    0    0 -0.43710744405E+01 -0.17016150204E+02  0.64823695251E+01  0.72461634250E+02  0.70000083314E+02 0.  0.
        -12    1    1    2    0    0  0.43710744405E+01  0.17016150204E+02 -0.64823695251E+01  0.18726365750E+02  0.00000000000E+00 0.  1.
         11    1    3    3    0    0 -0.23499385008E+01 -0.61437177629E+01  0.10372064865E+02  0.12281987165E+02  0.51100000000E-03 0. -1.
        -11    1    3    3    0    0  0.27334820894E+02  0.25291500419E+01 -0.49385862123E+01  0.27892268952E+02  0.51100000000E-03 0.  1.
         12    1    3    3    0    0 -0.29355956834E+02 -0.13401582483E+02  0.10488908727E+01  0.32287378133E+02  0.00000000000E+00 0. -1.
</event>
<event>
 7    1  0.2688173E-013  0.7246153E+02  0.7816164E-02  0.1226708E+00
        -11   -1    0    0    0    0  0.00000000000E+00  0.00000000000E+00  0.45593999997E+02  0.45594000000E+02  0.51100000000E-03 0. -1.
         11   -1    0    0    0    0 -0.00000000000E+00 -0.00000000000E+00 -0.45593999997E+02  0.45594000000E+02  0.51100000000E-03 0.  1.
    9900012    2    1    2    0    0  0.73156770557E+01 -0.14681278676E+02  0.90344775078E+01  0.72461525207E+02  0.69999941265E+02 0.  0.
        -12    1    1    2    0    0 -0.73156770557E+01  0.14681278676E+02 -0.90344775078E+01  0.18726474793E+02  0.00000000000E+00 0.  1.
         11    1    3    3    0    0  0.20813675736E+01 -0.11030527148E+02 -0.69759800831E+00  0.11246833483E+02  0.51100000000E-03 0. -1.
        -11    1    3    3    0    0  0.14434682752E+02 -0.22343148545E+02 -0.13649367028E+02  0.29897852324E+02  0.51100000000E-03 0.  1.
         12    1    3    3    0    0 -0.92003732704E+01  0.18692397017E+02  0.23381442544E+02  0.31316839400E+02  0.00000000000E+00 0. -1.
</event>
<event>
 7    1  0.2688173E-013  0.7246157E+02  0.7816164E-02  0.1226708E+00
        -11   -1    0    0    0    0  0.00000000000E+00  0.00000000000E+00  0.45593999997E+02  0.45594000000E+02  0.51100000000E-03 0. -1.
         11   -1    0    0    0    0 -0.00000000000E+00 -0.00000000000E+00 -0.45593999997E+02  0.45594000000E+02  0.51100000000E-03 0.  1.
    9900012    2    1    2    0    0  0.12849008939E+00  0.85452234675E+01  0.16662589514E+02  0.72461568329E+02  0.69999997440E+02 0.  0.
        -12    1    1    2    0    0 -0.12849008939E+00 -0.85452234675E+01 -0.16662589514E+02  0.18726431671E+02  0.00000000000E+00 0.  1.
         11    1    3    3    0    0 -0.23667418948E+01  0.79257543229E-02 -0.36002813392E+01  0.43085445335E+01  0.51100000000E-03 0. -1.
        -11    1    3    3    0    0 -0.21957064017E+02 -0.15458347607E+02 -0.25801234593E+01  0.26976475091E+02  0.51100000000E-03 0.  1.
         12    1    3    3    0    0  0.24452296001E+02  0.23995645320E+02  0.22842994313E+02  0.41176548705E+02  0.00000000000E+00 0. -1.
</event>
<event>
 7    1  0.2688173E-013  0.7246157E+02  0.7816164E-02  0.1226708E+00
        -11   -1    0    0    0    0  0.00000000000E+00  0.00000000000E+00  0.45593999997E+02  0.45594000000E+02  0.51100000000E-03 0. -1.
         11   -1    0    0    0    0 -0.00000000000E+00 -0.00000000000E+00 -0.45593999997E+02  0.45594000000E+02  0.51100000000E-03 0.  1.
    9900012    2    1    2    0    0  0.12032909073E+02  0.82743897377E+01  0.11722743405E+02  0.72461571103E+02  0.70000001054E+02 0.  0.
        -12    1    1    2    0    0 -0.12032909073E+02 -0.82743897377E+01 -0.11722743405E+02  0.18726428897E+02  0.00000000000E+00 0.  1.
         11    1    3    3    0    0 -0.68683788978E+01 -0.74580568087E+01  0.18177714966E+02  0.20814095265E+02  0.51100000000E-03 0. -1.
        -11    1    3    3    0    0 -0.80772040738E+01  0.17830932362E+02  0.77886792442E+01  0.21067674271E+02  0.51100000000E-03 0.  1.
        -12    1    3    3    0    0  0.26978492044E+02 -0.20984858154E+01 -0.14243650805E+02  0.30579801568E+02  0.00000000000E+00 0.  1.
</event>
<event>
 7    1  0.2688173E-013  0.7246158E+02  0.7816164E-02  0.1226708E+00
        -11   -1    0    0    0    0  0.00000000000E+00  0.00000000000E+00  0.45593999997E+02  0.45594000000E+02  0.51100000000E-03 0. -1.
         11   -1    0    0    0    0 -0.00000000000E+00 -0.00000000000E+00 -0.45593999997E+02  0.45594000000E+02  0.51100000000E-03 0.  1.
    9900012    2    1    2    0    0  0.10055648809E+02 -0.11814833798E+02  0.10486780464E+02  0.72461576553E+02  0.70000008153E+02 0.  0.
        -12    1    1    2    0    0 -0.10055648809E+02  0.11814833798E+02 -0.10486780464E+02  0.18726423447E+02  0.00000000000E+00 0.  1.
         11    1    3    3    0    0 -0.16062868210E+02 -0.67544246243E+01  0.11933648511E+01  0.17466027226E+02  0.51100000000E-03 0. -1.
        -11    1    3    3    0    0 -0.23990686204E+01 -0.21220091973E+02  0.50490230778E+01  0.21944030347E+02  0.51100000000E-03 0.  1.
        -12    1    3    3    0    0  0.28517585639E+02  0.16159682800E+02  0.42443925349E+01  0.33051518979E+02  0.00000000000E+00 0.  1.
</event>
<event>
 7    1  0.2688173E-013  0.7246156E+02  0.7816164E-02  0.1226708E+00
        -11   -1    0    0    0    0  0.00000000000E+00  0.00000000000E+00  0.45593999997E+02  0.45594000000E+02  0.51100000000E-03 0.  1.
         11   -1    0    0    0    0 -0.00000000000E+00 -0.00000000000E+00 -0.45593999997E+02  0.45594000000E+02  0.51100000000E-03 0. -1.
    9900012    2    1    2    0    0 -0.44988636376E+01 -0.15927305928E+02 -0.87613185505E+01  0.72461560112E+02  0.69999986735E+02 0.  0.
        -12    1    1    2    0    0  0.44988636376E+01  0.15927305928E+02  0.87613185505E+01  0.18726439888E+02  0.00000000000E+00 0.  1.
         11    1    3    3    0    0  0.24302990189E+00  0.12972921009E+01  0.26503517935E+01  0.29608098923E+01  0.51100000000E-03 0. -1.
        -11    1    3    3    0    0  0.12923180921E+02 -0.98237494829E+01  0.24156237341E+02  0.29103925195E+02  0.51100000000E-03 0.  1.
         12    1    3    3    0    0 -0.17665074461E+02 -0.74008485459E+01 -0.35567907685E+02  0.40396825024E+02  0.00000000000E+00 0. -1.
</event>
<event>
 7    1  0.2688173E-013  0.7246172E+02  0.7816164E-02  0.1226708E+00
        -11   -1    0    0    0    0  0.00000000000E+00  0.00000000000E+00  0.45593999997E+02  0.45594000000E+02  0.51100000000E-03 0. -1.
         11   -1    0    0    0    0 -0.00000000000E+00 -0.00000000000E+00 -0.45593999997E+02  0.45594000000E+02  0.51100000000E-03 0.  1.
    9900012    2    1    2    0    0  0.99180995051E+01 -0.15128446923E+02 -0.48409598146E+01  0.72461721779E+02  0.70000197337E+02 0.  0.
        -12    1    1    2    0    0 -0.99180995051E+01  0.15128446923E+02  0.48409598146E+01  0.18726278221E+02  0.00000000000E+00 0.  1.
         11    1    3    3    0    0  0.27958156868E+01 -0.26327768812E+02  0.34877832742E+01  0.26704543217E+02  0.51100000000E-03 0. -1.
        -11    1    3    3    0    0 -0.86416354042E+00 -0.15108241593E+02 -0.10121331294E+02  0.18205688398E+02  0.51100000000E-03 0.  1.
        -12    1    3    3    0    0  0.79864473586E+01  0.26307563482E+02  0.17925882048E+01  0.27551490164E+02  0.00000000000E+00 0.  1.
</event>
<event>
 7    1  0.2688173E-013  0.7246162E+02  0.7816164E-02  0.1226708E+00
        -11   -1    0    0    0    0  0.00000000000E+00  0.00000000000E+00  0.45593999997E+02  0.45594000000E+02  0.51100000000E-03 0.  1.
         11   -1    0    0    0    0 -0.00000000000E+00 -0.00000000000E+00 -0.45593999997E+02  0.45594000000E+02  0.51100000000E-03 0. -1.
    9900012    2    1    2    0    0 -0.78025784563E+01  0.14777803323E+02  0.84506546396E+01  0.72461621133E+02  0.70000066227E+02 0.  0.
        -12    1    1    2    0    0  0.78025784563E+01 -0.14777803323E+02 -0.84506546396E+01  0.18726378867E+02  0.00000000000E+00 0.  1.
         11    1    3    3    0    0  0.39496982061E+00 -0.15577240438E+01 -0.17999820034E+02  0.18071414634E+02  0.51100000000E-03 0. -1.
        -11    1    3    3    0    0 -0.15761288930E+02  0.13550279413E+02 -0.54494067282E+01  0.21487771752E+02  0.51100000000E-03 0.  1.
         12    1    3    3    0    0  0.75637406531E+01  0.27852479532E+01  0.31899881402E+02  0.32902434747E+02  0.00000000000E+00 0. -1.
</event>
<event>
 7    1  0.2688173E-013  0.7246159E+02  0.7816164E-02  0.1226708E+00
        -11   -1    0    0    0    0  0.00000000000E+00  0.00000000000E+00  0.45593999997E+02  0.45594000000E+02  0.51100000000E-03 0.  1.
         11   -1    0    0    0    0 -0.00000000000E+00 -0.00000000000E+00 -0.45593999997E+02  0.45594000000E+02  0.51100000000E-03 0. -1.
    9900012    2    1    2    0    0 -0.14742415481E+02 -0.58958533498E+01 -0.99286695555E+01  0.72461591372E+02  0.70000027458E+02 0.  0.
        -12    1    1    2    0    0  0.14742415481E+02  0.58958533498E+01  0.99286695555E+01  0.18726408628E+02  0.00000000000E+00 0.  1.
         11    1    3    3    0    0 -0.26346571052E+02 -0.96491872827E+01 -0.12851921479E+02  0.30861310850E+02  0.51100000000E-03 0. -1.
        -11    1    3    3    0    0  0.73738943669E+01 -0.14292608228E+02 -0.10060376133E+02  0.18970085300E+02  0.51100000000E-03 0.  1.
        -12    1    3    3    0    0  0.42302612035E+01  0.18045942161E+02  0.12983628057E+02  0.22630195223E+02  0.00000000000E+00 0.  1.
</event>
<event>
 7    1  0.2688173E-013  0.7246156E+02  0.7816164E-02  0.1226708E+00
        -11   -1    0    0    0    0  0.00000000000E+00  0.00000000000E+00  0.45593999997E+02  0.45594000000E+02  0.51100000000E-03 0.  1.
         11   -1    0    0    0    0 -0.00000000000E+00 -0.00000000000E+00 -0.45593999997E+02  0.45594000000E+02  0.51100000000E-03 0. -1.
    9900012    2    1    2    0    0  0.82593641693E+01 -0.27194083804E+00 -0.16804414157E+02  0.72461564582E+02  0.69999992559E+02 0.  0.
        -12    1    1    2    0    0 -0.82593641693E+01  0.27194083804E+00  0.16804414157E+02  0.18726435418E+02  0.00000000000E+00 0.  1.
         11    1    3    3    0    0 -0.20078477080E+01  0.86874905820E+01 -0.26520781944E+02  0.27979560758E+02  0.51100000000E-03 0. -1.
        -11    1    3    3    0    0  0.10857913025E+02  0.15123006348E+02  0.30650116329E+00  0.18619708362E+02  0.51100000000E-03 0.  1.
        -12    1    3    3    0    0 -0.59070114793E+00 -0.24082437768E+02  0.94098666238E+01  0.25862295462E+02  0.00000000000E+00 0.  1.
</event>
<event>
 7    1  0.2688173E-013  0.7246157E+02  0.7816164E-02  0.1226708E+00
        -11   -1    0    0    0    0  0.00000000000E+00  0.00000000000E+00  0.45593999997E+02  0.45594000000E+02  0.51100000000E-03 0. -1.
         11   -1    0    0    0    0 -0.00000000000E+00 -0.00000000000E+00 -0.45593999997E+02  0.45594000000E+02  0.51100000000E-03 0.  1.
    9900012    2    1    2    0    0 -0.13250060476E+02 -0.10324143878E+02  0.82781064458E+01  0.72461572264E+02  0.70000002566E+02 0.  0.
        -12    1    1    2    0    0  0.13250060476E+02  0.10324143878E+02 -0.82781064458E+01  0.18726427736E+02  0.00000000000E+00 0.  1.
         11    1    3    3    0    0  0.13349718354E+02 -0.67022064371E-01  0.15719096026E+02  0.20623032081E+02  0.51100000000E-03 0.  1.
        -11    1    3    3    0    0 -0.22086186078E+02 -0.23223790870E+02  0.60214042741E+01  0.32609835748E+02  0.51100000000E-03 0. -1.
        -12    1    3    3    0    0 -0.45135927514E+01  0.12966669057E+02 -0.13462393854E+02  0.19228704435E+02  0.00000000000E+00 0.  1.
</event>
<event>
 7    1  0.2688173E-013  0.7246157E+02  0.7816164E-02  0.1226708E+00
        -11   -1    0    0    0    0  0.00000000000E+00  0.00000000000E+00  0.45593999997E+02  0.45594000000E+02  0.51100000000E-03 0. -1.
         11   -1    0    0    0    0 -0.00000000000E+00 -0.00000000000E+00 -0.45593999997E+02  0.45594000000E+02  0.51100000000E-03 0.  1.
    9900012    2    1    2    0    0  0.14822144130E+02  0.10839628140E+02  0.36722869697E+01  0.72461569843E+02  0.69999999412E+02 0.  0.
        -12    1    1    2    0    0 -0.14822144130E+02 -0.10839628140E+02 -0.36722869697E+01  0.18726430157E+02  0.00000000000E+00 0.  1.
         11    1    3    3    0    0  0.23859577009E+02  0.10398176994E+02  0.30807866439E+02  0.40330213669E+02  0.51100000000E-03 0. -1.
        -11    1    3    3    0    0  0.29041510441E+01  0.20418029830E+01 -0.15956538759E+01  0.38921927318E+01  0.51100000000E-03 0.  1.
        -12    1    3    3    0    0 -0.11941583922E+02 -0.16003518373E+01 -0.25539925593E+02  0.28239163442E+02  0.00000000000E+00 0.  1.
</event>
<event>
 7    1  0.2688173E-013  0.7246158E+02  0.7816164E-02  0.1226708E+00
        -11   -1    0    0    0    0  0.00000000000E+00  0.00000000000E+00  0.45593999997E+02  0.45594000000E+02  0.51100000000E-03 0. -1.
         11   -1    0    0    0    0 -0.00000000000E+00 -0.00000000000E+00 -0.45593999997E+02  0.45594000000E+02  0.51100000000E-03 0.  1.
    9900012    2    1    2    0    0  0.12123474955E+02  0.47210528879E+01  0.13468927166E+02  0.72461575238E+02  0.70000006441E+02 0.  0.
        -12    1    1    2    0    0 -0.12123474955E+02 -0.47210528879E+01 -0.13468927166E+02  0.18726424762E+02  0.00000000000E+00 0.  1.
         11    1    3    3    0    0  0.70024434453E+01 -0.70737098944E+00  0.59645961934E+01  0.92255620931E+01  0.51100000000E-03 0. -1.
        -11    1    3    3    0    0  0.11216651089E+02  0.12216868127E+02 -0.24707085434E+02  0.29757439396E+02  0.51100000000E-03 0.  1.
         12    1    3    3    0    0 -0.60956195795E+01 -0.67884442500E+01  0.32211416406E+02  0.33478573749E+02  0.00000000000E+00 0. -1.
</event>
<event>
 7    1  0.2688173E-013  0.7246157E+02  0.7816164E-02  0.1226708E+00
        -11   -1    0    0    0    0  0.00000000000E+00  0.00000000000E+00  0.45593999997E+02  0.45594000000E+02  0.51100000000E-03 0.  1.
         11   -1    0    0    0    0 -0.00000000000E+00 -0.00000000000E+00 -0.45593999997E+02  0.45594000000E+02  0.51100000000E-03 0. -1.
    9900012    2    1    2    0    0 -0.70102797252E+01  0.52145074551E+01 -0.16563336054E+02  0.72461569185E+02  0.69999998555E+02 0.  0.
        -12    1    1    2    0    0  0.70102797252E+01 -0.52145074551E+01  0.16563336054E+02  0.18726430815E+02  0.00000000000E+00 0.  1.
         11    1    3    3    0    0  0.82226859250E+01 -0.16409607945E+02 -0.26806573963E+02  0.32488154836E+02  0.51100000000E-03 0.  1.
        -11    1    3    3    0    0 -0.48291712109E+01 -0.56393456916E+01  0.76767676262E+01  0.10679694558E+02  0.51100000000E-03 0. -1.
        -12    1    3    3    0    0 -0.10403794439E+02  0.27263461092E+02  0.25664702829E+01  0.29293719791E+02  0.00000000000E+00 0.  1.
</event>
<event>
 7    1  0.2688173E-013  0.7246167E+02  0.7816164E-02  0.1226708E+00
        -11   -1    0    0    0    0  0.00000000000E+00  0.00000000000E+00  0.45593999997E+02  0.45594000000E+02  0.51100000000E-03 0.  1.
         11   -1    0    0    0    0 -0.00000000000E+00 -0.00000000000E+00 -0.45593999997E+02  0.45594000000E+02  0.51100000000E-03 0. -1.
    9900012    2    1    2    0    0  0.68115034470E+01 -0.11339394282E+02 -0.13255075410E+02  0.72461669179E+02  0.70000128816E+02 0.  0.
        -12    1    1    2    0    0 -0.68115034470E+01  0.11339394282E+02  0.13255075410E+02  0.18726330821E+02  0.00000000000E+00 0.  1.
         11    1    3    3    0    0  0.10101980924E+02  0.45536674365E+01 -0.34912659034E+01  0.11617867428E+02  0.51100000000E-03 0. -1.
        -11    1    3    3    0    0  0.16697377584E+02 -0.19957537448E+02  0.13982523157E+02  0.29540085871E+02  0.51100000000E-03 0.  1.
         12    1    3    3    0    0 -0.19987855061E+02  0.40644757297E+01 -0.23746332663E+02  0.31303715880E+02  0.00000000000E+00 0. -1.
</event>
<event>
 7    1  0.2688173E-013  0.7246155E+02  0.7816164E-02  0.1226708E+00
        -11   -1    0    0    0    0  0.00000000000E+00  0.00000000000E+00  0.45593999997E+02  0.45594000000E+02  0.51100000000E-03 0.  1.
         11   -1    0    0    0    0 -0.00000000000E+00 -0.00000000000E+00 -0.45593999997E+02  0.45594000000E+02  0.51100000000E-03 0. -1.
    9900012    2    1    2    0    0 -0.82185004985E+01  0.20293674641E+01 -0.16703823225E+02  0.72461553645E+02  0.69999978312E+02 0.  0.
        -12    1    1    2    0    0  0.82185004985E+01 -0.20293674641E+01  0.16703823225E+02  0.18726446355E+02  0.00000000000E+00 0.  1.
         11    1    3    3    0    0 -0.89060586173E+01  0.43180239365E+01 -0.28619315245E+02  0.30282477048E+02  0.51100000000E-03 0. -1.
        -11    1    3    3    0    0 -0.33651344622E+01  0.18390751990E+02  0.94912652367E+01  0.20967308000E+02  0.51100000000E-03 0.  1.
        -12    1    3    3    0    0  0.40526925811E+01 -0.20679408462E+02  0.24242267841E+01  0.21211768597E+02  0.00000000000E+00 0.  1.
</event>
<event>
 7    1  0.2688173E-013  0.7246155E+02  0.7816164E-02  0.1226708E+00
        -11   -1    0    0    0    0  0.00000000000E+00  0.00000000000E+00  0.45593999997E+02  0.45594000000E+02  0.51100000000E-03 0. -1.
         11   -1    0    0    0    0 -0.00000000000E+00 -0.00000000000E+00 -0.45593999997E+02  0.45594000000E+02  0.51100000000E-03 0.  1.
    9900012    2    1    2    0    0 -0.59754656364E+01 -0.15256293967E+01  0.17681801149E+02  0.72461552752E+02  0.69999977148E+02 0.  0.
        -12    1    1    2    0    0  0.59754656364E+01  0.15256293967E+01 -0.17681801149E+02  0.18726447248E+02  0.00000000000E+00 0.  1.
         11    1    3    3    0    0 -0.19508673750E+02  0.18294646016E+02  0.22986797730E+01  0.26843367027E+02  0.51100000000E-03 0. -1.
        -11    1    3    3    0    0 -0.91496330877E+01  0.40013628484E+01  0.46678374731E+01  0.11023402252E+02  0.51100000000E-03 0.  1.
        -12    1    3    3    0    0  0.22682841202E+02 -0.23821638261E+02  0.10715283903E+02  0.34594783473E+02  0.00000000000E+00 0.  1.
</event>
<event>
 7    1  0.2688173E-013  0.7246159E+02  0.7816164E-02  0.1226708E+00
        -11   -1    0    0    0    0  0.00000000000E+00  0.00000000000E+00  0.45593999997E+02  0.45594000000E+02  0.51100000000E-03 0. -1.
         11   -1    0    0    0    0 -0.00000000000E+00 -0.00000000000E+00 -0.45593999997E+02  0.45594000000E+02  0.51100000000E-03 0.  1.
    9900012    2    1    2    0    0  0.86328237988E+01 -0.31763812505E-01  0.16617811623E+02  0.72461593008E+02  0.70000029589E+02 0.  0.
        -12    1    1    2    0    0 -0.86328237988E+01  0.31763812505E-01 -0.16617811623E+02  0.18726406992E+02  0.00000000000E+00 0.  1.
         11    1    3    3    0    0  0.10156618220E+02 -0.13945017962E+02 -0.53193165363E+01  0.18053131260E+02  0.51100000000E-03 0. -1.
        -11    1    3    3    0    0 -0.59822858383E+00  0.26503335450E+02 -0.27786664768E+01  0.26655311948E+02  0.51100000000E-03 0.  1.
         12    1    3    3    0    0 -0.92556583759E+00 -0.12590081301E+02  0.24715794636E+02  0.27753149799E+02  0.00000000000E+00 0. -1.
</event>
<event>
 7    1  0.2688173E-013  0.7246151E+02  0.7816164E-02  0.1226708E+00
        -11   -1    0    0    0    0  0.00000000000E+00  0.00000000000E+00  0.45593999997E+02  0.45594000000E+02  0.51100000000E-03 0.  1.
         11   -1    0    0    0    0 -0.00000000000E+00 -0.00000000000E+00 -0.45593999997E+02  0.45594000000E+02  0.51100000000E-03 0. -1.
    9900012    2    1    2    0    0 -0.13176144237E+02  0.67994216712E+00 -0.13289406773E+02  0.72461509921E+02  0.69999921353E+02 0.  0.
        -12    1    1    2    0    0  0.13176144237E+02 -0.67994216712E+00  0.13289406773E+02  0.18726490079E+02  0.00000000000E+00 0.  1.
         11    1    3    3    0    0 -0.13480839999E+02  0.90332237218E+01  0.82963000527E+01  0.18225278399E+02  0.51100000000E-03 0. -1.
        -11    1    3    3    0    0 -0.13325439826E+02 -0.23667761152E+02 -0.44643060169E+01  0.27525629747E+02  0.51100000000E-03 0.  1.
        -12    1    3    3    0    0  0.13630135588E+02  0.15314479598E+02 -0.17121400809E+02  0.26710601775E+02  0.00000000000E+00 0.  1.
</event>
<event>
 7    1  0.2688173E-013  0.7246152E+02  0.7816164E-02  0.1226708E+00
        -11   -1    0    0    0    0  0.00000000000E+00  0.00000000000E+00  0.45593999997E+02  0.45594000000E+02  0.51100000000E-03 0.  1.
         11   -1    0    0    0    0 -0.00000000000E+00 -0.00000000000E+00 -0.45593999997E+02  0.45594000000E+02  0.51100000000E-03 0. -1.
    9900012    2    1    2    0    0 -0.64418861979E+01 -0.17563325150E+02  0.84431097696E+00  0.72461517438E+02  0.69999931145E+02 0.  0.
        -12    1    1    2    0    0  0.64418861979E+01  0.17563325150E+02 -0.84431097696E+00  0.18726482562E+02  0.00000000000E+00 0.  1.
         11    1    3    3    0    0  0.18404429578E+02 -0.11779608799E+02  0.22196954856E+01  0.21963817060E+02  0.51100000000E-03 0. -1.
        -11    1    3    3    0    0 -0.16900908538E+02  0.51785487009E+01 -0.20498263609E+02  0.27067265974E+02  0.51100000000E-03 0.  1.
         12    1    3    3    0    0 -0.79454072372E+01 -0.10962265052E+02  0.19122879101E+02  0.23430434403E+02  0.00000000000E+00 0. -1.
</event>
<event>
 7    1  0.2688173E-013  0.7246167E+02  0.7816164E-02  0.1226708E+00
        -11   -1    0    0    0    0  0.00000000000E+00  0.00000000000E+00  0.45593999997E+02  0.45594000000E+02  0.51100000000E-03 0. -1.
         11   -1    0    0    0    0 -0.00000000000E+00 -0.00000000000E+00 -0.45593999997E+02  0.45594000000E+02  0.51100000000E-03 0.  1.
    9900012    2    1    2    0    0  0.13812259641E+02  0.13176097138E+01  0.12576200216E+02  0.72461670311E+02  0.70000130290E+02 0.  0.
        -12    1    1    2    0    0 -0.13812259641E+02 -0.13176097138E+01 -0.12576200216E+02  0.18726329689E+02  0.00000000000E+00 0.  1.
         11    1    3    3    0    0  0.13181574486E+02  0.54033534860E+01  0.11144377913E+02  0.18087213554E+02  0.51100000000E-03 0. -1.
        -11    1    3    3    0    0  0.15122961759E+02 -0.20360199218E+02  0.14250951547E+02  0.29091773834E+02  0.51100000000E-03 0.  1.
        -12    1    3    3    0    0 -0.14492276604E+02  0.16274455446E+02 -0.12819129244E+02  0.25282682923E+02  0.00000000000E+00 0.  1.
</event>
<event>
 7    1  0.2688173E-013  0.7246161E+02  0.7816164E-02  0.1226708E+00
        -11   -1    0    0    0    0  0.00000000000E+00  0.00000000000E+00  0.45593999997E+02  0.45594000000E+02  0.51100000000E-03 0. -1.
         11   -1    0    0    0    0 -0.00000000000E+00 -0.00000000000E+00 -0.45593999997E+02  0.45594000000E+02  0.51100000000E-03 0.  1.
    9900012    2    1    2    0    0  0.65718933484E+01  0.17454534526E+02 -0.16813797643E+01  0.72461612318E+02  0.70000054743E+02 0.  0.
        -12    1    1    2    0    0 -0.65718933484E+01 -0.17454534526E+02  0.16813797643E+01  0.18726387682E+02  0.00000000000E+00 0.  1.
         11    1    3    3    0    0  0.13881588344E+01 -0.59731728209E+01 -0.95479252618E+01  0.11347627750E+02  0.51100000000E-03 0. -1.
        -11    1    3    3    0    0 -0.49373689896E+01 -0.17126107499E+02 -0.26347032456E+01  0.18017292584E+02  0.51100000000E-03 0.  1.
         12    1    3    3    0    0  0.10121103504E+02  0.40553814846E+02  0.10501248743E+02  0.43096691983E+02  0.00000000000E+00 0. -1.
</event>
<event>
 7    1  0.2688173E-013  0.7246155E+02  0.7816164E-02  0.1226708E+00
        -11   -1    0    0    0    0  0.00000000000E+00  0.00000000000E+00  0.45593999997E+02  0.45594000000E+02  0.51100000000E-03 0.  1.
         11   -1    0    0    0    0 -0.00000000000E+00 -0.00000000000E+00 -0.45593999997E+02  0.45594000000E+02  0.51100000000E-03 0. -1.
    9900012    2    1    2    0    0  0.50803230300E+01 -0.81552728603E+00 -0.18005698460E+02  0.72461549619E+02  0.69999973067E+02 0.  0.
        -12    1    1    2    0    0 -0.50803230300E+01  0.81552728603E+00  0.18005698460E+02  0.18726450381E+02  0.00000000000E+00 0.  1.
         11    1    3    3    0    0 -0.21132241946E+02  0.63898796721E+01 -0.28925350292E+02  0.36387883996E+02  0.51100000000E-03 0. -1.
        -11    1    3    3    0    0  0.67918764163E+01  0.73514575969E+01  0.44643908592E+01  0.10959210741E+02  0.51100000000E-03 0.  1.
        -12    1    3    3    0    0  0.19420688560E+02 -0.14556864555E+02  0.64552609732E+01  0.25114454883E+02  0.00000000000E+00 0.  1.
</event>
<event>
 7    1  0.2688173E-013  0.7246156E+02  0.7816164E-02  0.1226708E+00
        -11   -1    0    0    0    0  0.00000000000E+00  0.00000000000E+00  0.45593999997E+02  0.45594000000E+02  0.51100000000E-03 0.  1.
         11   -1    0    0    0    0 -0.00000000000E+00 -0.00000000000E+00 -0.45593999997E+02  0.45594000000E+02  0.51100000000E-03 0. -1.
    9900012    2    1    2    0    0 -0.12875990829E+01 -0.58823139714E+01 -0.17731891142E+02  0.72461561670E+02  0.69999988765E+02 0.  0.
        -12    1    1    2    0    0  0.12875990829E+01  0.58823139714E+01  0.17731891142E+02  0.18726438330E+02  0.00000000000E+00 0.  1.
         11    1    3    3    0    0  0.18237950647E+02 -0.18845879261E+02 -0.19529428708E+02  0.32698449426E+02  0.51100000000E-03 0. -1.
        -11    1    3    3    0    0  0.91914435123E+00 -0.65568825271E+01 -0.75016576536E+01  0.10005618553E+02  0.51100000000E-03 0.  1.
        -12    1    3    3    0    0 -0.20444694081E+02  0.19520447817E+02  0.92991952191E+01  0.29757493691E+02  0.00000000000E+00 0.  1.
</event>
<event>
 7    1  0.2688173E-013  0.7246159E+02  0.7816164E-02  0.1226708E+00
        -11   -1    0    0    0    0  0.00000000000E+00  0.00000000000E+00  0.45593999997E+02  0.45594000000E+02  0.51100000000E-03 0.  1.
         11   -1    0    0    0    0 -0.00000000000E+00 -0.00000000000E+00 -0.45593999997E+02  0.45594000000E+02  0.51100000000E-03 0. -1.
    9900012    2    1    2    0    0 -0.13726931974E+02  0.12183309725E+02  0.37170923717E+01  0.72461588892E+02  0.70000024227E+02 0.  0.
        -12    1    1    2    0    0  0.13726931974E+02 -0.12183309725E+02 -0.37170923717E+01  0.18726411108E+02  0.00000000000E+00 0.  1.
         11    1    3    3    0    0  0.11652478716E+01 -0.22973186201E+01 -0.81057703478E+01  0.85052330149E+01  0.51100000000E-03 0. -1.
        -11    1    3    3    0    0 -0.56270348951E+01  0.14984113294E+02  0.35274400510E+02  0.38735907173E+02  0.51100000000E-03 0.  1.
         12    1    3    3    0    0 -0.92651449508E+01 -0.50348494895E+00 -0.23451537791E+02  0.25220448703E+02  0.00000000000E+00 0. -1.
</event>
<event>
 7    1  0.2688173E-013  0.7246159E+02  0.7816164E-02  0.1226708E+00
        -11   -1    0    0    0    0  0.00000000000E+00  0.00000000000E+00  0.45593999997E+02  0.45594000000E+02  0.51100000000E-03 0.  1.
         11   -1    0    0    0    0 -0.00000000000E+00 -0.00000000000E+00 -0.45593999997E+02  0.45594000000E+02  0.51100000000E-03 0. -1.
    9900012    2    1    2    0    0 -0.64219130277E+00 -0.18450817702E+02  0.31358129130E+01  0.72461590676E+02  0.70000026551E+02 0.  0.
        -12    1    1    2    0    0  0.64219130277E+00  0.18450817702E+02 -0.31358129130E+01  0.18726409324E+02  0.00000000000E+00 0.  1.
         11    1    3    3    0    0 -0.10795933084E+02 -0.17570745194E+02 -0.24513357286E+02  0.32034168375E+02  0.51100000000E-03 0. -1.
        -11    1    3    3    0    0  0.23739504662E+01 -0.10743869083E+02  0.11022676527E+01  0.11058090157E+02  0.51100000000E-03 0.  1.
        -12    1    3    3    0    0  0.77797913147E+01  0.98637965748E+01  0.26546902546E+02  0.29369332144E+02  0.00000000000E+00 0.  1.
</event>
<event>
 7    1  0.2688173E-013  0.7246147E+02  0.7816164E-02  0.1226708E+00
        -11   -1    0    0    0    0  0.00000000000E+00  0.00000000000E+00  0.45593999997E+02  0.45594000000E+02  0.51100000000E-03 0. -1.
         11   -1    0    0    0    0 -0.00000000000E+00 -0.00000000000E+00 -0.45593999997E+02  0.45594000000E+02  0.51100000000E-03 0.  1.
    9900012    2    1    2    0    0 -0.15881785015E+01 -0.15028035784E+02 -0.11059777343E+02  0.72461472149E+02  0.69999872147E+02 0.  0.
        -12    1    1    2    0    0  0.15881785015E+01  0.15028035784E+02  0.11059777343E+02  0.18726527851E+02  0.00000000000E+00 0.  1.
         11    1    3    3    0    0 -0.27753476291E+01 -0.35634810107E+01 -0.78578027443E+01  0.90634439153E+01  0.51100000000E-03 0. -1.
        -11    1    3    3    0    0  0.30278703226E+02 -0.13575725489E+02  0.38046760185E+01  0.33400235800E+02  0.51100000000E-03 0.  1.
         12    1    3    3    0    0 -0.29091534099E+02  0.21111707148E+01 -0.70066506173E+01  0.29997792434E+02  0.00000000000E+00 0. -1.
</event>
<event>
 7    1  0.2688173E-013  0.7246159E+02  0.7816164E-02  0.1226708E+00
        -11   -1    0    0    0    0  0.00000000000E+00  0.00000000000E+00  0.45593999997E+02  0.45594000000E+02  0.51100000000E-03 0. -1.
         11   -1    0    0    0    0 -0.00000000000E+00 -0.00000000000E+00 -0.45593999997E+02  0.45594000000E+02  0.51100000000E-03 0.  1.
    9900012    2    1    2    0    0  0.86291094821E+01 -0.96829576044E+01  0.13507669024E+02  0.72461592953E+02  0.70000029518E+02 0.  0.
        -12    1    1    2    0    0 -0.86291094821E+01  0.96829576044E+01 -0.13507669024E+02  0.18726407047E+02  0.00000000000E+00 0.  1.
         11    1    3    3    0    0 -0.13352147994E+02  0.15799126954E+02  0.12601305858E+02  0.24221584964E+02  0.51100000000E-03 0. -1.
        -11    1    3    3    0    0  0.30599405898E+01 -0.11297345110E+02  0.16267764234E+02  0.20040793307E+02  0.51100000000E-03 0.  1.
        -12    1    3    3    0    0  0.18921316886E+02 -0.14184739449E+02 -0.15361401068E+02  0.28199214683E+02  0.00000000000E+00 0.  1.
</event>
<event>
 7    1  0.2688173E-013  0.7246166E+02  0.7816164E-02  0.1226708E+00
        -11   -1    0    0    0    0  0.00000000000E+00  0.00000000000E+00  0.45593999997E+02  0.45594000000E+02  0.51100000000E-03 0.  1.
         11   -1    0    0    0    0 -0.00000000000E+00 -0.00000000000E+00 -0.45593999997E+02  0.45594000000E+02  0.51100000000E-03 0. -1.
    9900012    2    1    2    0    0 -0.17260372749E+02  0.55184287628E+00 -0.72422874429E+01  0.72461662253E+02  0.70000119794E+02 0.  0.
        -12    1    1    2    0    0  0.17260372749E+02 -0.55184287628E+00  0.72422874429E+01  0.18726337747E+02  0.00000000000E+00 0.  1.
         11    1    3    3    0    0 -0.53247108752E+01  0.17108338027E+02 -0.16145338656E+02  0.24118866817E+02  0.51100000000E-03 0. -1.
        -11    1    3    3    0    0 -0.17015844005E+02  0.59797221767E+01 -0.79869439689E+01  0.19725295910E+02  0.51100000000E-03 0.  1.
        -12    1    3    3    0    0  0.50801821311E+01 -0.22536217328E+02  0.16889995182E+02  0.28617499527E+02  0.00000000000E+00 0.  1.
</event>
<event>
 7    1  0.2688173E-013  0.7246164E+02  0.7816164E-02  0.1226708E+00
        -11   -1    0    0    0    0  0.00000000000E+00  0.00000000000E+00  0.45593999997E+02  0.45594000000E+02  0.51100000000E-03 0.  1.
         11   -1    0    0    0    0 -0.00000000000E+00 -0.00000000000E+00 -0.45593999997E+02  0.45594000000E+02  0.51100000000E-03 0. -1.
    9900012    2    1    2    0    0 -0.12836433666E+02 -0.72937970360E+01  0.11519681486E+02  0.72461639809E+02  0.70000090555E+02 0.  0.
        -12    1    1    2    0    0  0.12836433666E+02  0.72937970360E+01 -0.11519681486E+02  0.18726360191E+02  0.00000000000E+00 0.  1.
         11    1    3    3    0    0  0.41303443207E+01 -0.10269561580E+02  0.16196047985E+02  0.19617227375E+02  0.51100000000E-03 0. -1.
        -11    1    3    3    0    0  0.89900006743E+01  0.16279670401E+02  0.89643187318E+01  0.20644776363E+02  0.51100000000E-03 0.  1.
        -12    1    3    3    0    0 -0.25956778661E+02 -0.13303905857E+02 -0.13640685231E+02  0.32199636071E+02  0.00000000000E+00 0.  1.
</event>
<event>
 7    1  0.2688173E-013  0.7246157E+02  0.7816164E-02  0.1226708E+00
        -11   -1    0    0    0    0  0.00000000000E+00  0.00000000000E+00  0.45593999997E+02  0.45594000000E+02  0.51100000000E-03 0. -1.
         11   -1    0    0    0    0 -0.00000000000E+00 -0.00000000000E+00 -0.45593999997E+02  0.45594000000E+02  0.51100000000E-03 0.  1.
    9900012    2    1    2    0    0  0.60722514274E+01 -0.97178325920E+01  0.14811168097E+02  0.72461569265E+02  0.69999998659E+02 0.  0.
        -12    1    1    2    0    0 -0.60722514274E+01  0.97178325920E+01 -0.14811168097E+02  0.18726430735E+02  0.00000000000E+00 0.  1.
         11    1    3    3    0    0 -0.76465486101E+00  0.14340046072E+02 -0.25723248322E+01  0.14588984670E+02  0.51100000000E-03 0. -1.
        -11    1    3    3    0    0 -0.87163823409E+01 -0.16948718797E+02 -0.12956001962E+02  0.23045441568E+02  0.51100000000E-03 0.  1.
         12    1    3    3    0    0  0.15553288629E+02 -0.71091598668E+01  0.30339494891E+02  0.34827143027E+02  0.00000000000E+00 0. -1.
</event>
<event>
 7    1  0.4166548E-013  0.7246152E+02  0.7816164E-02  0.1226708E+00
        -11   -1    0    0    0    0  0.00000000000E+00  0.00000000000E+00  0.45593999997E+02  0.45594000000E+02  0.51100000000E-03 0. -1.
         11   -1    0    0    0    0 -0.00000000000E+00 -0.00000000000E+00 -0.45593999997E+02  0.45594000000E+02  0.51100000000E-03 0.  1.
    9900012    2    1    2    0    0  0.82996670155E+01 -0.63131872761E+01  0.15554430916E+02  0.72461518022E+02  0.69999931905E+02 0.  0.
        -12    1    1    2    0    0 -0.82996670155E+01  0.63131872761E+01 -0.15554430916E+02  0.18726481978E+02  0.00000000000E+00 0.  1.
         11    1    3    3    0    0  0.14682010332E+02 -0.11876378083E+02  0.12869258171E+02  0.22852299444E+02  0.51100000000E-03 0. -1.
        -11    1    3    3    0    0  0.86868288605E+00  0.36057475369E+01 -0.22769522811E+02  0.23069616263E+02  0.51100000000E-03 0.  1.
         12    1    3    3    0    0 -0.72510262023E+01  0.19574432698E+01  0.25454695556E+02  0.26539602315E+02  0.00000000000E+00 0. -1.
</event>
<event>
 7    1  0.2688173E-013  0.7246184E+02  0.7816164E-02  0.1226707E+00
        -11   -1    0    0    0    0  0.00000000000E+00  0.00000000000E+00  0.45593999997E+02  0.45594000000E+02  0.51100000000E-03 0. -1.
         11   -1    0    0    0    0 -0.00000000000E+00 -0.00000000000E+00 -0.45593999997E+02  0.45594000000E+02  0.51100000000E-03 0.  1.
    9900012    2    1    2    0    0  0.14714183825E+02  0.59773013788E+01  0.99213788039E+01  0.72461839294E+02  0.70000350422E+02 0.  0.
        -12    1    1    2    0    0 -0.14714183825E+02 -0.59773013788E+01 -0.99213788039E+01  0.18726160706E+02  0.00000000000E+00 0.  1.
         11    1    3    3    0    0 -0.23301550937E+02  0.58295699640E+01  0.41140796870E+01  0.24369485303E+02  0.51100000000E-03 0. -1.
        -11    1    3    3    0    0  0.61048331505E+01 -0.48918568956E+01 -0.95304129900E+01  0.12329964465E+02  0.51100000000E-03 0.  1.
        -12    1    3    3    0    0  0.31910901611E+02  0.50395883104E+01  0.15337712107E+02  0.35762389526E+02  0.00000000000E+00 0.  1.
</event>
<event>
 7    1  0.2688173E-013  0.7246158E+02  0.7816164E-02  0.1226708E+00
        -11   -1    0    0    0    0  0.00000000000E+00  0.00000000000E+00  0.45593999997E+02  0.45594000000E+02  0.51100000000E-03 0.  1.
         11   -1    0    0    0    0 -0.00000000000E+00 -0.00000000000E+00 -0.45593999997E+02  0.45594000000E+02  0.51100000000E-03 0. -1.
    9900012    2    1    2    0    0  0.16801552853E+02  0.82632665569E+01 -0.32430506599E+00  0.72461576790E+02  0.70000008462E+02 0.  0.
        -12    1    1    2    0    0 -0.16801552853E+02 -0.82632665569E+01  0.32430506599E+00  0.18726423210E+02  0.00000000000E+00 0.  1.
         11    1    3    3    0    0  0.22405580028E+02  0.11059771715E+01 -0.14168201735E+02  0.26532454515E+02  0.51100000000E-03 0. -1.
        -11    1    3    3    0    0  0.86228753023E+01 -0.14610651451E+02  0.11846100605E+01  0.17006716778E+02  0.51100000000E-03 0.  1.
        -12    1    3    3    0    0 -0.14226902478E+02  0.21767940836E+02  0.12659286609E+02  0.28922405498E+02  0.00000000000E+00 0.  1.
</event>
<event>
 7    1  0.2688173E-013  0.7246162E+02  0.7816164E-02  0.1226708E+00
        -11   -1    0    0    0    0  0.00000000000E+00  0.00000000000E+00  0.45593999997E+02  0.45594000000E+02  0.51100000000E-03 0. -1.
         11   -1    0    0    0    0 -0.00000000000E+00 -0.00000000000E+00 -0.45593999997E+02  0.45594000000E+02  0.51100000000E-03 0.  1.
    9900012    2    1    2    0    0 -0.22721231788E+01  0.17799698168E+02  0.53559004093E+01  0.72461615731E+02  0.70000059190E+02 0.  0.
        -12    1    1    2    0    0  0.22721231788E+01 -0.17799698168E+02 -0.53559004093E+01  0.18726384269E+02  0.00000000000E+00 0.  1.
         11    1    3    3    0    0 -0.26673216053E+02  0.87590783960E+01  0.25198468872E+02  0.37724590690E+02  0.51100000000E-03 0. -1.
        -11    1    3    3    0    0  0.19697364873E+00 -0.36939239138E+00  0.12265990971E+01  0.12960690426E+01  0.51100000000E-03 0.  1.
        -12    1    3    3    0    0  0.24204119226E+02  0.94100121629E+01 -0.21069167560E+02  0.33440955998E+02  0.00000000000E+00 0.  1.
</event>
<event>
 7    1  0.2688173E-013  0.7246154E+02  0.7816164E-02  0.1226708E+00
        -11   -1    0    0    0    0  0.00000000000E+00  0.00000000000E+00  0.45593999997E+02  0.45594000000E+02  0.51100000000E-03 0.  1.
         11   -1    0    0    0    0 -0.00000000000E+00 -0.00000000000E+00 -0.45593999997E+02  0.45594000000E+02  0.51100000000E-03 0. -1.
    9900012    2    1    2    0    0 -0.14484473611E+02 -0.10781460041E+02  0.49639207444E+01  0.72461538360E+02  0.69999958399E+02 0.  0.
        -12    1    1    2    0    0  0.14484473611E+02  0.10781460041E+02 -0.49639207444E+01  0.18726461640E+02  0.00000000000E+00 0.  1.
         11    1    3    3    0    0 -0.21300203596E+01  0.27829455814E+01 -0.10334692123E+02  0.10912728090E+02  0.51100000000E-03 0. -1.
        -11    1    3    3    0    0 -0.98441637519E+01 -0.35856568369E+02  0.96945168132E+01  0.38426354390E+02  0.51100000000E-03 0.  1.
         12    1    3    3    0    0 -0.25102894999E+01  0.22292162747E+02  0.56040960539E+01  0.23122455879E+02  0.00000000000E+00 0. -1.
</event>
<event>
 7    1  0.2688173E-013  0.7246158E+02  0.7816164E-02  0.1226708E+00
        -11   -1    0    0    0    0  0.00000000000E+00  0.00000000000E+00  0.45593999997E+02  0.45594000000E+02  0.51100000000E-03 0.  1.
         11   -1    0    0    0    0 -0.00000000000E+00 -0.00000000000E+00 -0.45593999997E+02  0.45594000000E+02  0.51100000000E-03 0. -1.
    9900012    2    1    2    0    0  0.74486589878E+01 -0.71559243844E+01 -0.15620152176E+02  0.72461576729E+02  0.70000008383E+02 0.  0.
        -12    1    1    2    0    0 -0.74486589878E+01  0.71559243844E+01  0.15620152176E+02  0.18726423271E+02  0.00000000000E+00 0.  1.
         11    1    3    3    0    0  0.42973971198E+00  0.10601327636E+02  0.10291249697E+01  0.10659827500E+02  0.51100000000E-03 0.  1.
        -11    1    3    3    0    0  0.29822853084E+02 -0.64712348102E+01 -0.19474695575E+02  0.36201425580E+02  0.51100000000E-03 0. -1.
         12    1    3    3    0    0 -0.22803933808E+02 -0.11286017210E+02  0.28254184295E+01  0.25600323649E+02  0.00000000000E+00 0. -1.
</event>
<event>
 7    1  0.2688173E-013  0.7246151E+02  0.7816164E-02  0.1226708E+00
        -11   -1    0    0    0    0  0.00000000000E+00  0.00000000000E+00  0.45593999997E+02  0.45594000000E+02  0.51100000000E-03 0. -1.
         11   -1    0    0    0    0 -0.00000000000E+00 -0.00000000000E+00 -0.45593999997E+02  0.45594000000E+02  0.51100000000E-03 0.  1.
    9900012    2    1    2    0    0 -0.12286046235E+02 -0.59028546832E+01  0.12840977898E+02  0.72461512372E+02  0.69999924546E+02 0.  0.
        -12    1    1    2    0    0  0.12286046235E+02  0.59028546832E+01 -0.12840977898E+02  0.18726487628E+02  0.00000000000E+00 0.  1.
         11    1    3    3    0    0  0.40143184144E+01 -0.71338999618E+01  0.20742621704E+02  0.22299408881E+02  0.51100000000E-03 0. -1.
        -11    1    3    3    0    0  0.56069421575E+01 -0.69002427592E+01  0.15003869191E+02  0.17440391092E+02  0.51100000000E-03 0.  1.
        -12    1    3    3    0    0 -0.21907306807E+02  0.81312880378E+01 -0.22905512997E+02  0.32721712399E+02  0.00000000000E+00 0.  1.
</event>
<event>
 7    1  0.2688173E-013  0.7246159E+02  0.7816164E-02  0.1226708E+00
        -11   -1    0    0    0    0  0.00000000000E+00  0.00000000000E+00  0.45593999997E+02  0.45594000000E+02  0.51100000000E-03 0.  1.
         11   -1    0    0    0    0 -0.00000000000E+00 -0.00000000000E+00 -0.45593999997E+02  0.45594000000E+02  0.51100000000E-03 0. -1.
    9900012    2    1    2    0    0  0.18715614662E+02 -0.35489311889E-01  0.63464399159E+00  0.72461594454E+02  0.70000031473E+02 0.  0.
        -12    1    1    2    0    0 -0.18715614662E+02  0.35489311889E-01 -0.63464399159E+00  0.18726405546E+02  0.00000000000E+00 0.  1.
         11    1    3    3    0    0 -0.13125020208E+02  0.15540912907E+02 -0.18443423930E+02  0.27458077427E+02  0.51100000000E-03 0. -1.
        -11    1    3    3    0    0  0.90166494428E+01 -0.14407097313E+02  0.35204134782E+01  0.17356777681E+02  0.51100000000E-03 0.  1.
        -12    1    3    3    0    0  0.22823985427E+02 -0.11693049067E+01  0.15557654443E+02  0.27646739347E+02  0.00000000000E+00 0.  1.
</event>
<event>
 7    1  0.2688173E-013  0.7246154E+02  0.7816164E-02  0.1226708E+00
        -11   -1    0    0    0    0  0.00000000000E+00  0.00000000000E+00  0.45593999997E+02  0.45594000000E+02  0.51100000000E-03 0.  1.
         11   -1    0    0    0    0 -0.00000000000E+00 -0.00000000000E+00 -0.45593999997E+02  0.45594000000E+02  0.51100000000E-03 0. -1.
    9900012    2    1    2    0    0  0.17445883419E+01 -0.18543446789E+02 -0.19434967789E+01  0.72461543127E+02  0.69999964609E+02 0.  0.
        -12    1    1    2    0    0 -0.17445883419E+01  0.18543446789E+02  0.19434967789E+01  0.18726456873E+02  0.00000000000E+00 0.  1.
         11    1    3    3    0    0 -0.41134707282E+00  0.64511008001E+01 -0.28136244989E+02  0.28869260301E+02  0.51100000000E-03 0. -1.
        -11    1    3    3    0    0 -0.39845054234E+01 -0.22733070942E+01 -0.34514207449E+01  0.57407764312E+01  0.51100000000E-03 0.  1.
        -12    1    3    3    0    0  0.61404408381E+01 -0.22721240495E+02  0.29644168955E+02  0.37851506395E+02  0.00000000000E+00 0.  1.
</event>
<event>
 7    1  0.2688173E-013  0.7246159E+02  0.7816164E-02  0.1226708E+00
        -11   -1    0    0    0    0  0.00000000000E+00  0.00000000000E+00  0.45593999997E+02  0.45594000000E+02  0.51100000000E-03 0. -1.
         11   -1    0    0    0    0 -0.00000000000E+00 -0.00000000000E+00 -0.45593999997E+02  0.45594000000E+02  0.51100000000E-03 0.  1.
    9900012    2    1    2    0    0  0.58449786008E+00 -0.70500819623E-01  0.18717148565E+02  0.72461594618E+02  0.70000031686E+02 0.  0.
        -12    1    1    2    0    0 -0.58449786008E+00  0.70500819623E-01 -0.18717148565E+02  0.18726405382E+02  0.00000000000E+00 0.  1.
         11    1    3    3    0    0  0.15216307577E+02  0.11483297595E+02  0.57332207458E+01  0.19906580829E+02  0.51100000000E-03 0. -1.
        -11    1    3    3    0    0  0.17089394374E+02 -0.35380963532E+01  0.88776833955E+01  0.19580060996E+02  0.51100000000E-03 0.  1.
        -12    1    3    3    0    0 -0.31721204090E+02 -0.80157020611E+01  0.41062444241E+01  0.32974952793E+02  0.00000000000E+00 0.  1.
</event>
<event>
 7    1  0.2688173E-013  0.7246197E+02  0.7816164E-02  0.1226707E+00
        -11   -1    0    0    0    0  0.00000000000E+00  0.00000000000E+00  0.45593999997E+02  0.45594000000E+02  0.51100000000E-03 0. -1.
         11   -1    0    0    0    0 -0.00000000000E+00 -0.00000000000E+00 -0.45593999997E+02  0.45594000000E+02  0.51100000000E-03 0.  1.
    9900012    2    1    2    0    0 -0.28300160186E+01  0.46530835718E+01  0.17916585777E+02  0.72461969366E+02  0.70000519863E+02 0.  0.
        -12    1    1    2    0    0  0.28300160186E+01 -0.46530835718E+01 -0.17916585777E+02  0.18726030634E+02  0.00000000000E+00 0.  1.
         11    1    3    3    0    0  0.87676574238E+01  0.12237850798E+02  0.36785332668E+02  0.39746666636E+02  0.51100000000E-03 0. -1.
        -11    1    3    3    0    0 -0.81201895211E+01  0.32223946793E+01  0.19965011455E+01  0.89614352875E+01  0.51100000000E-03 0.  1.
        -12    1    3    3    0    0 -0.34774839213E+01 -0.10807161905E+02 -0.20865248037E+02  0.23753867443E+02  0.00000000000E+00 0.  1.
</event>
<event>
 7    1  0.2688173E-013  0.7246133E+02  0.7816164E-02  0.1226709E+00
        -11   -1    0    0    0    0  0.00000000000E+00  0.00000000000E+00  0.45593999997E+02  0.45594000000E+02  0.51100000000E-03 0.  1.
         11   -1    0    0    0    0 -0.00000000000E+00 -0.00000000000E+00 -0.45593999997E+02  0.45594000000E+02  0.51100000000E-03 0. -1.
    9900012    2    1    2    0    0 -0.14738770139E+02  0.82150838152E+01  0.81221350133E+01  0.72461333867E+02  0.69999692009E+02 0.  0.
        -12    1    1    2    0    0  0.14738770139E+02 -0.82150838152E+01 -0.81221350133E+01  0.18726666133E+02  0.00000000000E+00 0.  1.
         11    1    3    3    0    0  0.14167079318E+01  0.20396161954E+02  0.55614952528E+01  0.21188221103E+02  0.51100000000E-03 0. -1.
        -11    1    3    3    0    0 -0.29685151262E+02 -0.11692709411E+02  0.12719554908E+02  0.34346975648E+02  0.51100000000E-03 0.  1.
         12    1    3    3    0    0  0.13529673191E+02 -0.48836872741E+00 -0.10158915148E+02  0.16926137116E+02  0.00000000000E+00 0. -1.
</event>
<event>
 7    1  0.2688173E-013  0.7246138E+02  0.7816164E-02  0.1226709E+00
        -11   -1    0    0    0    0  0.00000000000E+00  0.00000000000E+00  0.45593999997E+02  0.45594000000E+02  0.51100000000E-03 0.  1.
         11   -1    0    0    0    0 -0.00000000000E+00 -0.00000000000E+00 -0.45593999997E+02  0.45594000000E+02  0.51100000000E-03 0. -1.
    9900012    2    1    2    0    0  0.19869324864E+01 -0.16784473310E+02 -0.80634806901E+01  0.72461383492E+02  0.69999756654E+02 0.  0.
        -12    1    1    2    0    0 -0.19869324864E+01  0.16784473310E+02  0.80634806901E+01  0.18726616508E+02  0.00000000000E+00 0.  1.
         11    1    3    3    0    0 -0.11290646364E+01 -0.43117777217E+01 -0.71441027949E+01  0.84204761789E+01  0.51100000000E-03 0. -1.
        -11    1    3    3    0    0  0.79692096882E+01 -0.37012298668E+02  0.53908054931E+01  0.38242376232E+02  0.51100000000E-03 0.  1.
         12    1    3    3    0    0 -0.48532125655E+01  0.24539603080E+02 -0.63101833884E+01  0.25798531080E+02  0.00000000000E+00 0. -1.
</event>
<event>
 7    1  0.2688173E-013  0.7246148E+02  0.7816164E-02  0.1226708E+00
        -11   -1    0    0    0    0  0.00000000000E+00  0.00000000000E+00  0.45593999997E+02  0.45594000000E+02  0.51100000000E-03 0. -1.
         11   -1    0    0    0    0 -0.00000000000E+00 -0.00000000000E+00 -0.45593999997E+02  0.45594000000E+02  0.51100000000E-03 0.  1.
    9900012    2    1    2    0    0  0.12092255082E+02  0.84223730096E+01  0.11555232021E+02  0.72461484384E+02  0.69999888085E+02 0.  0.
        -12    1    1    2    0    0 -0.12092255082E+02 -0.84223730096E+01 -0.11555232021E+02  0.18726515616E+02  0.00000000000E+00 0.  1.
         11    1    3    3    0    0  0.18703156849E+02 -0.79264975016E+01 -0.36995792884E+01  0.20647622767E+02  0.51100000000E-03 0. -1.
        -11    1    3    3    0    0  0.29222734811E-01 -0.10819094863E+02 -0.95500388310E+01  0.14431109090E+02  0.51100000000E-03 0.  1.
         12    1    3    3    0    0 -0.66401245016E+01  0.27167965375E+02  0.24804850140E+02  0.37382752527E+02  0.00000000000E+00 0. -1.
</event>
<event>
 7    1  0.2688173E-013  0.7246157E+02  0.7816164E-02  0.1226708E+00
        -11   -1    0    0    0    0  0.00000000000E+00  0.00000000000E+00  0.45593999997E+02  0.45594000000E+02  0.51100000000E-03 0. -1.
         11   -1    0    0    0    0 -0.00000000000E+00 -0.00000000000E+00 -0.45593999997E+02  0.45594000000E+02  0.51100000000E-03 0.  1.
    9900012    2    1    2    0    0  0.56572552760E+01 -0.16131288028E+02 -0.76456694463E+01  0.72461568093E+02  0.69999997132E+02 0.  0.
        -12    1    1    2    0    0 -0.56572552760E+01  0.16131288028E+02  0.76456694463E+01  0.18726431907E+02  0.00000000000E+00 0.  1.
         11    1    3    3    0    0  0.16684232768E+02  0.10447006134E+02  0.40004599671E+00  0.19689174622E+02  0.51100000000E-03 0. -1.
        -11    1    3    3    0    0 -0.79736328603E+01  0.27731881098E+01 -0.19397085565E+02  0.21154581583E+02  0.51100000000E-03 0.  1.
         12    1    3    3    0    0 -0.30533446317E+01 -0.29351482272E+02  0.11351370122E+02  0.31617811888E+02  0.00000000000E+00 0. -1.
</event>
<event>
 7    1  0.2688173E-013  0.7246149E+02  0.7816164E-02  0.1226708E+00
        -11   -1    0    0    0    0  0.00000000000E+00  0.00000000000E+00  0.45593999997E+02  0.45594000000E+02  0.51100000000E-03 0.  1.
         11   -1    0    0    0    0 -0.00000000000E+00 -0.00000000000E+00 -0.45593999997E+02  0.45594000000E+02  0.51100000000E-03 0. -1.
    9900012    2    1    2    0    0 -0.79179319995E+01  0.16045654440E+02  0.55249881050E+01  0.72461490258E+02  0.69999895738E+02 0.  0.
        -12    1    1    2    0    0  0.79179319995E+01 -0.16045654440E+02 -0.55249881050E+01  0.18726509742E+02  0.00000000000E+00 0.  1.
         11    1    3    3    0    0  0.10806548418E+01  0.16392677555E+02 -0.12712233353E+02  0.20772302939E+02  0.51100000000E-03 0. -1.
        -11    1    3    3    0    0  0.89925431954E+01 -0.18644415477E+02  0.89755095793E+00  0.20719209917E+02  0.51100000000E-03 0.  1.
        -12    1    3    3    0    0 -0.17991130037E+02  0.18297392362E+02  0.17339670500E+02  0.30969977402E+02  0.00000000000E+00 0.  1.
</event>
<event>
 7    1  0.2688173E-013  0.7246154E+02  0.7816164E-02  0.1226708E+00
        -11   -1    0    0    0    0  0.00000000000E+00  0.00000000000E+00  0.45593999997E+02  0.45594000000E+02  0.51100000000E-03 0.  1.
         11   -1    0    0    0    0 -0.00000000000E+00 -0.00000000000E+00 -0.45593999997E+02  0.45594000000E+02  0.51100000000E-03 0. -1.
    9900012    2    1    2    0    0  0.48833624866E+01  0.15398813259E+02 -0.94715078754E+01  0.72461544372E+02  0.69999966231E+02 0.  0.
        -12    1    1    2    0    0 -0.48833624866E+01 -0.15398813259E+02  0.94715078754E+01  0.18726455628E+02  0.00000000000E+00 0.  1.
         11    1    3    3    0    0 -0.76532977941E+01  0.56883055408E+01  0.45315707546E+01  0.10557694863E+02  0.51100000000E-03 0. -1.
        -11    1    3    3    0    0  0.73839070141E+01  0.72947475774E+01  0.22595486973E+02  0.24865467154E+02  0.51100000000E-03 0.  1.
         12    1    3    3    0    0  0.51527532666E+01  0.24157601404E+01 -0.36598565603E+02  0.37038382355E+02  0.00000000000E+00 0. -1.
</event>
<event>
 7    1  0.2688173E-013  0.7246155E+02  0.7816164E-02  0.1226708E+00
        -11   -1    0    0    0    0  0.00000000000E+00  0.00000000000E+00  0.45593999997E+02  0.45594000000E+02  0.51100000000E-03 0.  1.
         11   -1    0    0    0    0 -0.00000000000E+00 -0.00000000000E+00 -0.45593999997E+02  0.45594000000E+02  0.51100000000E-03 0. -1.
    9900012    2    1    2    0    0 -0.15709380088E+02 -0.60055672678E+01  0.82357941617E+01  0.72461554357E+02  0.69999979239E+02 0.  0.
        -12    1    1    2    0    0  0.15709380088E+02  0.60055672678E+01 -0.82357941617E+01  0.18726445643E+02  0.00000000000E+00 0.  1.
         11    1    3    3    0    0 -0.30315567340E+02 -0.94093325290E+01  0.25456880114E+02  0.40689334071E+02  0.51100000000E-03 0. -1.
        -11    1    3    3    0    0  0.11323360843E+01  0.38341987125E+01  0.46176384943E+01  0.61078515290E+01  0.51100000000E-03 0.  1.
         12    1    3    3    0    0  0.13473851168E+02 -0.43043345125E+00 -0.21838724446E+02  0.25664368757E+02  0.00000000000E+00 0. -1.
</event>
<event>
 7    1  0.2688173E-013  0.7246160E+02  0.7816164E-02  0.1226708E+00
        -11   -1    0    0    0    0  0.00000000000E+00  0.00000000000E+00  0.45593999997E+02  0.45594000000E+02  0.51100000000E-03 0.  1.
         11   -1    0    0    0    0 -0.00000000000E+00 -0.00000000000E+00 -0.45593999997E+02  0.45594000000E+02  0.51100000000E-03 0. -1.
    9900012    2    1    2    0    0 -0.78048846612E+01 -0.16180367449E+02 -0.52874996796E+01  0.72461597029E+02  0.70000034827E+02 0.  0.
        -12    1    1    2    0    0  0.78048846612E+01  0.16180367449E+02  0.52874996796E+01  0.18726402971E+02  0.00000000000E+00 0.  1.
         11    1    3    3    0    0  0.34670502888E+01 -0.60560901149E+01 -0.47481818804E+01  0.84404914913E+01  0.51100000000E-03 0. -1.
        -11    1    3    3    0    0  0.23615246168E+02 -0.13069428087E+01  0.11201664963E+02  0.26169930250E+02  0.51100000000E-03 0.  1.
         12    1    3    3    0    0 -0.34887181118E+02 -0.88173345255E+01 -0.11740982762E+02  0.37851175288E+02  0.00000000000E+00 0. -1.
</event>
<event>
 7    1  0.2688173E-013  0.7246160E+02  0.7816164E-02  0.1226708E+00
        -11   -1    0    0    0    0  0.00000000000E+00  0.00000000000E+00  0.45593999997E+02  0.45594000000E+02  0.51100000000E-03 0. -1.
         11   -1    0    0    0    0 -0.00000000000E+00 -0.00000000000E+00 -0.45593999997E+02  0.45594000000E+02  0.51100000000E-03 0.  1.
    9900012    2    1    2    0    0  0.17767452851E+02  0.49924375570E+01  0.31735436408E+01  0.72461596372E+02  0.70000033971E+02 0.  0.
        -12    1    1    2    0    0 -0.17767452851E+02 -0.49924375570E+01 -0.31735436408E+01  0.18726403628E+02  0.00000000000E+00 0.  1.
         11    1    3    3    0    0  0.25712586997E+02  0.22913621858E+02 -0.19756921302E+02  0.39705253258E+02  0.51100000000E-03 0. -1.
        -11    1    3    3    0    0  0.34585362888E+01 -0.49649928998E+01  0.47956740794E+01  0.77208236538E+01  0.51100000000E-03 0.  1.
        -12    1    3    3    0    0 -0.11403670434E+02 -0.12956191401E+02  0.18134790863E+02  0.25035519460E+02  0.00000000000E+00 0.  1.
</event>
<event>
 7    1  0.2688173E-013  0.7246157E+02  0.7816164E-02  0.1226708E+00
        -11   -1    0    0    0    0  0.00000000000E+00  0.00000000000E+00  0.45593999997E+02  0.45594000000E+02  0.51100000000E-03 0. -1.
         11   -1    0    0    0    0 -0.00000000000E+00 -0.00000000000E+00 -0.45593999997E+02  0.45594000000E+02  0.51100000000E-03 0.  1.
    9900012    2    1    2    0    0 -0.38462249822E+01  0.34530770808E+01  0.17998947310E+02  0.72461567019E+02  0.69999995733E+02 0.  0.
        -12    1    1    2    0    0  0.38462249822E+01 -0.34530770808E+01 -0.17998947310E+02  0.18726432981E+02  0.00000000000E+00 0.  1.
         11    1    3    3    0    0 -0.15355390184E+00  0.92038076112E+01  0.41461738413E+02  0.42471277422E+02  0.51100000000E-03 0. -1.
        -11    1    3    3    0    0  0.49354974041E+01  0.34179213919E+01 -0.62705870984E+01  0.86811050038E+01  0.51100000000E-03 0.  1.
        -12    1    3    3    0    0 -0.86281684845E+01 -0.91686519223E+01 -0.17192204005E+02  0.21309184593E+02  0.00000000000E+00 0.  1.
</event>
<event>
 7    1  0.2688173E-013  0.7246153E+02  0.7816164E-02  0.1226708E+00
        -11   -1    0    0    0    0  0.00000000000E+00  0.00000000000E+00  0.45593999997E+02  0.45594000000E+02  0.51100000000E-03 0. -1.
         11   -1    0    0    0    0 -0.00000000000E+00 -0.00000000000E+00 -0.45593999997E+02  0.45594000000E+02  0.51100000000E-03 0.  1.
    9900012    2    1    2    0    0 -0.13363550073E+02 -0.12750822130E+02  0.30842999864E+01  0.72461525640E+02  0.69999941829E+02 0.  0.
        -12    1    1    2    0    0  0.13363550073E+02  0.12750822130E+02 -0.30842999864E+01  0.18726474360E+02  0.00000000000E+00 0.  1.
         11    1    3    3    0    0  0.31571109074E+01 -0.23740415675E+02  0.87089907329E+00  0.23965248823E+02  0.51100000000E-03 0. -1.
        -11    1    3    3    0    0 -0.38951726675E+01 -0.16514948775E+02 -0.43761268696E+01  0.17523309898E+02  0.51100000000E-03 0.  1.
        -12    1    3    3    0    0 -0.12625488313E+02  0.27504542320E+02  0.65895277827E+01  0.30972966919E+02  0.00000000000E+00 0.  1.
</event>
<event>
 7    1  0.2688173E-013  0.7246227E+02  0.7816164E-02  0.1226706E+00
        -11   -1    0    0    0    0  0.00000000000E+00  0.00000000000E+00  0.45593999997E+02  0.45594000000E+02  0.51100000000E-03 0. -1.
         11   -1    0    0    0    0 -0.00000000000E+00 -0.00000000000E+00 -0.45593999997E+02  0.45594000000E+02  0.51100000000E-03 0.  1.
    9900012    2    1    2    0    0  0.28874638941E+01 -0.14368699008E+02 -0.11655722515E+02  0.72462273679E+02  0.70000916283E+02 0.  0.
        -12    1    1    2    0    0 -0.28874638941E+01  0.14368699008E+02  0.11655722515E+02  0.18725726321E+02  0.00000000000E+00 0.  1.
         11    1    3    3    0    0  0.29119061881E+01  0.34463925881E+01 -0.47389047231E+01  0.65432436723E+01  0.51100000000E-03 0. -1.
        -11    1    3    3    0    0  0.55345106583E+01 -0.20376313137E+02 -0.32972742220E+02  0.39153884546E+02  0.51100000000E-03 0.  1.
         12    1    3    3    0    0 -0.55589529522E+01  0.25612215409E+01  0.26055924428E+02  0.26765145460E+02  0.00000000000E+00 0. -1.
</event>
<event>
 7    1  0.2688173E-013  0.7246153E+02  0.7816164E-02  0.1226708E+00
        -11   -1    0    0    0    0  0.00000000000E+00  0.00000000000E+00  0.45593999997E+02  0.45594000000E+02  0.51100000000E-03 0. -1.
         11   -1    0    0    0    0 -0.00000000000E+00 -0.00000000000E+00 -0.45593999997E+02  0.45594000000E+02  0.51100000000E-03 0.  1.
    9900012    2    1    2    0    0 -0.14166319528E+02 -0.21958067465E+01  0.12048836336E+02  0.72461531211E+02  0.69999949087E+02 0.  0.
        -12    1    1    2    0    0  0.14166319528E+02  0.21958067465E+01 -0.12048836336E+02  0.18726468789E+02  0.00000000000E+00 0.  1.
         11    1    3    3    0    0 -0.77373523059E+01  0.62662513112E+01  0.28005586045E+02  0.29722809023E+02  0.51100000000E-03 0. -1.
        -11    1    3    3    0    0 -0.14331040625E+02 -0.13982682544E+02  0.41434878593E+01  0.20446579871E+02  0.51100000000E-03 0.  1.
        -12    1    3    3    0    0  0.79020734030E+01  0.55206244866E+01 -0.20100237568E+02  0.22292142317E+02  0.00000000000E+00 0.  1.
</event>
<event>
 7    1  0.2688173E-013  0.7246177E+02  0.7816164E-02  0.1226707E+00
        -11   -1    0    0    0    0  0.00000000000E+00  0.00000000000E+00  0.45593999997E+02  0.45594000000E+02  0.51100000000E-03 0.  1.
         11   -1    0    0    0    0 -0.00000000000E+00 -0.00000000000E+00 -0.45593999997E+02  0.45594000000E+02  0.51100000000E-03 0. -1.
    9900012    2    1    2    0    0  0.17411966717E+02 -0.67180314779E+01 -0.15372929710E+01  0.72461767021E+02  0.70000256273E+02 0.  0.
        -12    1    1    2    0    0 -0.17411966717E+02  0.67180314779E+01  0.15372929710E+01  0.18726232979E+02  0.00000000000E+00 0.  1.
         11    1    3    3    0    0  0.23292110632E+01 -0.31881544864E+01  0.15610359901E+01  0.42457492660E+01  0.51100000000E-03 0. -1.
        -11    1    3    3    0    0  0.12324396123E+02 -0.34217224640E+02  0.40283329783E+01  0.36591483554E+02  0.51100000000E-03 0.  1.
         12    1    3    3    0    0  0.27583595315E+01  0.30687347649E+02 -0.71266619393E+01  0.31624534201E+02  0.00000000000E+00 0. -1.
</event>
<event>
 7    1  0.2688173E-013  0.7246154E+02  0.7816164E-02  0.1226708E+00
        -11   -1    0    0    0    0  0.00000000000E+00  0.00000000000E+00  0.45593999997E+02  0.45594000000E+02  0.51100000000E-03 0. -1.
         11   -1    0    0    0    0 -0.00000000000E+00 -0.00000000000E+00 -0.45593999997E+02  0.45594000000E+02  0.51100000000E-03 0.  1.
    9900012    2    1    2    0    0 -0.87667521957E+01 -0.49740856042E+01  0.15782359463E+02  0.72461538992E+02  0.69999959223E+02 0.  0.
        -12    1    1    2    0    0  0.87667521957E+01  0.49740856042E+01 -0.15782359463E+02  0.18726461008E+02  0.00000000000E+00 0.  1.
         11    1    3    3    0    0  0.14428014621E+02  0.19544252793E+02  0.17642214459E+02  0.30023210262E+02  0.51100000000E-03 0. -1.
        -11    1    3    3    0    0  0.24877896297E+01 -0.12297659690E+02  0.44362078216E+01  0.13307947670E+02  0.51100000000E-03 0.  1.
        -12    1    3    3    0    0 -0.25682556447E+02 -0.12220678708E+02 -0.62960628171E+01  0.29130381060E+02  0.00000000000E+00 0.  1.
</event>
<event>
 7    1  0.2688173E-013  0.7246159E+02  0.7816164E-02  0.1226708E+00
        -11   -1    0    0    0    0  0.00000000000E+00  0.00000000000E+00  0.45593999997E+02  0.45594000000E+02  0.51100000000E-03 0.  1.
         11   -1    0    0    0    0 -0.00000000000E+00 -0.00000000000E+00 -0.45593999997E+02  0.45594000000E+02  0.51100000000E-03 0. -1.
    9900012    2    1    2    0    0 -0.51357713818E+01  0.14630939073E+02 -0.10499424165E+02  0.72461589943E+02  0.70000025596E+02 0.  0.
        -12    1    1    2    0    0  0.51357713818E+01 -0.14630939073E+02  0.10499424165E+02  0.18726410057E+02  0.00000000000E+00 0.  1.
         11    1    3    3    0    0  0.66874098758E+01  0.51437019719E+00 -0.96423339006E+01  0.11745664343E+02  0.51100000000E-03 0. -1.
        -11    1    3    3    0    0  0.38677140441E+01  0.95591085553E+01  0.26731691108E+02  0.28651685432E+02  0.51100000000E-03 0.  1.
         12    1    3    3    0    0 -0.15690895302E+02  0.45574603206E+01 -0.27588781372E+02  0.32064240168E+02  0.00000000000E+00 0. -1.
</event>
<event>
 7    1  0.2688173E-013  0.7246163E+02  0.7816164E-02  0.1226708E+00
        -11   -1    0    0    0    0  0.00000000000E+00  0.00000000000E+00  0.45593999997E+02  0.45594000000E+02  0.51100000000E-03 0. -1.
         11   -1    0    0    0    0 -0.00000000000E+00 -0.00000000000E+00 -0.45593999997E+02  0.45594000000E+02  0.51100000000E-03 0.  1.
    9900012    2    1    2    0    0  0.82371773903E+01 -0.16690355196E+02 -0.20635092795E+01  0.72461625058E+02  0.70000071340E+02 0.  0.
        -12    1    1    2    0    0 -0.82371773903E+01  0.16690355196E+02  0.20635092795E+01  0.18726374942E+02  0.00000000000E+00 0.  1.
         11    1    3    3    0    0 -0.61249594452E+01  0.98121230490E+01 -0.24735678514E+01  0.11828416002E+02  0.51100000000E-03 0. -1.
        -11    1    3    3    0    0 -0.47345887048E+01  0.13935169466E+02  0.53085021917E+01  0.15645621561E+02  0.51100000000E-03 0.  1.
        -12    1    3    3    0    0  0.19096725540E+02 -0.40437647711E+02 -0.48984436197E+01  0.44987587495E+02  0.00000000000E+00 0.  1.
</event>
<event>
 7    1  0.2688173E-013  0.7246147E+02  0.7816164E-02  0.1226708E+00
        -11   -1    0    0    0    0  0.00000000000E+00  0.00000000000E+00  0.45593999997E+02  0.45594000000E+02  0.51100000000E-03 0. -1.
         11   -1    0    0    0    0 -0.00000000000E+00 -0.00000000000E+00 -0.45593999997E+02  0.45594000000E+02  0.51100000000E-03 0.  1.
    9900012    2    1    2    0    0 -0.18555549429E+02 -0.10133376119E+01 -0.23125094034E+01  0.72461468889E+02  0.69999867900E+02 0.  0.
        -12    1    1    2    0    0  0.18555549429E+02  0.10133376119E+01  0.23125094034E+01  0.18726531111E+02  0.00000000000E+00 0.  1.
         11    1    3    3    0    0 -0.23460812283E+01 -0.16860175117E+02 -0.10438418486E+02  0.19968229337E+02  0.51100000000E-03 0.  1.
        -11    1    3    3    0    0 -0.17131936610E+02  0.26255000618E+02 -0.88357356868E+01  0.32571437408E+02  0.51100000000E-03 0. -1.
         12    1    3    3    0    0  0.92246840979E+00 -0.10408163113E+02  0.16961644770E+02  0.19921802143E+02  0.00000000000E+00 0. -1.
</event>
<event>
 7    1  0.2688173E-013  0.7246155E+02  0.7816164E-02  0.1226708E+00
        -11   -1    0    0    0    0  0.00000000000E+00  0.00000000000E+00  0.45593999997E+02  0.45594000000E+02  0.51100000000E-03 0.  1.
         11   -1    0    0    0    0 -0.00000000000E+00 -0.00000000000E+00 -0.45593999997E+02  0.45594000000E+02  0.51100000000E-03 0. -1.
    9900012    2    1    2    0    0 -0.43809864030E+00  0.14299411058E+02 -0.12083657350E+02  0.72461551806E+02  0.69999975915E+02 0.  0.
        -12    1    1    2    0    0  0.43809864030E+00 -0.14299411058E+02  0.12083657350E+02  0.18726448194E+02  0.00000000000E+00 0.  1.
         11    1    3    3    0    0 -0.14497377004E+02  0.16698040127E+02 -0.24823837815E+02  0.33244870405E+02  0.51100000000E-03 0. -1.
        -11    1    3    3    0    0  0.15097396782E+02  0.11630211118E+02 -0.16050508255E+01  0.19125098396E+02  0.51100000000E-03 0.  1.
        -12    1    3    3    0    0 -0.10381184186E+01 -0.14028840187E+02  0.14345231291E+02  0.20091583005E+02  0.00000000000E+00 0.  1.
</event>
<event>
 7    1  0.2688173E-013  0.7246156E+02  0.7816164E-02  0.1226708E+00
        -11   -1    0    0    0    0  0.00000000000E+00  0.00000000000E+00  0.45593999997E+02  0.45594000000E+02  0.51100000000E-03 0.  1.
         11   -1    0    0    0    0 -0.00000000000E+00 -0.00000000000E+00 -0.45593999997E+02  0.45594000000E+02  0.51100000000E-03 0. -1.
    9900012    2    1    2    0    0 -0.64228794836E+01  0.14459321464E+02 -0.10017702400E+02  0.72461555611E+02  0.69999980872E+02 0.  0.
        -12    1    1    2    0    0  0.64228794836E+01 -0.14459321464E+02  0.10017702400E+02  0.18726444389E+02  0.00000000000E+00 0.  1.
         11    1    3    3    0    0 -0.10444829833E+02  0.16018895965E+01 -0.21674327923E+02  0.24113005032E+02  0.51100000000E-03 0. -1.
        -11    1    3    3    0    0 -0.18420223401E+02  0.15365294714E+02  0.30430551428E+01  0.24179683551E+02  0.51100000000E-03 0.  1.
        -12    1    3    3    0    0  0.22442173751E+02 -0.25078628459E+01  0.86135703795E+01  0.24168867028E+02  0.00000000000E+00 0.  1.
</event>
<event>
 7    1  0.2688173E-013  0.7246160E+02  0.7816164E-02  0.1226708E+00
        -11   -1    0    0    0    0  0.00000000000E+00  0.00000000000E+00  0.45593999997E+02  0.45594000000E+02  0.51100000000E-03 0. -1.
         11   -1    0    0    0    0 -0.00000000000E+00 -0.00000000000E+00 -0.45593999997E+02  0.45594000000E+02  0.51100000000E-03 0.  1.
    9900012    2    1    2    0    0  0.17710600862E+02  0.50242162637E+01  0.34307446911E+01  0.72461597754E+02  0.70000035771E+02 0.  0.
        -12    1    1    2    0    0 -0.17710600862E+02 -0.50242162637E+01 -0.34307446911E+01  0.18726402246E+02  0.00000000000E+00 0.  1.
         11    1    3    3    0    0  0.79289069277E+00 -0.84229791356E+01  0.43842177733E+00  0.84715681598E+01  0.51100000000E-03 0. -1.
        -11    1    3    3    0    0  0.38416461767E+02 -0.22489259447E+00  0.92217527895E+00  0.38428186515E+02  0.51100000000E-03 0.  1.
         12    1    3    3    0    0 -0.21498751597E+02  0.13672087994E+02  0.20701476348E+01  0.25561843079E+02  0.00000000000E+00 0. -1.
</event>
<event>
 7    1  0.2688173E-013  0.7246160E+02  0.7816164E-02  0.1226708E+00
        -11   -1    0    0    0    0  0.00000000000E+00  0.00000000000E+00  0.45593999997E+02  0.45594000000E+02  0.51100000000E-03 0. -1.
         11   -1    0    0    0    0 -0.00000000000E+00 -0.00000000000E+00 -0.45593999997E+02  0.45594000000E+02  0.51100000000E-03 0.  1.
    9900012    2    1    2    0    0  0.18436857573E+02 -0.20111209223E+01  0.25914404553E+01  0.72461604507E+02  0.70000044568E+02 0.  0.
        -12    1    1    2    0    0 -0.18436857573E+02  0.20111209223E+01 -0.25914404553E+01  0.18726395493E+02  0.00000000000E+00 0.  1.
         11    1    3    3    0    0  0.14562765031E+02 -0.77648243345E+01  0.30582475452E+02  0.34751322670E+02  0.51100000000E-03 0. -1.
        -11    1    3    3    0    0 -0.15329474942E+01 -0.13120610518E+01  0.40134303783E+01  0.44921104045E+01  0.51100000000E-03 0.  1.
        -12    1    3    3    0    0  0.54070400356E+01  0.70657644640E+01 -0.32004465375E+02  0.33218171433E+02  0.00000000000E+00 0.  1.
</event>
<event>
 7    1  0.2688173E-013  0.7246160E+02  0.7816164E-02  0.1226708E+00
        -11   -1    0    0    0    0  0.00000000000E+00  0.00000000000E+00  0.45593999997E+02  0.45594000000E+02  0.51100000000E-03 0.  1.
         11   -1    0    0    0    0 -0.00000000000E+00 -0.00000000000E+00 -0.45593999997E+02  0.45594000000E+02  0.51100000000E-03 0. -1.
    9900012    2    1    2    0    0 -0.17716026432E+01 -0.14484910418E+02 -0.11735705358E+02  0.72461601895E+02  0.70000041165E+02 0.  0.
        -12    1    1    2    0    0  0.17716026432E+01  0.14484910418E+02  0.11735705358E+02  0.18726398105E+02  0.00000000000E+00 0.  1.
         11    1    3    3    0    0  0.21734257668E+02  0.28443890646E+01 -0.20157889355E+01  0.22012085563E+02  0.51100000000E-03 0. -1.
        -11    1    3    3    0    0  0.55688482140E+01 -0.25829117115E+00 -0.15291864321E+02  0.16276360141E+02  0.51100000000E-03 0.  1.
        -12    1    3    3    0    0 -0.29074708526E+02 -0.17071008312E+02  0.55719478986E+01  0.34173156190E+02  0.00000000000E+00 0.  1.
</event>
<event>
 7    1  0.2688173E-013  0.7246154E+02  0.7816164E-02  0.1226708E+00
        -11   -1    0    0    0    0  0.00000000000E+00  0.00000000000E+00  0.45593999997E+02  0.45594000000E+02  0.51100000000E-03 0. -1.
         11   -1    0    0    0    0 -0.00000000000E+00 -0.00000000000E+00 -0.45593999997E+02  0.45594000000E+02  0.51100000000E-03 0.  1.
    9900012    2    1    2    0    0 -0.16325547942E+02  0.34250028955E+01  0.85103449593E+01  0.72461544602E+02  0.69999966531E+02 0.  0.
        -12    1    1    2    0    0  0.16325547942E+02 -0.34250028955E+01 -0.85103449593E+01  0.18726455398E+02  0.00000000000E+00 0.  1.
         11    1    3    3    0    0  0.48643919361E+01 -0.16423547385E+02  0.50662515401E+01  0.17862310113E+02  0.51100000000E-03 0. -1.
        -11    1    3    3    0    0  0.19897996008E+01  0.52453032091E+00 -0.17656473697E+02  0.17775980935E+02  0.51100000000E-03 0.  1.
         12    1    3    3    0    0 -0.23179739479E+02  0.19324019960E+02  0.21100567116E+02  0.36823253555E+02  0.00000000000E+00 0. -1.
</event>
<event>
 7    1  0.2688173E-013  0.7246141E+02  0.7816164E-02  0.1226708E+00
        -11   -1    0    0    0    0  0.00000000000E+00  0.00000000000E+00  0.45593999997E+02  0.45594000000E+02  0.51100000000E-03 0.  1.
         11   -1    0    0    0    0 -0.00000000000E+00 -0.00000000000E+00 -0.45593999997E+02  0.45594000000E+02  0.51100000000E-03 0. -1.
    9900012    2    1    2    0    0 -0.88650292119E+01  0.97909401534E+01 -0.13275307037E+02  0.72461413847E+02  0.69999796198E+02 0.  0.
        -12    1    1    2    0    0  0.88650292119E+01 -0.97909401534E+01  0.13275307037E+02  0.18726586153E+02  0.00000000000E+00 0.  1.
         11    1    3    3    0    0 -0.23756405030E+02 -0.53838300340E+00 -0.63537288492E+01  0.24597286573E+02  0.51100000000E-03 0.  1.
        -11    1    3    3    0    0  0.25249613462E+01  0.29037311390E+01 -0.24684178788E+02  0.24982309081E+02  0.51100000000E-03 0. -1.
        -12    1    3    3    0    0  0.12366414472E+02  0.74255920179E+01  0.17762600601E+02  0.22881818193E+02  0.00000000000E+00 0.  1.
</event>
<event>
 7    1  0.2688173E-013  0.7246162E+02  0.7816164E-02  0.1226708E+00
        -11   -1    0    0    0    0  0.00000000000E+00  0.00000000000E+00  0.45593999997E+02  0.45594000000E+02  0.51100000000E-03 0.  1.
         11   -1    0    0    0    0 -0.00000000000E+00 -0.00000000000E+00 -0.45593999997E+02  0.45594000000E+02  0.51100000000E-03 0. -1.
    9900012    2    1    2    0    0 -0.26313975638E+01 -0.17947636336E+02 -0.46513999203E+01  0.72461616889E+02  0.70000060699E+02 0.  0.
        -12    1    1    2    0    0  0.26313975638E+01  0.17947636336E+02  0.46513999203E+01  0.18726383111E+02  0.00000000000E+00 0.  1.
         11    1    3    3    0    0  0.11891944852E+02 -0.93459575225E+01 -0.51019361543E+00  0.15133590855E+02  0.51100000000E-03 0. -1.
        -11    1    3    3    0    0 -0.44213656851E+01 -0.30479117284E+02  0.56599512048E+01  0.31313896481E+02  0.51100000000E-03 0.  1.
         12    1    3    3    0    0 -0.10101976731E+02  0.21877438470E+02 -0.98011575096E+01  0.26014129553E+02  0.00000000000E+00 0. -1.
</event>
<event>
 7    1  0.2688173E-013  0.7246161E+02  0.7816164E-02  0.1226708E+00
        -11   -1    0    0    0    0  0.00000000000E+00  0.00000000000E+00  0.45593999997E+02  0.45594000000E+02  0.51100000000E-03 0. -1.
         11   -1    0    0    0    0 -0.00000000000E+00 -0.00000000000E+00 -0.45593999997E+02  0.45594000000E+02  0.51100000000E-03 0.  1.
    9900012    2    1    2    0    0 -0.17394843964E+02  0.51735291035E+01  0.46186433278E+01  0.72461605096E+02  0.70000045335E+02 0.  0.
        -12    1    1    2    0    0  0.17394843964E+02 -0.51735291035E+01 -0.46186433278E+01  0.18726394904E+02  0.00000000000E+00 0.  1.
         11    1    3    3    0    0 -0.32335223107E+02 -0.18444468313E+02 -0.73186818997E+00  0.37233059182E+02  0.51100000000E-03 0. -1.
        -11    1    3    3    0    0 -0.40018360956E+01 -0.43134786263E+00 -0.51656815026E+00  0.40580285890E+01  0.51100000000E-03 0.  1.
        -12    1    3    3    0    0  0.18942215238E+02  0.24049345279E+02  0.58670796680E+01  0.31170517325E+02  0.00000000000E+00 0.  1.
</event>
<event>
 7    1  0.2688173E-013  0.7246156E+02  0.7816164E-02  0.1226708E+00
        -11   -1    0    0    0    0  0.00000000000E+00  0.00000000000E+00  0.45593999997E+02  0.45594000000E+02  0.51100000000E-03 0. -1.
         11   -1    0    0    0    0 -0.00000000000E+00 -0.00000000000E+00 -0.45593999997E+02  0.45594000000E+02  0.51100000000E-03 0.  1.
    9900012    2    1    2    0    0  0.15492787845E+02  0.46682923805E+01  0.94265660241E+01  0.72461559442E+02  0.69999985863E+02 0.  0.
        -12    1    1    2    0    0 -0.15492787845E+02 -0.46682923805E+01 -0.94265660241E+01  0.18726440558E+02  0.00000000000E+00 0.  1.
         11    1    3    3    0    0  0.17236165385E+02 -0.61445337166E+00 -0.23146091696E+01  0.17401734569E+02  0.51100000000E-03 0. -1.
        -11    1    3    3    0    0 -0.26975355741E+02  0.13978191276E+01  0.12462060883E+00  0.27011835299E+02  0.51100000000E-03 0.  1.
         12    1    3    3    0    0  0.25231978200E+02  0.38849266245E+01  0.11616554585E+02  0.28047989575E+02  0.00000000000E+00 0. -1.
</event>
<event>
 7    1  0.2688173E-013  0.7246147E+02  0.7816164E-02  0.1226708E+00
        -11   -1    0    0    0    0  0.00000000000E+00  0.00000000000E+00  0.45593999997E+02  0.45594000000E+02  0.51100000000E-03 0.  1.
         11   -1    0    0    0    0 -0.00000000000E+00 -0.00000000000E+00 -0.45593999997E+02  0.45594000000E+02  0.51100000000E-03 0. -1.
    9900012    2    1    2    0    0 -0.23000000828E+01 -0.22100542886E+01 -0.18452873000E+02  0.72461471697E+02  0.69999871558E+02 0.  0.
        -12    1    1    2    0    0  0.23000000828E+01  0.22100542886E+01  0.18452873000E+02  0.18726528303E+02  0.00000000000E+00 0.  1.
         11    1    3    3    0    0  0.38344415910E+01 -0.51581395662E+01 -0.15841256062E+02  0.17095459631E+02  0.51100000000E-03 0. -1.
        -11    1    3    3    0    0  0.20161627870E+01 -0.13020325894E+02 -0.24047934955E+02  0.27420739863E+02  0.51100000000E-03 0.  1.
        -12    1    3    3    0    0 -0.81506044608E+01  0.15968411172E+02  0.21436318017E+02  0.27945272204E+02  0.00000000000E+00 0.  1.
</event>
<event>
 7    1  0.2688173E-013  0.7246144E+02  0.7816164E-02  0.1226708E+00
        -11   -1    0    0    0    0  0.00000000000E+00  0.00000000000E+00  0.45593999997E+02  0.45594000000E+02  0.51100000000E-03 0.  1.
         11   -1    0    0    0    0 -0.00000000000E+00 -0.00000000000E+00 -0.45593999997E+02  0.45594000000E+02  0.51100000000E-03 0. -1.
    9900012    2    1    2    0    0 -0.18450579104E+02  0.31916538509E+00 -0.31872089560E+01  0.72461440339E+02  0.69999830709E+02 0.  0.
        -12    1    1    2    0    0  0.18450579104E+02 -0.31916538509E+00  0.31872089560E+01  0.18726559661E+02  0.00000000000E+00 0.  1.
         11    1    3    3    0    0 -0.52453482152E+01  0.38109856406E+00  0.17548081257E+02  0.18319226787E+02  0.51100000000E-03 0.  1.
        -11    1    3    3    0    0 -0.10303242091E+02 -0.23311831604E+02 -0.16418004269E+02  0.30317472763E+02  0.51100000000E-03 0. -1.
         12    1    3    3    0    0 -0.29019887979E+01  0.23249898425E+02 -0.43172859435E+01  0.23824740789E+02  0.00000000000E+00 0. -1.
</event>
<event>
 7    1  0.2688173E-013  0.7246158E+02  0.7816164E-02  0.1226708E+00
        -11   -1    0    0    0    0  0.00000000000E+00  0.00000000000E+00  0.45593999997E+02  0.45594000000E+02  0.51100000000E-03 0. -1.
         11   -1    0    0    0    0 -0.00000000000E+00 -0.00000000000E+00 -0.45593999997E+02  0.45594000000E+02  0.51100000000E-03 0.  1.
    9900012    2    1    2    0    0  0.12501959031E+02 -0.36262825865E+01 -0.13462166594E+02  0.72461579242E+02  0.70000011656E+02 0.  0.
        -12    1    1    2    0    0 -0.12501959031E+02  0.36262825865E+01  0.13462166594E+02  0.18726420758E+02  0.00000000000E+00 0.  1.
         11    1    3    3    0    0 -0.70754741337E+01  0.10176846394E+02  0.31693565765E+01  0.12793567060E+02  0.51100000000E-03 0. -1.
        -11    1    3    3    0    0 -0.17791066447E+02 -0.69745729868E+01 -0.79761554240E+01  0.20707142953E+02  0.51100000000E-03 0.  1.
        -12    1    3    3    0    0  0.37368499612E+02 -0.68285559936E+01 -0.86553677468E+01  0.38960869229E+02  0.00000000000E+00 0.  1.
</event>
<event>
 7    1  0.2688173E-013  0.7246160E+02  0.7816164E-02  0.1226708E+00
        -11   -1    0    0    0    0  0.00000000000E+00  0.00000000000E+00  0.45593999997E+02  0.45594000000E+02  0.51100000000E-03 0. -1.
         11   -1    0    0    0    0 -0.00000000000E+00 -0.00000000000E+00 -0.45593999997E+02  0.45594000000E+02  0.51100000000E-03 0.  1.
    9900012    2    1    2    0    0 -0.96755758209E+01  0.15761294118E+02  0.29398690996E+01  0.72461601786E+02  0.70000041024E+02 0.  0.
        -12    1    1    2    0    0  0.96755758209E+01 -0.15761294118E+02 -0.29398690996E+01  0.18726398214E+02  0.00000000000E+00 0.  1.
         11    1    3    3    0    0 -0.25846032472E+02  0.27208872722E+02 -0.10212445380E+02  0.38892598143E+02  0.51100000000E-03 0. -1.
        -11    1    3    3    0    0 -0.41951309895E+01  0.55537399678E+00 -0.27786436710E+01  0.50624524893E+01  0.51100000000E-03 0.  1.
         12    1    3    3    0    0  0.20365587641E+02 -0.12002952601E+02  0.15930958151E+02  0.28506551154E+02  0.00000000000E+00 0. -1.
</event>
<event>
 7    1  0.2688173E-013  0.7246156E+02  0.7816164E-02  0.1226708E+00
        -11   -1    0    0    0    0  0.00000000000E+00  0.00000000000E+00  0.45593999997E+02  0.45594000000E+02  0.51100000000E-03 0.  1.
         11   -1    0    0    0    0 -0.00000000000E+00 -0.00000000000E+00 -0.45593999997E+02  0.45594000000E+02  0.51100000000E-03 0. -1.
    9900012    2    1    2    0    0  0.13185522194E+02  0.13019904809E+02 -0.27025095825E+01  0.72461562143E+02  0.69999989382E+02 0.  0.
        -12    1    1    2    0    0 -0.13185522194E+02 -0.13019904809E+02  0.27025095825E+01  0.18726437857E+02  0.00000000000E+00 0.  1.
         11    1    3    3    0    0  0.34610222294E+01  0.29232475409E+01 -0.12472973324E+02  0.13270234168E+02  0.51100000000E-03 0. -1.
        -11    1    3    3    0    0  0.95131262202E+01 -0.22668822868E+02 -0.12654422244E+01  0.24616588817E+02  0.51100000000E-03 0.  1.
        -12    1    3    3    0    0  0.21137374438E+00  0.32765480136E+02  0.11035905966E+02  0.34574739159E+02  0.00000000000E+00 0.  1.
</event>
<event>
 7    1  0.2688173E-013  0.7246154E+02  0.7816164E-02  0.1226708E+00
        -11   -1    0    0    0    0  0.00000000000E+00  0.00000000000E+00  0.45593999997E+02  0.45594000000E+02  0.51100000000E-03 0.  1.
         11   -1    0    0    0    0 -0.00000000000E+00 -0.00000000000E+00 -0.45593999997E+02  0.45594000000E+02  0.51100000000E-03 0. -1.
    9900012    2    1    2    0    0  0.23554886123E+01  0.17313958372E+01 -0.18496868858E+02  0.72461542361E+02  0.69999963612E+02 0.  0.
        -12    1    1    2    0    0 -0.23554886123E+01 -0.17313958372E+01  0.18496868858E+02  0.18726457639E+02  0.00000000000E+00 0.  1.
         11    1    3    3    0    0  0.28294618193E+01  0.46219752541E+01 -0.90282984746E+01  0.10529894731E+02  0.51100000000E-03 0. -1.
        -11    1    3    3    0    0 -0.88567643349E+01  0.20071130913E+02 -0.24773862562E+02  0.33091340818E+02  0.51100000000E-03 0.  1.
        -12    1    3    3    0    0  0.83827911279E+01 -0.22961710330E+02  0.15305292179E+02  0.28840306813E+02  0.00000000000E+00 0.  1.
</event>
<event>
 7    1  0.2688173E-013  0.7246151E+02  0.7816164E-02  0.1226708E+00
        -11   -1    0    0    0    0  0.00000000000E+00  0.00000000000E+00  0.45593999997E+02  0.45594000000E+02  0.51100000000E-03 0.  1.
         11   -1    0    0    0    0 -0.00000000000E+00 -0.00000000000E+00 -0.45593999997E+02  0.45594000000E+02  0.51100000000E-03 0. -1.
    9900012    2    1    2    0    0  0.69526079563E+01  0.12096210799E+02 -0.12490970249E+02  0.72461510450E+02  0.69999922042E+02 0.  0.
        -12    1    1    2    0    0 -0.69526079563E+01 -0.12096210799E+02  0.12490970249E+02  0.18726489550E+02  0.00000000000E+00 0.  1.
         11    1    3    3    0    0  0.13678534178E+02 -0.36790604107E+01 -0.20898415999E+02  0.25246417058E+02  0.51100000000E-03 0. -1.
        -11    1    3    3    0    0  0.94309202413E+01 -0.74851731793E+01 -0.80271244094E+01  0.14470825846E+02  0.51100000000E-03 0.  1.
        -12    1    3    3    0    0 -0.16156846463E+02  0.23260444389E+02  0.16434570160E+02  0.32744267546E+02  0.00000000000E+00 0.  1.
</event>
<event>
 7    1  0.2688173E-013  0.7246157E+02  0.7816164E-02  0.1226708E+00
        -11   -1    0    0    0    0  0.00000000000E+00  0.00000000000E+00  0.45593999997E+02  0.45594000000E+02  0.51100000000E-03 0.  1.
         11   -1    0    0    0    0 -0.00000000000E+00 -0.00000000000E+00 -0.45593999997E+02  0.45594000000E+02  0.51100000000E-03 0. -1.
    9900012    2    1    2    0    0 -0.14223809216E+01 -0.74363101866E+01 -0.17127673350E+02  0.72461572923E+02  0.70000003424E+02 0.  0.
        -12    1    1    2    0    0  0.14223809216E+01  0.74363101866E+01  0.17127673350E+02  0.18726427077E+02  0.00000000000E+00 0.  1.
         11    1    3    3    0    0 -0.16101858456E+02  0.15478305470E+02 -0.26060436655E+02  0.34321919306E+02  0.51100000000E-03 0.  1.
        -11    1    3    3    0    0  0.14514995922E+02 -0.18098112176E+02 -0.47079827368E+01  0.23672597505E+02  0.51100000000E-03 0. -1.
        -12    1    3    3    0    0  0.16448161239E+00 -0.48165034802E+01  0.13640746042E+02  0.14467056112E+02  0.00000000000E+00 0.  1.
</event>
<event>
 7    1  0.2688173E-013  0.7246156E+02  0.7816164E-02  0.1226708E+00
        -11   -1    0    0    0    0  0.00000000000E+00  0.00000000000E+00  0.45593999997E+02  0.45594000000E+02  0.51100000000E-03 0.  1.
         11   -1    0    0    0    0 -0.00000000000E+00 -0.00000000000E+00 -0.45593999997E+02  0.45594000000E+02  0.51100000000E-03 0. -1.
    9900012    2    1    2    0    0 -0.13451255169E+00  0.15028691660E+02 -0.11171379307E+02  0.72461564615E+02  0.69999992601E+02 0.  0.
        -12    1    1    2    0    0  0.13451255169E+00 -0.15028691660E+02  0.11171379307E+02  0.18726435385E+02  0.00000000000E+00 0.  1.
         11    1    3    3    0    0  0.23909351457E+02  0.16015098711E+02 -0.72082652619E+01  0.29666472021E+02  0.51100000000E-03 0. -1.
        -11    1    3    3    0    0  0.23425025449E+01  0.12673057470E+02 -0.16490296355E+01  0.12992805810E+02  0.51100000000E-03 0.  1.
        -12    1    3    3    0    0 -0.26386366553E+02 -0.13659464522E+02 -0.23140844096E+01  0.29802286784E+02  0.00000000000E+00 0.  1.
</event>
<event>
 7    1  0.2688173E-013  0.7246156E+02  0.7816164E-02  0.1226708E+00
        -11   -1    0    0    0    0  0.00000000000E+00  0.00000000000E+00  0.45593999997E+02  0.45594000000E+02  0.51100000000E-03 0. -1.
         11   -1    0    0    0    0 -0.00000000000E+00 -0.00000000000E+00 -0.45593999997E+02  0.45594000000E+02  0.51100000000E-03 0.  1.
    9900012    2    1    2    0    0 -0.53833278587E+01 -0.98989542638E+01  0.14956937026E+02  0.72461562016E+02  0.69999989217E+02 0.  0.
        -12    1    1    2    0    0  0.53833278587E+01  0.98989542638E+01 -0.14956937026E+02  0.18726437984E+02  0.00000000000E+00 0.  1.
         11    1    3    3    0    0 -0.23618587851E+02  0.10353462890E+02  0.68712580448E+01  0.26687938723E+02  0.51100000000E-03 0. -1.
        -11    1    3    3    0    0  0.22009369467E+02  0.23434903731E+01  0.34651906685E+01  0.22403388987E+02  0.51100000000E-03 0.  1.
        -12    1    3    3    0    0 -0.37741094749E+01 -0.22595907527E+02  0.46204883126E+01  0.23370234307E+02  0.00000000000E+00 0.  1.
</event>
<event>
 7    1  0.2688173E-013  0.7246138E+02  0.7816164E-02  0.1226709E+00
        -11   -1    0    0    0    0  0.00000000000E+00  0.00000000000E+00  0.45593999997E+02  0.45594000000E+02  0.51100000000E-03 0. -1.
         11   -1    0    0    0    0 -0.00000000000E+00 -0.00000000000E+00 -0.45593999997E+02  0.45594000000E+02  0.51100000000E-03 0.  1.
    9900012    2    1    2    0    0  0.15372377262E+02 -0.91849107728E+01 -0.54784853426E+01  0.72461378035E+02  0.69999749546E+02 0.  0.
        -12    1    1    2    0    0 -0.15372377262E+02  0.91849107728E+01  0.54784853426E+01  0.18726621965E+02  0.00000000000E+00 0.  1.
         11    1    3    3    0    0 -0.35617840596E+00  0.27410708519E+01 -0.57011366461E+01  0.63358734040E+01  0.51100000000E-03 0. -1.
        -11    1    3    3    0    0  0.14663518075E+02 -0.30267058671E+02 -0.19738639727E+02  0.38996506273E+02  0.51100000000E-03 0.  1.
         12    1    3    3    0    0  0.10650375922E+01  0.18341077047E+02  0.19961291030E+02  0.27128998358E+02  0.00000000000E+00 0. -1.
</event>
<event>
 7    1  0.2688173E-013  0.7246140E+02  0.7816164E-02  0.1226708E+00
        -11   -1    0    0    0    0  0.00000000000E+00  0.00000000000E+00  0.45593999997E+02  0.45594000000E+02  0.51100000000E-03 0. -1.
         11   -1    0    0    0    0 -0.00000000000E+00 -0.00000000000E+00 -0.45593999997E+02  0.45594000000E+02  0.51100000000E-03 0.  1.
    9900012    2    1    2    0    0  0.18464418596E+02 -0.12074872346E+01 -0.28797331419E+01  0.72461397465E+02  0.69999774858E+02 0.  0.
        -12    1    1    2    0    0 -0.18464418596E+02  0.12074872346E+01  0.28797331419E+01  0.18726602535E+02  0.00000000000E+00 0.  1.
         11    1    3    3    0    0 -0.41410157729E+01  0.65493322152E+00 -0.98665240976E+01  0.10720319360E+02  0.51100000000E-03 0. -1.
        -11    1    3    3    0    0  0.18514618191E+02  0.82543753584E+01 -0.22508846876E+02  0.30291483741E+02  0.51100000000E-03 0.  1.
         12    1    3    3    0    0  0.40908161781E+01 -0.10116795815E+02  0.29495637831E+02  0.31449594364E+02  0.00000000000E+00 0. -1.
</event>
<event>
 7    1  0.2688173E-013  0.7246155E+02  0.7816164E-02  0.1226708E+00
        -11   -1    0    0    0    0  0.00000000000E+00  0.00000000000E+00  0.45593999997E+02  0.45594000000E+02  0.51100000000E-03 0.  1.
         11   -1    0    0    0    0 -0.00000000000E+00 -0.00000000000E+00 -0.45593999997E+02  0.45594000000E+02  0.51100000000E-03 0. -1.
    9900012    2    1    2    0    0 -0.14969346486E+01  0.10991058840E+02 -0.15087596612E+02  0.72461554548E+02  0.69999979487E+02 0.  0.
        -12    1    1    2    0    0  0.14969346486E+01 -0.10991058840E+02  0.15087596612E+02  0.18726445452E+02  0.00000000000E+00 0.  1.
         11    1    3    3    0    0  0.87044894685E+01  0.13827345189E+02 -0.29293465013E+02  0.33542073648E+02  0.51100000000E-03 0. -1.
        -11    1    3    3    0    0  0.37547430224E+01  0.34485819208E+01 -0.94536248821E+01  0.10740662740E+02  0.51100000000E-03 0.  1.
        -12    1    3    3    0    0 -0.13956167139E+02 -0.62848682696E+01  0.23659493284E+02  0.28178818159E+02  0.00000000000E+00 0.  1.
</event>
<event>
 7    1  0.2688173E-013  0.7246159E+02  0.7816164E-02  0.1226708E+00
        -11   -1    0    0    0    0  0.00000000000E+00  0.00000000000E+00  0.45593999997E+02  0.45594000000E+02  0.51100000000E-03 0.  1.
         11   -1    0    0    0    0 -0.00000000000E+00 -0.00000000000E+00 -0.45593999997E+02  0.45594000000E+02  0.51100000000E-03 0. -1.
    9900012    2    1    2    0    0  0.86512545071E+01 -0.11379576086E+02  0.12097080741E+02  0.72461593006E+02  0.70000029587E+02 0.  0.
        -12    1    1    2    0    0 -0.86512545071E+01  0.11379576086E+02 -0.12097080741E+02  0.18726406994E+02  0.00000000000E+00 0.  1.
         11    1    3    3    0    0 -0.26469188295E+02 -0.25032546739E+01 -0.64124157121E+01  0.27349648781E+02  0.51100000000E-03 0. -1.
        -11    1    3    3    0    0  0.14974199069E+02 -0.96765538555E+01  0.17410897670E+02  0.24919905502E+02  0.51100000000E-03 0.  1.
        -12    1    3    3    0    0  0.20146243733E+02  0.80023244332E+00  0.10985987826E+01  0.20192038723E+02  0.00000000000E+00 0.  1.
</event>
<event>
 7    1  0.2688173E-013  0.7246152E+02  0.7816164E-02  0.1226708E+00
        -11   -1    0    0    0    0  0.00000000000E+00  0.00000000000E+00  0.45593999997E+02  0.45594000000E+02  0.51100000000E-03 0. -1.
         11   -1    0    0    0    0 -0.00000000000E+00 -0.00000000000E+00 -0.45593999997E+02  0.45594000000E+02  0.51100000000E-03 0.  1.
    9900012    2    1    2    0    0 -0.22799221000E+01 -0.12286240232E+02  0.13947449657E+02  0.72461518863E+02  0.69999933002E+02 0.  0.
        -12    1    1    2    0    0  0.22799221000E+01  0.12286240232E+02 -0.13947449657E+02  0.18726481137E+02  0.00000000000E+00 0.  1.
         11    1    3    3    0    0  0.13390452671E+02 -0.15554553895E+02  0.84326267592E+01  0.22189131663E+02  0.51100000000E-03 0. -1.
        -11    1    3    3    0    0  0.14877980406E+02  0.58855560812E+00 -0.78369414444E+01  0.16826121066E+02  0.51100000000E-03 0.  1.
        -12    1    3    3    0    0 -0.30548355178E+02  0.26797580549E+01  0.13351764342E+02  0.33446266135E+02  0.00000000000E+00 0.  1.
</event>
<event>
 7    1  0.2688173E-013  0.7246168E+02  0.7816164E-02  0.1226708E+00
        -11   -1    0    0    0    0  0.00000000000E+00  0.00000000000E+00  0.45593999997E+02  0.45594000000E+02  0.51100000000E-03 0. -1.
         11   -1    0    0    0    0 -0.00000000000E+00 -0.00000000000E+00 -0.45593999997E+02  0.45594000000E+02  0.51100000000E-03 0.  1.
    9900012    2    1    2    0    0  0.93788241058E+01  0.31754629828E+01 -0.15894311265E+02  0.72461680625E+02  0.70000143726E+02 0.  0.
        -12    1    1    2    0    0 -0.93788241058E+01 -0.31754629828E+01  0.15894311265E+02  0.18726319375E+02  0.00000000000E+00 0.  1.
         11    1    3    3    0    0  0.38174080091E+01  0.28791565964E+02  0.12990286510E+02  0.31816260284E+02  0.51100000000E-03 0. -1.
        -11    1    3    3    0    0 -0.56141781310E+00 -0.64912313283E+01 -0.14642246500E+02  0.16026436189E+02  0.51100000000E-03 0.  1.
        -12    1    3    3    0    0  0.61228339097E+01 -0.19124871653E+02 -0.14242351275E+02  0.24618984152E+02  0.00000000000E+00 0.  1.
</event>
<event>
 7    1  0.2688173E-013  0.7246160E+02  0.7816164E-02  0.1226708E+00
        -11   -1    0    0    0    0  0.00000000000E+00  0.00000000000E+00  0.45593999997E+02  0.45594000000E+02  0.51100000000E-03 0.  1.
         11   -1    0    0    0    0 -0.00000000000E+00 -0.00000000000E+00 -0.45593999997E+02  0.45594000000E+02  0.51100000000E-03 0. -1.
    9900012    2    1    2    0    0 -0.52983946821E+01  0.14799987525E+02 -0.10176703408E+02  0.72461603945E+02  0.70000043836E+02 0.  0.
        -12    1    1    2    0    0  0.52983946821E+01 -0.14799987525E+02  0.10176703408E+02  0.18726396055E+02  0.00000000000E+00 0.  1.
         11    1    3    3    0    0 -0.90190780982E+01  0.22483565648E+01 -0.10314123237E+02  0.13884524312E+02  0.51100000000E-03 0. -1.
        -11    1    3    3    0    0 -0.26349205873E+01  0.33485241002E+02  0.93095102753E+01  0.34855001840E+02  0.51100000000E-03 0.  1.
         12    1    3    3    0    0  0.63556040034E+01 -0.20933610042E+02 -0.91720904470E+01  0.23722077792E+02  0.00000000000E+00 0. -1.
</event>
<event>
 7    1  0.2688173E-013  0.7246159E+02  0.7816164E-02  0.1226708E+00
        -11   -1    0    0    0    0  0.00000000000E+00  0.00000000000E+00  0.45593999997E+02  0.45594000000E+02  0.51100000000E-03 0.  1.
         11   -1    0    0    0    0 -0.00000000000E+00 -0.00000000000E+00 -0.45593999997E+02  0.45594000000E+02  0.51100000000E-03 0. -1.
    9900012    2    1    2    0    0  0.76134667271E+01  0.12935462402E+02 -0.11197654978E+02  0.72461587098E+02  0.70000021890E+02 0.  0.
        -12    1    1    2    0    0 -0.76134667271E+01 -0.12935462402E+02  0.11197654978E+02  0.18726412902E+02  0.00000000000E+00 0.  1.
         11    1    3    3    0    0 -0.10172420528E+02  0.13404303892E+02 -0.30749077977E+02  0.35052236718E+02  0.51100000000E-03 0. -1.
        -11    1    3    3    0    0  0.11315768072E+01  0.45797175283E+00 -0.64242970100E+01  0.65392504564E+01  0.51100000000E-03 0.  1.
        -12    1    3    3    0    0  0.16654310448E+02 -0.92681324202E+00  0.25975720009E+02  0.30870099923E+02  0.00000000000E+00 0.  1.
</event>
<event>
 7    1  0.2688173E-013  0.7246162E+02  0.7816164E-02  0.1226708E+00
        -11   -1    0    0    0    0  0.00000000000E+00  0.00000000000E+00  0.45593999997E+02  0.45594000000E+02  0.51100000000E-03 0.  1.
         11   -1    0    0    0    0 -0.00000000000E+00 -0.00000000000E+00 -0.45593999997E+02  0.45594000000E+02  0.51100000000E-03 0. -1.
    9900012    2    1    2    0    0 -0.18148813436E+02  0.40241351410E+01  0.22592151861E+01  0.72461624322E+02  0.70000070381E+02 0.  0.
        -12    1    1    2    0    0  0.18148813436E+02 -0.40241351410E+01 -0.22592151861E+01  0.18726375678E+02  0.00000000000E+00 0.  1.
         11    1    3    3    0    0  0.88195713883E+01  0.60921599063E+01 -0.72625953562E+01  0.12947762099E+02  0.51100000000E-03 0. -1.
        -11    1    3    3    0    0 -0.13058730597E+02  0.10733206114E+01 -0.21609736690E+02  0.25271786285E+02  0.51100000000E-03 0.  1.
        -12    1    3    3    0    0 -0.13909654228E+02 -0.31413453767E+01  0.31131547233E+02  0.34242075939E+02  0.00000000000E+00 0.  1.
</event>
<event>
 7    1  0.2688173E-013  0.7246158E+02  0.7816164E-02  0.1226708E+00
        -11   -1    0    0    0    0  0.00000000000E+00  0.00000000000E+00  0.45593999997E+02  0.45594000000E+02  0.51100000000E-03 0.  1.
         11   -1    0    0    0    0 -0.00000000000E+00 -0.00000000000E+00 -0.45593999997E+02  0.45594000000E+02  0.51100000000E-03 0. -1.
    9900012    2    1    2    0    0  0.18377977618E+02  0.33274242887E+01  0.13627777872E+01  0.72461575434E+02  0.70000006696E+02 0.  0.
        -12    1    1    2    0    0 -0.18377977618E+02 -0.33274242887E+01 -0.13627777872E+01  0.18726424566E+02  0.00000000000E+00 0.  1.
         11    1    3    3    0    0 -0.17384376103E+02 -0.59715700805E+01  0.24512168994E+01  0.18544127002E+02  0.51100000000E-03 0. -1.
        -11    1    3    3    0    0  0.81389480143E+01  0.16159760540E+02  0.12882096971E+02  0.22211005338E+02  0.51100000000E-03 0.  1.
         12    1    3    3    0    0  0.27623405706E+02 -0.68607661707E+01 -0.13970536083E+02  0.31706443095E+02  0.00000000000E+00 0. -1.
</event>
<event>
 7    1  0.2688173E-013  0.7246159E+02  0.7816164E-02  0.1226708E+00
        -11   -1    0    0    0    0  0.00000000000E+00  0.00000000000E+00  0.45593999997E+02  0.45594000000E+02  0.51100000000E-03 0.  1.
         11   -1    0    0    0    0 -0.00000000000E+00 -0.00000000000E+00 -0.45593999997E+02  0.45594000000E+02  0.51100000000E-03 0. -1.
    9900012    2    1    2    0    0 -0.13620964150E+02 -0.85954675104E+01 -0.95533016986E+01  0.72461593526E+02  0.70000030263E+02 0.  0.
        -12    1    1    2    0    0  0.13620964150E+02  0.85954675104E+01  0.95533016986E+01  0.18726406474E+02  0.00000000000E+00 0.  1.
         11    1    3    3    0    0  0.21411504021E+02 -0.18572053776E+02 -0.16089142319E+02  0.32591934382E+02  0.51100000000E-03 0. -1.
        -11    1    3    3    0    0 -0.20126748900E+01  0.38583443647E+01  0.44483878679E+01  0.62230086239E+01  0.51100000000E-03 0.  1.
        -12    1    3    3    0    0 -0.33019793280E+02  0.61182419014E+01  0.20874527527E+01  0.33646650520E+02  0.00000000000E+00 0.  1.
</event>
<event>
 7    1  0.2688173E-013  0.7246155E+02  0.7816164E-02  0.1226708E+00
        -11   -1    0    0    0    0  0.00000000000E+00  0.00000000000E+00  0.45593999997E+02  0.45594000000E+02  0.51100000000E-03 0.  1.
         11   -1    0    0    0    0 -0.00000000000E+00 -0.00000000000E+00 -0.45593999997E+02  0.45594000000E+02  0.51100000000E-03 0. -1.
    9900012    2    1    2    0    0  0.72226409124E+01 -0.17158555726E+02  0.20241945446E+01  0.72461549724E+02  0.69999973204E+02 0.  0.
        -12    1    1    2    0    0 -0.72226409124E+01  0.17158555726E+02 -0.20241945446E+01  0.18726450276E+02  0.00000000000E+00 0.  1.
         11    1    3    3    0    0  0.62233887156E+01 -0.15449112993E+02 -0.29281848334E+01  0.16910941016E+02  0.51100000000E-03 0. -1.
        -11    1    3    3    0    0 -0.22325252211E+02 -0.15553915437E+02  0.77273289446E+01  0.28285204340E+02  0.51100000000E-03 0.  1.
         12    1    3    3    0    0  0.23324504407E+02  0.13844472703E+02 -0.27749495666E+01  0.27265404368E+02  0.00000000000E+00 0. -1.
</event>
<event>
 7    1  0.2688173E-013  0.7246157E+02  0.7816164E-02  0.1226708E+00
        -11   -1    0    0    0    0  0.00000000000E+00  0.00000000000E+00  0.45593999997E+02  0.45594000000E+02  0.51100000000E-03 0.  1.
         11   -1    0    0    0    0 -0.00000000000E+00 -0.00000000000E+00 -0.45593999997E+02  0.45594000000E+02  0.51100000000E-03 0. -1.
    9900012    2    1    2    0    0  0.13024596242E+02 -0.94981808013E+01 -0.95301478925E+01  0.72461567754E+02  0.69999996691E+02 0.  0.
        -12    1    1    2    0    0 -0.13024596242E+02  0.94981808013E+01  0.95301478925E+01  0.18726432246E+02  0.00000000000E+00 0.  1.
         11    1    3    3    0    0  0.87740312740E+01  0.64236771263E+01 -0.22685543901E+02  0.25157129307E+02  0.51100000000E-03 0. -1.
        -11    1    3    3    0    0 -0.15629077203E+02 -0.89279809574E+01 -0.58501318175E+01  0.18926197207E+02  0.51100000000E-03 0.  1.
        -12    1    3    3    0    0  0.19879642171E+02 -0.69938769702E+01  0.19005527826E+02  0.28378241240E+02  0.00000000000E+00 0.  1.
</event>
<event>
 7    1  0.2688173E-013  0.7246155E+02  0.7816164E-02  0.1226708E+00
        -11   -1    0    0    0    0  0.00000000000E+00  0.00000000000E+00  0.45593999997E+02  0.45594000000E+02  0.51100000000E-03 0.  1.
         11   -1    0    0    0    0 -0.00000000000E+00 -0.00000000000E+00 -0.45593999997E+02  0.45594000000E+02  0.51100000000E-03 0. -1.
    9900012    2    1    2    0    0 -0.16442901031E+02 -0.89117468383E+01  0.94435659995E+00  0.72461547174E+02  0.69999969882E+02 0.  0.
        -12    1    1    2    0    0  0.16442901031E+02  0.89117468383E+01 -0.94435659995E+00  0.18726452826E+02  0.00000000000E+00 0.  1.
         11    1    3    3    0    0 -0.23781978220E+02 -0.91059365775E+01  0.77978105861E+00  0.25477610323E+02  0.51100000000E-03 0. -1.
        -11    1    3    3    0    0  0.27677618034E+01 -0.91941564057E+01  0.21325199782E+02  0.23387115329E+02  0.51100000000E-03 0.  1.
        -12    1    3    3    0    0  0.45713153854E+01  0.93883461449E+01 -0.21160624241E+02  0.23596821522E+02  0.00000000000E+00 0.  1.
</event>
<event>
 7    1  0.2688173E-013  0.7246161E+02  0.7816164E-02  0.1226708E+00
        -11   -1    0    0    0    0  0.00000000000E+00  0.00000000000E+00  0.45593999997E+02  0.45594000000E+02  0.51100000000E-03 0.  1.
         11   -1    0    0    0    0 -0.00000000000E+00 -0.00000000000E+00 -0.45593999997E+02  0.45594000000E+02  0.51100000000E-03 0. -1.
    9900012    2    1    2    0    0  0.17762072466E+02 -0.53585361100E+01  0.25441463155E+01  0.72461606647E+02  0.70000047356E+02 0.  0.
        -12    1    1    2    0    0 -0.17762072466E+02  0.53585361100E+01 -0.25441463155E+01  0.18726393353E+02  0.00000000000E+00 0.  1.
         11    1    3    3    0    0  0.73649941396E+01  0.36199300280E+01  0.65245589818E+01  0.10484126204E+02  0.51100000000E-03 0. -1.
        -11    1    3    3    0    0  0.26563908974E+02 -0.18790077734E+01  0.19205874570E+02  0.32833482124E+02  0.51100000000E-03 0.  1.
         12    1    3    3    0    0 -0.16166830647E+02 -0.70994583646E+01 -0.23186287236E+02  0.29143998319E+02  0.00000000000E+00 0. -1.
</event>
<event>
 7    1  0.2688173E-013  0.7246154E+02  0.7816164E-02  0.1226708E+00
        -11   -1    0    0    0    0  0.00000000000E+00  0.00000000000E+00  0.45593999997E+02  0.45594000000E+02  0.51100000000E-03 0. -1.
         11   -1    0    0    0    0 -0.00000000000E+00 -0.00000000000E+00 -0.45593999997E+02  0.45594000000E+02  0.51100000000E-03 0.  1.
    9900012    2    1    2    0    0 -0.20341027925E+01 -0.17546753600E+02  0.62172381944E+01  0.72461543131E+02  0.69999964615E+02 0.  0.
        -12    1    1    2    0    0  0.20341027925E+01  0.17546753600E+02 -0.62172381944E+01  0.18726456869E+02  0.00000000000E+00 0.  1.
         11    1    3    3    0    0  0.12854559264E+01  0.17247725643E+02  0.15115056815E+01  0.17361482842E+02  0.51100000000E-03 0. -1.
        -11    1    3    3    0    0 -0.60482450681E+01  0.68912004395E+01  0.93163485067E+01  0.13071505715E+02  0.51100000000E-03 0.  1.
        -12    1    3    3    0    0  0.27286863493E+01 -0.41685679682E+02 -0.46106159938E+01  0.42028554575E+02  0.00000000000E+00 0.  1.
</event>
<event>
 7    1  0.2688173E-013  0.7246155E+02  0.7816164E-02  0.1226708E+00
        -11   -1    0    0    0    0  0.00000000000E+00  0.00000000000E+00  0.45593999997E+02  0.45594000000E+02  0.51100000000E-03 0. -1.
         11   -1    0    0    0    0 -0.00000000000E+00 -0.00000000000E+00 -0.45593999997E+02  0.45594000000E+02  0.51100000000E-03 0.  1.
    9900012    2    1    2    0    0 -0.94630410871E+01  0.16027720987E+02  0.20598040309E+01  0.72461554013E+02  0.69999978791E+02 0.  0.
        -12    1    1    2    0    0  0.94630410871E+01 -0.16027720987E+02 -0.20598040309E+01  0.18726445987E+02  0.00000000000E+00 0.  1.
         11    1    3    3    0    0 -0.84749637233E+01 -0.78324750301E+01 -0.13032796153E+02  0.17407654955E+02  0.51100000000E-03 0.  1.
        -11    1    3    3    0    0  0.98193798611E+01  0.35493614646E+02  0.81189475113E+01  0.37711194763E+02  0.51100000000E-03 0. -1.
         12    1    3    3    0    0 -0.10807457225E+02 -0.11633418629E+02  0.69736526728E+01  0.17342704295E+02  0.00000000000E+00 0. -1.
</event>
<event>
 7    1  0.2688173E-013  0.7246158E+02  0.7816164E-02  0.1226708E+00
        -11   -1    0    0    0    0  0.00000000000E+00  0.00000000000E+00  0.45593999997E+02  0.45594000000E+02  0.51100000000E-03 0. -1.
         11   -1    0    0    0    0 -0.00000000000E+00 -0.00000000000E+00 -0.45593999997E+02  0.45594000000E+02  0.51100000000E-03 0.  1.
    9900012    2    1    2    0    0 -0.10997626825E+02 -0.18590687876E+01  0.15042436906E+02  0.72461579076E+02  0.70000011440E+02 0.  0.
        -12    1    1    2    0    0  0.10997626825E+02  0.18590687876E+01 -0.15042436906E+02  0.18726420924E+02  0.00000000000E+00 0.  1.
         11    1    3    3    0    0 -0.18028909709E+02  0.30865674865E+01  0.10795495607E+02  0.21239378753E+02  0.51100000000E-03 0. -1.
        -11    1    3    3    0    0 -0.62935029413E+01 -0.24294865353E+02  0.10031001620E+02  0.27027202141E+02  0.51100000000E-03 0.  1.
         12    1    3    3    0    0  0.13324785825E+02  0.19349229079E+02 -0.57840603207E+01  0.24194998182E+02  0.00000000000E+00 0. -1.
</event>
<event>
 7    1  0.2688173E-013  0.7246163E+02  0.7816164E-02  0.1226708E+00
        -11   -1    0    0    0    0  0.00000000000E+00  0.00000000000E+00  0.45593999997E+02  0.45594000000E+02  0.51100000000E-03 0.  1.
         11   -1    0    0    0    0 -0.00000000000E+00 -0.00000000000E+00 -0.45593999997E+02  0.45594000000E+02  0.51100000000E-03 0. -1.
    9900012    2    1    2    0    0  0.13515474877E+02 -0.14124471230E+01 -0.12884643886E+02  0.72461625121E+02  0.70000071422E+02 0.  0.
        -12    1    1    2    0    0 -0.13515474877E+02  0.14124471230E+01  0.12884643886E+02  0.18726374879E+02  0.00000000000E+00 0.  1.
         11    1    3    3    0    0 -0.14020333473E+01  0.41965275519E+01 -0.44336381555E+01  0.62636801129E+01  0.51100000000E-03 0. -1.
        -11    1    3    3    0    0 -0.22259077554E+02  0.83727236126E+01 -0.11393859974E+02  0.26370230936E+02  0.51100000000E-03 0.  1.
         12    1    3    3    0    0  0.37176585778E+02 -0.13981698288E+02  0.29428542434E+01  0.39827714073E+02  0.00000000000E+00 0. -1.
</event>
<event>
 7    1  0.2688173E-013  0.7246157E+02  0.7816164E-02  0.1226708E+00
        -11   -1    0    0    0    0  0.00000000000E+00  0.00000000000E+00  0.45593999997E+02  0.45594000000E+02  0.51100000000E-03 0.  1.
         11   -1    0    0    0    0 -0.00000000000E+00 -0.00000000000E+00 -0.45593999997E+02  0.45594000000E+02  0.51100000000E-03 0. -1.
    9900012    2    1    2    0    0  0.24606762899E+01  0.60984304014E+01 -0.17533774540E+02  0.72461573998E+02  0.70000004825E+02 0.  0.
        -12    1    1    2    0    0 -0.24606762899E+01 -0.60984304014E+01  0.17533774540E+02  0.18726426002E+02  0.00000000000E+00 0.  1.
         11    1    3    3    0    0 -0.12028636980E+01 -0.66735674411E+01 -0.12684906787E+01  0.68987283126E+01  0.51100000000E-03 0. -1.
        -11    1    3    3    0    0 -0.27117277554E+02  0.37768912664E+01  0.39384338823E+01  0.27660855216E+02  0.51100000000E-03 0.  1.
         12    1    3    3    0    0  0.30780817542E+02  0.89951065762E+01 -0.20203717744E+02  0.37901990470E+02  0.00000000000E+00 0. -1.
</event>
<event>
 7    1  0.2688173E-013  0.7246154E+02  0.7816164E-02  0.1226708E+00
        -11   -1    0    0    0    0  0.00000000000E+00  0.00000000000E+00  0.45593999997E+02  0.45594000000E+02  0.51100000000E-03 0. -1.
         11   -1    0    0    0    0 -0.00000000000E+00 -0.00000000000E+00 -0.45593999997E+02  0.45594000000E+02  0.51100000000E-03 0.  1.
    9900012    2    1    2    0    0 -0.73800365250E+01 -0.81355061602E+01  0.15166701340E+02  0.72461542003E+02  0.69999963145E+02 0.  0.
        -12    1    1    2    0    0  0.73800365250E+01  0.81355061602E+01 -0.15166701340E+02  0.18726457997E+02  0.00000000000E+00 0.  1.
         11    1    3    3    0    0 -0.79451297001E+01 -0.74031393094E+01 -0.17088068338E+02  0.20246817957E+02  0.51100000000E-03 0.  1.
        -11    1    3    3    0    0 -0.14130437013E+02  0.13479931196E+02  0.21747124157E+02  0.29228670934E+02  0.51100000000E-03 0. -1.
         12    1    3    3    0    0  0.14695530188E+02 -0.14212298047E+02  0.10507645520E+02  0.22986053112E+02  0.00000000000E+00 0. -1.
</event>
<event>
 7    1  0.2688173E-013  0.7246158E+02  0.7816164E-02  0.1226708E+00
        -11   -1    0    0    0    0  0.00000000000E+00  0.00000000000E+00  0.45593999997E+02  0.45594000000E+02  0.51100000000E-03 0.  1.
         11   -1    0    0    0    0 -0.00000000000E+00 -0.00000000000E+00 -0.45593999997E+02  0.45594000000E+02  0.51100000000E-03 0. -1.
    9900012    2    1    2    0    0 -0.15240254176E+02 -0.40515500148E+01 -0.10099425464E+02  0.72461580172E+02  0.70000012867E+02 0.  0.
        -12    1    1    2    0    0  0.15240254176E+02  0.40515500148E+01  0.10099425464E+02  0.18726419828E+02  0.00000000000E+00 0.  1.
         11    1    3    3    0    0 -0.20303514470E+02 -0.27953755786E+02 -0.83405940415E+01  0.35541675138E+02  0.51100000000E-03 0. -1.
        -11    1    3    3    0    0 -0.73170224967E+01  0.66831419407E-01  0.54343110104E+01  0.91145499656E+01  0.51100000000E-03 0.  1.
        -12    1    3    3    0    0  0.12380282790E+02  0.23835374352E+02 -0.71931424325E+01  0.27805355069E+02  0.00000000000E+00 0.  1.
</event>
<event>
 7    1  0.2688173E-013  0.7246159E+02  0.7816164E-02  0.1226708E+00
        -11   -1    0    0    0    0  0.00000000000E+00  0.00000000000E+00  0.45593999997E+02  0.45594000000E+02  0.51100000000E-03 0.  1.
         11   -1    0    0    0    0 -0.00000000000E+00 -0.00000000000E+00 -0.45593999997E+02  0.45594000000E+02  0.51100000000E-03 0. -1.
    9900012    2    1    2    0    0  0.65968585133E+01  0.26010729822E+00 -0.17524047663E+02  0.72461589651E+02  0.70000025216E+02 0.  0.
        -12    1    1    2    0    0 -0.65968585133E+01 -0.26010729822E+00  0.17524047663E+02  0.18726410349E+02  0.00000000000E+00 0.  1.
         11    1    3    3    0    0 -0.27064033504E+01  0.10548528630E+02 -0.50529138818E+00  0.10901898688E+02  0.51100000000E-03 0. -1.
        -11    1    3    3    0    0 -0.15816638279E+02 -0.12911837828E+02  0.11525298411E+02  0.23445982732E+02  0.51100000000E-03 0.  1.
         12    1    3    3    0    0  0.25119900142E+02  0.26234164962E+01 -0.28544054686E+02  0.38113708232E+02  0.00000000000E+00 0. -1.
</event>
<event>
 7    1  0.2688173E-013  0.7246108E+02  0.7816164E-02  0.1226709E+00
        -11   -1    0    0    0    0  0.00000000000E+00  0.00000000000E+00  0.45593999997E+02  0.45594000000E+02  0.51100000000E-03 0. -1.
         11   -1    0    0    0    0 -0.00000000000E+00 -0.00000000000E+00 -0.45593999997E+02  0.45594000000E+02  0.51100000000E-03 0.  1.
    9900012    2    1    2    0    0 -0.17297807019E+02 -0.64535582046E+00  0.71461097434E+01  0.72461080972E+02  0.69999362564E+02 0.  0.
        -12    1    1    2    0    0  0.17297807019E+02  0.64535582046E+00 -0.71461097434E+01  0.18726919028E+02  0.00000000000E+00 0.  1.
         11    1    3    3    0    0 -0.86354212092E+00  0.27181109008E+01  0.10088494079E+02  0.10483870702E+02  0.51100000000E-03 0. -1.
        -11    1    3    3    0    0  0.88444602587E+01 -0.23829472887E+02 -0.12152221591E+02  0.28173475917E+02  0.51100000000E-03 0.  1.
         12    1    3    3    0    0 -0.25278725157E+02  0.20466006166E+02  0.92098372560E+01  0.33803734353E+02  0.00000000000E+00 0. -1.
</event>
<event>
 7    1  0.2688173E-013  0.7246152E+02  0.7816164E-02  0.1226708E+00
        -11   -1    0    0    0    0  0.00000000000E+00  0.00000000000E+00  0.45593999997E+02  0.45594000000E+02  0.51100000000E-03 0.  1.
         11   -1    0    0    0    0 -0.00000000000E+00 -0.00000000000E+00 -0.45593999997E+02  0.45594000000E+02  0.51100000000E-03 0. -1.
    9900012    2    1    2    0    0 -0.16129545992E+02  0.65282153179E+01 -0.69210624455E+01  0.72461522634E+02  0.69999937914E+02 0.  0.
        -12    1    1    2    0    0  0.16129545992E+02 -0.65282153179E+01  0.69210624455E+01  0.18726477366E+02  0.00000000000E+00 0.  1.
         11    1    3    3    0    0  0.68794358953E+01  0.24410489703E+01  0.41931409766E+01  0.84183008870E+01  0.51100000000E-03 0. -1.
        -11    1    3    3    0    0  0.15587014599E+02  0.16833261516E+01  0.11318939727E+02  0.19336675202E+02  0.51100000000E-03 0.  1.
         12    1    3    3    0    0 -0.38595996487E+02  0.24038401960E+01 -0.22433143149E+02  0.44706546546E+02  0.00000000000E+00 0. -1.
</event>
<event>
 7    1  0.2688173E-013  0.7246159E+02  0.7816164E-02  0.1226708E+00
        -11   -1    0    0    0    0  0.00000000000E+00  0.00000000000E+00  0.45593999997E+02  0.45594000000E+02  0.51100000000E-03 0.  1.
         11   -1    0    0    0    0 -0.00000000000E+00 -0.00000000000E+00 -0.45593999997E+02  0.45594000000E+02  0.51100000000E-03 0. -1.
    9900012    2    1    2    0    0 -0.17923969507E+02  0.44130432906E+01 -0.31519311670E+01  0.72461593403E+02  0.70000030103E+02 0.  0.
        -12    1    1    2    0    0  0.17923969507E+02 -0.44130432906E+01  0.31519311670E+01  0.18726406597E+02  0.00000000000E+00 0.  1.
         11    1    3    3    0    0 -0.13793653891E+02  0.14181616229E+02  0.78541895448E+01  0.21285474395E+02  0.51100000000E-03 0.  1.
        -11    1    3    3    0    0  0.41723051520E+01 -0.40960590651E+01  0.18816470120E+02  0.19703943214E+02  0.51100000000E-03 0. -1.
         12    1    3    3    0    0 -0.83026207677E+01 -0.56725138736E+01 -0.29822590832E+02  0.31472175794E+02  0.00000000000E+00 0. -1.
</event>
<event>
 7    1  0.2688173E-013  0.7246154E+02  0.7816164E-02  0.1226708E+00
        -11   -1    0    0    0    0  0.00000000000E+00  0.00000000000E+00  0.45593999997E+02  0.45594000000E+02  0.51100000000E-03 0. -1.
         11   -1    0    0    0    0 -0.00000000000E+00 -0.00000000000E+00 -0.45593999997E+02  0.45594000000E+02  0.51100000000E-03 0.  1.
    9900012    2    1    2    0    0  0.94015857978E+01  0.58563539760E+01  0.15099460738E+02  0.72461537120E+02  0.69999956784E+02 0.  0.
        -12    1    1    2    0    0 -0.94015857978E+01 -0.58563539760E+01 -0.15099460738E+02  0.18726462880E+02  0.00000000000E+00 0.  1.
         11    1    3    3    0    0 -0.53093517967E+01  0.47061592100E+01 -0.36127613820E+01  0.79617332331E+01  0.51100000000E-03 0. -1.
        -11    1    3    3    0    0 -0.67206389795E+01 -0.17657135994E+02 -0.12165200175E+02  0.22470726187E+02  0.51100000000E-03 0.  1.
         12    1    3    3    0    0  0.21431576574E+02  0.18807330760E+02  0.30877422295E+02  0.42029077700E+02  0.00000000000E+00 0. -1.
</event>
<event>
 7    1  0.2688173E-013  0.7246182E+02  0.7816164E-02  0.1226707E+00
        -11   -1    0    0    0    0  0.00000000000E+00  0.00000000000E+00  0.45593999997E+02  0.45594000000E+02  0.51100000000E-03 0.  1.
         11   -1    0    0    0    0 -0.00000000000E+00 -0.00000000000E+00 -0.45593999997E+02  0.45594000000E+02  0.51100000000E-03 0. -1.
    9900012    2    1    2    0    0  0.15242968231E+02  0.60857573043E+01 -0.90158323968E+01  0.72461821632E+02  0.70000327414E+02 0.  0.
        -12    1    1    2    0    0 -0.15242968231E+02 -0.60857573043E+01  0.90158323968E+01  0.18726178368E+02  0.00000000000E+00 0.  1.
         11    1    3    3    0    0  0.24686573784E+02 -0.14962429565E+02 -0.15853072052E+02  0.32933586466E+02  0.51100000000E-03 0. -1.
        -11    1    3    3    0    0  0.11531740179E+02  0.65080551677E+01  0.40896381933E+01  0.13858605790E+02  0.51100000000E-03 0.  1.
        -12    1    3    3    0    0 -0.20975345733E+02  0.14540131702E+02  0.27476014624E+01  0.25669629377E+02  0.00000000000E+00 0.  1.
</event>
<event>
 7    1  0.2688173E-013  0.7246154E+02  0.7816164E-02  0.1226708E+00
        -11   -1    0    0    0    0  0.00000000000E+00  0.00000000000E+00  0.45593999997E+02  0.45594000000E+02  0.51100000000E-03 0.  1.
         11   -1    0    0    0    0 -0.00000000000E+00 -0.00000000000E+00 -0.45593999997E+02  0.45594000000E+02  0.51100000000E-03 0. -1.
    9900012    2    1    2    0    0 -0.11451904045E+02  0.69910148697E+01 -0.13063693084E+02  0.72461535514E+02  0.69999954692E+02 0.  0.
        -12    1    1    2    0    0  0.11451904045E+02 -0.69910148697E+01  0.13063693084E+02  0.18726464486E+02  0.00000000000E+00 0.  1.
         11    1    3    3    0    0  0.68785600001E+01 -0.50672469346E+01 -0.10822845557E+01  0.86117895522E+01  0.51100000000E-03 0. -1.
        -11    1    3    3    0    0  0.10925485783E+02 -0.10721531696E+02  0.12207100367E+02  0.19578835030E+02  0.51100000000E-03 0.  1.
         12    1    3    3    0    0 -0.29255949828E+02  0.22779793500E+02 -0.24188508894E+02  0.44270910932E+02  0.00000000000E+00 0. -1.
</event>
<event>
 7    1  0.2688173E-013  0.7246158E+02  0.7816164E-02  0.1226708E+00
        -11   -1    0    0    0    0  0.00000000000E+00  0.00000000000E+00  0.45593999997E+02  0.45594000000E+02  0.51100000000E-03 0.  1.
         11   -1    0    0    0    0 -0.00000000000E+00 -0.00000000000E+00 -0.45593999997E+02  0.45594000000E+02  0.51100000000E-03 0. -1.
    9900012    2    1    2    0    0  0.33704124073E+00  0.15144621343E+02 -0.11009346543E+02  0.72461578459E+02  0.70000010636E+02 0.  0.
        -12    1    1    2    0    0 -0.33704124073E+00 -0.15144621343E+02  0.11009346543E+02  0.18726421541E+02  0.00000000000E+00 0.  1.
         11    1    3    3    0    0  0.15990415484E+01 -0.52090096156E+01 -0.29929396342E+02  0.30421365530E+02  0.51100000000E-03 0. -1.
        -11    1    3    3    0    0  0.10731547531E+02  0.13727075962E+02 -0.14566215214E+01  0.17484864123E+02  0.51100000000E-03 0.  1.
        -12    1    3    3    0    0 -0.11993547839E+02  0.66265549973E+01  0.20376671320E+02  0.24555348806E+02  0.00000000000E+00 0.  1.
</event>
<event>
 7    1  0.2688173E-013  0.7246158E+02  0.7816164E-02  0.1226708E+00
        -11   -1    0    0    0    0  0.00000000000E+00  0.00000000000E+00  0.45593999997E+02  0.45594000000E+02  0.51100000000E-03 0. -1.
         11   -1    0    0    0    0 -0.00000000000E+00 -0.00000000000E+00 -0.45593999997E+02  0.45594000000E+02  0.51100000000E-03 0.  1.
    9900012    2    1    2    0    0  0.75489555147E+01 -0.13011959336E+02  0.11152628814E+02  0.72461576300E+02  0.70000007823E+02 0.  0.
        -12    1    1    2    0    0 -0.75489555147E+01  0.13011959336E+02 -0.11152628814E+02  0.18726423700E+02  0.00000000000E+00 0.  1.
         11    1    3    3    0    0  0.76572669200E-01  0.40556694080E+01 -0.11204313740E+01  0.42082875906E+01  0.51100000000E-03 0. -1.
        -11    1    3    3    0    0  0.14601930238E+02 -0.43332095120E+01 -0.24410792821E+02  0.28772901796E+02  0.51100000000E-03 0.  1.
         12    1    3    3    0    0 -0.71295473929E+01 -0.12734419232E+02  0.36683853009E+02  0.39480386913E+02  0.00000000000E+00 0. -1.
</event>
<event>
 7    1  0.2688173E-013  0.7246139E+02  0.7816164E-02  0.1226708E+00
        -11   -1    0    0    0    0  0.00000000000E+00  0.00000000000E+00  0.45593999997E+02  0.45594000000E+02  0.51100000000E-03 0. -1.
         11   -1    0    0    0    0 -0.00000000000E+00 -0.00000000000E+00 -0.45593999997E+02  0.45594000000E+02  0.51100000000E-03 0.  1.
    9900012    2    1    2    0    0  0.18428306602E+02 -0.77512560624E+00 -0.32377016447E+01  0.72461387496E+02  0.69999761871E+02 0.  0.
        -12    1    1    2    0    0 -0.18428306602E+02  0.77512560624E+00  0.32377016447E+01  0.18726612504E+02  0.00000000000E+00 0.  1.
         11    1    3    3    0    0  0.16483630006E+02  0.30763966241E+01  0.79705937603E+01  0.18566223082E+02  0.51100000000E-03 0. -1.
        -11    1    3    3    0    0 -0.10083324112E+02 -0.15368276047E+01  0.18852424510E+02  0.21434765556E+02  0.51100000000E-03 0.  1.
         12    1    3    3    0    0  0.12028000708E+02 -0.23146946257E+01 -0.30060719916E+02  0.32460398859E+02  0.00000000000E+00 0. -1.
</event>
<event>
 7    1  0.2688173E-013  0.7246157E+02  0.7816164E-02  0.1226708E+00
        -11   -1    0    0    0    0  0.00000000000E+00  0.00000000000E+00  0.45593999997E+02  0.45594000000E+02  0.51100000000E-03 0.  1.
         11   -1    0    0    0    0 -0.00000000000E+00 -0.00000000000E+00 -0.45593999997E+02  0.45594000000E+02  0.51100000000E-03 0. -1.
    9900012    2    1    2    0    0 -0.14626185733E+02  0.11039196751E+02  0.38587354372E+01  0.72461574469E+02  0.70000005438E+02 0.  0.
        -12    1    1    2    0    0  0.14626185733E+02 -0.11039196751E+02 -0.38587354372E+01  0.18726425531E+02  0.00000000000E+00 0.  1.
         11    1    3    3    0    0  0.94009395644E+01  0.69332919022E+01  0.18238433192E+02  0.21658454396E+02  0.51100000000E-03 0.  1.
        -11    1    3    3    0    0 -0.15787238302E+01 -0.17180069270E+02 -0.88036007477E+01  0.19368803149E+02  0.51100000000E-03 0. -1.
         12    1    3    3    0    0 -0.22448401467E+02  0.21285974118E+02 -0.55760970068E+01  0.31434316923E+02  0.00000000000E+00 0. -1.
</event>
<event>
 7    1  0.2688173E-013  0.7246155E+02  0.7816164E-02  0.1226708E+00
        -11   -1    0    0    0    0  0.00000000000E+00  0.00000000000E+00  0.45593999997E+02  0.45594000000E+02  0.51100000000E-03 0.  1.
         11   -1    0    0    0    0 -0.00000000000E+00 -0.00000000000E+00 -0.45593999997E+02  0.45594000000E+02  0.51100000000E-03 0. -1.
    9900012    2    1    2    0    0 -0.15313154944E+02  0.10693687483E+02 -0.13535496800E+01  0.72461554446E+02  0.69999979355E+02 0.  0.
        -12    1    1    2    0    0  0.15313154944E+02 -0.10693687483E+02  0.13535496800E+01  0.18726445554E+02  0.00000000000E+00 0.  1.
         11    1    3    3    0    0 -0.43929417835E+00  0.30953698130E+02 -0.15970567987E+02  0.34833653977E+02  0.51100000000E-03 0. -1.
        -11    1    3    3    0    0 -0.17036917838E+01  0.43027555342E+01  0.75822907327E+01  0.88829839524E+01  0.51100000000E-03 0.  1.
        -12    1    3    3    0    0 -0.13170168982E+02 -0.24562766181E+02  0.70347275745E+01  0.28744916517E+02  0.00000000000E+00 0.  1.
</event>
<event>
 7    1  0.2688173E-013  0.7246152E+02  0.7816164E-02  0.1226708E+00
        -11   -1    0    0    0    0  0.00000000000E+00  0.00000000000E+00  0.45593999997E+02  0.45594000000E+02  0.51100000000E-03 0.  1.
         11   -1    0    0    0    0 -0.00000000000E+00 -0.00000000000E+00 -0.45593999997E+02  0.45594000000E+02  0.51100000000E-03 0. -1.
    9900012    2    1    2    0    0 -0.18083476079E+02  0.45311764726E+01 -0.17712601081E+01  0.72461520627E+02  0.69999935299E+02 0.  0.
        -12    1    1    2    0    0  0.18083476079E+02 -0.45311764726E+01  0.17712601081E+01  0.18726479373E+02  0.00000000000E+00 0.  1.
         11    1    3    3    0    0  0.88990337205E+01 -0.10584331181E+02  0.16427923000E+01  0.13925503026E+02  0.51100000000E-03 0. -1.
        -11    1    3    3    0    0  0.36391422276E+01 -0.15025508515E+02 -0.44025501603E+00  0.15466191743E+02  0.51100000000E-03 0.  1.
         12    1    3    3    0    0 -0.30621652027E+02  0.30141016169E+02 -0.29737973920E+01  0.43069825859E+02  0.00000000000E+00 0. -1.
</event>
<event>
 7    1  0.2688173E-013  0.7246196E+02  0.7816164E-02  0.1226707E+00
        -11   -1    0    0    0    0  0.00000000000E+00  0.00000000000E+00  0.45593999997E+02  0.45594000000E+02  0.51100000000E-03 0.  1.
         11   -1    0    0    0    0 -0.00000000000E+00 -0.00000000000E+00 -0.45593999997E+02  0.45594000000E+02  0.51100000000E-03 0. -1.
    9900012    2    1    2    0    0 -0.88238180461E+01  0.16000453158E+02 -0.40975846858E+01  0.72461962874E+02  0.70000511406E+02 0.  0.
        -12    1    1    2    0    0  0.88238180461E+01 -0.16000453158E+02  0.40975846858E+01  0.18726037126E+02  0.00000000000E+00 0.  1.
         11    1    3    3    0    0 -0.54726777506E+01 -0.62466648336E+01 -0.15616200106E+02  0.17687191109E+02  0.51100000000E-03 0. -1.
        -11    1    3    3    0    0 -0.25525185826E+02  0.17145215277E+02  0.54761744571E+01  0.31232707300E+02  0.51100000000E-03 0.  1.
         12    1    3    3    0    0  0.22174045531E+02  0.51019027149E+01  0.60424409629E+01  0.23542064466E+02  0.00000000000E+00 0. -1.
</event>
<event>
 7    1  0.2688173E-013  0.7246152E+02  0.7816164E-02  0.1226708E+00
        -11   -1    0    0    0    0  0.00000000000E+00  0.00000000000E+00  0.45593999997E+02  0.45594000000E+02  0.51100000000E-03 0. -1.
         11   -1    0    0    0    0 -0.00000000000E+00 -0.00000000000E+00 -0.45593999997E+02  0.45594000000E+02  0.51100000000E-03 0.  1.
    9900012    2    1    2    0    0 -0.21139151487E+01 -0.81745008940E+01  0.16714957155E+02  0.72461524229E+02  0.69999939991E+02 0.  0.
        -12    1    1    2    0    0  0.21139151487E+01  0.81745008940E+01 -0.16714957155E+02  0.18726475771E+02  0.00000000000E+00 0.  1.
         11    1    3    3    0    0 -0.13801061253E+02 -0.86002972538E+01  0.17633044613E+02  0.23986635177E+02  0.51100000000E-03 0. -1.
        -11    1    3    3    0    0 -0.42996874643E+01  0.12188537024E+02 -0.18087839879E+02  0.22231007598E+02  0.51100000000E-03 0.  1.
         12    1    3    3    0    0  0.15986833569E+02 -0.11762740664E+02  0.17169752422E+02  0.26243881453E+02  0.00000000000E+00 0. -1.
</event>
<event>
 7    1  0.2688173E-013  0.7246173E+02  0.7816164E-02  0.1226708E+00
        -11   -1    0    0    0    0  0.00000000000E+00  0.00000000000E+00  0.45593999997E+02  0.45594000000E+02  0.51100000000E-03 0. -1.
         11   -1    0    0    0    0 -0.00000000000E+00 -0.00000000000E+00 -0.45593999997E+02  0.45594000000E+02  0.51100000000E-03 0.  1.
    9900012    2    1    2    0    0 -0.12959705896E+02 -0.17853832811E+01  0.13398944116E+02  0.72461727712E+02  0.70000205066E+02 0.  0.
        -12    1    1    2    0    0  0.12959705896E+02  0.17853832811E+01 -0.13398944116E+02  0.18726272288E+02  0.00000000000E+00 0.  1.
         11    1    3    3    0    0 -0.12053491698E+02  0.25095088445E+00  0.40097711412E+01  0.12705428105E+02  0.51100000000E-03 0. -1.
        -11    1    3    3    0    0 -0.17028639972E+02  0.23303371026E+02  0.64902530632E+01  0.29582850870E+02  0.51100000000E-03 0.  1.
        -12    1    3    3    0    0  0.16122425774E+02 -0.25339705192E+02  0.28989199113E+01  0.30173448738E+02  0.00000000000E+00 0.  1.
</event>
<event>
 7    1  0.2688173E-013  0.7246154E+02  0.7816164E-02  0.1226708E+00
        -11   -1    0    0    0    0  0.00000000000E+00  0.00000000000E+00  0.45593999997E+02  0.45594000000E+02  0.51100000000E-03 0.  1.
         11   -1    0    0    0    0 -0.00000000000E+00 -0.00000000000E+00 -0.45593999997E+02  0.45594000000E+02  0.51100000000E-03 0. -1.
    9900012    2    1    2    0    0 -0.10050164956E+02  0.15448229373E+02  0.33206209840E+01  0.72461544647E+02  0.69999966589E+02 0.  0.
        -12    1    1    2    0    0  0.10050164956E+02 -0.15448229373E+02 -0.33206209840E+01  0.18726455353E+02  0.00000000000E+00 0.  1.
         11    1    3    3    0    0 -0.10559908452E+02 -0.57004259226E+01  0.88506337821E+01  0.14911077789E+02  0.51100000000E-03 0. -1.
        -11    1    3    3    0    0 -0.39744462124E+01 -0.75006002642E+01 -0.22433222671E+02  0.23985510349E+02  0.51100000000E-03 0.  1.
         12    1    3    3    0    0  0.44841897089E+01  0.28649255559E+02  0.16903209873E+02  0.33564956509E+02  0.00000000000E+00 0. -1.
</event>
<event>
 7    1  0.2688173E-013  0.7246153E+02  0.7816164E-02  0.1226708E+00
        -11   -1    0    0    0    0  0.00000000000E+00  0.00000000000E+00  0.45593999997E+02  0.45594000000E+02  0.51100000000E-03 0.  1.
         11   -1    0    0    0    0 -0.00000000000E+00 -0.00000000000E+00 -0.45593999997E+02  0.45594000000E+02  0.51100000000E-03 0. -1.
    9900012    2    1    2    0    0  0.17301830487E+02  0.70414318320E+01 -0.13212439287E+01  0.72461527135E+02  0.69999943777E+02 0.  0.
        -12    1    1    2    0    0 -0.17301830487E+02 -0.70414318320E+01  0.13212439287E+01  0.18726472865E+02  0.00000000000E+00 0.  1.
         11    1    3    3    0    0 -0.10235561707E+02 -0.68715991584E+01 -0.42512892463E+01  0.13040669422E+02  0.51100000000E-03 0. -1.
        -11    1    3    3    0    0 -0.59112843899E+01  0.37319433456E+01 -0.17556549624E+02  0.18897172255E+02  0.51100000000E-03 0.  1.
         12    1    3    3    0    0  0.33448676584E+02  0.10181087645E+02  0.20486594942E+02  0.40523685458E+02  0.00000000000E+00 0. -1.
</event>
<event>
 7    1  0.2688173E-013  0.7246177E+02  0.7816164E-02  0.1226707E+00
        -11   -1    0    0    0    0  0.00000000000E+00  0.00000000000E+00  0.45593999997E+02  0.45594000000E+02  0.51100000000E-03 0.  1.
         11   -1    0    0    0    0 -0.00000000000E+00 -0.00000000000E+00 -0.45593999997E+02  0.45594000000E+02  0.51100000000E-03 0. -1.
    9900012    2    1    2    0    0 -0.10387656674E+02  0.64414593915E+01 -0.14187174910E+02  0.72461768607E+02  0.70000258339E+02 0.  0.
        -12    1    1    2    0    0  0.10387656674E+02 -0.64414593915E+01  0.14187174910E+02  0.18726231393E+02  0.00000000000E+00 0.  1.
         11    1    3    3    0    0 -0.62145463736E+01  0.12260630166E+02 -0.27979627170E+02  0.31173757803E+02  0.51100000000E-03 0. -1.
        -11    1    3    3    0    0  0.69639563735E+01  0.12763036331E+02  0.13166305852E+02  0.19614876874E+02  0.51100000000E-03 0.  1.
        -12    1    3    3    0    0 -0.11137066674E+02 -0.18582207106E+02  0.62614640898E+00  0.21673133930E+02  0.00000000000E+00 0.  1.
</event>
<event>
 7    1  0.2688173E-013  0.7246153E+02  0.7816164E-02  0.1226708E+00
        -11   -1    0    0    0    0  0.00000000000E+00  0.00000000000E+00  0.45593999997E+02  0.45594000000E+02  0.51100000000E-03 0.  1.
         11   -1    0    0    0    0 -0.00000000000E+00 -0.00000000000E+00 -0.45593999997E+02  0.45594000000E+02  0.51100000000E-03 0. -1.
    9900012    2    1    2    0    0 -0.10227548123E+02 -0.38143717538E+01 -0.15216057280E+02  0.72461532858E+02  0.69999951232E+02 0.  0.
        -12    1    1    2    0    0  0.10227548123E+02  0.38143717538E+01  0.15216057280E+02  0.18726467142E+02  0.00000000000E+00 0.  1.
         11    1    3    3    0    0 -0.90341066804E+01  0.75687442903E+00 -0.44386392473E+01  0.10094030961E+02  0.51100000000E-03 0. -1.
        -11    1    3    3    0    0 -0.10852584203E+01  0.22688027376E+02 -0.23149444064E+02  0.32431792007E+02  0.51100000000E-03 0.  1.
        -12    1    3    3    0    0 -0.10818302197E+00 -0.27259273558E+02  0.12372026032E+02  0.29935709890E+02  0.00000000000E+00 0.  1.
</event>
<event>
 7    1  0.2688173E-013  0.7246156E+02  0.7816164E-02  0.1226708E+00
        -11   -1    0    0    0    0  0.00000000000E+00  0.00000000000E+00  0.45593999997E+02  0.45594000000E+02  0.51100000000E-03 0. -1.
         11   -1    0    0    0    0 -0.00000000000E+00 -0.00000000000E+00 -0.45593999997E+02  0.45594000000E+02  0.51100000000E-03 0.  1.
    9900012    2    1    2    0    0  0.42082674372E+01 -0.76100163471E+01  0.16584859458E+02  0.72461563423E+02  0.69999991049E+02 0.  0.
        -12    1    1    2    0    0 -0.42082674372E+01  0.76100163471E+01 -0.16584859458E+02  0.18726436577E+02  0.00000000000E+00 0.  1.
         11    1    3    3    0    0  0.17714316278E+02 -0.67780819350E+01  0.37462707465E+01  0.19333234098E+02  0.51100000000E-03 0. -1.
        -11    1    3    3    0    0  0.91999063828E+01 -0.13578206480E+02  0.20246393893E+02  0.26056140056E+02  0.51100000000E-03 0.  1.
        -12    1    3    3    0    0 -0.22705955223E+02  0.12746272068E+02 -0.74078051821E+01  0.27072189270E+02  0.00000000000E+00 0.  1.
</event>
<event>
 7    1  0.2688173E-013  0.7246159E+02  0.7816164E-02  0.1226708E+00
        -11   -1    0    0    0    0  0.00000000000E+00  0.00000000000E+00  0.45593999997E+02  0.45594000000E+02  0.51100000000E-03 0.  1.
         11   -1    0    0    0    0 -0.00000000000E+00 -0.00000000000E+00 -0.45593999997E+02  0.45594000000E+02  0.51100000000E-03 0. -1.
    9900012    2    1    2    0    0  0.14673359810E+02  0.61502642548E+00  0.11618637759E+02  0.72461588465E+02  0.70000023670E+02 0.  0.
        -12    1    1    2    0    0 -0.14673359810E+02 -0.61502642548E+00 -0.11618637759E+02  0.18726411535E+02  0.00000000000E+00 0.  1.
         11    1    3    3    0    0 -0.11657911850E+01 -0.50382799163E+01  0.37964433690E+01  0.64153188633E+01  0.51100000000E-03 0. -1.
        -11    1    3    3    0    0 -0.23125059398E+02  0.76873265014E+01  0.11324638593E+02  0.26872119388E+02  0.51100000000E-03 0.  1.
        -12    1    3    3    0    0  0.38964210393E+02 -0.20340201596E+01 -0.35024442024E+01  0.39174150213E+02  0.00000000000E+00 0.  1.
</event>
<event>
 7    1  0.2688173E-013  0.7246160E+02  0.7816164E-02  0.1226708E+00
        -11   -1    0    0    0    0  0.00000000000E+00  0.00000000000E+00  0.45593999997E+02  0.45594000000E+02  0.51100000000E-03 0.  1.
         11   -1    0    0    0    0 -0.00000000000E+00 -0.00000000000E+00 -0.45593999997E+02  0.45594000000E+02  0.51100000000E-03 0. -1.
    9900012    2    1    2    0    0  0.38550109062E+01  0.18248434718E+02 -0.16768226279E+01  0.72461595837E+02  0.70000033274E+02 0.  0.
        -12    1    1    2    0    0 -0.38550109062E+01 -0.18248434718E+02  0.16768226279E+01  0.18726404163E+02  0.00000000000E+00 0.  1.
         11    1    3    3    0    0  0.95103982282E+01  0.46264058053E+01  0.11576084479E+02  0.15679828994E+02  0.51100000000E-03 0.  1.
        -11    1    3    3    0    0  0.11297053411E+02 -0.37108046741E+01  0.15265609628E+02  0.19350253866E+02  0.51100000000E-03 0. -1.
         12    1    3    3    0    0 -0.16952440733E+02  0.17332833587E+02 -0.28518516735E+02  0.37431512977E+02  0.00000000000E+00 0. -1.
</event>
<event>
 7    1  0.2688173E-013  0.7246158E+02  0.7816164E-02  0.1226708E+00
        -11   -1    0    0    0    0  0.00000000000E+00  0.00000000000E+00  0.45593999997E+02  0.45594000000E+02  0.51100000000E-03 0. -1.
         11   -1    0    0    0    0 -0.00000000000E+00 -0.00000000000E+00 -0.45593999997E+02  0.45594000000E+02  0.51100000000E-03 0.  1.
    9900012    2    1    2    0    0 -0.80536600187E+01 -0.15445457649E+02  0.68742327818E+01  0.72461583418E+02  0.70000017095E+02 0.  0.
        -12    1    1    2    0    0  0.80536600187E+01  0.15445457649E+02 -0.68742327818E+01  0.18726416582E+02  0.00000000000E+00 0.  1.
         11    1    3    3    0    0 -0.40292794695E+01  0.55781854604E+01 -0.59840920692E+01  0.91192436215E+01  0.51100000000E-03 0.  1.
        -11    1    3    3    0    0  0.29595444940E+00  0.67400722757E+01 -0.19413645575E+02  0.20552513182E+02  0.51100000000E-03 0. -1.
         12    1    3    3    0    0 -0.43203349986E+01 -0.27763715385E+02  0.32271970426E+02  0.42789826614E+02  0.00000000000E+00 0. -1.
</event>
<event>
 7    1  0.2688173E-013  0.7246158E+02  0.7816164E-02  0.1226708E+00
        -11   -1    0    0    0    0  0.00000000000E+00  0.00000000000E+00  0.45593999997E+02  0.45594000000E+02  0.51100000000E-03 0. -1.
         11   -1    0    0    0    0 -0.00000000000E+00 -0.00000000000E+00 -0.45593999997E+02  0.45594000000E+02  0.51100000000E-03 0.  1.
    9900012    2    1    2    0    0  0.24465385072E+01  0.42636331749E+01  0.18069721848E+02  0.72461575723E+02  0.70000007072E+02 0.  0.
        -12    1    1    2    0    0 -0.24465385072E+01 -0.42636331749E+01 -0.18069721848E+02  0.18726424277E+02  0.00000000000E+00 0.  1.
         11    1    3    3    0    0 -0.38701762919E+00 -0.18365556569E+02 -0.29368004720E+01  0.18602909665E+02  0.51100000000E-03 0. -1.
        -11    1    3    3    0    0 -0.99568877889E+01 -0.41412953617E+01  0.21645176179E+02  0.24182712706E+02  0.51100000000E-03 0.  1.
        -12    1    3    3    0    0  0.12790443925E+02  0.26770485106E+02 -0.63865385887E+00  0.29675953352E+02  0.00000000000E+00 0.  1.
</event>
<event>
 7    1  0.2688173E-013  0.7246156E+02  0.7816164E-02  0.1226708E+00
        -11   -1    0    0    0    0  0.00000000000E+00  0.00000000000E+00  0.45593999997E+02  0.45594000000E+02  0.51100000000E-03 0. -1.
         11   -1    0    0    0    0 -0.00000000000E+00 -0.00000000000E+00 -0.45593999997E+02  0.45594000000E+02  0.51100000000E-03 0.  1.
    9900012    2    1    2    0    0 -0.11365867773E+01 -0.11688065598E+02  0.14586876064E+02  0.72461557192E+02  0.69999982932E+02 0.  0.
        -12    1    1    2    0    0  0.11365867773E+01  0.11688065598E+02 -0.14586876064E+02  0.18726442808E+02  0.00000000000E+00 0.  1.
         11    1    3    3    0    0 -0.11819947350E+02  0.54083873671E+01  0.15151507060E+02  0.19963215565E+02  0.51100000000E-03 0. -1.
        -11    1    3    3    0    0 -0.16346773783E+02 -0.23850725058E+01 -0.11176987527E+02  0.19945692127E+02  0.51100000000E-03 0.  1.
         12    1    3    3    0    0  0.27030134356E+02 -0.14711380459E+02  0.10612356531E+02  0.32552649500E+02  0.00000000000E+00 0. -1.
</event>
<event>
 7    1  0.2688173E-013  0.7246157E+02  0.7816164E-02  0.1226708E+00
        -11   -1    0    0    0    0  0.00000000000E+00  0.00000000000E+00  0.45593999997E+02  0.45594000000E+02  0.51100000000E-03 0. -1.
         11   -1    0    0    0    0 -0.00000000000E+00 -0.00000000000E+00 -0.45593999997E+02  0.45594000000E+02  0.51100000000E-03 0.  1.
    9900012    2    1    2    0    0  0.95703046266E+01  0.15218146383E+02 -0.52437012643E+01  0.72461571806E+02  0.70000001969E+02 0.  0.
        -12    1    1    2    0    0 -0.95703046266E+01 -0.15218146383E+02  0.52437012643E+01  0.18726428194E+02  0.00000000000E+00 0.  1.
         11    1    3    3    0    0  0.14634696606E+02  0.12508866713E+02  0.17041411644E+02  0.25711005470E+02  0.51100000000E-03 0. -1.
        -11    1    3    3    0    0  0.13044871506E+02  0.13498602443E+02 -0.48330619903E+01  0.19383999303E+02  0.51100000000E-03 0.  1.
        -12    1    3    3    0    0 -0.18109263486E+02 -0.10789322773E+02 -0.17452050918E+02  0.27366567033E+02  0.00000000000E+00 0.  1.
</event>
<event>
 7    1  0.2688173E-013  0.7246154E+02  0.7816164E-02  0.1226708E+00
        -11   -1    0    0    0    0  0.00000000000E+00  0.00000000000E+00  0.45593999997E+02  0.45594000000E+02  0.51100000000E-03 0. -1.
         11   -1    0    0    0    0 -0.00000000000E+00 -0.00000000000E+00 -0.45593999997E+02  0.45594000000E+02  0.51100000000E-03 0.  1.
    9900012    2    1    2    0    0  0.36382127378E+01 -0.17130745689E+02  0.66318440325E+01  0.72461537572E+02  0.69999957374E+02 0.  0.
        -12    1    1    2    0    0 -0.36382127378E+01  0.17130745689E+02 -0.66318440325E+01  0.18726462428E+02  0.00000000000E+00 0.  1.
         11    1    3    3    0    0  0.26751137211E+02 -0.16018869549E+02  0.62328890114E+01  0.31797428031E+02  0.51100000000E-03 0.  1.
        -11    1    3    3    0    0 -0.16832718496E+02 -0.14026917370E+02  0.92620895577E+01  0.23788256054E+02  0.51100000000E-03 0. -1.
        -12    1    3    3    0    0 -0.62802059779E+01  0.12915041230E+02 -0.88631345365E+01  0.16875853487E+02  0.00000000000E+00 0.  1.
</event>
<event>
 7    1  0.2688173E-013  0.7246162E+02  0.7816164E-02  0.1226708E+00
        -11   -1    0    0    0    0  0.00000000000E+00  0.00000000000E+00  0.45593999997E+02  0.45594000000E+02  0.51100000000E-03 0.  1.
         11   -1    0    0    0    0 -0.00000000000E+00 -0.00000000000E+00 -0.45593999997E+02  0.45594000000E+02  0.51100000000E-03 0. -1.
    9900012    2    1    2    0    0  0.16962629978E+02  0.72791142750E+01 -0.31561085810E+01  0.72461619096E+02  0.70000063573E+02 0.  0.
        -12    1    1    2    0    0 -0.16962629978E+02 -0.72791142750E+01  0.31561085810E+01  0.18726380904E+02  0.00000000000E+00 0.  1.
         11    1    3    3    0    0 -0.66890124500E+01  0.32706086122E+02 -0.38881335302E+01  0.33608756888E+02  0.51100000000E-03 0. -1.
        -11    1    3    3    0    0  0.14661397157E+02 -0.47775905021E+01 -0.37961553564E+01  0.15880577236E+02  0.51100000000E-03 0.  1.
        -12    1    3    3    0    0  0.89902452706E+01 -0.20649381345E+02  0.45281803056E+01  0.22972284972E+02  0.00000000000E+00 0.  1.
</event>
<event>
 7    1  0.2688173E-013  0.7246158E+02  0.7816164E-02  0.1226708E+00
        -11   -1    0    0    0    0  0.00000000000E+00  0.00000000000E+00  0.45593999997E+02  0.45594000000E+02  0.51100000000E-03 0. -1.
         11   -1    0    0    0    0 -0.00000000000E+00 -0.00000000000E+00 -0.45593999997E+02  0.45594000000E+02  0.51100000000E-03 0.  1.
    9900012    2    1    2    0    0  0.12906966767E+02 -0.13528842537E+02 -0.10292983511E+01  0.72461579450E+02  0.70000011927E+02 0.  0.
        -12    1    1    2    0    0 -0.12906966767E+02  0.13528842537E+02  0.10292983511E+01  0.18726420550E+02  0.00000000000E+00 0.  1.
         11    1    3    3    0    0 -0.10336602986E+01 -0.37910279350E+01 -0.53193577325E+01  0.66133133424E+01  0.51100000000E-03 0. -1.
        -11    1    3    3    0    0  0.29691164053E+02  0.16114332964E+02 -0.50731608659E+01  0.34160999855E+02  0.51100000000E-03 0.  1.
         12    1    3    3    0    0 -0.15750536988E+02 -0.25852147566E+02  0.93632202473E+01  0.31687266253E+02  0.00000000000E+00 0. -1.
</event>
<event>
 7    1  0.2688173E-013  0.7246157E+02  0.7816164E-02  0.1226708E+00
        -11   -1    0    0    0    0  0.00000000000E+00  0.00000000000E+00  0.45593999997E+02  0.45594000000E+02  0.51100000000E-03 0. -1.
         11   -1    0    0    0    0 -0.00000000000E+00 -0.00000000000E+00 -0.45593999997E+02  0.45594000000E+02  0.51100000000E-03 0.  1.
    9900012    2    1    2    0    0  0.12418617495E+02  0.56291195292E+01  0.12836274853E+02  0.72461574840E+02  0.70000005922E+02 0.  0.
        -12    1    1    2    0    0 -0.12418617495E+02 -0.56291195292E+01 -0.12836274853E+02  0.18726425160E+02  0.00000000000E+00 0.  1.
         11    1    3    3    0    0 -0.27903271266E+01  0.64939867542E+00 -0.65515189347E+00  0.29388549433E+01  0.51100000000E-03 0. -1.
        -11    1    3    3    0    0 -0.25740907908E+02 -0.35607867495E+01  0.87705594567E+01  0.27426196522E+02  0.51100000000E-03 0.  1.
         12    1    3    3    0    0  0.40949852530E+02  0.85405076032E+01  0.47208672897E+01  0.42096523375E+02  0.00000000000E+00 0. -1.
</event>
<event>
 7    1  0.2688173E-013  0.7246157E+02  0.7816164E-02  0.1226708E+00
        -11   -1    0    0    0    0  0.00000000000E+00  0.00000000000E+00  0.45593999997E+02  0.45594000000E+02  0.51100000000E-03 0. -1.
         11   -1    0    0    0    0 -0.00000000000E+00 -0.00000000000E+00 -0.45593999997E+02  0.45594000000E+02  0.51100000000E-03 0.  1.
    9900012    2    1    2    0    0  0.17969900285E+02  0.32712277421E+01  0.41305035225E+01  0.72461566636E+02  0.69999995234E+02 0.  0.
        -12    1    1    2    0    0 -0.17969900285E+02 -0.32712277421E+01 -0.41305035225E+01  0.18726433364E+02  0.00000000000E+00 0.  1.
         11    1    3    3    0    0 -0.19486216534E+02 -0.14351113867E+02  0.13857471128E+01  0.24240202131E+02  0.51100000000E-03 0. -1.
        -11    1    3    3    0    0  0.98525264092E+00  0.87285594988E+01 -0.46824102230E+01  0.99540664780E+01  0.51100000000E-03 0.  1.
        -12    1    3    3    0    0  0.36470864178E+02  0.88937821102E+01  0.74271666326E+01  0.38267298027E+02  0.00000000000E+00 0.  1.
</event>
<event>
 7    1  0.2688173E-013  0.7246155E+02  0.7816164E-02  0.1226708E+00
        -11   -1    0    0    0    0  0.00000000000E+00  0.00000000000E+00  0.45593999997E+02  0.45594000000E+02  0.51100000000E-03 0. -1.
         11   -1    0    0    0    0 -0.00000000000E+00 -0.00000000000E+00 -0.45593999997E+02  0.45594000000E+02  0.51100000000E-03 0.  1.
    9900012    2    1    2    0    0  0.10301658626E+02  0.15590939393E+02  0.12158324915E+01  0.72461553187E+02  0.69999977714E+02 0.  0.
        -12    1    1    2    0    0 -0.10301658626E+02 -0.15590939393E+02 -0.12158324915E+01  0.18726446813E+02  0.00000000000E+00 0.  1.
         11    1    3    3    0    0  0.21645896648E+02 -0.22398935126E-01 -0.14427408413E+02  0.26013370738E+02  0.51100000000E-03 0. -1.
        -11    1    3    3    0    0 -0.53714200480E+01 -0.34082219090E+01 -0.11277884082E+02  0.12948312614E+02  0.51100000000E-03 0.  1.
        -12    1    3    3    0    0 -0.59728179734E+01  0.19021560237E+02  0.26921124986E+02  0.33499869834E+02  0.00000000000E+00 0.  1.
</event>
<event>
 7    1  0.2688173E-013  0.7246164E+02  0.7816164E-02  0.1226708E+00
        -11   -1    0    0    0    0  0.00000000000E+00  0.00000000000E+00  0.45593999997E+02  0.45594000000E+02  0.51100000000E-03 0.  1.
         11   -1    0    0    0    0 -0.00000000000E+00 -0.00000000000E+00 -0.45593999997E+02  0.45594000000E+02  0.51100000000E-03 0. -1.
    9900012    2    1    2    0    0 -0.11456704112E+02 -0.14569008100E+02  0.26766369524E+01  0.72461642867E+02  0.70000094539E+02 0.  0.
        -12    1    1    2    0    0  0.11456704112E+02  0.14569008100E+02 -0.26766369524E+01  0.18726357133E+02  0.00000000000E+00 0.  1.
         11    1    3    3    0    0  0.57919550412E+01 -0.24705310942E+02 -0.71229786315E+01  0.26355947275E+02  0.51100000000E-03 0. -1.
        -11    1    3    3    0    0 -0.10117062395E+02  0.23415241562E+02 -0.38190207409E+01  0.25791731400E+02  0.51100000000E-03 0.  1.
         12    1    3    3    0    0 -0.71315967575E+01 -0.13278938720E+02  0.13618636325E+02  0.20313964192E+02  0.00000000000E+00 0. -1.
</event>
<event>
 7    1  0.2688173E-013  0.7246159E+02  0.7816164E-02  0.1226708E+00
        -11   -1    0    0    0    0  0.00000000000E+00  0.00000000000E+00  0.45593999997E+02  0.45594000000E+02  0.51100000000E-03 0.  1.
         11   -1    0    0    0    0 -0.00000000000E+00 -0.00000000000E+00 -0.45593999997E+02  0.45594000000E+02  0.51100000000E-03 0. -1.
    9900012    2    1    2    0    0 -0.61013261954E+01 -0.16079617442E+02 -0.74093226188E+01  0.72461592441E+02  0.70000028850E+02 0.  0.
        -12    1    1    2    0    0  0.61013261954E+01  0.16079617442E+02  0.74093226188E+01  0.18726407559E+02  0.00000000000E+00 0.  1.
         11    1    3    3    0    0  0.36039569867E+01  0.24620715416E+01 -0.26280009520E+02  0.26639992546E+02  0.51100000000E-03 0. -1.
        -11    1    3    3    0    0 -0.22997102358E+02 -0.12434020294E+02  0.72228138054E+01  0.27122695609E+02  0.51100000000E-03 0.  1.
        -12    1    3    3    0    0  0.13291819176E+02 -0.61076686893E+01  0.11647873096E+02  0.18698904286E+02  0.00000000000E+00 0.  1.
</event>
<event>
 7    1  0.2688173E-013  0.7246163E+02  0.7816164E-02  0.1226708E+00
        -11   -1    0    0    0    0  0.00000000000E+00  0.00000000000E+00  0.45593999997E+02  0.45594000000E+02  0.51100000000E-03 0.  1.
         11   -1    0    0    0    0 -0.00000000000E+00 -0.00000000000E+00 -0.45593999997E+02  0.45594000000E+02  0.51100000000E-03 0. -1.
    9900012    2    1    2    0    0 -0.47633947173E+01  0.17876611588E+02 -0.29006508332E+01  0.72461629653E+02  0.70000077326E+02 0.  0.
        -12    1    1    2    0    0  0.47633947173E+01 -0.17876611588E+02  0.29006508332E+01  0.18726370347E+02  0.00000000000E+00 0.  1.
         11    1    3    3    0    0 -0.37805412569E+01 -0.19008858267E+00 -0.68127146698E+00  0.38461353249E+01  0.51100000000E-03 0. -1.
        -11    1    3    3    0    0 -0.91957808340E+01 -0.14100765870E+02  0.21868915432E+02  0.27597888428E+02  0.51100000000E-03 0.  1.
         12    1    3    3    0    0  0.82129273736E+01  0.32167466041E+02 -0.24088294798E+02  0.41017605900E+02  0.00000000000E+00 0. -1.
</event>
<event>
 7    1  0.2912294E-013  0.7246153E+02  0.7816164E-02  0.1226708E+00
        -11   -1    0    0    0    0  0.00000000000E+00  0.00000000000E+00  0.45593999997E+02  0.45594000000E+02  0.51100000000E-03 0. -1.
         11   -1    0    0    0    0 -0.00000000000E+00 -0.00000000000E+00 -0.45593999997E+02  0.45594000000E+02  0.51100000000E-03 0.  1.
    9900012    2    1    2    0    0  0.33546197308E+01  0.10941075965E+02  0.14822963529E+02  0.72461525036E+02  0.69999941043E+02 0.  0.
        -12    1    1    2    0    0 -0.33546197308E+01 -0.10941075965E+02 -0.14822963529E+02  0.18726474964E+02  0.00000000000E+00 0.  1.
         11    1    3    3    0    0  0.11807243213E+01  0.99012471430E+01  0.32432932649E+01  0.10485597569E+02  0.51100000000E-03 0. -1.
        -11    1    3    3    0    0 -0.37898336463E+01  0.10118497325E+02 -0.23171402419E+02  0.25566789347E+02  0.51100000000E-03 0.  1.
         12    1    3    3    0    0  0.59637290558E+01 -0.90786685033E+01  0.34751072683E+02  0.36409138120E+02  0.00000000000E+00 0. -1.
</event>
<event>
 7    1  0.2688173E-013  0.7246161E+02  0.7816164E-02  0.1226708E+00
        -11   -1    0    0    0    0  0.00000000000E+00  0.00000000000E+00  0.45593999997E+02  0.45594000000E+02  0.51100000000E-03 0. -1.
         11   -1    0    0    0    0 -0.00000000000E+00 -0.00000000000E+00 -0.45593999997E+02  0.45594000000E+02  0.51100000000E-03 0.  1.
    9900012    2    1    2    0    0  0.10669161808E+02 -0.11941207326E+02  0.97084606477E+01  0.72461610753E+02  0.70000052705E+02 0.  0.
        -12    1    1    2    0    0 -0.10669161808E+02  0.11941207326E+02 -0.97084606477E+01  0.18726389247E+02  0.00000000000E+00 0.  1.
         11    1    3    3    0    0 -0.19352232106E+01 -0.47500967238E+01 -0.88994927484E+01  0.10271780722E+02  0.51100000000E-03 0. -1.
        -11    1    3    3    0    0  0.14350888643E+02 -0.30745545482E+02  0.18339780407E+02  0.38569212042E+02  0.51100000000E-03 0.  1.
         12    1    3    3    0    0 -0.17465036240E+01  0.23554434881E+02  0.26817298879E+00  0.23620617990E+02  0.00000000000E+00 0. -1.
</event>
<event>
 7    1  0.2688173E-013  0.7246132E+02  0.7816164E-02  0.1226709E+00
        -11   -1    0    0    0    0  0.00000000000E+00  0.00000000000E+00  0.45593999997E+02  0.45594000000E+02  0.51100000000E-03 0.  1.
         11   -1    0    0    0    0 -0.00000000000E+00 -0.00000000000E+00 -0.45593999997E+02  0.45594000000E+02  0.51100000000E-03 0. -1.
    9900012    2    1    2    0    0 -0.53874667015E+01 -0.98549226493E+01 -0.14984802756E+02  0.72461318193E+02  0.69999671590E+02 0.  0.
        -12    1    1    2    0    0  0.53874667015E+01  0.98549226493E+01  0.14984802756E+02  0.18726681807E+02  0.00000000000E+00 0.  1.
         11    1    3    3    0    0 -0.20960348636E+01  0.17864850671E+02 -0.14693936253E+02  0.23226235479E+02  0.51100000000E-03 0. -1.
        -11    1    3    3    0    0 -0.11375473333E+02 -0.15623301205E+02 -0.17935214336E+02  0.26365903126E+02  0.51100000000E-03 0.  1.
         12    1    3    3    0    0  0.80840414954E+01 -0.12096472115E+02  0.17644347833E+02  0.22869179587E+02  0.00000000000E+00 0. -1.
</event>
<event>
 7    1  0.2688173E-013  0.7246197E+02  0.7816164E-02  0.1226707E+00
        -11   -1    0    0    0    0  0.00000000000E+00  0.00000000000E+00  0.45593999997E+02  0.45594000000E+02  0.51100000000E-03 0.  1.
         11   -1    0    0    0    0 -0.00000000000E+00 -0.00000000000E+00 -0.45593999997E+02  0.45594000000E+02  0.51100000000E-03 0. -1.
    9900012    2    1    2    0    0  0.12573954810E+02  0.10158003516E+02 -0.94538284317E+01  0.72461968733E+02  0.70000519039E+02 0.  0.
        -12    1    1    2    0    0 -0.12573954810E+02 -0.10158003516E+02  0.94538284317E+01  0.18726031267E+02  0.00000000000E+00 0.  1.
         11    1    3    3    0    0 -0.25991403006E+01  0.54744204136E+01 -0.24082247515E+02  0.24833031526E+02  0.51100000000E-03 0. -1.
        -11    1    3    3    0    0  0.20305712700E+02  0.19829679341E+02  0.45994279555E+01  0.28752267542E+02  0.51100000000E-03 0.  1.
        -12    1    3    3    0    0 -0.51326175898E+01 -0.15146096239E+02  0.10028991127E+02  0.18876669665E+02  0.00000000000E+00 0.  1.
</event>
<event>
 7    1  0.2688173E-013  0.7246162E+02  0.7816164E-02  0.1226708E+00
        -11   -1    0    0    0    0  0.00000000000E+00  0.00000000000E+00  0.45593999997E+02  0.45594000000E+02  0.51100000000E-03 0.  1.
         11   -1    0    0    0    0 -0.00000000000E+00 -0.00000000000E+00 -0.45593999997E+02  0.45594000000E+02  0.51100000000E-03 0. -1.
    9900012    2    1    2    0    0  0.17736918815E+01  0.17456122461E+02 -0.65433185490E+01  0.72461622564E+02  0.70000068090E+02 0.  0.
        -12    1    1    2    0    0 -0.17736918815E+01 -0.17456122461E+02  0.65433185490E+01  0.18726377436E+02  0.00000000000E+00 0.  1.
         11    1    3    3    0    0 -0.23426155260E+02 -0.47235687165E+01 -0.33133929298E+00  0.23899929658E+02  0.51100000000E-03 0. -1.
        -11    1    3    3    0    0 -0.67879163306E+01 -0.30313578474E+01 -0.91385741412E+00  0.74899982740E+01  0.51100000000E-03 0.  1.
        -12    1    3    3    0    0  0.31987763472E+02  0.25211049025E+02 -0.52981218419E+01  0.41071694632E+02  0.00000000000E+00 0.  1.
</event>
<event>
 7    1  0.2688173E-013  0.7246161E+02  0.7816164E-02  0.1226708E+00
        -11   -1    0    0    0    0  0.00000000000E+00  0.00000000000E+00  0.45593999997E+02  0.45594000000E+02  0.51100000000E-03 0.  1.
         11   -1    0    0    0    0 -0.00000000000E+00 -0.00000000000E+00 -0.45593999997E+02  0.45594000000E+02  0.51100000000E-03 0. -1.
    9900012    2    1    2    0    0 -0.17758093153E+02  0.59110130393E+01  0.62282522349E+00  0.72461605290E+02  0.70000045588E+02 0.  0.
        -12    1    1    2    0    0  0.17758093153E+02 -0.59110130393E+01 -0.62282522349E+00  0.18726394710E+02  0.00000000000E+00 0.  1.
         11    1    3    3    0    0  0.12995843470E+02 -0.10280450288E+02  0.17513677014E+02  0.24110339865E+02  0.51100000000E-03 0. -1.
        -11    1    3    3    0    0 -0.54165822761E+00  0.39263045280E+00  0.68010707296E+01  0.68338946171E+01  0.51100000000E-03 0.  1.
        -12    1    3    3    0    0 -0.30212278395E+02  0.15798832875E+02 -0.23691922520E+02  0.41517370807E+02  0.00000000000E+00 0.  1.
</event>
