<event>
 7    1  0.1345786E-013  0.7246164E+02  0.7816164E-02  0.1226708E+00
        -11   -1    0    0    0    0  0.00000000000E+00  0.00000000000E+00  0.45593999997E+02  0.45594000000E+02  0.51100000000E-03 0.  1.
         11   -1    0    0    0    0 -0.00000000000E+00 -0.00000000000E+00 -0.45593999997E+02  0.45594000000E+02  0.51100000000E-03 0. -1.
    9900012    2    1    2    0    0  0.18370349816E+02  0.14400027507E+01 -0.33366249171E+01  0.72461643544E+02  0.70000095421E+02 0.  0.
         12    1    1    2    0    0 -0.18370349816E+02 -0.14400027507E+01  0.33366249171E+01  0.18726356456E+02  0.00000000000E+00 0. -1.
         11    1    3    3    0    0  0.65053101980E+01 -0.18754489402E+02 -0.24859835596E+02  0.31812911838E+02  0.51100000000E-03 0. -1.
        -11    1    3    3    0    0 -0.25742586088E+01  0.12575448412E+02 -0.94990877735E+00  0.12871326159E+02  0.51100000000E-03 0.  1.
         12    1    3    3    0    0  0.14439298227E+02  0.76190437412E+01  0.22473119456E+02  0.27777405547E+02  0.00000000000E+00 0. -1.
</event>
<event>
 7    1  0.1345786E-013  0.7246156E+02  0.7816164E-02  0.1226708E+00
        -11   -1    0    0    0    0  0.00000000000E+00  0.00000000000E+00  0.45593999997E+02  0.45594000000E+02  0.51100000000E-03 0.  1.
         11   -1    0    0    0    0 -0.00000000000E+00 -0.00000000000E+00 -0.45593999997E+02  0.45594000000E+02  0.51100000000E-03 0. -1.
    9900012    2    1    2    0    0  0.11204508584E+02  0.91343920601E+00  0.14976782580E+02  0.72461564134E+02  0.69999991975E+02 0.  0.
         12    1    1    2    0    0 -0.11204508584E+02 -0.91343920601E+00 -0.14976782580E+02  0.18726435866E+02  0.00000000000E+00 0. -1.
         11    1    3    3    0    0  0.19309915933E+02 -0.85933904263E+01 -0.11871151379E+02  0.24241358206E+02  0.51100000000E-03 0. -1.
        -11    1    3    3    0    0 -0.18941957547E+02 -0.24533858511E+01  0.28670744949E+01  0.19314165120E+02  0.51100000000E-03 0.  1.
        -12    1    3    3    0    0  0.10836550198E+02  0.11960215483E+02  0.23980859464E+02  0.28906040808E+02  0.00000000000E+00 0.  1.
</event>
<event>
 7    1  0.1345786E-013  0.7246159E+02  0.7816164E-02  0.1226708E+00
        -11   -1    0    0    0    0  0.00000000000E+00  0.00000000000E+00  0.45593999997E+02  0.45594000000E+02  0.51100000000E-03 0. -1.
         11   -1    0    0    0    0 -0.00000000000E+00 -0.00000000000E+00 -0.45593999997E+02  0.45594000000E+02  0.51100000000E-03 0.  1.
    9900012    2    1    2    0    0 -0.68322179353E+01 -0.16296261410E+02 -0.61992698029E+01  0.72461593940E+02  0.70000030802E+02 0.  0.
         12    1    1    2    0    0  0.68322179353E+01  0.16296261410E+02  0.61992698029E+01  0.18726406060E+02  0.00000000000E+00 0. -1.
         11    1    3    3    0    0 -0.89402719287E+01  0.68271333843E+01  0.20521341918E+02  0.23402215425E+02  0.51100000000E-03 0. -1.
        -11    1    3    3    0    0  0.14235230879E+02 -0.63232443130E+01 -0.23347772607E+02  0.28066772219E+02  0.51100000000E-03 0.  1.
         12    1    3    3    0    0 -0.12127176886E+02 -0.16800150481E+02 -0.33728391136E+01  0.20992606296E+02  0.00000000000E+00 0. -1.
</event>
<event>
 7    1  0.1345786E-013  0.7246156E+02  0.7816164E-02  0.1226708E+00
        -11   -1    0    0    0    0  0.00000000000E+00  0.00000000000E+00  0.45593999997E+02  0.45594000000E+02  0.51100000000E-03 0. -1.
         11   -1    0    0    0    0 -0.00000000000E+00 -0.00000000000E+00 -0.45593999997E+02  0.45594000000E+02  0.51100000000E-03 0.  1.
    9900012    2    1    2    0    0  0.16593814088E+02  0.38699547477E+00  0.86703681882E+01  0.72461555703E+02  0.69999980992E+02 0.  0.
         12    1    1    2    0    0 -0.16593814088E+02 -0.38699547477E+00 -0.86703681882E+01  0.18726444297E+02  0.00000000000E+00 0. -1.
         11    1    3    3    0    0 -0.14931216127E+02  0.16123698697E+02 -0.11104292219E+02  0.24621538958E+02  0.51100000000E-03 0. -1.
        -11    1    3    3    0    0  0.50146894182E+01 -0.14216093519E+02  0.14195252307E+02  0.20706269901E+02  0.51100000000E-03 0.  1.
         12    1    3    3    0    0  0.26510340797E+02 -0.15206097034E+01  0.55794081001E+01  0.27133746844E+02  0.00000000000E+00 0. -1.
</event>
<event>
 7    1  0.1345786E-013  0.7246160E+02  0.7816164E-02  0.1226708E+00
        -11   -1    0    0    0    0  0.00000000000E+00  0.00000000000E+00  0.45593999997E+02  0.45594000000E+02  0.51100000000E-03 0.  1.
         11   -1    0    0    0    0 -0.00000000000E+00 -0.00000000000E+00 -0.45593999997E+02  0.45594000000E+02  0.51100000000E-03 0. -1.
    9900012    2    1    2    0    0 -0.30000067326E+01 -0.18462827734E+02  0.89559263650E+00  0.72461597930E+02  0.70000036001E+02 0.  0.
         12    1    1    2    0    0  0.30000067326E+01  0.18462827734E+02 -0.89559263650E+00  0.18726402070E+02  0.00000000000E+00 0. -1.
         11    1    3    3    0    0 -0.26873008496E+02 -0.53097926609E+00 -0.11788443155E+02  0.29349751564E+02  0.51100000000E-03 0. -1.
        -11    1    3    3    0    0  0.12194343824E+02  0.18898900265E+01  0.15633906042E+02  0.19917146483E+02  0.51100000000E-03 0.  1.
         12    1    3    3    0    0  0.11678657939E+02 -0.19821738494E+02 -0.29498702509E+01  0.23194699883E+02  0.00000000000E+00 0. -1.
</event>
<event>
 7    1  0.1345786E-013  0.7246157E+02  0.7816164E-02  0.1226708E+00
        -11   -1    0    0    0    0  0.00000000000E+00  0.00000000000E+00  0.45593999997E+02  0.45594000000E+02  0.51100000000E-03 0.  1.
         11   -1    0    0    0    0 -0.00000000000E+00 -0.00000000000E+00 -0.45593999997E+02  0.45594000000E+02  0.51100000000E-03 0. -1.
    9900012    2    1    2    0    0 -0.79363294434E+01  0.76498752533E+01  0.15138473901E+02  0.72461566584E+02  0.69999995166E+02 0.  0.
         12    1    1    2    0    0  0.79363294434E+01 -0.76498752533E+01 -0.15138473901E+02  0.18726433416E+02  0.00000000000E+00 0. -1.
         11    1    3    3    0    0 -0.35842349756E+02 -0.40469340939E+00  0.14325831140E+02  0.38601389236E+02  0.51100000000E-03 0. -1.
        -11    1    3    3    0    0  0.14671634788E+02  0.11555431072E+02  0.53690398949E+01  0.19432226950E+02  0.51100000000E-03 0.  1.
        -12    1    3    3    0    0  0.13234385525E+02 -0.35008624091E+01 -0.45563971336E+01  0.14427950398E+02  0.00000000000E+00 0.  1.
</event>
<event>
 7    1  0.1345786E-013  0.7246154E+02  0.7816164E-02  0.1226708E+00
        -11   -1    0    0    0    0  0.00000000000E+00  0.00000000000E+00  0.45593999997E+02  0.45594000000E+02  0.51100000000E-03 0.  1.
         11   -1    0    0    0    0 -0.00000000000E+00 -0.00000000000E+00 -0.45593999997E+02  0.45594000000E+02  0.51100000000E-03 0. -1.
    9900012    2    1    2    0    0  0.12467247585E+01  0.36434720091E+01  0.18326235842E+02  0.72461544621E+02  0.69999966556E+02 0.  0.
         12    1    1    2    0    0 -0.12467247585E+01 -0.36434720091E+01 -0.18326235842E+02  0.18726455379E+02  0.00000000000E+00 0. -1.
         11    1    3    3    0    0  0.31767603319E+02  0.88664190274E+01  0.95918400432E+01  0.34348179030E+02  0.51100000000E-03 0. -1.
        -11    1    3    3    0    0 -0.11716069539E+02  0.34308384115E+01  0.12044946649E+02  0.17149859407E+02  0.51100000000E-03 0.  1.
         12    1    3    3    0    0 -0.18804809022E+02 -0.86537854298E+01 -0.33105508498E+01  0.20963506184E+02  0.00000000000E+00 0. -1.
</event>
<event>
 7    1  0.1345786E-013  0.7246155E+02  0.7816164E-02  0.1226708E+00
        -11   -1    0    0    0    0  0.00000000000E+00  0.00000000000E+00  0.45593999997E+02  0.45594000000E+02  0.51100000000E-03 0. -1.
         11   -1    0    0    0    0 -0.00000000000E+00 -0.00000000000E+00 -0.45593999997E+02  0.45594000000E+02  0.51100000000E-03 0.  1.
    9900012    2    1    2    0    0  0.14117348957E+02 -0.63554846813E+01 -0.10535089892E+02  0.72461552228E+02  0.69999976466E+02 0.  0.
         12    1    1    2    0    0 -0.14117348957E+02  0.63554846813E+01  0.10535089892E+02  0.18726447772E+02  0.00000000000E+00 0. -1.
         11    1    3    3    0    0 -0.11623382234E+02 -0.16683442380E+00  0.11150241579E+02  0.16107722863E+02  0.51100000000E-03 0. -1.
        -11    1    3    3    0    0  0.20208326613E+02  0.43094638489E+00 -0.35041744453E+02  0.40453504593E+02  0.51100000000E-03 0.  1.
        -12    1    3    3    0    0  0.55324045780E+01 -0.66195966424E+01  0.13356412982E+02  0.15900324772E+02  0.00000000000E+00 0.  1.
</event>
<event>
 7    1  0.1345786E-013  0.7246157E+02  0.7816164E-02  0.1226708E+00
        -11   -1    0    0    0    0  0.00000000000E+00  0.00000000000E+00  0.45593999997E+02  0.45594000000E+02  0.51100000000E-03 0. -1.
         11   -1    0    0    0    0 -0.00000000000E+00 -0.00000000000E+00 -0.45593999997E+02  0.45594000000E+02  0.51100000000E-03 0.  1.
    9900012    2    1    2    0    0 -0.32918909709E+00  0.18648495610E+02 -0.16746274971E+01  0.72461571316E+02  0.70000001331E+02 0.  0.
         12    1    1    2    0    0  0.32918909709E+00 -0.18648495610E+02  0.16746274971E+01  0.18726428684E+02  0.00000000000E+00 0. -1.
         11    1    3    3    0    0 -0.31528073115E+02  0.74154410359E+01  0.21433394535E+01  0.32459236966E+02  0.51100000000E-03 0. -1.
        -11    1    3    3    0    0  0.15723139906E+02  0.17133211865E+02 -0.19853256658E+01  0.23338928757E+02  0.51100000000E-03 0.  1.
         12    1    3    3    0    0  0.15475744113E+02 -0.59001572900E+01 -0.18326412848E+01  0.16663405593E+02  0.00000000000E+00 0. -1.
</event>
<event>
 7    1  0.1345786E-013  0.7246159E+02  0.7816164E-02  0.1226708E+00
        -11   -1    0    0    0    0  0.00000000000E+00  0.00000000000E+00  0.45593999997E+02  0.45594000000E+02  0.51100000000E-03 0.  1.
         11   -1    0    0    0    0 -0.00000000000E+00 -0.00000000000E+00 -0.45593999997E+02  0.45594000000E+02  0.51100000000E-03 0. -1.
    9900012    2    1    2    0    0  0.12072919647E+02 -0.11558199510E+02  0.84457697936E+01  0.72461591051E+02  0.70000027039E+02 0.  0.
         12    1    1    2    0    0 -0.12072919647E+02  0.11558199510E+02 -0.84457697936E+01  0.18726408949E+02  0.00000000000E+00 0. -1.
         11    1    3    3    0    0 -0.29548525559E+01  0.16454641981E+02 -0.36597855637E+01  0.17113749647E+02  0.51100000000E-03 0. -1.
        -11    1    3    3    0    0  0.22394917791E+02 -0.19790226789E+02  0.24575527769E+02  0.38692919050E+02  0.51100000000E-03 0.  1.
        -12    1    3    3    0    0 -0.73671455880E+01 -0.82226147027E+01 -0.12469972411E+02  0.16654922354E+02  0.00000000000E+00 0.  1.
</event>
<event>
 7    1  0.1345786E-013  0.7246161E+02  0.7816164E-02  0.1226708E+00
        -11   -1    0    0    0    0  0.00000000000E+00  0.00000000000E+00  0.45593999997E+02  0.45594000000E+02  0.51100000000E-03 0. -1.
         11   -1    0    0    0    0 -0.00000000000E+00 -0.00000000000E+00 -0.45593999997E+02  0.45594000000E+02  0.51100000000E-03 0.  1.
    9900012    2    1    2    0    0  0.24595526117E+00  0.16248971424E+02 -0.93052705427E+01  0.72461611502E+02  0.70000053680E+02 0.  0.
         12    1    1    2    0    0 -0.24595526117E+00 -0.16248971424E+02  0.93052705427E+01  0.18726388498E+02  0.00000000000E+00 0. -1.
         11    1    3    3    0    0 -0.47179628612E+01 -0.65920930669E+01 -0.93512544799E+00  0.81602282093E+01  0.51100000000E-03 0. -1.
        -11    1    3    3    0    0 -0.20140627779E+02  0.30705078973E+02 -0.96329087426E+01  0.37963662800E+02  0.51100000000E-03 0.  1.
        -12    1    3    3    0    0  0.25104545901E+02 -0.78640144830E+01  0.12627636479E+01  0.26337720492E+02  0.00000000000E+00 0.  1.
</event>
<event>
 7    1  0.1345786E-013  0.7246128E+02  0.7816164E-02  0.1226709E+00
        -11   -1    0    0    0    0  0.00000000000E+00  0.00000000000E+00  0.45593999997E+02  0.45594000000E+02  0.51100000000E-03 0. -1.
         11   -1    0    0    0    0 -0.00000000000E+00 -0.00000000000E+00 -0.45593999997E+02  0.45594000000E+02  0.51100000000E-03 0.  1.
    9900012    2    1    2    0    0  0.95623186137E+01  0.14735537988E+02  0.64896976757E+01  0.72461275967E+02  0.69999616583E+02 0.  0.
         12    1    1    2    0    0 -0.95623186137E+01 -0.14735537988E+02 -0.64896976757E+01  0.18726724033E+02  0.00000000000E+00 0. -1.
         11    1    3    3    0    0 -0.15083364107E+02 -0.10674035906E+02 -0.61664447439E+01  0.19479937277E+02  0.51100000000E-03 0. -1.
        -11    1    3    3    0    0  0.93830324287E+01  0.92701762154E+01 -0.13358673833E+02  0.18773162532E+02  0.51100000000E-03 0.  1.
         12    1    3    3    0    0  0.15262650292E+02  0.16139397679E+02  0.26014816253E+02  0.34208176158E+02  0.00000000000E+00 0. -1.
</event>
<event>
 7    1  0.1345786E-013  0.7246162E+02  0.7816164E-02  0.1226708E+00
        -11   -1    0    0    0    0  0.00000000000E+00  0.00000000000E+00  0.45593999997E+02  0.45594000000E+02  0.51100000000E-03 0. -1.
         11   -1    0    0    0    0 -0.00000000000E+00 -0.00000000000E+00 -0.45593999997E+02  0.45594000000E+02  0.51100000000E-03 0.  1.
    9900012    2    1    2    0    0  0.11435982756E+02 -0.86642167118E+01 -0.12034404955E+02  0.72461621401E+02  0.70000066575E+02 0.  0.
         12    1    1    2    0    0 -0.11435982756E+02  0.86642167118E+01  0.12034404955E+02  0.18726378599E+02  0.00000000000E+00 0. -1.
         11    1    3    3    0    0  0.29347534156E+02  0.42094588227E+01  0.86689394789E+01  0.30889283199E+02  0.51100000000E-03 0. -1.
        -11    1    3    3    0    0 -0.16023117203E+02  0.59097575492E+01 -0.83375630715E+01  0.19004748812E+02  0.51100000000E-03 0.  1.
         12    1    3    3    0    0 -0.18884341979E+01 -0.18783433084E+02 -0.12365781363E+02  0.22567589389E+02  0.00000000000E+00 0. -1.
</event>
<event>
 7    1  0.1345786E-013  0.7246153E+02  0.7816164E-02  0.1226708E+00
        -11   -1    0    0    0    0  0.00000000000E+00  0.00000000000E+00  0.45593999997E+02  0.45594000000E+02  0.51100000000E-03 0. -1.
         11   -1    0    0    0    0 -0.00000000000E+00 -0.00000000000E+00 -0.45593999997E+02  0.45594000000E+02  0.51100000000E-03 0.  1.
    9900012    2    1    2    0    0  0.14165756154E+01 -0.72802781149E+01 -0.17195103705E+02  0.72461528700E+02  0.69999945816E+02 0.  0.
         12    1    1    2    0    0 -0.14165756154E+01  0.72802781149E+01  0.17195103705E+02  0.18726471300E+02  0.00000000000E+00 0. -1.
         11    1    3    3    0    0  0.17857278947E+02 -0.53216258226E+01  0.14089969307E+01  0.18686556275E+02  0.51100000000E-03 0. -1.
        -11    1    3    3    0    0 -0.64404036826E+01  0.22368854968E+02 -0.37800167936E+01  0.23582472292E+02  0.51100000000E-03 0.  1.
         12    1    3    3    0    0 -0.10000299649E+02 -0.24327507260E+02 -0.14824083842E+02  0.30192500134E+02  0.00000000000E+00 0. -1.
</event>
<event>
 7    1  0.1345786E-013  0.7246156E+02  0.7816164E-02  0.1226708E+00
        -11   -1    0    0    0    0  0.00000000000E+00  0.00000000000E+00  0.45593999997E+02  0.45594000000E+02  0.51100000000E-03 0. -1.
         11   -1    0    0    0    0 -0.00000000000E+00 -0.00000000000E+00 -0.45593999997E+02  0.45594000000E+02  0.51100000000E-03 0.  1.
    9900012    2    1    2    0    0 -0.87832093312E+01 -0.16085259781E+02 -0.38469568575E+01  0.72461563461E+02  0.69999991098E+02 0.  0.
         12    1    1    2    0    0  0.87832093312E+01  0.16085259781E+02  0.38469568575E+01  0.18726436539E+02  0.00000000000E+00 0. -1.
         11    1    3    3    0    0 -0.13576199011E+02  0.65496578128E+01 -0.18527272504E+02  0.23884535243E+02  0.51100000000E-03 0. -1.
        -11    1    3    3    0    0  0.10487584694E+02 -0.32918148092E+02  0.11174558107E+02  0.36310668621E+02  0.51100000000E-03 0.  1.
         12    1    3    3    0    0 -0.56945950141E+01  0.10283230498E+02  0.35057575394E+01  0.12266359598E+02  0.00000000000E+00 0. -1.
</event>
<event>
 7    1  0.1345786E-013  0.7246158E+02  0.7816164E-02  0.1226708E+00
        -11   -1    0    0    0    0  0.00000000000E+00  0.00000000000E+00  0.45593999997E+02  0.45594000000E+02  0.51100000000E-03 0. -1.
         11   -1    0    0    0    0 -0.00000000000E+00 -0.00000000000E+00 -0.45593999997E+02  0.45594000000E+02  0.51100000000E-03 0.  1.
    9900012    2    1    2    0    0  0.16621116717E+02  0.32365370040E+01 -0.79963794970E+01  0.72461580755E+02  0.70000013627E+02 0.  0.
         12    1    1    2    0    0 -0.16621116717E+02 -0.32365370040E+01  0.79963794970E+01  0.18726419245E+02  0.00000000000E+00 0. -1.
         11    1    3    3    0    0 -0.88500486002E+01 -0.16805894225E+00 -0.90932075548E+01  0.12690075962E+02  0.51100000000E-03 0.  1.
        -11    1    3    3    0    0  0.42562837093E+02  0.19676996865E+01  0.95181194871E+00  0.42618926426E+02  0.51100000000E-03 0. -1.
        -12    1    3    3    0    0 -0.17091671776E+02  0.14368962598E+01  0.14501610908E+00  0.17152578367E+02  0.00000000000E+00 0.  1.
</event>
<event>
 7    1  0.1345786E-013  0.7246157E+02  0.7816164E-02  0.1226708E+00
        -11   -1    0    0    0    0  0.00000000000E+00  0.00000000000E+00  0.45593999997E+02  0.45594000000E+02  0.51100000000E-03 0. -1.
         11   -1    0    0    0    0 -0.00000000000E+00 -0.00000000000E+00 -0.45593999997E+02  0.45594000000E+02  0.51100000000E-03 0.  1.
    9900012    2    1    2    0    0  0.12517725281E+02 -0.73821296335E+01 -0.11810584292E+02  0.72461569869E+02  0.69999999446E+02 0.  0.
         12    1    1    2    0    0 -0.12517725281E+02  0.73821296335E+01  0.11810584292E+02  0.18726430131E+02  0.00000000000E+00 0. -1.
         11    1    3    3    0    0  0.23568823598E+02  0.12455087679E+02  0.19299531185E+02  0.32910341218E+02  0.51100000000E-03 0. -1.
        -11    1    3    3    0    0  0.36501761761E+00 -0.59463428596E+01 -0.11462845755E+02  0.12918555040E+02  0.51100000000E-03 0.  1.
         12    1    3    3    0    0 -0.11416115935E+02 -0.13890874453E+02 -0.19647269722E+02  0.26632673610E+02  0.00000000000E+00 0. -1.
</event>
<event>
 8    1  0.1345786E-013  0.7246161E+02  0.7816164E-02  0.1226708E+00
        -11   -1    0    0    0    0  0.00000000000E+00  0.00000000000E+00  0.45593999997E+02  0.45594000000E+02  0.51100000000E-03 0. -1.
         11   -1    0    0    0    0 -0.00000000000E+00 -0.00000000000E+00 -0.45593999997E+02  0.45594000000E+02  0.51100000000E-03 0.  1.
    9900012    2    1    2    0    0  0.30423901548E+01 -0.32624768662E+01  0.18187292950E+02  0.72461614390E+02  0.70000057443E+02 0.  0.
         24    2    3    3    0    0 -0.25464107639E+01  0.37396958932E+01 -0.56372392567E+00  0.51680234427E+02  0.51478726796E+02 0.  0.
         12    1    1    2    0    0 -0.30423901548E+01  0.32624768662E+01 -0.18187292950E+02  0.18726385610E+02  0.00000000000E+00 0. -1.
         11    1    3    3    0    0  0.55888009187E+01 -0.70021727594E+01  0.18751016876E+02  0.20781379964E+02  0.51100000000E-03 0. -1.
        -11    1    4    4    0    0  0.12412450284E+02 -0.71495272682E+01 -0.20159009723E+02  0.24729948150E+02  0.51100000000E-03 0.  1.
         12    1    4    4    0    0 -0.14958861048E+02  0.10889223161E+02  0.19595285798E+02  0.26950286277E+02  0.00000000000E+00 0. -1.
</event>
<event>
 7    1  0.1345786E-013  0.7246165E+02  0.7816164E-02  0.1226708E+00
        -11   -1    0    0    0    0  0.00000000000E+00  0.00000000000E+00  0.45593999997E+02  0.45594000000E+02  0.51100000000E-03 0.  1.
         11   -1    0    0    0    0 -0.00000000000E+00 -0.00000000000E+00 -0.45593999997E+02  0.45594000000E+02  0.51100000000E-03 0. -1.
    9900012    2    1    2    0    0  0.78493364398E+01 -0.16909154153E+02 -0.17732721279E+01  0.72461653032E+02  0.70000107781E+02 0.  0.
         12    1    1    2    0    0 -0.78493364398E+01  0.16909154153E+02  0.17732721279E+01  0.18726346968E+02  0.00000000000E+00 0. -1.
         11    1    3    3    0    0  0.19096440276E+02 -0.52162851172E+01 -0.75528117668E+01  0.21187935895E+02  0.51100000000E-03 0. -1.
        -11    1    3    3    0    0 -0.23035650156E+02 -0.22893402695E+02 -0.33091973247E+01  0.32645058619E+02  0.51100000000E-03 0.  1.
        -12    1    3    3    0    0  0.11788546320E+02  0.11200533659E+02  0.90887369636E+01  0.18628658517E+02  0.00000000000E+00 0.  1.
</event>
<event>
 7    1  0.1345786E-013  0.7246144E+02  0.7816164E-02  0.1226708E+00
        -11   -1    0    0    0    0  0.00000000000E+00  0.00000000000E+00  0.45593999997E+02  0.45594000000E+02  0.51100000000E-03 0.  1.
         11   -1    0    0    0    0 -0.00000000000E+00 -0.00000000000E+00 -0.45593999997E+02  0.45594000000E+02  0.51100000000E-03 0. -1.
    9900012    2    1    2    0    0 -0.14277875397E+02 -0.93950988807E+01  0.76523489955E+01  0.72461439878E+02  0.69999830109E+02 0.  0.
         12    1    1    2    0    0  0.14277875397E+02  0.93950988807E+01 -0.76523489955E+01  0.18726560122E+02  0.00000000000E+00 0. -1.
         11    1    3    3    0    0 -0.35759147465E+02 -0.89770938203E+01 -0.10587853119E+02  0.38358929532E+02  0.51100000000E-03 0. -1.
        -11    1    3    3    0    0 -0.21276974071E+00 -0.62940773336E+01  0.47600821681E+01  0.78942423925E+01  0.51100000000E-03 0.  1.
         12    1    3    3    0    0  0.21694041809E+02  0.58760722731E+01  0.13480119947E+02  0.26208267954E+02  0.00000000000E+00 0. -1.
</event>
<event>
 7    1  0.1345786E-013  0.7246154E+02  0.7816164E-02  0.1226708E+00
        -11   -1    0    0    0    0  0.00000000000E+00  0.00000000000E+00  0.45593999997E+02  0.45594000000E+02  0.51100000000E-03 0. -1.
         11   -1    0    0    0    0 -0.00000000000E+00 -0.00000000000E+00 -0.45593999997E+02  0.45594000000E+02  0.51100000000E-03 0.  1.
    9900012    2    1    2    0    0 -0.17369306334E+02  0.21071349886E+01 -0.66743815358E+01  0.72461543067E+02  0.69999964531E+02 0.  0.
         12    1    1    2    0    0  0.17369306334E+02 -0.21071349886E+01  0.66743815358E+01  0.18726456933E+02  0.00000000000E+00 0. -1.
         11    1    3    3    0    0 -0.45890257357E+01  0.28999982010E+02  0.11204930751E+02  0.31426240424E+02  0.51100000000E-03 0. -1.
        -11    1    3    3    0    0  0.59022541827E+01 -0.84633188579E+01 -0.77539030656E+01  0.12906873500E+02  0.51100000000E-03 0.  1.
         12    1    3    3    0    0 -0.18682534781E+02 -0.18429528163E+02 -0.10125409221E+02  0.28128429143E+02  0.00000000000E+00 0. -1.
</event>
<event>
 7    1  0.1345786E-013  0.7246158E+02  0.7816164E-02  0.1226708E+00
        -11   -1    0    0    0    0  0.00000000000E+00  0.00000000000E+00  0.45593999997E+02  0.45594000000E+02  0.51100000000E-03 0. -1.
         11   -1    0    0    0    0 -0.00000000000E+00 -0.00000000000E+00 -0.45593999997E+02  0.45594000000E+02  0.51100000000E-03 0.  1.
    9900012    2    1    2    0    0  0.34455513687E+01  0.16042588151E+02 -0.90245468267E+01  0.72461577377E+02  0.70000009227E+02 0.  0.
         12    1    1    2    0    0 -0.34455513687E+01 -0.16042588151E+02  0.90245468267E+01  0.18726422623E+02  0.00000000000E+00 0. -1.
         11    1    3    3    0    0 -0.21997784278E+02  0.69730558830E+01  0.12457394858E+02  0.26224277081E+02  0.51100000000E-03 0. -1.
        -11    1    3    3    0    0  0.29817972133E+02  0.15764818855E+00 -0.10953987739E+02  0.31766746178E+02  0.51100000000E-03 0.  1.
         12    1    3    3    0    0 -0.43746364862E+01  0.89118840792E+01 -0.10527953945E+02  0.14470554118E+02  0.00000000000E+00 0. -1.
</event>
<event>
 7    1  0.1345786E-013  0.7246159E+02  0.7816164E-02  0.1226708E+00
        -11   -1    0    0    0    0  0.00000000000E+00  0.00000000000E+00  0.45593999997E+02  0.45594000000E+02  0.51100000000E-03 0.  1.
         11   -1    0    0    0    0 -0.00000000000E+00 -0.00000000000E+00 -0.45593999997E+02  0.45594000000E+02  0.51100000000E-03 0. -1.
    9900012    2    1    2    0    0  0.89803276244E+01  0.16375730152E+02 -0.13666293272E+01  0.72461588225E+02  0.70000023358E+02 0.  0.
         12    1    1    2    0    0 -0.89803276244E+01 -0.16375730152E+02  0.13666293272E+01  0.18726411775E+02  0.00000000000E+00 0. -1.
         11    1    3    3    0    0  0.50912774321E+01  0.24323023351E+02 -0.25556971704E+01  0.24981236140E+02  0.51100000000E-03 0. -1.
        -11    1    3    3    0    0  0.83751575567E+01 -0.80833142920E+01  0.22697822664E+02  0.25508319976E+02  0.51100000000E-03 0.  1.
        -12    1    3    3    0    0 -0.44861073643E+01  0.13602109366E+00 -0.21508754821E+02  0.21972032108E+02  0.00000000000E+00 0.  1.
</event>
<event>
 7    1  0.1345786E-013  0.7246154E+02  0.7816164E-02  0.1226708E+00
        -11   -1    0    0    0    0  0.00000000000E+00  0.00000000000E+00  0.45593999997E+02  0.45594000000E+02  0.51100000000E-03 0. -1.
         11   -1    0    0    0    0 -0.00000000000E+00 -0.00000000000E+00 -0.45593999997E+02  0.45594000000E+02  0.51100000000E-03 0.  1.
    9900012    2    1    2    0    0  0.10041319230E+01  0.15518886599E+02 -0.10432458153E+02  0.72461539968E+02  0.69999960494E+02 0.  0.
         12    1    1    2    0    0 -0.10041319230E+01 -0.15518886599E+02  0.10432458153E+02  0.18726460032E+02  0.00000000000E+00 0. -1.
         11    1    3    3    0    0  0.78767318356E+01 -0.26547986381E+02 -0.20734170385E+01  0.27769363402E+02  0.51100000000E-03 0. -1.
        -11    1    3    3    0    0 -0.44857654245E+01  0.30709480988E+02 -0.10747207514E+02  0.32843519659E+02  0.51100000000E-03 0.  1.
         12    1    3    3    0    0 -0.23868344881E+01  0.11357391993E+02  0.23881663997E+01  0.11848656907E+02  0.00000000000E+00 0. -1.
</event>
<event>
 7    1  0.1345786E-013  0.7246159E+02  0.7816164E-02  0.1226708E+00
        -11   -1    0    0    0    0  0.00000000000E+00  0.00000000000E+00  0.45593999997E+02  0.45594000000E+02  0.51100000000E-03 0.  1.
         11   -1    0    0    0    0 -0.00000000000E+00 -0.00000000000E+00 -0.45593999997E+02  0.45594000000E+02  0.51100000000E-03 0. -1.
    9900012    2    1    2    0    0  0.85923751773E+01  0.14913589999E+02  0.73779689487E+01  0.72461588073E+02  0.70000023160E+02 0.  0.
         12    1    1    2    0    0 -0.85923751773E+01 -0.14913589999E+02 -0.73779689487E+01  0.18726411927E+02  0.00000000000E+00 0. -1.
         11    1    3    3    0    0 -0.23536398542E+02 -0.43607088780E+01 -0.15301367701E+02  0.28409676028E+02  0.51100000000E-03 0. -1.
        -11    1    3    3    0    0  0.14684445992E+02  0.10865501877E+02  0.12856099600E+02  0.22337667343E+02  0.51100000000E-03 0.  1.
         12    1    3    3    0    0  0.17444327727E+02  0.84087969994E+01  0.98232370501E+01  0.21714244702E+02  0.00000000000E+00 0. -1.
</event>
<event>
 7    1  0.1345786E-013  0.7246172E+02  0.7816164E-02  0.1226708E+00
        -11   -1    0    0    0    0  0.00000000000E+00  0.00000000000E+00  0.45593999997E+02  0.45594000000E+02  0.51100000000E-03 0.  1.
         11   -1    0    0    0    0 -0.00000000000E+00 -0.00000000000E+00 -0.45593999997E+02  0.45594000000E+02  0.51100000000E-03 0. -1.
    9900012    2    1    2    0    0 -0.84200537592E+01 -0.16475793810E+02 -0.28851942473E+01  0.72461723466E+02  0.70000199535E+02 0.  0.
         12    1    1    2    0    0  0.84200537592E+01  0.16475793810E+02  0.28851942473E+01  0.18726276534E+02  0.00000000000E+00 0. -1.
         11    1    3    3    0    0 -0.15645380195E+02 -0.30759487183E+02 -0.90720264784E+01  0.35682287453E+02  0.51100000000E-03 0. -1.
        -11    1    3    3    0    0  0.19439531306E+02  0.37829187261E+01  0.89316106490E+00  0.19824318107E+02  0.51100000000E-03 0.  1.
        -12    1    3    3    0    0 -0.12214204869E+02  0.10500774647E+02  0.52936711663E+01  0.16955117906E+02  0.00000000000E+00 0.  1.
</event>
<event>
 7    1  0.1345786E-013  0.7246155E+02  0.7816164E-02  0.1226708E+00
        -11   -1    0    0    0    0  0.00000000000E+00  0.00000000000E+00  0.45593999997E+02  0.45594000000E+02  0.51100000000E-03 0.  1.
         11   -1    0    0    0    0 -0.00000000000E+00 -0.00000000000E+00 -0.45593999997E+02  0.45594000000E+02  0.51100000000E-03 0. -1.
    9900012    2    1    2    0    0  0.10737605288E+02 -0.57581749070E+01  0.14220655441E+02  0.72461553814E+02  0.69999978532E+02 0.  0.
         12    1    1    2    0    0 -0.10737605288E+02  0.57581749070E+01 -0.14220655441E+02  0.18726446186E+02  0.00000000000E+00 0. -1.
         11    1    3    3    0    0 -0.23610655742E+01 -0.15289031761E+02 -0.29494011512E+01  0.15748907589E+02  0.51100000000E-03 0. -1.
        -11    1    3    3    0    0  0.11803457826E+01  0.21976178030E+02 -0.10289267801E+02  0.24294333684E+02  0.51100000000E-03 0.  1.
        -12    1    3    3    0    0  0.11918325080E+02 -0.12445321176E+02  0.27459324393E+02  0.32418312541E+02  0.00000000000E+00 0.  1.
</event>
<event>
 7    1  0.1345786E-013  0.7246148E+02  0.7816164E-02  0.1226708E+00
        -11   -1    0    0    0    0  0.00000000000E+00  0.00000000000E+00  0.45593999997E+02  0.45594000000E+02  0.51100000000E-03 0. -1.
         11   -1    0    0    0    0 -0.00000000000E+00 -0.00000000000E+00 -0.45593999997E+02  0.45594000000E+02  0.51100000000E-03 0.  1.
    9900012    2    1    2    0    0 -0.15248807346E+02  0.19270459616E+01 -0.10697795285E+02  0.72461482556E+02  0.69999885705E+02 0.  0.
         12    1    1    2    0    0  0.15248807346E+02 -0.19270459616E+01  0.10697795285E+02  0.18726517444E+02  0.00000000000E+00 0. -1.
         11    1    3    3    0    0 -0.33187185570E+02  0.50162986139E+01 -0.10944610155E+02  0.35303498828E+02  0.51100000000E-03 0. -1.
        -11    1    3    3    0    0  0.28485986075E+01 -0.76454662158E+01  0.14022930688E+02  0.16223755824E+02  0.51100000000E-03 0.  1.
        -12    1    3    3    0    0  0.15089779616E+02  0.45562135634E+01 -0.13776115818E+02  0.20934227904E+02  0.00000000000E+00 0.  1.
</event>
<event>
 7    1  0.1345786E-013  0.7246160E+02  0.7816164E-02  0.1226708E+00
        -11   -1    0    0    0    0  0.00000000000E+00  0.00000000000E+00  0.45593999997E+02  0.45594000000E+02  0.51100000000E-03 0.  1.
         11   -1    0    0    0    0 -0.00000000000E+00 -0.00000000000E+00 -0.45593999997E+02  0.45594000000E+02  0.51100000000E-03 0. -1.
    9900012    2    1    2    0    0 -0.57124440451E+01  0.12154051898E+02  0.13050866264E+02  0.72461598724E+02  0.70000037035E+02 0.  0.
         12    1    1    2    0    0  0.57124440451E+01 -0.12154051898E+02 -0.13050866264E+02  0.18726401276E+02  0.00000000000E+00 0. -1.
         11    1    3    3    0    0  0.76057716377E+01 -0.15286203984E+02 -0.13103839603E+02  0.21522695162E+02  0.51100000000E-03 0. -1.
        -11    1    3    3    0    0  0.81806403244E+01  0.10374864496E+02  0.17953970280E+02  0.22291382606E+02  0.51100000000E-03 0.  1.
         12    1    3    3    0    0 -0.21498856007E+02  0.17065391386E+02  0.82007355868E+01  0.28647520956E+02  0.00000000000E+00 0. -1.
</event>
<event>
 7    1  0.1345786E-013  0.7246156E+02  0.7816164E-02  0.1226708E+00
        -11   -1    0    0    0    0  0.00000000000E+00  0.00000000000E+00  0.45593999997E+02  0.45594000000E+02  0.51100000000E-03 0. -1.
         11   -1    0    0    0    0 -0.00000000000E+00 -0.00000000000E+00 -0.45593999997E+02  0.45594000000E+02  0.51100000000E-03 0.  1.
    9900012    2    1    2    0    0 -0.16694236133E+02 -0.79671278912E+01  0.29166501752E+01  0.72461561600E+02  0.69999988674E+02 0.  0.
         12    1    1    2    0    0  0.16694236133E+02  0.79671278912E+01 -0.29166501752E+01  0.18726438400E+02  0.00000000000E+00 0. -1.
         11    1    3    3    0    0  0.22496336463E+02  0.53373979777E+01  0.45102475258E+01  0.23556640347E+02  0.51100000000E-03 0. -1.
        -11    1    3    3    0    0 -0.26570810258E+02 -0.19342777124E+02  0.53307015139E+01  0.33295155256E+02  0.51100000000E-03 0.  1.
        -12    1    3    3    0    0 -0.12619762338E+02  0.60382512555E+01 -0.69242988645E+01  0.15609765996E+02  0.00000000000E+00 0.  1.
</event>
<event>
 7    1  0.1345786E-013  0.7246161E+02  0.7816164E-02  0.1226708E+00
        -11   -1    0    0    0    0  0.00000000000E+00  0.00000000000E+00  0.45593999997E+02  0.45594000000E+02  0.51100000000E-03 0.  1.
         11   -1    0    0    0    0 -0.00000000000E+00 -0.00000000000E+00 -0.45593999997E+02  0.45594000000E+02  0.51100000000E-03 0. -1.
    9900012    2    1    2    0    0  0.14911497767E+02 -0.88339661891E+01  0.70912474137E+01  0.72461614493E+02  0.70000057576E+02 0.  0.
         12    1    1    2    0    0 -0.14911497767E+02  0.88339661891E+01 -0.70912474137E+01  0.18726385507E+02  0.00000000000E+00 0. -1.
         11    1    3    3    0    0 -0.22284555793E+02  0.55915379103E+01 -0.42240190907E+01  0.23360416534E+02  0.51100000000E-03 0. -1.
        -11    1    3    3    0    0  0.84813234785E+01  0.97272205834E+00  0.14011122055E+02  0.16407028301E+02  0.51100000000E-03 0.  1.
         12    1    3    3    0    0  0.28714730082E+02 -0.15398226158E+02 -0.26958555507E+01  0.32694169658E+02  0.00000000000E+00 0. -1.
</event>
<event>
 7    1  0.1345786E-013  0.7246144E+02  0.7816164E-02  0.1226708E+00
        -11   -1    0    0    0    0  0.00000000000E+00  0.00000000000E+00  0.45593999997E+02  0.45594000000E+02  0.51100000000E-03 0.  1.
         11   -1    0    0    0    0 -0.00000000000E+00 -0.00000000000E+00 -0.45593999997E+02  0.45594000000E+02  0.51100000000E-03 0. -1.
    9900012    2    1    2    0    0  0.15305453265E+00 -0.61870999735E+01  0.17674283488E+02  0.72461443227E+02  0.69999834471E+02 0.  0.
         12    1    1    2    0    0 -0.15305453265E+00  0.61870999735E+01 -0.17674283488E+02  0.18726556773E+02  0.00000000000E+00 0. -1.
         11    1    3    3    0    0  0.27857481220E+02 -0.36096963706E-01  0.10450943894E+02  0.29753366052E+02  0.51100000000E-03 0. -1.
        -11    1    3    3    0    0 -0.13679777021E+02 -0.18097172214E+02  0.85359137685E+01  0.24238518222E+02  0.51100000000E-03 0.  1.
         12    1    3    3    0    0 -0.14024649666E+02  0.11946169205E+02 -0.13125741751E+01  0.18469558952E+02  0.00000000000E+00 0. -1.
</event>
<event>
 7    1  0.1345786E-013  0.7246155E+02  0.7816164E-02  0.1226708E+00
        -11   -1    0    0    0    0  0.00000000000E+00  0.00000000000E+00  0.45593999997E+02  0.45594000000E+02  0.51100000000E-03 0.  1.
         11   -1    0    0    0    0 -0.00000000000E+00 -0.00000000000E+00 -0.45593999997E+02  0.45594000000E+02  0.51100000000E-03 0. -1.
    9900012    2    1    2    0    0 -0.78335528806E+01  0.15679689994E+02  0.65926360133E+01  0.72461546021E+02  0.69999968379E+02 0.  0.
         12    1    1    2    0    0  0.78335528806E+01 -0.15679689994E+02 -0.65926360133E+01  0.18726453979E+02  0.00000000000E+00 0. -1.
         11    1    3    3    0    0  0.95990966767E+01 -0.33559895433E+01 -0.83310979181E+01  0.13145817419E+02  0.51100000000E-03 0. -1.
        -11    1    3    3    0    0 -0.63797028386E+01  0.54171074330E+01  0.33049763990E+02  0.34092998714E+02  0.51100000000E-03 0.  1.
        -12    1    3    3    0    0 -0.11052946719E+02  0.13618572104E+02 -0.18126030059E+02  0.25222729888E+02  0.00000000000E+00 0.  1.
</event>
<event>
 7    1  0.1345786E-013  0.7246161E+02  0.7816164E-02  0.1226708E+00
        -11   -1    0    0    0    0  0.00000000000E+00  0.00000000000E+00  0.45593999997E+02  0.45594000000E+02  0.51100000000E-03 0.  1.
         11   -1    0    0    0    0 -0.00000000000E+00 -0.00000000000E+00 -0.45593999997E+02  0.45594000000E+02  0.51100000000E-03 0. -1.
    9900012    2    1    2    0    0 -0.18333686509E+02 -0.37939245317E+01  0.39962221787E+00  0.72461611606E+02  0.70000053816E+02 0.  0.
         12    1    1    2    0    0  0.18333686509E+02  0.37939245317E+01 -0.39962221787E+00  0.18726388394E+02  0.00000000000E+00 0. -1.
         11    1    3    3    0    0  0.13914998359E+02 -0.20151394360E+02 -0.10763053990E+01  0.24512533683E+02  0.51100000000E-03 0. -1.
        -11    1    3    3    0    0 -0.32045304653E+02  0.10791793536E+02  0.12132922249E+02  0.35924534244E+02  0.51100000000E-03 0.  1.
        -12    1    3    3    0    0 -0.20338021538E+00  0.55656762918E+01 -0.10656994633E+02  0.12024543679E+02  0.00000000000E+00 0.  1.
</event>
<event>
 7    1  0.1345786E-013  0.7246159E+02  0.7816164E-02  0.1226708E+00
        -11   -1    0    0    0    0  0.00000000000E+00  0.00000000000E+00  0.45593999997E+02  0.45594000000E+02  0.51100000000E-03 0. -1.
         11   -1    0    0    0    0 -0.00000000000E+00 -0.00000000000E+00 -0.45593999997E+02  0.45594000000E+02  0.51100000000E-03 0.  1.
    9900012    2    1    2    0    0  0.16271229335E+01  0.28786914336E+01 -0.18432144368E+02  0.72461592458E+02  0.70000028873E+02 0.  0.
         12    1    1    2    0    0 -0.16271229335E+01 -0.28786914336E+01  0.18432144368E+02  0.18726407542E+02  0.00000000000E+00 0. -1.
         11    1    3    3    0    0 -0.14658386078E+02  0.81541694836E+01 -0.40706078670E+02  0.44026623801E+02  0.51100000000E-03 0.  1.
        -11    1    3    3    0    0  0.12030431957E+02 -0.43084304545E+01  0.13231579052E+02  0.18394796833E+02  0.51100000000E-03 0. -1.
        -12    1    3    3    0    0  0.42550770537E+01 -0.96704759552E+00  0.90423552507E+01  0.10040171824E+02  0.00000000000E+00 0.  1.
</event>
<event>
 7    1  0.1345786E-013  0.7246160E+02  0.7816164E-02  0.1226708E+00
        -11   -1    0    0    0    0  0.00000000000E+00  0.00000000000E+00  0.45593999997E+02  0.45594000000E+02  0.51100000000E-03 0.  1.
         11   -1    0    0    0    0 -0.00000000000E+00 -0.00000000000E+00 -0.45593999997E+02  0.45594000000E+02  0.51100000000E-03 0. -1.
    9900012    2    1    2    0    0 -0.32551858325E+01  0.59719969439E+01  0.17447554521E+02  0.72461597754E+02  0.70000035772E+02 0.  0.
         12    1    1    2    0    0  0.32551858325E+01 -0.59719969439E+01 -0.17447554521E+02  0.18726402246E+02  0.00000000000E+00 0. -1.
         11    1    3    3    0    0 -0.29601978011E+01  0.25184975053E+02 -0.11895680882E+02  0.28009872605E+02  0.51100000000E-03 0. -1.
        -11    1    3    3    0    0 -0.87901600114E+01 -0.25873767489E+01  0.22959208326E+02  0.24720167449E+02  0.51100000000E-03 0.  1.
        -12    1    3    3    0    0  0.84951719801E+01 -0.16625601360E+02  0.63840270774E+01  0.19731557700E+02  0.00000000000E+00 0.  1.
</event>
<event>
 7    1  0.1345786E-013  0.7246156E+02  0.7816164E-02  0.1226708E+00
        -11   -1    0    0    0    0  0.00000000000E+00  0.00000000000E+00  0.45593999997E+02  0.45594000000E+02  0.51100000000E-03 0.  1.
         11   -1    0    0    0    0 -0.00000000000E+00 -0.00000000000E+00 -0.45593999997E+02  0.45594000000E+02  0.51100000000E-03 0. -1.
    9900012    2    1    2    0    0 -0.11453681576E+02 -0.10819306036E+02 -0.10121037029E+02  0.72461558926E+02  0.69999985191E+02 0.  0.
         12    1    1    2    0    0  0.11453681576E+02  0.10819306036E+02  0.10121037029E+02  0.18726441074E+02  0.00000000000E+00 0. -1.
         11    1    3    3    0    0  0.17112101293E+02  0.26746068763E+01 -0.22476248695E+02  0.28375328866E+02  0.51100000000E-03 0. -1.
        -11    1    3    3    0    0 -0.45969934469E+01 -0.63539323463E+01  0.16933112213E+02  0.18661058236E+02  0.51100000000E-03 0.  1.
         12    1    3    3    0    0 -0.23968789423E+02 -0.71399805661E+01 -0.45779005464E+01  0.25425171824E+02  0.00000000000E+00 0. -1.
</event>
<event>
 7    1  0.1345786E-013  0.7246155E+02  0.7816164E-02  0.1226708E+00
        -11   -1    0    0    0    0  0.00000000000E+00  0.00000000000E+00  0.45593999997E+02  0.45594000000E+02  0.51100000000E-03 0.  1.
         11   -1    0    0    0    0 -0.00000000000E+00 -0.00000000000E+00 -0.45593999997E+02  0.45594000000E+02  0.51100000000E-03 0. -1.
    9900012    2    1    2    0    0  0.15415532653E+02 -0.49361653808E+01  0.94167785152E+01  0.72461545630E+02  0.69999967871E+02 0.  0.
         12    1    1    2    0    0 -0.15415532653E+02  0.49361653808E+01 -0.94167785152E+01  0.18726454370E+02  0.00000000000E+00 0. -1.
         11    1    3    3    0    0  0.25672762534E+02 -0.85170489312E+01  0.24271674523E+01  0.27157356291E+02  0.51100000000E-03 0. -1.
        -11    1    3    3    0    0 -0.14186122927E+02 -0.12170765674E+02  0.17791026746E+02  0.25804926928E+02  0.51100000000E-03 0.  1.
         12    1    3    3    0    0  0.39288930466E+01  0.15751649224E+02 -0.10801415683E+02  0.19499262412E+02  0.00000000000E+00 0. -1.
</event>
<event>
 7    1  0.1345786E-013  0.7246147E+02  0.7816164E-02  0.1226708E+00
        -11   -1    0    0    0    0  0.00000000000E+00  0.00000000000E+00  0.45593999997E+02  0.45594000000E+02  0.51100000000E-03 0. -1.
         11   -1    0    0    0    0 -0.00000000000E+00 -0.00000000000E+00 -0.45593999997E+02  0.45594000000E+02  0.51100000000E-03 0.  1.
    9900012    2    1    2    0    0 -0.10373801110E+02 -0.11992148397E+02 -0.99627096094E+01  0.72461469211E+02  0.69999868320E+02 0.  0.
         12    1    1    2    0    0  0.10373801110E+02  0.11992148397E+02  0.99627096094E+01  0.18726530789E+02  0.00000000000E+00 0. -1.
         11    1    3    3    0    0 -0.16496621588E+02 -0.54002343337E+00  0.32652659252E+01  0.16825341332E+02  0.51100000000E-03 0. -1.
        -11    1    3    3    0    0  0.27662119548E+02 -0.16098721312E+02 -0.79210909759E+01  0.32971280962E+02  0.51100000000E-03 0.  1.
        -12    1    3    3    0    0 -0.21539299070E+02  0.46465963478E+01 -0.53068845587E+01  0.22664846917E+02  0.00000000000E+00 0.  1.
</event>
<event>
 7    1  0.1345786E-013  0.7246159E+02  0.7816164E-02  0.1226708E+00
        -11   -1    0    0    0    0  0.00000000000E+00  0.00000000000E+00  0.45593999997E+02  0.45594000000E+02  0.51100000000E-03 0. -1.
         11   -1    0    0    0    0 -0.00000000000E+00 -0.00000000000E+00 -0.45593999997E+02  0.45594000000E+02  0.51100000000E-03 0.  1.
    9900012    2    1    2    0    0  0.59925030040E+01  0.81445010266E+01 -0.15761830925E+02  0.72461593422E+02  0.70000030128E+02 0.  0.
         12    1    1    2    0    0 -0.59925030040E+01 -0.81445010266E+01  0.15761830925E+02  0.18726406578E+02  0.00000000000E+00 0. -1.
         11    1    3    3    0    0 -0.62378180703E+01 -0.51021610180E+01  0.83052948131E+01  0.11572395756E+02  0.51100000000E-03 0.  1.
        -11    1    3    3    0    0 -0.78623448756E+01  0.25886820793E+02 -0.25406123633E+02  0.37113543027E+02  0.51100000000E-03 0. -1.
        -12    1    3    3    0    0  0.20092665950E+02 -0.12640158748E+02  0.13389978952E+01  0.23775654639E+02  0.00000000000E+00 0.  1.
</event>
<event>
 7    1  0.1345786E-013  0.7246155E+02  0.7816164E-02  0.1226708E+00
        -11   -1    0    0    0    0  0.00000000000E+00  0.00000000000E+00  0.45593999997E+02  0.45594000000E+02  0.51100000000E-03 0. -1.
         11   -1    0    0    0    0 -0.00000000000E+00 -0.00000000000E+00 -0.45593999997E+02  0.45594000000E+02  0.51100000000E-03 0.  1.
    9900012    2    1    2    0    0  0.89327808659E+01  0.15875879268E+02 -0.43406950808E+01  0.72461554787E+02  0.69999979799E+02 0.  0.
         12    1    1    2    0    0 -0.89327808659E+01 -0.15875879268E+02  0.43406950808E+01  0.18726445213E+02  0.00000000000E+00 0. -1.
         11    1    3    3    0    0  0.20353641422E+01 -0.98146165029E+01  0.20744609333E+02  0.23039275616E+02  0.51100000000E-03 0. -1.
        -11    1    3    3    0    0  0.17970830792E+02  0.25797955284E+02 -0.19763269675E+02  0.37135859821E+02  0.51100000000E-03 0.  1.
         12    1    3    3    0    0 -0.11073414068E+02 -0.10745951255E+00 -0.53220347388E+01  0.12286419350E+02  0.00000000000E+00 0. -1.
</event>
<event>
 7    1  0.1345786E-013  0.7246163E+02  0.7816164E-02  0.1226708E+00
        -11   -1    0    0    0    0  0.00000000000E+00  0.00000000000E+00  0.45593999997E+02  0.45594000000E+02  0.51100000000E-03 0. -1.
         11   -1    0    0    0    0 -0.00000000000E+00 -0.00000000000E+00 -0.45593999997E+02  0.45594000000E+02  0.51100000000E-03 0.  1.
    9900012    2    1    2    0    0 -0.16542623682E+02 -0.44801459698E+00 -0.87645774829E+01  0.72461629989E+02  0.70000077763E+02 0.  0.
         12    1    1    2    0    0  0.16542623682E+02  0.44801459698E+00  0.87645774829E+01  0.18726370011E+02  0.00000000000E+00 0. -1.
         11    1    3    3    0    0 -0.13955555103E+02 -0.12248797217E+02  0.19738389174E+01  0.18673151631E+02  0.51100000000E-03 0. -1.
        -11    1    3    3    0    0 -0.10994055927E+02  0.17739578322E+02 -0.27254597416E+02  0.34327466923E+02  0.51100000000E-03 0.  1.
        -12    1    3    3    0    0  0.84069873493E+01 -0.59387957017E+01  0.16516181016E+02  0.19461011434E+02  0.00000000000E+00 0.  1.
</event>
<event>
 7    1  0.1345786E-013  0.7246156E+02  0.7816164E-02  0.1226708E+00
        -11   -1    0    0    0    0  0.00000000000E+00  0.00000000000E+00  0.45593999997E+02  0.45594000000E+02  0.51100000000E-03 0.  1.
         11   -1    0    0    0    0 -0.00000000000E+00 -0.00000000000E+00 -0.45593999997E+02  0.45594000000E+02  0.51100000000E-03 0. -1.
    9900012    2    1    2    0    0  0.38729004560E+01 -0.99651834626E+01  0.15374499913E+02  0.72461561819E+02  0.69999988959E+02 0.  0.
         12    1    1    2    0    0 -0.38729004560E+01  0.99651834626E+01 -0.15374499913E+02  0.18726438181E+02  0.00000000000E+00 0. -1.
         11    1    3    3    0    0 -0.19465602589E+02 -0.10175928105E+02  0.14795194055E+02  0.26483144910E+02  0.51100000000E-03 0. -1.
        -11    1    3    3    0    0  0.21941897595E+02  0.16809575708E+02 -0.56172513835E+01  0.28205712523E+02  0.51100000000E-03 0.  1.
         12    1    3    3    0    0  0.13966054500E+01 -0.16598831066E+02  0.61965572413E+01  0.17772704386E+02  0.00000000000E+00 0. -1.
</event>
<event>
 7    1  0.1345786E-013  0.7246165E+02  0.7816164E-02  0.1226708E+00
        -11   -1    0    0    0    0  0.00000000000E+00  0.00000000000E+00  0.45593999997E+02  0.45594000000E+02  0.51100000000E-03 0. -1.
         11   -1    0    0    0    0 -0.00000000000E+00 -0.00000000000E+00 -0.45593999997E+02  0.45594000000E+02  0.51100000000E-03 0.  1.
    9900012    2    1    2    0    0 -0.42707361439E+01  0.17186000996E+02 -0.60891978598E+01  0.72461650970E+02  0.70000105095E+02 0.  0.
         12    1    1    2    0    0  0.42707361439E+01 -0.17186000996E+02  0.60891978598E+01  0.18726349030E+02  0.00000000000E+00 0. -1.
         11    1    3    3    0    0 -0.69669480540E+01  0.86554089717E+01  0.75575055398E+00  0.11136679434E+02  0.51100000000E-03 0. -1.
        -11    1    3    3    0    0  0.27959328447E+02  0.58359606138E+00  0.10270969563E+02  0.29791902383E+02  0.51100000000E-03 0.  1.
        -12    1    3    3    0    0 -0.25263116537E+02  0.79469959625E+01 -0.17115917977E+02  0.31533069153E+02  0.00000000000E+00 0.  1.
</event>
<event>
 7    1  0.1345786E-013  0.7246147E+02  0.7816164E-02  0.1226708E+00
        -11   -1    0    0    0    0  0.00000000000E+00  0.00000000000E+00  0.45593999997E+02  0.45594000000E+02  0.51100000000E-03 0.  1.
         11   -1    0    0    0    0 -0.00000000000E+00 -0.00000000000E+00 -0.45593999997E+02  0.45594000000E+02  0.51100000000E-03 0. -1.
    9900012    2    1    2    0    0  0.56789942407E+01  0.91980348128E+01  0.15291434640E+02  0.72461473537E+02  0.69999873956E+02 0.  0.
         12    1    1    2    0    0 -0.56789942407E+01 -0.91980348128E+01 -0.15291434640E+02  0.18726526463E+02  0.00000000000E+00 0. -1.
         11    1    3    3    0    0  0.13245604549E+02  0.28471718371E+02 -0.82516799103E+01  0.32468061360E+02  0.51100000000E-03 0. -1.
        -11    1    3    3    0    0 -0.14784627717E+02 -0.41993250273E+01  0.13749393526E+02  0.20621963292E+02  0.51100000000E-03 0.  1.
        -12    1    3    3    0    0  0.72180174085E+01 -0.15074358531E+02  0.97937210245E+01  0.19371448886E+02  0.00000000000E+00 0.  1.
</event>
<event>
 7    1  0.1345786E-013  0.7246160E+02  0.7816164E-02  0.1226708E+00
        -11   -1    0    0    0    0  0.00000000000E+00  0.00000000000E+00  0.45593999997E+02  0.45594000000E+02  0.51100000000E-03 0. -1.
         11   -1    0    0    0    0 -0.00000000000E+00 -0.00000000000E+00 -0.45593999997E+02  0.45594000000E+02  0.51100000000E-03 0.  1.
    9900012    2    1    2    0    0 -0.21539706248E+01  0.18257254093E+02 -0.35652858003E+01  0.72461596734E+02  0.70000034442E+02 0.  0.
         12    1    1    2    0    0  0.21539706248E+01 -0.18257254093E+02  0.35652858003E+01  0.18726403266E+02  0.00000000000E+00 0. -1.
         11    1    3    3    0    0  0.91611614709E+01 -0.21758508530E+02 -0.11021934191E+02  0.26054608163E+02  0.51100000000E-03 0.  1.
        -11    1    3    3    0    0 -0.14924486494E+02  0.17870942810E+02  0.23952346723E+01  0.23406153965E+02  0.51100000000E-03 0. -1.
        -12    1    3    3    0    0  0.36093543987E+01  0.22144819813E+02  0.50614137187E+01  0.23000834605E+02  0.00000000000E+00 0.  1.
</event>
<event>
 7    1  0.1345786E-013  0.7246155E+02  0.7816164E-02  0.1226708E+00
        -11   -1    0    0    0    0  0.00000000000E+00  0.00000000000E+00  0.45593999997E+02  0.45594000000E+02  0.51100000000E-03 0.  1.
         11   -1    0    0    0    0 -0.00000000000E+00 -0.00000000000E+00 -0.45593999997E+02  0.45594000000E+02  0.51100000000E-03 0. -1.
    9900012    2    1    2    0    0 -0.69498799298E+00  0.40047511934E+01  0.18280009814E+02  0.72461553481E+02  0.69999978097E+02 0.  0.
         12    1    1    2    0    0  0.69498799298E+00 -0.40047511934E+01 -0.18280009814E+02  0.18726446519E+02  0.00000000000E+00 0. -1.
         11    1    3    3    0    0 -0.17387486819E+01  0.43600627911E+01 -0.26675501520E+02  0.27085342459E+02  0.51100000000E-03 0. -1.
        -11    1    3    3    0    0  0.24918154979E+01 -0.19969858881E+01  0.14761257104E+02  0.15102708653E+02  0.51100000000E-03 0.  1.
         12    1    3    3    0    0 -0.14480548090E+01  0.16416742904E+01  0.30194254230E+02  0.30273502369E+02  0.00000000000E+00 0. -1.
</event>
<event>
 7    1  0.1345786E-013  0.7246171E+02  0.7816164E-02  0.1226708E+00
        -11   -1    0    0    0    0  0.00000000000E+00  0.00000000000E+00  0.45593999997E+02  0.45594000000E+02  0.51100000000E-03 0.  1.
         11   -1    0    0    0    0 -0.00000000000E+00 -0.00000000000E+00 -0.45593999997E+02  0.45594000000E+02  0.51100000000E-03 0. -1.
    9900012    2    1    2    0    0  0.18609218985E+02 -0.98593054723E+00  0.18435537062E+01  0.72461714181E+02  0.70000187439E+02 0.  0.
         12    1    1    2    0    0 -0.18609218985E+02  0.98593054723E+00 -0.18435537062E+01  0.18726285819E+02  0.00000000000E+00 0. -1.
         11    1    3    3    0    0 -0.13814456518E+02 -0.21345395187E+01 -0.16006559630E+02  0.21251009842E+02  0.51100000000E-03 0. -1.
        -11    1    3    3    0    0  0.22615821076E+02 -0.95030189448E+01  0.25031798054E+02  0.35048161807E+02  0.51100000000E-03 0.  1.
         12    1    3    3    0    0  0.98078544275E+01  0.10651627916E+02 -0.71816847177E+01  0.16162542533E+02  0.00000000000E+00 0. -1.
</event>
<event>
 7    1  0.1345786E-013  0.7246169E+02  0.7816164E-02  0.1226708E+00
        -11   -1    0    0    0    0  0.00000000000E+00  0.00000000000E+00  0.45593999997E+02  0.45594000000E+02  0.51100000000E-03 0. -1.
         11   -1    0    0    0    0 -0.00000000000E+00 -0.00000000000E+00 -0.45593999997E+02  0.45594000000E+02  0.51100000000E-03 0.  1.
    9900012    2    1    2    0    0 -0.90842032254E+00  0.46491695717E+01 -0.18117247720E+02  0.72461690429E+02  0.70000156498E+02 0.  0.
         12    1    1    2    0    0  0.90842032254E+00 -0.46491695717E+01  0.18117247720E+02  0.18726309571E+02  0.00000000000E+00 0. -1.
         11    1    3    3    0    0 -0.91230209174E+01  0.18803451143E+02 -0.10644635812E+02  0.23454371818E+02  0.51100000000E-03 0. -1.
        -11    1    3    3    0    0  0.95067056594E+01 -0.30192021587E+02 -0.10136577994E+01  0.31669593025E+02  0.51100000000E-03 0.  1.
        -12    1    3    3    0    0 -0.12921050645E+01  0.16037740016E+02 -0.64589541087E+01  0.17337725586E+02  0.00000000000E+00 0.  1.
</event>
<event>
 8    1  0.1345786E-013  0.7246159E+02  0.7816164E-02  0.1226708E+00
        -11   -1    0    0    0    0  0.00000000000E+00  0.00000000000E+00  0.45593999997E+02  0.45594000000E+02  0.51100000000E-03 0. -1.
         11   -1    0    0    0    0 -0.00000000000E+00 -0.00000000000E+00 -0.45593999997E+02  0.45594000000E+02  0.51100000000E-03 0.  1.
    9900012    2    1    2    0    0  0.12623417443E+02  0.79664589816E+01 -0.11307659132E+02  0.72461593732E+02  0.70000030532E+02 0.  0.
         24    2    3    3    0    0  0.17775296989E+02  0.26620287982E+01  0.24597989423E+01  0.56833998123E+02  0.53860979859E+02 0.  0.
         12    1    1    2    0    0 -0.12623417443E+02 -0.79664589816E+01  0.11307659132E+02  0.18726406268E+02  0.00000000000E+00 0. -1.
         11    1    3    3    0    0 -0.51518795461E+01  0.53044301835E+01 -0.13767458075E+02  0.15627595609E+02  0.51100000000E-03 0.  1.
        -11    1    4    4    0    0  0.36140771299E+02  0.43498967761E+01  0.85855991208E+01  0.37400393909E+02  0.51100000000E-03 0. -1.
         12    1    4    4    0    0 -0.18365474309E+02 -0.16878679779E+01 -0.61258001785E+01  0.19433604214E+02  0.00000000000E+00 0. -1.
</event>
<event>
 7    1  0.1345786E-013  0.7246135E+02  0.7816164E-02  0.1226709E+00
        -11   -1    0    0    0    0  0.00000000000E+00  0.00000000000E+00  0.45593999997E+02  0.45594000000E+02  0.51100000000E-03 0. -1.
         11   -1    0    0    0    0 -0.00000000000E+00 -0.00000000000E+00 -0.45593999997E+02  0.45594000000E+02  0.51100000000E-03 0.  1.
    9900012    2    1    2    0    0  0.80552767423E+01  0.14112798968E+02  0.93074550927E+01  0.72461353252E+02  0.69999717262E+02 0.  0.
         12    1    1    2    0    0 -0.80552767423E+01 -0.14112798968E+02 -0.93074550927E+01  0.18726646748E+02  0.00000000000E+00 0. -1.
         11    1    3    3    0    0  0.23229943413E+02 -0.18441437158E+02  0.12800040784E+02  0.32304147098E+02  0.51100000000E-03 0. -1.
        -11    1    3    3    0    0 -0.13171583555E+02  0.27629934100E+02  0.41065817578E+01  0.30883132705E+02  0.51100000000E-03 0.  1.
         12    1    3    3    0    0 -0.20030831160E+01  0.49243020262E+01 -0.75991674490E+01  0.92740734487E+01  0.00000000000E+00 0. -1.
</event>
<event>
 7    1  0.1345786E-013  0.7246132E+02  0.7816164E-02  0.1226709E+00
        -11   -1    0    0    0    0  0.00000000000E+00  0.00000000000E+00  0.45593999997E+02  0.45594000000E+02  0.51100000000E-03 0.  1.
         11   -1    0    0    0    0 -0.00000000000E+00 -0.00000000000E+00 -0.45593999997E+02  0.45594000000E+02  0.51100000000E-03 0. -1.
    9900012    2    1    2    0    0 -0.88761801563E+01 -0.10612054263E+02  0.12620873067E+02  0.72461315648E+02  0.69999668275E+02 0.  0.
         12    1    1    2    0    0  0.88761801563E+01  0.10612054263E+02 -0.12620873067E+02  0.18726684352E+02  0.00000000000E+00 0. -1.
         11    1    3    3    0    0  0.75648763649E+00 -0.23864635723E+02 -0.15733420408E+02  0.28594293656E+02  0.51100000000E-03 0. -1.
        -11    1    3    3    0    0 -0.20040062573E+02  0.97177835668E+01  0.21226085374E+02  0.30766639822E+02  0.51100000000E-03 0.  1.
         12    1    3    3    0    0  0.10407394780E+02  0.35347978925E+01  0.71282081011E+01  0.13100382169E+02  0.00000000000E+00 0. -1.
</event>
<event>
 7    1  0.1345786E-013  0.7246156E+02  0.7816164E-02  0.1226708E+00
        -11   -1    0    0    0    0  0.00000000000E+00  0.00000000000E+00  0.45593999997E+02  0.45594000000E+02  0.51100000000E-03 0. -1.
         11   -1    0    0    0    0 -0.00000000000E+00 -0.00000000000E+00 -0.45593999997E+02  0.45594000000E+02  0.51100000000E-03 0.  1.
    9900012    2    1    2    0    0  0.95498288549E+01 -0.16888413258E+01 -0.16019612979E+02  0.72461563708E+02  0.69999991421E+02 0.  0.
         12    1    1    2    0    0 -0.95498288549E+01  0.16888413258E+01  0.16019612979E+02  0.18726436292E+02  0.00000000000E+00 0. -1.
         11    1    3    3    0    0 -0.14456798103E+02  0.12079531746E+02  0.28661557749E+01  0.19055942584E+02  0.51100000000E-03 0. -1.
        -11    1    3    3    0    0  0.10242902579E+02 -0.49945919768E+01 -0.31033042556E+02  0.33059230675E+02  0.51100000000E-03 0.  1.
        -12    1    3    3    0    0  0.13763724379E+02 -0.87737810946E+01  0.12147273802E+02  0.20346390449E+02  0.00000000000E+00 0.  1.
</event>
<event>
 7    1  0.1345786E-013  0.7246143E+02  0.7816164E-02  0.1226708E+00
        -11   -1    0    0    0    0  0.00000000000E+00  0.00000000000E+00  0.45593999997E+02  0.45594000000E+02  0.51100000000E-03 0.  1.
         11   -1    0    0    0    0 -0.00000000000E+00 -0.00000000000E+00 -0.45593999997E+02  0.45594000000E+02  0.51100000000E-03 0. -1.
    9900012    2    1    2    0    0 -0.37319211569E+01 -0.14177554546E+02  0.11651361097E+02  0.72461427867E+02  0.69999814462E+02 0.  0.
         12    1    1    2    0    0  0.37319211569E+01  0.14177554546E+02 -0.11651361097E+02  0.18726572133E+02  0.00000000000E+00 0. -1.
         11    1    3    3    0    0  0.41080508647E+01  0.12959541840E+02  0.32260531600E+02  0.35008109146E+02  0.51100000000E-03 0. -1.
        -11    1    3    3    0    0 -0.51437362309E+01 -0.21029243236E+02 -0.78052463707E+01  0.23013234554E+02  0.51100000000E-03 0.  1.
         12    1    3    3    0    0 -0.26962357908E+01 -0.61078531506E+01 -0.12803924132E+02  0.14440084166E+02  0.00000000000E+00 0. -1.
</event>
<event>
 7    1  0.1345786E-013  0.7246160E+02  0.7816164E-02  0.1226708E+00
        -11   -1    0    0    0    0  0.00000000000E+00  0.00000000000E+00  0.45593999997E+02  0.45594000000E+02  0.51100000000E-03 0.  1.
         11   -1    0    0    0    0 -0.00000000000E+00 -0.00000000000E+00 -0.45593999997E+02  0.45594000000E+02  0.51100000000E-03 0. -1.
    9900012    2    1    2    0    0 -0.12168880926E+02  0.13922991064E+02  0.29574902504E+01  0.72461599071E+02  0.70000037487E+02 0.  0.
         12    1    1    2    0    0  0.12168880926E+02 -0.13922991064E+02 -0.29574902504E+01  0.18726400929E+02  0.00000000000E+00 0. -1.
         11    1    3    3    0    0 -0.22325224771E+02 -0.21482892990E+01 -0.57032764926E+01  0.23142129785E+02  0.51100000000E-03 0. -1.
        -11    1    3    3    0    0  0.18080275020E+02  0.28068780933E+02  0.10067557793E+02  0.34872747641E+02  0.51100000000E-03 0.  1.
         12    1    3    3    0    0 -0.79239311758E+01 -0.11997500571E+02 -0.14067910502E+01  0.14446721645E+02  0.00000000000E+00 0. -1.
</event>
<event>
 7    1  0.1345786E-013  0.7246152E+02  0.7816164E-02  0.1226708E+00
        -11   -1    0    0    0    0  0.00000000000E+00  0.00000000000E+00  0.45593999997E+02  0.45594000000E+02  0.51100000000E-03 0.  1.
         11   -1    0    0    0    0 -0.00000000000E+00 -0.00000000000E+00 -0.45593999997E+02  0.45594000000E+02  0.51100000000E-03 0. -1.
    9900012    2    1    2    0    0  0.85396589993E+01 -0.16079849666E+02 -0.43810510804E+01  0.72461522764E+02  0.69999938083E+02 0.  0.
         12    1    1    2    0    0 -0.85396589993E+01  0.16079849666E+02  0.43810510804E+01  0.18726477236E+02  0.00000000000E+00 0. -1.
         11    1    3    3    0    0 -0.13907800112E+02 -0.23258410443E+02 -0.25662138812E+02  0.37321922900E+02  0.51100000000E-03 0. -1.
        -11    1    3    3    0    0  0.11200784046E+02 -0.37085604214E+01  0.12511709389E+02  0.17197495624E+02  0.51100000000E-03 0.  1.
         12    1    3    3    0    0  0.11246675066E+02  0.10887121198E+02  0.87693783427E+01  0.17942104239E+02  0.00000000000E+00 0. -1.
</event>
<event>
 7    1  0.1345786E-013  0.7246157E+02  0.7816164E-02  0.1226708E+00
        -11   -1    0    0    0    0  0.00000000000E+00  0.00000000000E+00  0.45593999997E+02  0.45594000000E+02  0.51100000000E-03 0.  1.
         11   -1    0    0    0    0 -0.00000000000E+00 -0.00000000000E+00 -0.45593999997E+02  0.45594000000E+02  0.51100000000E-03 0. -1.
    9900012    2    1    2    0    0 -0.11158161542E+02 -0.69970890964E+01  0.13312232427E+02  0.72461565288E+02  0.69999993478E+02 0.  0.
         12    1    1    2    0    0  0.11158161542E+02  0.69970890964E+01 -0.13312232427E+02  0.18726434712E+02  0.00000000000E+00 0. -1.
         11    1    3    3    0    0 -0.16270546741E+02 -0.70352642214E+01 -0.16554851604E+02  0.24254664413E+02  0.51100000000E-03 0. -1.
        -11    1    3    3    0    0  0.15226282221E+02 -0.13207409952E+02  0.21804460135E+02  0.29693599141E+02  0.51100000000E-03 0.  1.
        -12    1    3    3    0    0 -0.10113897022E+02  0.13245585077E+02  0.80626238956E+01  0.18513301734E+02  0.00000000000E+00 0.  1.
</event>
<event>
 7    1  0.1345786E-013  0.7246162E+02  0.7816164E-02  0.1226708E+00
        -11   -1    0    0    0    0  0.00000000000E+00  0.00000000000E+00  0.45593999997E+02  0.45594000000E+02  0.51100000000E-03 0.  1.
         11   -1    0    0    0    0 -0.00000000000E+00 -0.00000000000E+00 -0.45593999997E+02  0.45594000000E+02  0.51100000000E-03 0. -1.
    9900012    2    1    2    0    0 -0.13725256611E+02 -0.12126840818E+01  0.12681641463E+02  0.72461620160E+02  0.70000064959E+02 0.  0.
         12    1    1    2    0    0  0.13725256611E+02  0.12126840818E+01 -0.12681641463E+02  0.18726379840E+02  0.00000000000E+00 0. -1.
         11    1    3    3    0    0  0.71185585350E+01 -0.20083716790E+02  0.12445693256E+02  0.24676402424E+02  0.51100000000E-03 0. -1.
        -11    1    3    3    0    0 -0.15030673822E+02  0.30500075694E+02  0.40332821790E+01  0.34240957029E+02  0.51100000000E-03 0.  1.
        -12    1    3    3    0    0 -0.58131413240E+01 -0.11629042985E+02 -0.37973339721E+01  0.13544260707E+02  0.00000000000E+00 0.  1.
</event>
<event>
 7    1  0.1345786E-013  0.7246150E+02  0.7816164E-02  0.1226708E+00
        -11   -1    0    0    0    0  0.00000000000E+00  0.00000000000E+00  0.45593999997E+02  0.45594000000E+02  0.51100000000E-03 0.  1.
         11   -1    0    0    0    0 -0.00000000000E+00 -0.00000000000E+00 -0.45593999997E+02  0.45594000000E+02  0.51100000000E-03 0. -1.
    9900012    2    1    2    0    0  0.84519957007E+01  0.72580995033E+01  0.15052096316E+02  0.72461498906E+02  0.69999907003E+02 0.  0.
         12    1    1    2    0    0 -0.84519957007E+01 -0.72580995033E+01 -0.15052096316E+02  0.18726501094E+02  0.00000000000E+00 0. -1.
         11    1    3    3    0    0 -0.20652137822E+02 -0.92963353134E+01 -0.33738212982E+01  0.22897932599E+02  0.51100000000E-03 0. -1.
        -11    1    3    3    0    0  0.27299106923E+02  0.12832169616E+02 -0.52215505951E+00  0.30169164092E+02  0.51100000000E-03 0.  1.
         12    1    3    3    0    0  0.18050266001E+01  0.37222652009E+01  0.18948072674E+02  0.19394402216E+02  0.00000000000E+00 0. -1.
</event>
<event>
 7    1  0.1345786E-013  0.7246152E+02  0.7816164E-02  0.1226708E+00
        -11   -1    0    0    0    0  0.00000000000E+00  0.00000000000E+00  0.45593999997E+02  0.45594000000E+02  0.51100000000E-03 0. -1.
         11   -1    0    0    0    0 -0.00000000000E+00 -0.00000000000E+00 -0.45593999997E+02  0.45594000000E+02  0.51100000000E-03 0.  1.
    9900012    2    1    2    0    0 -0.28271010686E+01  0.18350075854E+02  0.24419459870E+01  0.72461524504E+02  0.69999940349E+02 0.  0.
         12    1    1    2    0    0  0.28271010686E+01 -0.18350075854E+02 -0.24419459870E+01  0.18726475496E+02  0.00000000000E+00 0. -1.
         11    1    3    3    0    0  0.23165830943E+02  0.15352144153E+02 -0.62793608391E+01  0.28491655378E+02  0.51100000000E-03 0. -1.
        -11    1    3    3    0    0 -0.21089069574E+02 -0.12945604671E+02  0.11099066048E+02  0.27120597397E+02  0.51100000000E-03 0.  1.
        -12    1    3    3    0    0 -0.49038624377E+01  0.15943536373E+02 -0.23777592224E+01  0.16849271729E+02  0.00000000000E+00 0.  1.
</event>
<event>
 7    1  0.1345786E-013  0.7246155E+02  0.7816164E-02  0.1226708E+00
        -11   -1    0    0    0    0  0.00000000000E+00  0.00000000000E+00  0.45593999997E+02  0.45594000000E+02  0.51100000000E-03 0.  1.
         11   -1    0    0    0    0 -0.00000000000E+00 -0.00000000000E+00 -0.45593999997E+02  0.45594000000E+02  0.51100000000E-03 0. -1.
    9900012    2    1    2    0    0 -0.13142715975E+02 -0.13642009780E+01  0.13269807484E+02  0.72461552975E+02  0.69999977438E+02 0.  0.
         12    1    1    2    0    0  0.13142715975E+02  0.13642009780E+01 -0.13269807484E+02  0.18726447025E+02  0.00000000000E+00 0. -1.
         11    1    3    3    0    0 -0.14465423653E+02  0.20283346621E+02 -0.28025267905E+01  0.25070237101E+02  0.51100000000E-03 0. -1.
        -11    1    3    3    0    0 -0.82017107665E+01 -0.16327743903E+02  0.26573343163E+02  0.32249121656E+02  0.51100000000E-03 0.  1.
         12    1    3    3    0    0  0.95244184443E+01 -0.53198036957E+01 -0.10501008889E+02  0.15142194218E+02  0.00000000000E+00 0. -1.
</event>
<event>
 7    1  0.1345786E-013  0.7246155E+02  0.7816164E-02  0.1226708E+00
        -11   -1    0    0    0    0  0.00000000000E+00  0.00000000000E+00  0.45593999997E+02  0.45594000000E+02  0.51100000000E-03 0.  1.
         11   -1    0    0    0    0 -0.00000000000E+00 -0.00000000000E+00 -0.45593999997E+02  0.45594000000E+02  0.51100000000E-03 0. -1.
    9900012    2    1    2    0    0  0.64497219977E+01 -0.14219773714E+02  0.10338235617E+02  0.72461548281E+02  0.69999971324E+02 0.  0.
         12    1    1    2    0    0 -0.64497219977E+01  0.14219773714E+02 -0.10338235617E+02  0.18726451719E+02  0.00000000000E+00 0. -1.
         11    1    3    3    0    0 -0.64801238583E+00  0.20354520092E+02 -0.11165758425E+02  0.23224998809E+02  0.51100000000E-03 0. -1.
        -11    1    3    3    0    0  0.15374702752E+02 -0.30984083689E+02  0.13350320397E+02  0.37075948831E+02  0.51100000000E-03 0.  1.
        -12    1    3    3    0    0 -0.82769683684E+01 -0.35902101172E+01  0.81536736440E+01  0.12160600641E+02  0.00000000000E+00 0.  1.
</event>
<event>
 7    1  0.1345786E-013  0.7246159E+02  0.7816164E-02  0.1226708E+00
        -11   -1    0    0    0    0  0.00000000000E+00  0.00000000000E+00  0.45593999997E+02  0.45594000000E+02  0.51100000000E-03 0. -1.
         11   -1    0    0    0    0 -0.00000000000E+00 -0.00000000000E+00 -0.45593999997E+02  0.45594000000E+02  0.51100000000E-03 0.  1.
    9900012    2    1    2    0    0 -0.20924456003E+01  0.79117211415E+01 -0.16843542905E+02  0.72461585565E+02  0.70000019893E+02 0.  0.
         12    1    1    2    0    0  0.20924456003E+01 -0.79117211415E+01  0.16843542905E+02  0.18726414435E+02  0.00000000000E+00 0. -1.
         11    1    3    3    0    0 -0.87897572409E+01 -0.11209321678E+02  0.65041391890E+01  0.15659264085E+02  0.51100000000E-03 0. -1.
        -11    1    3    3    0    0  0.16417646070E+01 -0.39676472486E+01 -0.31506741713E+02  0.31797993480E+02  0.51100000000E-03 0.  1.
        -12    1    3    3    0    0  0.50555470337E+01  0.23088690068E+02  0.81590596191E+01  0.25004328000E+02  0.00000000000E+00 0.  1.
</event>
<event>
 7    1  0.1345786E-013  0.7246166E+02  0.7816164E-02  0.1226708E+00
        -11   -1    0    0    0    0  0.00000000000E+00  0.00000000000E+00  0.45593999997E+02  0.45594000000E+02  0.51100000000E-03 0.  1.
         11   -1    0    0    0    0 -0.00000000000E+00 -0.00000000000E+00 -0.45593999997E+02  0.45594000000E+02  0.51100000000E-03 0. -1.
    9900012    2    1    2    0    0 -0.39933031653E+00  0.17657244892E+02  0.62239884729E+01  0.72461660411E+02  0.70000117394E+02 0.  0.
         12    1    1    2    0    0  0.39933031653E+00 -0.17657244892E+02 -0.62239884729E+01  0.18726339589E+02  0.00000000000E+00 0. -1.
         11    1    3    3    0    0  0.94520038600E+00  0.92203408114E+01 -0.21223254675E+02  0.23158899536E+02  0.51100000000E-03 0. -1.
        -11    1    3    3    0    0  0.13583608243E+01 -0.15999488398E+02  0.13866496912E+02  0.21215760887E+02  0.51100000000E-03 0.  1.
        -12    1    3    3    0    0 -0.27028915268E+01  0.24436392479E+02  0.13580746236E+02  0.28086999988E+02  0.00000000000E+00 0.  1.
</event>
<event>
 7    1  0.1345786E-013  0.7246156E+02  0.7816164E-02  0.1226708E+00
        -11   -1    0    0    0    0  0.00000000000E+00  0.00000000000E+00  0.45593999997E+02  0.45594000000E+02  0.51100000000E-03 0.  1.
         11   -1    0    0    0    0 -0.00000000000E+00 -0.00000000000E+00 -0.45593999997E+02  0.45594000000E+02  0.51100000000E-03 0. -1.
    9900012    2    1    2    0    0 -0.12487162476E+02  0.95264959398E+01  0.10197855212E+02  0.72461558734E+02  0.69999984940E+02 0.  0.
         12    1    1    2    0    0  0.12487162476E+02 -0.95264959398E+01 -0.10197855212E+02  0.18726441266E+02  0.00000000000E+00 0. -1.
         11    1    3    3    0    0 -0.32910055217E+02 -0.79047923468E+01 -0.80040760137E+01  0.34779630670E+02  0.51100000000E-03 0. -1.
        -11    1    3    3    0    0  0.87290385035E+01  0.12003747212E+00  0.13804625710E+02  0.16333346670E+02  0.51100000000E-03 0.  1.
         12    1    3    3    0    0  0.11693854238E+02  0.17311250814E+02  0.43973055148E+01  0.21348581393E+02  0.00000000000E+00 0. -1.
</event>
<event>
 7    1  0.1345786E-013  0.7246153E+02  0.7816164E-02  0.1226708E+00
        -11   -1    0    0    0    0  0.00000000000E+00  0.00000000000E+00  0.45593999997E+02  0.45594000000E+02  0.51100000000E-03 0.  1.
         11   -1    0    0    0    0 -0.00000000000E+00 -0.00000000000E+00 -0.45593999997E+02  0.45594000000E+02  0.51100000000E-03 0. -1.
    9900012    2    1    2    0    0 -0.93297005337E+01  0.16216809302E+02  0.80774900729E+00  0.72461530113E+02  0.69999947656E+02 0.  0.
         12    1    1    2    0    0  0.93297005337E+01 -0.16216809302E+02 -0.80774900729E+00  0.18726469887E+02  0.00000000000E+00 0. -1.
         11    1    3    3    0    0 -0.45575856102E+01 -0.19750593986E+01 -0.29321094345E+02  0.29738846987E+02  0.51100000000E-03 0. -1.
        -11    1    3    3    0    0 -0.11198919311E+02  0.13059941012E+02  0.29898706751E+02  0.34495079629E+02  0.51100000000E-03 0.  1.
         12    1    3    3    0    0  0.64268043879E+01  0.51319276891E+01  0.23013660176E+00  0.82276034969E+01  0.00000000000E+00 0. -1.
</event>
<event>
 7    1  0.1345786E-013  0.7246155E+02  0.7816164E-02  0.1226708E+00
        -11   -1    0    0    0    0  0.00000000000E+00  0.00000000000E+00  0.45593999997E+02  0.45594000000E+02  0.51100000000E-03 0.  1.
         11   -1    0    0    0    0 -0.00000000000E+00 -0.00000000000E+00 -0.45593999997E+02  0.45594000000E+02  0.51100000000E-03 0. -1.
    9900012    2    1    2    0    0  0.16726381729E+02  0.76140870287E+01  0.35963469082E+01  0.72461551375E+02  0.69999975354E+02 0.  0.
         12    1    1    2    0    0 -0.16726381729E+02 -0.76140870287E+01 -0.35963469082E+01  0.18726448625E+02  0.00000000000E+00 0. -1.
         11    1    3    3    0    0 -0.20419627854E+02 -0.65707221795E+01 -0.12637492881E+02  0.24896622627E+02  0.51100000000E-03 0. -1.
        -11    1    3    3    0    0  0.28223807771E+02  0.56564793148E+01  0.21900514416E+01  0.28868242221E+02  0.51100000000E-03 0.  1.
        -12    1    3    3    0    0  0.89222018113E+01  0.85283298934E+01  0.14043788348E+02  0.18696686527E+02  0.00000000000E+00 0.  1.
</event>
<event>
 7    1  0.1345786E-013  0.7246158E+02  0.7816164E-02  0.1226708E+00
        -11   -1    0    0    0    0  0.00000000000E+00  0.00000000000E+00  0.45593999997E+02  0.45594000000E+02  0.51100000000E-03 0.  1.
         11   -1    0    0    0    0 -0.00000000000E+00 -0.00000000000E+00 -0.45593999997E+02  0.45594000000E+02  0.51100000000E-03 0. -1.
    9900012    2    1    2    0    0 -0.17339945074E+02  0.70700686839E+01  0.13864336749E+00  0.72461580472E+02  0.70000013258E+02 0.  0.
         12    1    1    2    0    0  0.17339945074E+02 -0.70700686839E+01 -0.13864336749E+00  0.18726419528E+02  0.00000000000E+00 0. -1.
         11    1    3    3    0    0  0.19138826926E+02  0.10554816409E+02 -0.20735283760E+02  0.30127244123E+02  0.51100000000E-03 0. -1.
        -11    1    3    3    0    0 -0.48321891124E+01  0.70630799923E+00  0.32975161829E+01  0.58925831216E+01  0.51100000000E-03 0.  1.
         12    1    3    3    0    0 -0.31646582888E+02 -0.41910557245E+01  0.17576410945E+02  0.36441753227E+02  0.00000000000E+00 0. -1.
</event>
<event>
 7    1  0.1345786E-013  0.7246159E+02  0.7816164E-02  0.1226708E+00
        -11   -1    0    0    0    0  0.00000000000E+00  0.00000000000E+00  0.45593999997E+02  0.45594000000E+02  0.51100000000E-03 0.  1.
         11   -1    0    0    0    0 -0.00000000000E+00 -0.00000000000E+00 -0.45593999997E+02  0.45594000000E+02  0.51100000000E-03 0. -1.
    9900012    2    1    2    0    0  0.77315772746E+01  0.64628079213E+01  0.15783955182E+02  0.72461590452E+02  0.70000026258E+02 0.  0.
         12    1    1    2    0    0 -0.77315772746E+01 -0.64628079213E+01 -0.15783955182E+02  0.18726409548E+02  0.00000000000E+00 0. -1.
         11    1    3    3    0    0  0.74853932773E+01  0.18095487738E+02  0.28192263291E+02  0.34326105208E+02  0.51100000000E-03 0.  1.
        -11    1    3    3    0    0  0.10065362390E+02 -0.84651396152E+01 -0.20953382220E+02  0.24738923491E+02  0.51100000000E-03 0. -1.
        -12    1    3    3    0    0 -0.98191783930E+01 -0.31675402011E+01  0.85450741112E+01  0.13396561753E+02  0.00000000000E+00 0.  1.
</event>
<event>
 7    1  0.1345786E-013  0.7246153E+02  0.7816164E-02  0.1226708E+00
        -11   -1    0    0    0    0  0.00000000000E+00  0.00000000000E+00  0.45593999997E+02  0.45594000000E+02  0.51100000000E-03 0.  1.
         11   -1    0    0    0    0 -0.00000000000E+00 -0.00000000000E+00 -0.45593999997E+02  0.45594000000E+02  0.51100000000E-03 0. -1.
    9900012    2    1    2    0    0  0.47508736464E+01  0.99999621873E+01  0.15103328191E+02  0.72461532992E+02  0.69999951407E+02 0.  0.
         12    1    1    2    0    0 -0.47508736464E+01 -0.99999621873E+01 -0.15103328191E+02  0.18726467008E+02  0.00000000000E+00 0. -1.
         11    1    3    3    0    0 -0.64730450205E+01  0.18185210128E+02 -0.26773774998E+01  0.19487702014E+02  0.51100000000E-03 0.  1.
        -11    1    3    3    0    0  0.27684108380E+02  0.20803062217E+01  0.17655882140E+01  0.27818246400E+02  0.51100000000E-03 0. -1.
        -12    1    3    3    0    0 -0.16460189713E+02 -0.10265554163E+02  0.16015117477E+02  0.25155584578E+02  0.00000000000E+00 0.  1.
</event>
<event>
 7    1  0.1345786E-013  0.7246162E+02  0.7816164E-02  0.1226708E+00
        -11   -1    0    0    0    0  0.00000000000E+00  0.00000000000E+00  0.45593999997E+02  0.45594000000E+02  0.51100000000E-03 0. -1.
         11   -1    0    0    0    0 -0.00000000000E+00 -0.00000000000E+00 -0.45593999997E+02  0.45594000000E+02  0.51100000000E-03 0.  1.
    9900012    2    1    2    0    0  0.17076817676E+01 -0.80348324110E+01 -0.16828625385E+02  0.72461619110E+02  0.70000063592E+02 0.  0.
         12    1    1    2    0    0 -0.17076817676E+01  0.80348324110E+01  0.16828625385E+02  0.18726380890E+02  0.00000000000E+00 0. -1.
         11    1    3    3    0    0 -0.13192814086E+02  0.44182828609E+01  0.11473955681E+02  0.18033946495E+02  0.51100000000E-03 0. -1.
        -11    1    3    3    0    0  0.11057075110E+02 -0.25088726618E+02 -0.53319288108E+01  0.27930853520E+02  0.51100000000E-03 0.  1.
        -12    1    3    3    0    0  0.38434207442E+01  0.12635611346E+02 -0.22970652255E+02  0.26496819094E+02  0.00000000000E+00 0.  1.
</event>
<event>
 7    1  0.1345786E-013  0.7246157E+02  0.7816164E-02  0.1226708E+00
        -11   -1    0    0    0    0  0.00000000000E+00  0.00000000000E+00  0.45593999997E+02  0.45594000000E+02  0.51100000000E-03 0.  1.
         11   -1    0    0    0    0 -0.00000000000E+00 -0.00000000000E+00 -0.45593999997E+02  0.45594000000E+02  0.51100000000E-03 0. -1.
    9900012    2    1    2    0    0  0.18654227292E+02 -0.10595364330E+01 -0.12554708413E+01  0.72461574277E+02  0.70000005188E+02 0.  0.
         12    1    1    2    0    0 -0.18654227292E+02  0.10595364330E+01  0.12554708413E+01  0.18726425723E+02  0.00000000000E+00 0. -1.
         11    1    3    3    0    0 -0.11281156756E+02 -0.42376876225E+01 -0.18919532550E+02  0.22431478023E+02  0.51100000000E-03 0. -1.
        -11    1    3    3    0    0  0.29652517896E+02 -0.66825989135E+01  0.69758677795E+00  0.30404203219E+02  0.51100000000E-03 0.  1.
         12    1    3    3    0    0  0.28286615285E+00  0.98607501030E+01  0.16966474931E+02  0.19625893035E+02  0.00000000000E+00 0. -1.
</event>
<event>
 7    1  0.1345786E-013  0.7246158E+02  0.7816164E-02  0.1226708E+00
        -11   -1    0    0    0    0  0.00000000000E+00  0.00000000000E+00  0.45593999997E+02  0.45594000000E+02  0.51100000000E-03 0.  1.
         11   -1    0    0    0    0 -0.00000000000E+00 -0.00000000000E+00 -0.45593999997E+02  0.45594000000E+02  0.51100000000E-03 0. -1.
    9900012    2    1    2    0    0  0.14505114094E+01 -0.16801888986E+02  0.81407194667E+01  0.72461580954E+02  0.70000013886E+02 0.  0.
         12    1    1    2    0    0 -0.14505114094E+01  0.16801888986E+02 -0.81407194667E+01  0.18726419046E+02  0.00000000000E+00 0. -1.
         11    1    3    3    0    0  0.94170271724E+01 -0.11774687687E+02 -0.13664595197E+02  0.20348091632E+02  0.51100000000E-03 0. -1.
        -11    1    3    3    0    0 -0.13372074495E+02  0.17734840608E+02  0.36697270508E+01  0.22512304293E+02  0.51100000000E-03 0.  1.
        -12    1    3    3    0    0  0.54055587321E+01 -0.22762041908E+02  0.18135587613E+02  0.29601185029E+02  0.00000000000E+00 0.  1.
</event>
<event>
 7    1  0.1345786E-013  0.7246155E+02  0.7816164E-02  0.1226708E+00
        -11   -1    0    0    0    0  0.00000000000E+00  0.00000000000E+00  0.45593999997E+02  0.45594000000E+02  0.51100000000E-03 0.  1.
         11   -1    0    0    0    0 -0.00000000000E+00 -0.00000000000E+00 -0.45593999997E+02  0.45594000000E+02  0.51100000000E-03 0. -1.
    9900012    2    1    2    0    0  0.95539249987E+01  0.13354842861E+02  0.90028160455E+01  0.72461547921E+02  0.69999970854E+02 0.  0.
         12    1    1    2    0    0 -0.95539249987E+01 -0.13354842861E+02 -0.90028160455E+01  0.18726452079E+02  0.00000000000E+00 0. -1.
         11    1    3    3    0    0  0.72620945145E+01  0.15009439766E+02 -0.60122341532E+01  0.17724792202E+02  0.51100000000E-03 0. -1.
        -11    1    3    3    0    0  0.18127538546E+02 -0.20301436043E+02  0.13079672192E+02  0.30196585636E+02  0.51100000000E-03 0.  1.
        -12    1    3    3    0    0 -0.15835708061E+02  0.18646839138E+02  0.19353780067E+01  0.24540170083E+02  0.00000000000E+00 0.  1.
</event>
<event>
 7    1  0.1345786E-013  0.7246166E+02  0.7816164E-02  0.1226708E+00
        -11   -1    0    0    0    0  0.00000000000E+00  0.00000000000E+00  0.45593999997E+02  0.45594000000E+02  0.51100000000E-03 0.  1.
         11   -1    0    0    0    0 -0.00000000000E+00 -0.00000000000E+00 -0.45593999997E+02  0.45594000000E+02  0.51100000000E-03 0. -1.
    9900012    2    1    2    0    0 -0.13080243437E+02 -0.64279121379E+01  0.11758610240E+02  0.72461661928E+02  0.70000119369E+02 0.  0.
         12    1    1    2    0    0  0.13080243437E+02  0.64279121379E+01 -0.11758610240E+02  0.18726338072E+02  0.00000000000E+00 0. -1.
         11    1    3    3    0    0 -0.25020112430E+01  0.77076163337E+01 -0.10538750697E+01  0.81717845500E+01  0.51100000000E-03 0. -1.
        -11    1    3    3    0    0 -0.24144663715E+02 -0.30445762153E+02 -0.11810507736E+01  0.38875494854E+02  0.51100000000E-03 0.  1.
        -12    1    3    3    0    0  0.13566431521E+02  0.16310233681E+02  0.13993536083E+02  0.25414382524E+02  0.00000000000E+00 0.  1.
</event>
<event>
 7    1  0.1609040E-013  0.7246158E+02  0.7816164E-02  0.1226708E+00
        -11   -1    0    0    0    0  0.00000000000E+00  0.00000000000E+00  0.45593999997E+02  0.45594000000E+02  0.51100000000E-03 0. -1.
         11   -1    0    0    0    0 -0.00000000000E+00 -0.00000000000E+00 -0.45593999997E+02  0.45594000000E+02  0.51100000000E-03 0.  1.
    9900012    2    1    2    0    0 -0.39528975487E+01 -0.17210095911E+02 -0.62342601979E+01  0.72461580147E+02  0.70000012835E+02 0.  0.
         12    1    1    2    0    0  0.39528975487E+01  0.17210095911E+02  0.62342601979E+01  0.18726419853E+02  0.00000000000E+00 0. -1.
         11    1    3    3    0    0  0.40771790579E+01 -0.21232974122E+02  0.12489959883E+02  0.24969214591E+02  0.51100000000E-03 0. -1.
        -11    1    3    3    0    0 -0.25422115681E+02 -0.32643150329E+00 -0.13668425814E+02  0.28865487831E+02  0.51100000000E-03 0.  1.
        -12    1    3    3    0    0  0.17392039074E+02  0.43493097142E+01 -0.50557942671E+01  0.18626877726E+02  0.00000000000E+00 0.  1.
</event>
<event>
 7    1  0.1345786E-013  0.7246126E+02  0.7816164E-02  0.1226709E+00
        -11   -1    0    0    0    0  0.00000000000E+00  0.00000000000E+00  0.45593999997E+02  0.45594000000E+02  0.51100000000E-03 0.  1.
         11   -1    0    0    0    0 -0.00000000000E+00 -0.00000000000E+00 -0.45593999997E+02  0.45594000000E+02  0.51100000000E-03 0. -1.
    9900012    2    1    2    0    0 -0.14650994123E+02  0.11338748940E+02  0.27334600398E+01  0.72461263496E+02  0.69999600336E+02 0.  0.
         12    1    1    2    0    0  0.14650994123E+02 -0.11338748940E+02 -0.27334600398E+01  0.18726736504E+02  0.00000000000E+00 0. -1.
         11    1    3    3    0    0 -0.28262938841E+01 -0.26645535559E+02  0.76867227845E+01  0.27875763842E+02  0.51100000000E-03 0.  1.
        -11    1    3    3    0    0 -0.37440204618E+01  0.35591422558E+02 -0.51452820764E+01  0.36155787597E+02  0.51100000000E-03 0. -1.
         12    1    3    3    0    0 -0.80806797770E+01  0.23928619414E+01  0.19201933173E+00  0.84297120563E+01  0.00000000000E+00 0. -1.
</event>
<event>
 7    1  0.1345786E-013  0.7246146E+02  0.7816164E-02  0.1226708E+00
        -11   -1    0    0    0    0  0.00000000000E+00  0.00000000000E+00  0.45593999997E+02  0.45594000000E+02  0.51100000000E-03 0.  1.
         11   -1    0    0    0    0 -0.00000000000E+00 -0.00000000000E+00 -0.45593999997E+02  0.45594000000E+02  0.51100000000E-03 0. -1.
    9900012    2    1    2    0    0 -0.74771600701E+01  0.12895802878E+02  0.11334625259E+02  0.72461457758E+02  0.69999853400E+02 0.  0.
         12    1    1    2    0    0  0.74771600701E+01 -0.12895802878E+02 -0.11334625259E+02  0.18726542242E+02  0.00000000000E+00 0. -1.
         11    1    3    3    0    0 -0.10325613369E+02 -0.33601434990E+01 -0.89295040376E+01  0.14058623631E+02  0.51100000000E-03 0. -1.
        -11    1    3    3    0    0  0.11177978085E+02  0.32886845376E+02  0.66819081953E+01  0.35371453041E+02  0.51100000000E-03 0.  1.
        -12    1    3    3    0    0 -0.83295247860E+01 -0.16630898999E+02  0.13582221102E+02  0.23031381086E+02  0.00000000000E+00 0.  1.
</event>
<event>
 7    1  0.1345786E-013  0.7246159E+02  0.7816164E-02  0.1226708E+00
        -11   -1    0    0    0    0  0.00000000000E+00  0.00000000000E+00  0.45593999997E+02  0.45594000000E+02  0.51100000000E-03 0.  1.
         11   -1    0    0    0    0 -0.00000000000E+00 -0.00000000000E+00 -0.45593999997E+02  0.45594000000E+02  0.51100000000E-03 0. -1.
    9900012    2    1    2    0    0  0.85318396399E+01 -0.12745014578E+02  0.10744792243E+02  0.72461594991E+02  0.70000032171E+02 0.  0.
         12    1    1    2    0    0 -0.85318396399E+01  0.12745014578E+02 -0.10744792243E+02  0.18726405009E+02  0.00000000000E+00 0. -1.
         11    1    3    3    0    0 -0.63863274698E+00 -0.33614843516E+02  0.14022468493E+01  0.33650138973E+02  0.51100000000E-03 0. -1.
        -11    1    3    3    0    0  0.18801290991E+02  0.18051926471E+02  0.11594834825E+02  0.28527193819E+02  0.51100000000E-03 0.  1.
         12    1    3    3    0    0 -0.96308186045E+01  0.28179024669E+01 -0.22522894314E+01  0.10284262200E+02  0.00000000000E+00 0. -1.
</event>
<event>
 7    1  0.1345786E-013  0.7246155E+02  0.7816164E-02  0.1226708E+00
        -11   -1    0    0    0    0  0.00000000000E+00  0.00000000000E+00  0.45593999997E+02  0.45594000000E+02  0.51100000000E-03 0.  1.
         11   -1    0    0    0    0 -0.00000000000E+00 -0.00000000000E+00 -0.45593999997E+02  0.45594000000E+02  0.51100000000E-03 0. -1.
    9900012    2    1    2    0    0  0.19607807920E+01 -0.15603825248E+02  0.10166406107E+02  0.72461552477E+02  0.69999976790E+02 0.  0.
         12    1    1    2    0    0 -0.19607807920E+01  0.15603825248E+02 -0.10166406107E+02  0.18726447523E+02  0.00000000000E+00 0. -1.
         11    1    3    3    0    0  0.10840491862E+02  0.16833318091E+02  0.10077164162E+02  0.22414863363E+02  0.51100000000E-03 0.  1.
        -11    1    3    3    0    0 -0.13842574435E+02 -0.13705258374E+02 -0.15725085965E+02  0.25034562168E+02  0.51100000000E-03 0. -1.
        -12    1    3    3    0    0  0.49628633641E+01 -0.18731884965E+02  0.15814327911E+02  0.25012126946E+02  0.00000000000E+00 0.  1.
</event>
<event>
 7    1  0.1345786E-013  0.7246162E+02  0.7816164E-02  0.1226708E+00
        -11   -1    0    0    0    0  0.00000000000E+00  0.00000000000E+00  0.45593999997E+02  0.45594000000E+02  0.51100000000E-03 0. -1.
         11   -1    0    0    0    0 -0.00000000000E+00 -0.00000000000E+00 -0.45593999997E+02  0.45594000000E+02  0.51100000000E-03 0.  1.
    9900012    2    1    2    0    0  0.13770660612E+02  0.12432157259E+02  0.25470704066E+01  0.72461623002E+02  0.70000068662E+02 0.  0.
         12    1    1    2    0    0 -0.13770660612E+02 -0.12432157259E+02 -0.25470704066E+01  0.18726376998E+02  0.00000000000E+00 0. -1.
         11    1    3    3    0    0 -0.16042173338E+02 -0.26214351438E+01  0.21565746854E+02  0.27005641730E+02  0.51100000000E-03 0. -1.
        -11    1    3    3    0    0  0.18886486659E+02  0.16180283393E+02 -0.22899166944E+02  0.33806401701E+02  0.51100000000E-03 0.  1.
        -12    1    3    3    0    0  0.10926347290E+02 -0.11266909903E+01  0.38804904965E+01  0.11649579571E+02  0.00000000000E+00 0.  1.
</event>
<event>
 7    1  0.1345786E-013  0.7246158E+02  0.7816164E-02  0.1226708E+00
        -11   -1    0    0    0    0  0.00000000000E+00  0.00000000000E+00  0.45593999997E+02  0.45594000000E+02  0.51100000000E-03 0.  1.
         11   -1    0    0    0    0 -0.00000000000E+00 -0.00000000000E+00 -0.45593999997E+02  0.45594000000E+02  0.51100000000E-03 0. -1.
    9900012    2    1    2    0    0  0.18531050004E+02  0.26255208925E+01  0.62111289949E+00  0.72461576010E+02  0.70000007446E+02 0.  0.
         12    1    1    2    0    0 -0.18531050004E+02 -0.26255208925E+01 -0.62111289949E+00  0.18726423990E+02  0.00000000000E+00 0. -1.
         11    1    3    3    0    0 -0.54932123349E+01  0.55147756129E+01 -0.27974656610E+02  0.29037381847E+02  0.51100000000E-03 0. -1.
        -11    1    3    3    0    0  0.11885192322E+02 -0.91933990444E+00  0.28752100339E+02  0.31125331429E+02  0.51100000000E-03 0.  1.
        -12    1    3    3    0    0  0.12139070016E+02 -0.19699148160E+01 -0.15633082904E+00  0.12298862735E+02  0.00000000000E+00 0.  1.
</event>
<event>
 7    1  0.1345786E-013  0.7246162E+02  0.7816164E-02  0.1226708E+00
        -11   -1    0    0    0    0  0.00000000000E+00  0.00000000000E+00  0.45593999997E+02  0.45594000000E+02  0.51100000000E-03 0.  1.
         11   -1    0    0    0    0 -0.00000000000E+00 -0.00000000000E+00 -0.45593999997E+02  0.45594000000E+02  0.51100000000E-03 0. -1.
    9900012    2    1    2    0    0  0.11931661349E+02 -0.13606069640E+02  0.48153490122E+01  0.72461621287E+02  0.70000066428E+02 0.  0.
         12    1    1    2    0    0 -0.11931661349E+02  0.13606069640E+02 -0.48153490122E+01  0.18726378713E+02  0.00000000000E+00 0. -1.
         11    1    3    3    0    0 -0.60732303758E+01 -0.12095473854E+02 -0.22627622146E+02  0.26366529904E+02  0.51100000000E-03 0. -1.
        -11    1    3    3    0    0  0.19926037390E+02 -0.74273362137E+01  0.37428637626E+01  0.21592158732E+02  0.51100000000E-03 0.  1.
         12    1    3    3    0    0 -0.19211456654E+01  0.59167404278E+01  0.23700107395E+02  0.24502932651E+02  0.00000000000E+00 0. -1.
</event>
<event>
 7    1  0.1345786E-013  0.7246129E+02  0.7816164E-02  0.1226709E+00
        -11   -1    0    0    0    0  0.00000000000E+00  0.00000000000E+00  0.45593999997E+02  0.45594000000E+02  0.51100000000E-03 0.  1.
         11   -1    0    0    0    0 -0.00000000000E+00 -0.00000000000E+00 -0.45593999997E+02  0.45594000000E+02  0.51100000000E-03 0. -1.
    9900012    2    1    2    0    0 -0.45707010111E+01 -0.17864661005E+02 -0.32637506361E+01  0.72461294770E+02  0.69999641078E+02 0.  0.
         12    1    1    2    0    0  0.45707010111E+01  0.17864661005E+02  0.32637506361E+01  0.18726705230E+02  0.00000000000E+00 0. -1.
         11    1    3    3    0    0  0.38815648718E+01 -0.20726244626E+02 -0.20748170415E+02  0.29582601947E+02  0.51100000000E-03 0. -1.
        -11    1    3    3    0    0  0.60511241510E+01  0.16559941537E+02  0.22428919198E+01  0.17772966315E+02  0.51100000000E-03 0.  1.
        -12    1    3    3    0    0 -0.14503390034E+02 -0.13698357916E+02  0.15241527859E+02  0.25105726509E+02  0.00000000000E+00 0.  1.
</event>
<event>
 7    1  0.1345786E-013  0.7246111E+02  0.7816164E-02  0.1226709E+00
        -11   -1    0    0    0    0  0.00000000000E+00  0.00000000000E+00  0.45593999997E+02  0.45594000000E+02  0.51100000000E-03 0.  1.
         11   -1    0    0    0    0 -0.00000000000E+00 -0.00000000000E+00 -0.45593999997E+02  0.45594000000E+02  0.51100000000E-03 0. -1.
    9900012    2    1    2    0    0 -0.10076385837E+02  0.13733248019E+02  0.77820686044E+01  0.72461114396E+02  0.69999406105E+02 0.  0.
         12    1    1    2    0    0  0.10076385837E+02 -0.13733248019E+02 -0.77820686044E+01  0.18726885604E+02  0.00000000000E+00 0. -1.
         11    1    3    3    0    0 -0.22380281712E+02  0.61364589260E-01  0.19202487605E+02  0.29489257462E+02  0.51100000000E-03 0. -1.
        -11    1    3    3    0    0  0.56681476449E+01  0.25595117329E+02 -0.12952960088E+02  0.29240675507E+02  0.51100000000E-03 0.  1.
        -12    1    3    3    0    0  0.66357482310E+01 -0.11923233900E+02  0.15325410865E+01  0.13731181427E+02  0.00000000000E+00 0.  1.
</event>
<event>
 7    1  0.1345786E-013  0.7246157E+02  0.7816164E-02  0.1226708E+00
        -11   -1    0    0    0    0  0.00000000000E+00  0.00000000000E+00  0.45593999997E+02  0.45594000000E+02  0.51100000000E-03 0. -1.
         11   -1    0    0    0    0 -0.00000000000E+00 -0.00000000000E+00 -0.45593999997E+02  0.45594000000E+02  0.51100000000E-03 0.  1.
    9900012    2    1    2    0    0 -0.95748247396E+01 -0.15481815057E+02 -0.43949150667E+01  0.72461570957E+02  0.70000000864E+02 0.  0.
         12    1    1    2    0    0  0.95748247396E+01  0.15481815057E+02  0.43949150667E+01  0.18726429043E+02  0.00000000000E+00 0. -1.
         11    1    3    3    0    0 -0.22377977748E+02 -0.21461201505E+01  0.15600936310E+02  0.27363642554E+02  0.51100000000E-03 0. -1.
        -11    1    3    3    0    0  0.27091395899E+01 -0.15579476348E+02 -0.27908678302E+02  0.32077310446E+02  0.51100000000E-03 0.  1.
        -12    1    3    3    0    0  0.10094013419E+02  0.22437814417E+01  0.79128269250E+01  0.13020617958E+02  0.00000000000E+00 0.  1.
</event>
<event>
 7    1  0.1345786E-013  0.7246157E+02  0.7816164E-02  0.1226708E+00
        -11   -1    0    0    0    0  0.00000000000E+00  0.00000000000E+00  0.45593999997E+02  0.45594000000E+02  0.51100000000E-03 0. -1.
         11   -1    0    0    0    0 -0.00000000000E+00 -0.00000000000E+00 -0.45593999997E+02  0.45594000000E+02  0.51100000000E-03 0.  1.
    9900012    2    1    2    0    0  0.67231683101E+01  0.68930797560E+01 -0.16061242155E+02  0.72461573747E+02  0.70000004497E+02 0.  0.
         12    1    1    2    0    0 -0.67231683101E+01 -0.68930797560E+01  0.16061242155E+02  0.18726426253E+02  0.00000000000E+00 0. -1.
         11    1    3    3    0    0 -0.10502750049E+02  0.24194417503E+02 -0.20770240403E+02  0.33572019355E+02  0.51100000000E-03 0. -1.
        -11    1    3    3    0    0  0.15141826061E+02 -0.59011391232E+01 -0.10812052322E+02  0.19519190943E+02  0.51100000000E-03 0.  1.
         12    1    3    3    0    0  0.20840922979E+01 -0.11400198624E+02  0.15521050569E+02  0.19370363449E+02  0.00000000000E+00 0. -1.
</event>
<event>
 7    1  0.1345786E-013  0.7246151E+02  0.7816164E-02  0.1226708E+00
        -11   -1    0    0    0    0  0.00000000000E+00  0.00000000000E+00  0.45593999997E+02  0.45594000000E+02  0.51100000000E-03 0.  1.
         11   -1    0    0    0    0 -0.00000000000E+00 -0.00000000000E+00 -0.45593999997E+02  0.45594000000E+02  0.51100000000E-03 0. -1.
    9900012    2    1    2    0    0 -0.62614170593E+01 -0.28097886248E+00  0.17646445915E+02  0.72461512178E+02  0.69999924292E+02 0.  0.
         12    1    1    2    0    0  0.62614170593E+01  0.28097886248E+00 -0.17646445915E+02  0.18726487822E+02  0.00000000000E+00 0. -1.
         11    1    3    3    0    0 -0.24206345376E+02 -0.19813326975E+02  0.77180194580E+00  0.31290745610E+02  0.51100000000E-03 0. -1.
        -11    1    3    3    0    0 -0.65377098307E+01  0.84239762143E+01  0.44737831137E+01  0.11563726073E+02  0.51100000000E-03 0.  1.
         12    1    3    3    0    0  0.24482638148E+02  0.11108371898E+02  0.12400860856E+02  0.29607040495E+02  0.00000000000E+00 0. -1.
</event>
<event>
 7    1  0.1345786E-013  0.7246140E+02  0.7816164E-02  0.1226708E+00
        -11   -1    0    0    0    0  0.00000000000E+00  0.00000000000E+00  0.45593999997E+02  0.45594000000E+02  0.51100000000E-03 0.  1.
         11   -1    0    0    0    0 -0.00000000000E+00 -0.00000000000E+00 -0.45593999997E+02  0.45594000000E+02  0.51100000000E-03 0. -1.
    9900012    2    1    2    0    0  0.12395553997E+02 -0.14422559969E+01  0.13962648122E+02  0.72461403838E+02  0.69999783159E+02 0.  0.
         12    1    1    2    0    0 -0.12395553997E+02  0.14422559969E+01 -0.13962648122E+02  0.18726596162E+02  0.00000000000E+00 0. -1.
         11    1    3    3    0    0  0.18307914048E+02  0.49625423181E+01 -0.14973875675E+02  0.24166578079E+02  0.51100000000E-03 0. -1.
        -11    1    3    3    0    0 -0.13742616437E+02 -0.82725625427E+01  0.34811328358E+02  0.38329145306E+02  0.51100000000E-03 0.  1.
        -12    1    3    3    0    0  0.78302563849E+01  0.18677642277E+01 -0.58748045607E+01  0.99656804529E+01  0.00000000000E+00 0.  1.
</event>
<event>
 7    1  0.1345786E-013  0.7246155E+02  0.7816164E-02  0.1226708E+00
        -11   -1    0    0    0    0  0.00000000000E+00  0.00000000000E+00  0.45593999997E+02  0.45594000000E+02  0.51100000000E-03 0.  1.
         11   -1    0    0    0    0 -0.00000000000E+00 -0.00000000000E+00 -0.45593999997E+02  0.45594000000E+02  0.51100000000E-03 0. -1.
    9900012    2    1    2    0    0  0.13275172591E+02  0.58948511971E+01  0.11819497430E+02  0.72461548189E+02  0.69999971203E+02 0.  0.
         12    1    1    2    0    0 -0.13275172591E+02 -0.58948511971E+01 -0.11819497430E+02  0.18726451811E+02  0.00000000000E+00 0. -1.
         11    1    3    3    0    0  0.49067576910E+01 -0.47501136904E+01 -0.11968169920E+02  0.13779584269E+02  0.51100000000E-03 0. -1.
        -11    1    3    3    0    0 -0.14410445403E+02  0.17233851729E+02  0.26584202549E+02  0.34804976764E+02  0.51100000000E-03 0.  1.
        -12    1    3    3    0    0  0.22778860303E+02 -0.65888868414E+01 -0.27965351993E+01  0.23876987156E+02  0.00000000000E+00 0.  1.
</event>
<event>
 7    1  0.1345786E-013  0.7246148E+02  0.7816164E-02  0.1226708E+00
        -11   -1    0    0    0    0  0.00000000000E+00  0.00000000000E+00  0.45593999997E+02  0.45594000000E+02  0.51100000000E-03 0. -1.
         11   -1    0    0    0    0 -0.00000000000E+00 -0.00000000000E+00 -0.45593999997E+02  0.45594000000E+02  0.51100000000E-03 0.  1.
    9900012    2    1    2    0    0 -0.46457453448E+01 -0.21896009200E+01 -0.18008476682E+02  0.72461480451E+02  0.69999882962E+02 0.  0.
         12    1    1    2    0    0  0.46457453448E+01  0.21896009200E+01  0.18008476682E+02  0.18726519549E+02  0.00000000000E+00 0. -1.
         11    1    3    3    0    0  0.18894254807E+02  0.12236722890E+02  0.11127209671E+02  0.25110656047E+02  0.51100000000E-03 0. -1.
        -11    1    3    3    0    0 -0.36192934537E+01 -0.77714818462E+01 -0.24342418097E+02  0.25807916116E+02  0.51100000000E-03 0.  1.
         12    1    3    3    0    0 -0.19920706698E+02 -0.66548419638E+01 -0.47932682570E+01  0.21542908288E+02  0.00000000000E+00 0. -1.
</event>
<event>
 7    1  0.1345786E-013  0.7246157E+02  0.7816164E-02  0.1226708E+00
        -11   -1    0    0    0    0  0.00000000000E+00  0.00000000000E+00  0.45593999997E+02  0.45594000000E+02  0.51100000000E-03 0. -1.
         11   -1    0    0    0    0 -0.00000000000E+00 -0.00000000000E+00 -0.45593999997E+02  0.45594000000E+02  0.51100000000E-03 0.  1.
    9900012    2    1    2    0    0  0.12233363784E+02 -0.11708756669E+01 -0.14129859541E+02  0.72461572953E+02  0.70000003463E+02 0.  0.
         12    1    1    2    0    0 -0.12233363784E+02  0.11708756669E+01  0.14129859541E+02  0.18726427047E+02  0.00000000000E+00 0. -1.
         11    1    3    3    0    0 -0.20285077090E+02  0.46557213213E+00  0.30047172588E+00  0.20292643827E+02  0.51100000000E-03 0. -1.
        -11    1    3    3    0    0  0.30074764228E+02  0.11202581500E+01 -0.26159015573E+02  0.39875312132E+02  0.51100000000E-03 0.  1.
        -12    1    3    3    0    0  0.24436766467E+01 -0.27567059491E+01  0.11728684305E+02  0.12293616993E+02  0.00000000000E+00 0.  1.
</event>
<event>
 7    1  0.1345786E-013  0.7246167E+02  0.7816164E-02  0.1226708E+00
        -11   -1    0    0    0    0  0.00000000000E+00  0.00000000000E+00  0.45593999997E+02  0.45594000000E+02  0.51100000000E-03 0. -1.
         11   -1    0    0    0    0 -0.00000000000E+00 -0.00000000000E+00 -0.45593999997E+02  0.45594000000E+02  0.51100000000E-03 0.  1.
    9900012    2    1    2    0    0  0.10821517179E+02 -0.13765240227E+01  0.15220891524E+02  0.72461665836E+02  0.70000124461E+02 0.  0.
         12    1    1    2    0    0 -0.10821517179E+02  0.13765240227E+01 -0.15220891524E+02  0.18726334164E+02  0.00000000000E+00 0. -1.
         11    1    3    3    0    0 -0.77592358390E+01  0.14533541674E+02 -0.91750582052E+01  0.18857658066E+02  0.51100000000E-03 0. -1.
        -11    1    3    3    0    0  0.57714879776E+01 -0.28819818697E+02  0.17133553613E+02  0.34021326883E+02  0.51100000000E-03 0.  1.
        -12    1    3    3    0    0  0.12809265040E+02  0.12909753000E+02  0.72623961164E+01  0.19582680888E+02  0.00000000000E+00 0.  1.
</event>
<event>
 8    1  0.1345786E-013  0.7246160E+02  0.7816164E-02  0.1226708E+00
        -11   -1    0    0    0    0  0.00000000000E+00  0.00000000000E+00  0.45593999997E+02  0.45594000000E+02  0.51100000000E-03 0.  1.
         11   -1    0    0    0    0 -0.00000000000E+00 -0.00000000000E+00 -0.45593999997E+02  0.45594000000E+02  0.51100000000E-03 0. -1.
    9900012    2    1    2    0    0 -0.16046241907E+02  0.29016397671E+00  0.96494639436E+01  0.72461595410E+02  0.70000032718E+02 0.  0.
        -24    2    3    3    0    0 -0.17804294374E+02 -0.39058893313E+00 -0.85728934818E+01  0.54141975234E+02  0.50405490988E+02 0.  0.
         12    1    1    2    0    0  0.16046241907E+02 -0.29016397671E+00 -0.96494639436E+01  0.18726404590E+02  0.00000000000E+00 0. -1.
         11    1    4    4    0    0  0.12075418388E+02  0.10802832283E+02 -0.14435607106E+02  0.21700314914E+02  0.51100000000E-03 0. -1.
        -11    1    3    3    0    0  0.17580524666E+01  0.68075290984E+00  0.18222357425E+02  0.18319620176E+02  0.51100000000E-03 0.  1.
        -12    1    4    4    0    0 -0.29879712762E+02 -0.11193421216E+02  0.58627136243E+01  0.32441660320E+02  0.00000000000E+00 0.  1.
</event>
<event>
 7    1  0.1345786E-013  0.7246154E+02  0.7816164E-02  0.1226708E+00
        -11   -1    0    0    0    0  0.00000000000E+00  0.00000000000E+00  0.45593999997E+02  0.45594000000E+02  0.51100000000E-03 0.  1.
         11   -1    0    0    0    0 -0.00000000000E+00 -0.00000000000E+00 -0.45593999997E+02  0.45594000000E+02  0.51100000000E-03 0. -1.
    9900012    2    1    2    0    0 -0.16799005403E+00 -0.10836086232E+01  0.18694327939E+02  0.72461539432E+02  0.69999959796E+02 0.  0.
         12    1    1    2    0    0  0.16799005403E+00  0.10836086232E+01 -0.18694327939E+02  0.18726460568E+02  0.00000000000E+00 0. -1.
         11    1    3    3    0    0  0.15741113295E+02 -0.75582291243E+01 -0.11389742976E+02  0.20847918855E+02  0.51100000000E-03 0. -1.
        -11    1    3    3    0    0 -0.25345079684E+02 -0.36029952795E+01  0.10538878319E+02  0.27684338455E+02  0.51100000000E-03 0.  1.
         12    1    3    3    0    0  0.94359763351E+01  0.10077615781E+02  0.19545192597E+02  0.23929282122E+02  0.00000000000E+00 0. -1.
</event>
<event>
 7    1  0.1345786E-013  0.7246158E+02  0.7816164E-02  0.1226708E+00
        -11   -1    0    0    0    0  0.00000000000E+00  0.00000000000E+00  0.45593999997E+02  0.45594000000E+02  0.51100000000E-03 0. -1.
         11   -1    0    0    0    0 -0.00000000000E+00 -0.00000000000E+00 -0.45593999997E+02  0.45594000000E+02  0.51100000000E-03 0.  1.
    9900012    2    1    2    0    0  0.95677952744E+01  0.12846985322E+02  0.97000494103E+01  0.72461582915E+02  0.70000016441E+02 0.  0.
         12    1    1    2    0    0 -0.95677952744E+01 -0.12846985322E+02 -0.97000494103E+01  0.18726417085E+02  0.00000000000E+00 0. -1.
         11    1    3    3    0    0 -0.42973213466E+01  0.13311037534E+02  0.25228269058E+02  0.28846425271E+02  0.51100000000E-03 0. -1.
        -11    1    3    3    0    0 -0.79658074544E+00  0.38564616398E+01 -0.25214014097E+02  0.25519665837E+02  0.51100000000E-03 0.  1.
         12    1    3    3    0    0  0.14661697366E+02 -0.43205138523E+01  0.96857944494E+01  0.18095491807E+02  0.00000000000E+00 0. -1.
</event>
<event>
 8    1  0.1345786E-013  0.7246170E+02  0.7816164E-02  0.1226708E+00
        -11   -1    0    0    0    0  0.00000000000E+00  0.00000000000E+00  0.45593999997E+02  0.45594000000E+02  0.51100000000E-03 0.  1.
         11   -1    0    0    0    0 -0.00000000000E+00 -0.00000000000E+00 -0.45593999997E+02  0.45594000000E+02  0.51100000000E-03 0. -1.
    9900012    2    1    2    0    0  0.15857127091E+02 -0.57255740987E+01  0.81512861767E+01  0.72461704460E+02  0.70000174775E+02 0.  0.
        -24    2    3    3    0    0  0.17615708645E+02 -0.44285096628E+00  0.16027383782E+02  0.62816359130E+02  0.58124939874E+02 0.  0.
         12    1    1    2    0    0 -0.15857127091E+02  0.57255740987E+01 -0.81512861767E+01  0.18726295540E+02  0.00000000000E+00 0. -1.
         11    1    4    4    0    0  0.24362444913E+02  0.21430277492E+02  0.21948439424E+02  0.39172943583E+02  0.51100000000E-03 0.  1.
        -11    1    3    3    0    0 -0.17585815540E+01 -0.52827231324E+01 -0.78760976057E+01  0.96453453299E+01  0.51100000000E-03 0. -1.
        -12    1    4    4    0    0 -0.67467362681E+01 -0.21873128458E+02 -0.59210556418E+01  0.23643415547E+02  0.00000000000E+00 0.  1.
</event>
<event>
 7    1  0.1345786E-013  0.7246150E+02  0.7816164E-02  0.1226708E+00
        -11   -1    0    0    0    0  0.00000000000E+00  0.00000000000E+00  0.45593999997E+02  0.45594000000E+02  0.51100000000E-03 0. -1.
         11   -1    0    0    0    0 -0.00000000000E+00 -0.00000000000E+00 -0.45593999997E+02  0.45594000000E+02  0.51100000000E-03 0.  1.
    9900012    2    1    2    0    0  0.14052958842E+02 -0.63678410737E+01 -0.10613512165E+02  0.72461502926E+02  0.69999912241E+02 0.  0.
         12    1    1    2    0    0 -0.14052958842E+02  0.63678410737E+01  0.10613512165E+02  0.18726497074E+02  0.00000000000E+00 0. -1.
         11    1    3    3    0    0  0.34766142415E+02 -0.17207376529E+02 -0.19722993226E+02  0.43517524372E+02  0.51100000000E-03 0. -1.
        -11    1    3    3    0    0 -0.16951791307E+02  0.56353349714E+01  0.79996735195E-01  0.17864115665E+02  0.51100000000E-03 0.  1.
         12    1    3    3    0    0 -0.37613922659E+01  0.52042004837E+01  0.90294843254E+01  0.11079862889E+02  0.00000000000E+00 0. -1.
</event>
<event>
 7    1  0.1345786E-013  0.7246150E+02  0.7816164E-02  0.1226708E+00
        -11   -1    0    0    0    0  0.00000000000E+00  0.00000000000E+00  0.45593999997E+02  0.45594000000E+02  0.51100000000E-03 0. -1.
         11   -1    0    0    0    0 -0.00000000000E+00 -0.00000000000E+00 -0.45593999997E+02  0.45594000000E+02  0.51100000000E-03 0.  1.
    9900012    2    1    2    0    0  0.46688645984E+01  0.90919747091E+01 -0.15691384135E+02  0.72461499077E+02  0.69999907226E+02 0.  0.
         12    1    1    2    0    0 -0.46688645984E+01 -0.90919747091E+01  0.15691384135E+02  0.18726500923E+02  0.00000000000E+00 0. -1.
         11    1    3    3    0    0  0.20188074090E+02 -0.12873274426E+02  0.12067420199E+00  0.23943560563E+02  0.51100000000E-03 0. -1.
        -11    1    3    3    0    0 -0.15227388877E+02  0.13456907038E+02  0.90449323538E+01  0.22243482654E+02  0.51100000000E-03 0.  1.
        -12    1    3    3    0    0 -0.29182061506E+00  0.85083420966E+01 -0.24856990691E+02  0.26274455859E+02  0.00000000000E+00 0.  1.
</event>
<event>
 7    1  0.1345786E-013  0.7246156E+02  0.7816164E-02  0.1226708E+00
        -11   -1    0    0    0    0  0.00000000000E+00  0.00000000000E+00  0.45593999997E+02  0.45594000000E+02  0.51100000000E-03 0. -1.
         11   -1    0    0    0    0 -0.00000000000E+00 -0.00000000000E+00 -0.45593999997E+02  0.45594000000E+02  0.51100000000E-03 0.  1.
    9900012    2    1    2    0    0  0.16303679889E+02  0.13891423440E+01 -0.91071241736E+01  0.72461564004E+02  0.69999991806E+02 0.  0.
         12    1    1    2    0    0 -0.16303679889E+02 -0.13891423440E+01  0.91071241736E+01  0.18726435996E+02  0.00000000000E+00 0. -1.
         11    1    3    3    0    0  0.23203148123E+02  0.26766376547E+02 -0.24051049073E+00  0.35424325567E+02  0.51100000000E-03 0. -1.
        -11    1    3    3    0    0 -0.88942271323E+00 -0.28943772753E+02 -0.67286434139E+01  0.29728903384E+02  0.51100000000E-03 0.  1.
         12    1    3    3    0    0 -0.60100455206E+01  0.35665385501E+01 -0.21379702690E+01  0.73083350539E+01  0.00000000000E+00 0. -1.
</event>
<event>
 7    1  0.1345786E-013  0.7246155E+02  0.7816164E-02  0.1226708E+00
        -11   -1    0    0    0    0  0.00000000000E+00  0.00000000000E+00  0.45593999997E+02  0.45594000000E+02  0.51100000000E-03 0.  1.
         11   -1    0    0    0    0 -0.00000000000E+00 -0.00000000000E+00 -0.45593999997E+02  0.45594000000E+02  0.51100000000E-03 0. -1.
    9900012    2    1    2    0    0 -0.85454279993E+01 -0.14152656743E+02  0.87953397220E+01  0.72461547229E+02  0.69999969953E+02 0.  0.
         12    1    1    2    0    0  0.85454279993E+01  0.14152656743E+02 -0.87953397220E+01  0.18726452771E+02  0.00000000000E+00 0. -1.
         11    1    3    3    0    0 -0.26166783734E+01 -0.27743674398E+02  0.32254284539E+02  0.42625078841E+02  0.51100000000E-03 0. -1.
        -11    1    3    3    0    0  0.28243806558E+01  0.67144538052E+01 -0.99749798848E+01  0.12351568320E+02  0.51100000000E-03 0.  1.
         12    1    3    3    0    0 -0.87531302817E+01  0.68765638494E+01 -0.13483964932E+02  0.17484900068E+02  0.00000000000E+00 0. -1.
</event>
<event>
 7    1  0.1345786E-013  0.7246144E+02  0.7816164E-02  0.1226708E+00
        -11   -1    0    0    0    0  0.00000000000E+00  0.00000000000E+00  0.45593999997E+02  0.45594000000E+02  0.51100000000E-03 0. -1.
         11   -1    0    0    0    0 -0.00000000000E+00 -0.00000000000E+00 -0.45593999997E+02  0.45594000000E+02  0.51100000000E-03 0.  1.
    9900012    2    1    2    0    0  0.16326546370E+01  0.86936214397E+01 -0.16505737225E+02  0.72461441954E+02  0.69999832813E+02 0.  0.
         12    1    1    2    0    0 -0.16326546370E+01 -0.86936214397E+01  0.16505737225E+02  0.18726558046E+02  0.00000000000E+00 0. -1.
         11    1    3    3    0    0 -0.52528460347E+01  0.66649420930E+01 -0.96785233314E+00  0.85411113426E+01  0.51100000000E-03 0. -1.
        -11    1    3    3    0    0  0.15125256676E+02 -0.16286555328E+02  0.15396460979E+02  0.27038422382E+02  0.51100000000E-03 0.  1.
        -12    1    3    3    0    0 -0.82397560048E+01  0.18315234675E+02 -0.30934345871E+02  0.36881908230E+02  0.00000000000E+00 0.  1.
</event>
<event>
 7    1  0.1345786E-013  0.7246160E+02  0.7816164E-02  0.1226708E+00
        -11   -1    0    0    0    0  0.00000000000E+00  0.00000000000E+00  0.45593999997E+02  0.45594000000E+02  0.51100000000E-03 0.  1.
         11   -1    0    0    0    0 -0.00000000000E+00 -0.00000000000E+00 -0.45593999997E+02  0.45594000000E+02  0.51100000000E-03 0. -1.
    9900012    2    1    2    0    0 -0.17269504121E+02 -0.69549609245E+01  0.20176507453E+01  0.72461597019E+02  0.70000034814E+02 0.  0.
         12    1    1    2    0    0  0.17269504121E+02  0.69549609245E+01 -0.20176507453E+01  0.18726402981E+02  0.00000000000E+00 0. -1.
         11    1    3    3    0    0 -0.31265244108E+02 -0.24099693275E+02  0.13835982438E+02  0.41829954762E+02  0.51100000000E-03 0.  1.
        -11    1    3    3    0    0  0.11946783439E+02  0.77547796633E+01 -0.14828073582E+02  0.20560496312E+02  0.51100000000E-03 0. -1.
        -12    1    3    3    0    0  0.20489565476E+01  0.93899526877E+01  0.30097418892E+01  0.10071145945E+02  0.00000000000E+00 0.  1.
</event>
<event>
 7    1  0.1345786E-013  0.7246165E+02  0.7816164E-02  0.1226708E+00
        -11   -1    0    0    0    0  0.00000000000E+00  0.00000000000E+00  0.45593999997E+02  0.45594000000E+02  0.51100000000E-03 0. -1.
         11   -1    0    0    0    0 -0.00000000000E+00 -0.00000000000E+00 -0.45593999997E+02  0.45594000000E+02  0.51100000000E-03 0.  1.
    9900012    2    1    2    0    0  0.71791946936E+01 -0.14119736127E+02 -0.99884043652E+01  0.72461654748E+02  0.70000110016E+02 0.  0.
         12    1    1    2    0    0 -0.71791946936E+01  0.14119736127E+02  0.99884043652E+01  0.18726345252E+02  0.00000000000E+00 0. -1.
         11    1    3    3    0    0  0.26760803597E+01  0.95182948173E+01 -0.84084721750E+01  0.12979281448E+02  0.51100000000E-03 0. -1.
        -11    1    3    3    0    0 -0.18625943095E+02 -0.20181819359E+02  0.14544067935E+02  0.31076703512E+02  0.51100000000E-03 0.  1.
        -12    1    3    3    0    0  0.23129057429E+02 -0.34562115851E+01 -0.16124000125E+02  0.28405669788E+02  0.00000000000E+00 0.  1.
</event>
<event>
 7    1  0.1345786E-013  0.7246155E+02  0.7816164E-02  0.1226708E+00
        -11   -1    0    0    0    0  0.00000000000E+00  0.00000000000E+00  0.45593999997E+02  0.45594000000E+02  0.51100000000E-03 0. -1.
         11   -1    0    0    0    0 -0.00000000000E+00 -0.00000000000E+00 -0.45593999997E+02  0.45594000000E+02  0.51100000000E-03 0.  1.
    9900012    2    1    2    0    0  0.17522534374E+02  0.43982064213E+01 -0.49291304078E+01  0.72461554603E+02  0.69999979559E+02 0.  0.
         12    1    1    2    0    0 -0.17522534374E+02 -0.43982064213E+01  0.49291304078E+01  0.18726445397E+02  0.00000000000E+00 0. -1.
         11    1    3    3    0    0  0.12242914595E+02  0.29810875097E+02 -0.18274496390E+02  0.37047732055E+02  0.51100000000E-03 0. -1.
        -11    1    3    3    0    0 -0.61005282875E+01 -0.16138396801E+02  0.31446924079E+01  0.17537200099E+02  0.51100000000E-03 0.  1.
        -12    1    3    3    0    0  0.11380148066E+02 -0.92742718744E+01  0.10200673574E+02  0.17876622449E+02  0.00000000000E+00 0.  1.
</event>
<event>
 7    1  0.1345786E-013  0.7246154E+02  0.7816164E-02  0.1226708E+00
        -11   -1    0    0    0    0  0.00000000000E+00  0.00000000000E+00  0.45593999997E+02  0.45594000000E+02  0.51100000000E-03 0. -1.
         11   -1    0    0    0    0 -0.00000000000E+00 -0.00000000000E+00 -0.45593999997E+02  0.45594000000E+02  0.51100000000E-03 0.  1.
    9900012    2    1    2    0    0 -0.13400256882E+02 -0.44566467371E+01 -0.12298438028E+02  0.72461543780E+02  0.69999965460E+02 0.  0.
         12    1    1    2    0    0  0.13400256882E+02  0.44566467371E+01  0.12298438028E+02  0.18726456220E+02  0.00000000000E+00 0. -1.
         11    1    3    3    0    0 -0.11344615069E+02  0.26707849717E+02 -0.15220990675E+02  0.32767179997E+02  0.51100000000E-03 0.  1.
        -11    1    3    3    0    0  0.86161855274E+01 -0.11909412937E+02  0.85054590968E+01  0.16982803192E+02  0.51100000000E-03 0. -1.
        -12    1    3    3    0    0 -0.10671827340E+02 -0.19255083518E+02 -0.55829064498E+01  0.22711560591E+02  0.00000000000E+00 0.  1.
</event>
<event>
 7    1  0.1345786E-013  0.7246158E+02  0.7816164E-02  0.1226708E+00
        -11   -1    0    0    0    0  0.00000000000E+00  0.00000000000E+00  0.45593999997E+02  0.45594000000E+02  0.51100000000E-03 0.  1.
         11   -1    0    0    0    0 -0.00000000000E+00 -0.00000000000E+00 -0.45593999997E+02  0.45594000000E+02  0.51100000000E-03 0. -1.
    9900012    2    1    2    0    0 -0.15009796784E+02  0.11111847988E+02 -0.13826880177E+01  0.72461575051E+02  0.70000006197E+02 0.  0.
         12    1    1    2    0    0  0.15009796784E+02 -0.11111847988E+02  0.13826880177E+01  0.18726424949E+02  0.00000000000E+00 0. -1.
         11    1    3    3    0    0 -0.29698423155E+02 -0.96664941452E+01 -0.16044008264E+02  0.35111930285E+02  0.51100000000E-03 0. -1.
        -11    1    3    3    0    0  0.11350335478E+02  0.17477232592E+01  0.13876834548E+02  0.18012528678E+02  0.51100000000E-03 0.  1.
         12    1    3    3    0    0  0.33382908927E+01  0.19030618873E+02  0.78448569875E+00  0.19337116088E+02  0.00000000000E+00 0. -1.
</event>
<event>
 7    1  0.1345786E-013  0.7246161E+02  0.7816164E-02  0.1226708E+00
        -11   -1    0    0    0    0  0.00000000000E+00  0.00000000000E+00  0.45593999997E+02  0.45594000000E+02  0.51100000000E-03 0.  1.
         11   -1    0    0    0    0 -0.00000000000E+00 -0.00000000000E+00 -0.45593999997E+02  0.45594000000E+02  0.51100000000E-03 0. -1.
    9900012    2    1    2    0    0 -0.78160045500E+01 -0.95369156535E+01  0.14093794557E+02  0.72461608668E+02  0.70000049989E+02 0.  0.
         12    1    1    2    0    0  0.78160045500E+01  0.95369156535E+01 -0.14093794557E+02  0.18726391332E+02  0.00000000000E+00 0. -1.
         11    1    3    3    0    0 -0.48458216974E+01 -0.10859773953E+02 -0.56689139519E+01  0.13173961587E+02  0.51100000000E-03 0. -1.
        -11    1    3    3    0    0  0.85179349930E+00  0.37236043713E+01  0.39173365157E+02  0.39359158015E+02  0.51100000000E-03 0.  1.
        -12    1    3    3    0    0 -0.38219763519E+01 -0.24007460719E+01 -0.19410656648E+02  0.19928489066E+02  0.00000000000E+00 0.  1.
</event>
<event>
 7    1  0.1345786E-013  0.7246157E+02  0.7816164E-02  0.1226708E+00
        -11   -1    0    0    0    0  0.00000000000E+00  0.00000000000E+00  0.45593999997E+02  0.45594000000E+02  0.51100000000E-03 0. -1.
         11   -1    0    0    0    0 -0.00000000000E+00 -0.00000000000E+00 -0.45593999997E+02  0.45594000000E+02  0.51100000000E-03 0.  1.
    9900012    2    1    2    0    0  0.59449270993E+01  0.17546723475E+02  0.27294046858E+01  0.72461566467E+02  0.69999995014E+02 0.  0.
         12    1    1    2    0    0 -0.59449270993E+01 -0.17546723475E+02 -0.27294046858E+01  0.18726433533E+02  0.00000000000E+00 0. -1.
         11    1    3    3    0    0  0.10081341453E+02 -0.17841831620E+02  0.68246862957E+01  0.21599554263E+02  0.51100000000E-03 0. -1.
        -11    1    3    3    0    0 -0.29886271449E+01  0.25374496501E+02  0.14741749137E+02  0.29497730977E+02  0.51100000000E-03 0.  1.
         12    1    3    3    0    0 -0.11477872091E+01  0.10014058594E+02 -0.18837030747E+02  0.21364281227E+02  0.00000000000E+00 0. -1.
</event>
<event>
 7    1  0.1345786E-013  0.7246160E+02  0.7816164E-02  0.1226708E+00
        -11   -1    0    0    0    0  0.00000000000E+00  0.00000000000E+00  0.45593999997E+02  0.45594000000E+02  0.51100000000E-03 0.  1.
         11   -1    0    0    0    0 -0.00000000000E+00 -0.00000000000E+00 -0.45593999997E+02  0.45594000000E+02  0.51100000000E-03 0. -1.
    9900012    2    1    2    0    0  0.11229537768E+02  0.41105476541E+01  0.14411070569E+02  0.72461599506E+02  0.70000038054E+02 0.  0.
         12    1    1    2    0    0 -0.11229537768E+02 -0.41105476541E+01 -0.14411070569E+02  0.18726400494E+02  0.00000000000E+00 0. -1.
         11    1    3    3    0    0  0.12681505563E+02  0.19187335494E+02 -0.19126089815E+02  0.29912902543E+02  0.51100000000E-03 0. -1.
        -11    1    3    3    0    0  0.19512184777E+01 -0.12044966664E+02  0.35535489995E+02  0.37572057768E+02  0.51100000000E-03 0.  1.
         12    1    3    3    0    0 -0.34031862721E+01 -0.30318211760E+01 -0.19983296111E+01  0.49766391953E+01  0.00000000000E+00 0. -1.
</event>
<event>
 7    1  0.1345786E-013  0.7246159E+02  0.7816164E-02  0.1226708E+00
        -11   -1    0    0    0    0  0.00000000000E+00  0.00000000000E+00  0.45593999997E+02  0.45594000000E+02  0.51100000000E-03 0. -1.
         11   -1    0    0    0    0 -0.00000000000E+00 -0.00000000000E+00 -0.45593999997E+02  0.45594000000E+02  0.51100000000E-03 0.  1.
    9900012    2    1    2    0    0 -0.10314710021E+02  0.10963683581E+02  0.11139253842E+02  0.72461586125E+02  0.70000020622E+02 0.  0.
         12    1    1    2    0    0  0.10314710021E+02 -0.10963683581E+02 -0.11139253842E+02  0.18726413875E+02  0.00000000000E+00 0. -1.
         11    1    3    3    0    0  0.24225677031E+02  0.12293895785E+01  0.74897792280E+01  0.25386839494E+02  0.51100000000E-03 0. -1.
        -11    1    3    3    0    0 -0.14333678276E+02  0.10386080804E+02 -0.12104714995E+02  0.21444093190E+02  0.51100000000E-03 0.  1.
         12    1    3    3    0    0 -0.20206708776E+02 -0.65178680121E+00  0.15754189608E+02  0.25630653441E+02  0.00000000000E+00 0. -1.
</event>
<event>
 7    1  0.1345786E-013  0.7246170E+02  0.7816164E-02  0.1226708E+00
        -11   -1    0    0    0    0  0.00000000000E+00  0.00000000000E+00  0.45593999997E+02  0.45594000000E+02  0.51100000000E-03 0. -1.
         11   -1    0    0    0    0 -0.00000000000E+00 -0.00000000000E+00 -0.45593999997E+02  0.45594000000E+02  0.51100000000E-03 0.  1.
    9900012    2    1    2    0    0 -0.57691043032E+01 -0.92654135364E+01 -0.15216561487E+02  0.72461703090E+02  0.70000172991E+02 0.  0.
         12    1    1    2    0    0  0.57691043032E+01  0.92654135364E+01  0.15216561487E+02  0.18726296910E+02  0.00000000000E+00 0. -1.
         11    1    3    3    0    0  0.14628452626E+02  0.45717531817E+01  0.11721798477E+02  0.19294898631E+02  0.51100000000E-03 0. -1.
        -11    1    3    3    0    0 -0.11395877823E+02 -0.83498414381E+01 -0.36372363550E+02  0.39019670858E+02  0.51100000000E-03 0.  1.
        -12    1    3    3    0    0 -0.90016791061E+01 -0.54873252800E+01  0.94340035863E+01  0.14147133601E+02  0.00000000000E+00 0.  1.
</event>
<event>
 7    1  0.1345786E-013  0.7246166E+02  0.7816164E-02  0.1226708E+00
        -11   -1    0    0    0    0  0.00000000000E+00  0.00000000000E+00  0.45593999997E+02  0.45594000000E+02  0.51100000000E-03 0. -1.
         11   -1    0    0    0    0 -0.00000000000E+00 -0.00000000000E+00 -0.45593999997E+02  0.45594000000E+02  0.51100000000E-03 0.  1.
    9900012    2    1    2    0    0  0.46627806279E+01  0.78791793600E+01 -0.16335625890E+02  0.72461663898E+02  0.70000121936E+02 0.  0.
         12    1    1    2    0    0 -0.46627806279E+01 -0.78791793600E+01  0.16335625890E+02  0.18726336102E+02  0.00000000000E+00 0. -1.
         11    1    3    3    0    0  0.80146356166E+01  0.33664071373E+01  0.26850581113E+02  0.28222699861E+02  0.51100000000E-03 0. -1.
        -11    1    3    3    0    0 -0.27233604826E+01 -0.29270582771E+00 -0.46312306851E+01  0.53805823978E+01  0.51100000000E-03 0.  1.
         12    1    3    3    0    0 -0.62849450610E+00  0.48054780505E+01 -0.38554976319E+02  0.38858381639E+02  0.00000000000E+00 0. -1.
</event>
<event>
 7    1  0.1345786E-013  0.7246147E+02  0.7816164E-02  0.1226708E+00
        -11   -1    0    0    0    0  0.00000000000E+00  0.00000000000E+00  0.45593999997E+02  0.45594000000E+02  0.51100000000E-03 0.  1.
         11   -1    0    0    0    0 -0.00000000000E+00 -0.00000000000E+00 -0.45593999997E+02  0.45594000000E+02  0.51100000000E-03 0. -1.
    9900012    2    1    2    0    0  0.92996817102E+01  0.14802775595E+02  0.67139135047E+01  0.72461471230E+02  0.69999870950E+02 0.  0.
         12    1    1    2    0    0 -0.92996817102E+01 -0.14802775595E+02 -0.67139135047E+01  0.18726528770E+02  0.00000000000E+00 0. -1.
         11    1    3    3    0    0 -0.20362239088E+02  0.13163978116E+01  0.13931534764E+02  0.24707111224E+02  0.51100000000E-03 0. -1.
        -11    1    3    3    0    0  0.23501319726E+02  0.15607318995E+02  0.95348902384E+01  0.29779431948E+02  0.51100000000E-03 0.  1.
        -12    1    3    3    0    0  0.61606010731E+01 -0.21209412112E+01 -0.16752511497E+02  0.17974928057E+02  0.00000000000E+00 0.  1.
</event>
<event>
 7    1  0.1345786E-013  0.7246169E+02  0.7816164E-02  0.1226708E+00
        -11   -1    0    0    0    0  0.00000000000E+00  0.00000000000E+00  0.45593999997E+02  0.45594000000E+02  0.51100000000E-03 0. -1.
         11   -1    0    0    0    0 -0.00000000000E+00 -0.00000000000E+00 -0.45593999997E+02  0.45594000000E+02  0.51100000000E-03 0.  1.
    9900012    2    1    2    0    0  0.12857017396E+02 -0.89400089538E+01  0.10268785824E+02  0.72461691802E+02  0.70000158286E+02 0.  0.
         12    1    1    2    0    0 -0.12857017396E+02  0.89400089538E+01 -0.10268785824E+02  0.18726308198E+02  0.00000000000E+00 0. -1.
         11    1    3    3    0    0 -0.18031176367E+01 -0.26331963050E+02 -0.15561296555E+01  0.26439460112E+02  0.51100000000E-03 0. -1.
        -11    1    3    3    0    0  0.75444760105E+01  0.18801994846E+02 -0.10308065866E+02  0.22730823800E+02  0.51100000000E-03 0.  1.
         12    1    3    3    0    0  0.71156590226E+01 -0.14100407503E+01  0.22132981346E+02  0.23291407890E+02  0.00000000000E+00 0. -1.
</event>
<event>
 7    1  0.1345786E-013  0.7246151E+02  0.7816164E-02  0.1226708E+00
        -11   -1    0    0    0    0  0.00000000000E+00  0.00000000000E+00  0.45593999997E+02  0.45594000000E+02  0.51100000000E-03 0.  1.
         11   -1    0    0    0    0 -0.00000000000E+00 -0.00000000000E+00 -0.45593999997E+02  0.45594000000E+02  0.51100000000E-03 0. -1.
    9900012    2    1    2    0    0 -0.12007785708E+02  0.13423400753E+02 -0.51290141244E+01  0.72461510973E+02  0.69999922723E+02 0.  0.
         12    1    1    2    0    0  0.12007785708E+02 -0.13423400753E+02  0.51290141244E+01  0.18726489027E+02  0.00000000000E+00 0. -1.
         11    1    3    3    0    0  0.13107921119E+02 -0.90580120628E+01  0.15410607071E+02  0.22166460907E+02  0.51100000000E-03 0.  1.
        -11    1    3    3    0    0 -0.28249765170E+02  0.17287461013E+02 -0.26021246295E+02  0.42119007579E+02  0.51100000000E-03 0. -1.
         12    1    3    3    0    0  0.31340583425E+01  0.51939518025E+01  0.54816250995E+01  0.81760424872E+01  0.00000000000E+00 0. -1.
</event>
<event>
 7    1  0.1345786E-013  0.7246162E+02  0.7816164E-02  0.1226708E+00
        -11   -1    0    0    0    0  0.00000000000E+00  0.00000000000E+00  0.45593999997E+02  0.45594000000E+02  0.51100000000E-03 0.  1.
         11   -1    0    0    0    0 -0.00000000000E+00 -0.00000000000E+00 -0.45593999997E+02  0.45594000000E+02  0.51100000000E-03 0. -1.
    9900012    2    1    2    0    0  0.98658819344E+00 -0.18284402489E+02 -0.39222984642E+01  0.72461624059E+02  0.70000070038E+02 0.  0.
         12    1    1    2    0    0 -0.98658819344E+00  0.18284402489E+02  0.39222984642E+01  0.18726375941E+02  0.00000000000E+00 0. -1.
         11    1    3    3    0    0  0.10995333515E+02 -0.26496440607E+01 -0.34366769329E+02  0.36180005626E+02  0.51100000000E-03 0. -1.
        -11    1    3    3    0    0  0.74178081898E+00 -0.28395447521E+01  0.34136706912E+01  0.45018219681E+01  0.51100000000E-03 0.  1.
         12    1    3    3    0    0 -0.10750526141E+02 -0.12795213676E+02  0.27030800173E+02  0.31779796465E+02  0.00000000000E+00 0. -1.
</event>
<event>
 7    1  0.1345786E-013  0.7246155E+02  0.7816164E-02  0.1226708E+00
        -11   -1    0    0    0    0  0.00000000000E+00  0.00000000000E+00  0.45593999997E+02  0.45594000000E+02  0.51100000000E-03 0. -1.
         11   -1    0    0    0    0 -0.00000000000E+00 -0.00000000000E+00 -0.45593999997E+02  0.45594000000E+02  0.51100000000E-03 0.  1.
    9900012    2    1    2    0    0  0.95585695633E+01  0.55697446105E+01 -0.15109320641E+02  0.72461551395E+02  0.69999975380E+02 0.  0.
         12    1    1    2    0    0 -0.95585695633E+01 -0.55697446105E+01  0.15109320641E+02  0.18726448605E+02  0.00000000000E+00 0. -1.
         11    1    3    3    0    0 -0.23830164326E-01  0.10788896121E+02  0.74555507304E+00  0.10814652099E+02  0.51100000000E-03 0. -1.
        -11    1    3    3    0    0  0.27944798867E+02 -0.80245973543E+01  0.91657898367E+01  0.30484711742E+02  0.51100000000E-03 0.  1.
        -12    1    3    3    0    0 -0.18362399139E+02  0.28054458438E+01 -0.25020665551E+02  0.31162187554E+02  0.00000000000E+00 0.  1.
</event>
<event>
 7    1  0.1345786E-013  0.7246163E+02  0.7816164E-02  0.1226708E+00
        -11   -1    0    0    0    0  0.00000000000E+00  0.00000000000E+00  0.45593999997E+02  0.45594000000E+02  0.51100000000E-03 0. -1.
         11   -1    0    0    0    0 -0.00000000000E+00 -0.00000000000E+00 -0.45593999997E+02  0.45594000000E+02  0.51100000000E-03 0.  1.
    9900012    2    1    2    0    0 -0.15481054734E+02  0.94278369193E+01  0.47042366764E+01  0.72461628024E+02  0.70000075204E+02 0.  0.
         12    1    1    2    0    0  0.15481054734E+02 -0.94278369193E+01 -0.47042366764E+01  0.18726371976E+02  0.00000000000E+00 0. -1.
         11    1    3    3    0    0  0.17260128805E+02 -0.14154833780E+02  0.19471265829E+01  0.22406754961E+02  0.51100000000E-03 0. -1.
        -11    1    3    3    0    0 -0.26622290464E+02  0.24412929210E+02  0.12752273414E+02  0.38306108386E+02  0.51100000000E-03 0.  1.
         12    1    3    3    0    0 -0.61188930744E+01 -0.83025851036E+00 -0.99951633207E+01  0.11748764678E+02  0.00000000000E+00 0. -1.
</event>
<event>
 7    1  0.1345786E-013  0.7246164E+02  0.7816164E-02  0.1226708E+00
        -11   -1    0    0    0    0  0.00000000000E+00  0.00000000000E+00  0.45593999997E+02  0.45594000000E+02  0.51100000000E-03 0.  1.
         11   -1    0    0    0    0 -0.00000000000E+00 -0.00000000000E+00 -0.45593999997E+02  0.45594000000E+02  0.51100000000E-03 0. -1.
    9900012    2    1    2    0    0  0.17688151516E+02 -0.61124585662E+01  0.66609151805E+00  0.72461640726E+02  0.70000091750E+02 0.  0.
         12    1    1    2    0    0 -0.17688151516E+02  0.61124585662E+01 -0.66609151805E+00  0.18726359274E+02  0.00000000000E+00 0. -1.
         11    1    3    3    0    0  0.30133052946E+02 -0.56501757964E+01  0.16141146201E+02  0.34647683434E+02  0.51100000000E-03 0. -1.
        -11    1    3    3    0    0 -0.18827999086E+02 -0.39235209683E+01  0.15603079899E+01  0.19295650486E+02  0.51100000000E-03 0.  1.
         12    1    3    3    0    0  0.63830976564E+01  0.34612381984E+01 -0.17035362673E+02  0.18518306806E+02  0.00000000000E+00 0. -1.
</event>
<event>
 7    1  0.1345786E-013  0.7246159E+02  0.7816164E-02  0.1226708E+00
        -11   -1    0    0    0    0  0.00000000000E+00  0.00000000000E+00  0.45593999997E+02  0.45594000000E+02  0.51100000000E-03 0.  1.
         11   -1    0    0    0    0 -0.00000000000E+00 -0.00000000000E+00 -0.45593999997E+02  0.45594000000E+02  0.51100000000E-03 0. -1.
    9900012    2    1    2    0    0  0.16254818461E+02  0.54504670800E+01  0.75333805783E+01  0.72461587169E+02  0.70000021982E+02 0.  0.
         12    1    1    2    0    0 -0.16254818461E+02 -0.54504670800E+01 -0.75333805783E+01  0.18726412831E+02  0.00000000000E+00 0. -1.
         11    1    3    3    0    0 -0.51288024115E+01 -0.69228739782E+01 -0.60242389993E+01  0.10512956486E+02  0.51100000000E-03 0. -1.
        -11    1    3    3    0    0  0.37713388374E+02 -0.17020536037E+01  0.28013401700E+01  0.37855569685E+02  0.51100000000E-03 0.  1.
        -12    1    3    3    0    0 -0.16329767502E+02  0.14075394662E+02  0.10756279408E+02  0.24093060998E+02  0.00000000000E+00 0.  1.
</event>
<event>
 7    1  0.1345786E-013  0.7246160E+02  0.7816164E-02  0.1226708E+00
        -11   -1    0    0    0    0  0.00000000000E+00  0.00000000000E+00  0.45593999997E+02  0.45594000000E+02  0.51100000000E-03 0. -1.
         11   -1    0    0    0    0 -0.00000000000E+00 -0.00000000000E+00 -0.45593999997E+02  0.45594000000E+02  0.51100000000E-03 0.  1.
    9900012    2    1    2    0    0  0.87580250480E+01 -0.94809778068E+01 -0.13567827046E+02  0.72461604894E+02  0.70000045072E+02 0.  0.
         12    1    1    2    0    0 -0.87580250480E+01  0.94809778068E+01  0.13567827046E+02  0.18726395106E+02  0.00000000000E+00 0. -1.
         11    1    3    3    0    0  0.23934950498E+02 -0.14832768661E+02 -0.98573557274E+01  0.29833879125E+02  0.51100000000E-03 0. -1.
        -11    1    3    3    0    0 -0.23946331657E+02 -0.34844144740E+01 -0.12646082319E+02  0.27303687340E+02  0.51100000000E-03 0.  1.
         12    1    3    3    0    0  0.87694062075E+01  0.88362053280E+01  0.89356110003E+01  0.15324038429E+02  0.00000000000E+00 0. -1.
</event>
<event>
 7    1  0.1345786E-013  0.7246158E+02  0.7816164E-02  0.1226708E+00
        -11   -1    0    0    0    0  0.00000000000E+00  0.00000000000E+00  0.45593999997E+02  0.45594000000E+02  0.51100000000E-03 0.  1.
         11   -1    0    0    0    0 -0.00000000000E+00 -0.00000000000E+00 -0.45593999997E+02  0.45594000000E+02  0.51100000000E-03 0. -1.
    9900012    2    1    2    0    0 -0.16863472902E+02 -0.73253339564E+01 -0.35554811944E+01  0.72461583300E+02  0.70000016942E+02 0.  0.
         12    1    1    2    0    0  0.16863472902E+02  0.73253339564E+01  0.35554811944E+01  0.18726416700E+02  0.00000000000E+00 0. -1.
         11    1    3    3    0    0 -0.27445420639E+02 -0.10523538893E+02 -0.55321219518E+01  0.29909870585E+02  0.51100000000E-03 0. -1.
        -11    1    3    3    0    0  0.56923228407E+01 -0.14986696511E+02  0.13080724691E+02  0.20690794338E+02  0.51100000000E-03 0.  1.
        -12    1    3    3    0    0  0.48896248962E+01  0.18184901447E+02 -0.11104083933E+02  0.21860918377E+02  0.00000000000E+00 0.  1.
</event>
<event>
 7    1  0.1345786E-013  0.7246160E+02  0.7816164E-02  0.1226708E+00
        -11   -1    0    0    0    0  0.00000000000E+00  0.00000000000E+00  0.45593999997E+02  0.45594000000E+02  0.51100000000E-03 0.  1.
         11   -1    0    0    0    0 -0.00000000000E+00 -0.00000000000E+00 -0.45593999997E+02  0.45594000000E+02  0.51100000000E-03 0. -1.
    9900012    2    1    2    0    0  0.16965818924E+01  0.13769656337E+02  0.12577603218E+02  0.72461603431E+02  0.70000043167E+02 0.  0.
         12    1    1    2    0    0 -0.16965818924E+01 -0.13769656337E+02 -0.12577603218E+02  0.18726396569E+02  0.00000000000E+00 0. -1.
         11    1    3    3    0    0  0.10968453379E+02  0.33722029745E+02 -0.13156982615E+02  0.37823120594E+02  0.51100000000E-03 0. -1.
        -11    1    3    3    0    0 -0.10886177360E+00 -0.48867031227E+01  0.25588731578E+01  0.55172049440E+01  0.51100000000E-03 0.  1.
         12    1    3    3    0    0 -0.91630097127E+01 -0.15065670285E+02  0.23175712675E+02  0.29121277893E+02  0.00000000000E+00 0. -1.
</event>
<event>
 7    1  0.1345786E-013  0.7246161E+02  0.7816164E-02  0.1226708E+00
        -11   -1    0    0    0    0  0.00000000000E+00  0.00000000000E+00  0.45593999997E+02  0.45594000000E+02  0.51100000000E-03 0. -1.
         11   -1    0    0    0    0 -0.00000000000E+00 -0.00000000000E+00 -0.45593999997E+02  0.45594000000E+02  0.51100000000E-03 0.  1.
    9900012    2    1    2    0    0  0.33563076958E+01  0.18357459177E+02  0.15545485874E+01  0.72461608727E+02  0.70000050066E+02 0.  0.
         12    1    1    2    0    0 -0.33563076958E+01 -0.18357459177E+02 -0.15545485874E+01  0.18726391273E+02  0.00000000000E+00 0. -1.
         11    1    3    3    0    0  0.17089259566E+02 -0.14680564134E+02  0.17544517780E+02  0.28554716951E+02  0.51100000000E-03 0. -1.
        -11    1    3    3    0    0 -0.91737225156E+01  0.24730107040E+02 -0.12790719766E+01  0.26407790600E+02  0.51100000000E-03 0.  1.
         12    1    3    3    0    0 -0.45592293543E+01  0.83079162707E+01 -0.14710897216E+02  0.17499101176E+02  0.00000000000E+00 0. -1.
</event>
<event>
 7    1  0.1345786E-013  0.7246191E+02  0.7816164E-02  0.1226707E+00
        -11   -1    0    0    0    0  0.00000000000E+00  0.00000000000E+00  0.45593999997E+02  0.45594000000E+02  0.51100000000E-03 0.  1.
         11   -1    0    0    0    0 -0.00000000000E+00 -0.00000000000E+00 -0.45593999997E+02  0.45594000000E+02  0.51100000000E-03 0. -1.
    9900012    2    1    2    0    0 -0.15707571727E+01 -0.63338879438E+01  0.17552234913E+02  0.72461912180E+02  0.70000445368E+02 0.  0.
         12    1    1    2    0    0  0.15707571727E+01  0.63338879438E+01 -0.17552234913E+02  0.18726087820E+02  0.00000000000E+00 0. -1.
         11    1    3    3    0    0  0.19360476864E+02  0.20613296956E+02  0.15606393382E+02  0.32300086540E+02  0.51100000000E-03 0. -1.
        -11    1    3    3    0    0 -0.85604151863E+01 -0.22152684989E+02  0.86769189733E+01  0.25284601707E+02  0.51100000000E-03 0.  1.
         12    1    3    3    0    0 -0.12370818850E+02 -0.47944999114E+01 -0.67310774419E+01  0.14877223933E+02  0.00000000000E+00 0. -1.
</event>
<event>
 7    1  0.1345786E-013  0.7246125E+02  0.7816164E-02  0.1226709E+00
        -11   -1    0    0    0    0  0.00000000000E+00  0.00000000000E+00  0.45593999997E+02  0.45594000000E+02  0.51100000000E-03 0. -1.
         11   -1    0    0    0    0 -0.00000000000E+00 -0.00000000000E+00 -0.45593999997E+02  0.45594000000E+02  0.51100000000E-03 0.  1.
    9900012    2    1    2    0    0  0.74994333488E+01 -0.13040753851E+02 -0.11152961045E+02  0.72461246367E+02  0.69999578023E+02 0.  0.
         12    1    1    2    0    0 -0.74994333488E+01  0.13040753851E+02  0.11152961045E+02  0.18726753633E+02  0.00000000000E+00 0. -1.
         11    1    3    3    0    0  0.10492060792E+02 -0.31163097986E+02  0.69330902545E-01  0.32882013666E+02  0.51100000000E-03 0. -1.
        -11    1    3    3    0    0 -0.10123075339E+02  0.17874016725E+01 -0.17821216386E+02  0.20573458942E+02  0.51100000000E-03 0.  1.
         12    1    3    3    0    0  0.71304478961E+01  0.16334942462E+02  0.65989244390E+01  0.19005773759E+02  0.00000000000E+00 0. -1.
</event>
<event>
 7    1  0.1345786E-013  0.7246160E+02  0.7816164E-02  0.1226708E+00
        -11   -1    0    0    0    0  0.00000000000E+00  0.00000000000E+00  0.45593999997E+02  0.45594000000E+02  0.51100000000E-03 0.  1.
         11   -1    0    0    0    0 -0.00000000000E+00 -0.00000000000E+00 -0.45593999997E+02  0.45594000000E+02  0.51100000000E-03 0. -1.
    9900012    2    1    2    0    0  0.90490797584E+01 -0.10143693149E+01  0.16363470831E+02  0.72461602396E+02  0.70000041818E+02 0.  0.
         12    1    1    2    0    0 -0.90490797584E+01  0.10143693149E+01 -0.16363470831E+02  0.18726397604E+02  0.00000000000E+00 0. -1.
         11    1    3    3    0    0  0.24824491267E+02 -0.65665733445E+01  0.18728994957E+02  0.31782864951E+02  0.51100000000E-03 0. -1.
        -11    1    3    3    0    0 -0.60673448315E+01  0.18776145502E+02 -0.10517456508E+02  0.22360080610E+02  0.51100000000E-03 0.  1.
        -12    1    3    3    0    0 -0.97080666768E+01 -0.13223941473E+02  0.81519323820E+01  0.18318656835E+02  0.00000000000E+00 0.  1.
</event>
<event>
 7    1  0.1345786E-013  0.7246159E+02  0.7816164E-02  0.1226708E+00
        -11   -1    0    0    0    0  0.00000000000E+00  0.00000000000E+00  0.45593999997E+02  0.45594000000E+02  0.51100000000E-03 0. -1.
         11   -1    0    0    0    0 -0.00000000000E+00 -0.00000000000E+00 -0.45593999997E+02  0.45594000000E+02  0.51100000000E-03 0.  1.
    9900012    2    1    2    0    0 -0.15733349614E+02  0.43020947328E+01 -0.91995617980E+01  0.72461594941E+02  0.70000032107E+02 0.  0.
         12    1    1    2    0    0  0.15733349614E+02 -0.43020947328E+01  0.91995617980E+01  0.18726405059E+02  0.00000000000E+00 0. -1.
         11    1    3    3    0    0  0.24683619194E+02  0.11650916404E+02  0.32970014204E+01  0.27493547028E+02  0.51100000000E-03 0. -1.
        -11    1    3    3    0    0 -0.23581361370E+02 -0.29125215462E+01 -0.39275463987E+00  0.23763788466E+02  0.51100000000E-03 0.  1.
         12    1    3    3    0    0 -0.16835607438E+02 -0.44363001245E+01 -0.12103808579E+02  0.21204259447E+02  0.00000000000E+00 0. -1.
</event>
<event>
 7    1  0.1345786E-013  0.7246149E+02  0.7816164E-02  0.1226708E+00
        -11   -1    0    0    0    0  0.00000000000E+00  0.00000000000E+00  0.45593999997E+02  0.45594000000E+02  0.51100000000E-03 0. -1.
         11   -1    0    0    0    0 -0.00000000000E+00 -0.00000000000E+00 -0.45593999997E+02  0.45594000000E+02  0.51100000000E-03 0.  1.
    9900012    2    1    2    0    0  0.50804355109E+01  0.14948619748E+02  0.10070259079E+02  0.72461490040E+02  0.69999895454E+02 0.  0.
         12    1    1    2    0    0 -0.50804355109E+01 -0.14948619748E+02 -0.10070259079E+02  0.18726509960E+02  0.00000000000E+00 0. -1.
         11    1    3    3    0    0 -0.10999453989E+02 -0.38447852396E+01  0.21025569038E+02  0.24038405006E+02  0.51100000000E-03 0. -1.
        -11    1    3    3    0    0 -0.24895316267E+01  0.17616526844E+02 -0.20801115477E+02  0.27371996476E+02  0.51100000000E-03 0.  1.
         12    1    3    3    0    0  0.18569421127E+02  0.11768781436E+01  0.98458055180E+01  0.21051088558E+02  0.00000000000E+00 0. -1.
</event>
<event>
 7    1  0.1345786E-013  0.7246147E+02  0.7816164E-02  0.1226708E+00
        -11   -1    0    0    0    0  0.00000000000E+00  0.00000000000E+00  0.45593999997E+02  0.45594000000E+02  0.51100000000E-03 0.  1.
         11   -1    0    0    0    0 -0.00000000000E+00 -0.00000000000E+00 -0.45593999997E+02  0.45594000000E+02  0.51100000000E-03 0. -1.
    9900012    2    1    2    0    0  0.38711754364E+01  0.61735938224E+01  0.17250618795E+02  0.72461465116E+02  0.69999862986E+02 0.  0.
         12    1    1    2    0    0 -0.38711754364E+01 -0.61735938224E+01 -0.17250618795E+02  0.18726534884E+02  0.00000000000E+00 0. -1.
         11    1    3    3    0    0  0.25586544742E+01  0.91422772798E+01  0.36525868017E+02  0.37739461857E+02  0.51100000000E-03 0.  1.
        -11    1    3    3    0    0  0.39358771595E+01 -0.14814532019E+02 -0.15993923368E+02  0.22153263257E+02  0.51100000000E-03 0. -1.
         12    1    3    3    0    0 -0.26233561972E+01  0.11845848562E+02 -0.32813258539E+01  0.12568740002E+02  0.00000000000E+00 0. -1.
</event>
<event>
 7    1  0.1345786E-013  0.7246154E+02  0.7816164E-02  0.1226708E+00
        -11   -1    0    0    0    0  0.00000000000E+00  0.00000000000E+00  0.45593999997E+02  0.45594000000E+02  0.51100000000E-03 0.  1.
         11   -1    0    0    0    0 -0.00000000000E+00 -0.00000000000E+00 -0.45593999997E+02  0.45594000000E+02  0.51100000000E-03 0. -1.
    9900012    2    1    2    0    0 -0.12392524859E+02 -0.10231886171E+02  0.96132331147E+01  0.72461536962E+02  0.69999956578E+02 0.  0.
         12    1    1    2    0    0  0.12392524859E+02  0.10231886171E+02 -0.96132331147E+01  0.18726463038E+02  0.00000000000E+00 0. -1.
         11    1    3    3    0    0 -0.78508482203E+01  0.37052607018E+01  0.41730765303E+00  0.86913129380E+01  0.51100000000E-03 0. -1.
        -11    1    3    3    0    0  0.78926788854E+01  0.14213612253E+02 -0.16878195258E+02  0.23434901935E+02  0.51100000000E-03 0.  1.
        -12    1    3    3    0    0 -0.12434355524E+02 -0.28150759126E+02  0.26074120720E+02  0.40335322089E+02  0.00000000000E+00 0.  1.
</event>
<event>
 7    1  0.1345786E-013  0.7246159E+02  0.7816164E-02  0.1226708E+00
        -11   -1    0    0    0    0  0.00000000000E+00  0.00000000000E+00  0.45593999997E+02  0.45594000000E+02  0.51100000000E-03 0. -1.
         11   -1    0    0    0    0 -0.00000000000E+00 -0.00000000000E+00 -0.45593999997E+02  0.45594000000E+02  0.51100000000E-03 0.  1.
    9900012    2    1    2    0    0  0.13790602775E+02  0.12180379305E+02 -0.34836726758E+01  0.72461592437E+02  0.70000028845E+02 0.  0.
         12    1    1    2    0    0 -0.13790602775E+02 -0.12180379305E+02  0.34836726758E+01  0.18726407563E+02  0.00000000000E+00 0. -1.
         11    1    3    3    0    0 -0.27043499358E+01 -0.23532858165E+02 -0.16786475588E+01  0.23747142562E+02  0.51100000000E-03 0. -1.
        -11    1    3    3    0    0  0.53097393642E+00  0.22942016971E+02  0.10082758034E+02  0.25065515870E+02  0.51100000000E-03 0.  1.
         12    1    3    3    0    0  0.15963978774E+02  0.12771220499E+02 -0.11887783151E+02  0.23648934005E+02  0.00000000000E+00 0. -1.
</event>
<event>
 7    1  0.1345786E-013  0.7246161E+02  0.7816164E-02  0.1226708E+00
        -11   -1    0    0    0    0  0.00000000000E+00  0.00000000000E+00  0.45593999997E+02  0.45594000000E+02  0.51100000000E-03 0. -1.
         11   -1    0    0    0    0 -0.00000000000E+00 -0.00000000000E+00 -0.45593999997E+02  0.45594000000E+02  0.51100000000E-03 0.  1.
    9900012    2    1    2    0    0  0.10635608268E+02 -0.55151908526E+01 -0.14392504763E+02  0.72461609885E+02  0.70000051575E+02 0.  0.
         12    1    1    2    0    0 -0.10635608268E+02  0.55151908526E+01  0.14392504763E+02  0.18726390115E+02  0.00000000000E+00 0. -1.
         11    1    3    3    0    0  0.20522641665E+02 -0.16377588727E+02 -0.18554669898E+02  0.32150894369E+02  0.51100000000E-03 0.  1.
        -11    1    3    3    0    0 -0.12260957156E+02  0.23714015992E+02  0.52097546908E+01  0.27199764136E+02  0.51100000000E-03 0. -1.
         12    1    3    3    0    0  0.23739237580E+01 -0.12851618117E+02 -0.10475895564E+01  0.13110951381E+02  0.00000000000E+00 0. -1.
</event>
<event>
 7    1  0.1345786E-013  0.7246122E+02  0.7816164E-02  0.1226709E+00
        -11   -1    0    0    0    0  0.00000000000E+00  0.00000000000E+00  0.45593999997E+02  0.45594000000E+02  0.51100000000E-03 0.  1.
         11   -1    0    0    0    0 -0.00000000000E+00 -0.00000000000E+00 -0.45593999997E+02  0.45594000000E+02  0.51100000000E-03 0. -1.
    9900012    2    1    2    0    0  0.65090070846E+01 -0.78171086696E+01  0.15723163930E+02  0.72461221175E+02  0.69999545206E+02 0.  0.
         12    1    1    2    0    0 -0.65090070846E+01  0.78171086696E+01 -0.15723163930E+02  0.18726778825E+02  0.00000000000E+00 0. -1.
         11    1    3    3    0    0  0.13283819928E+02 -0.15677611746E+02  0.31790988801E+02  0.37853855168E+02  0.51100000000E-03 0.  1.
        -11    1    3    3    0    0 -0.21306854150E+01  0.14416476068E+02  0.21177250559E+01  0.14726145532E+02  0.51100000000E-03 0. -1.
         12    1    3    3    0    0 -0.46441274282E+01 -0.65559729917E+01 -0.18185549926E+02  0.19881220475E+02  0.00000000000E+00 0. -1.
</event>
<event>
 7    1  0.1345786E-013  0.7246159E+02  0.7816164E-02  0.1226708E+00
        -11   -1    0    0    0    0  0.00000000000E+00  0.00000000000E+00  0.45593999997E+02  0.45594000000E+02  0.51100000000E-03 0. -1.
         11   -1    0    0    0    0 -0.00000000000E+00 -0.00000000000E+00 -0.45593999997E+02  0.45594000000E+02  0.51100000000E-03 0.  1.
    9900012    2    1    2    0    0  0.56555518817E+01  0.17278570000E+02  0.44882159126E+01  0.72461592698E+02  0.70000029186E+02 0.  0.
         12    1    1    2    0    0 -0.56555518817E+01 -0.17278570000E+02 -0.44882159126E+01  0.18726407302E+02  0.00000000000E+00 0. -1.
         11    1    3    3    0    0 -0.37617580462E+01 -0.32131585161E+01  0.57144147274E+01  0.75584222683E+01  0.51100000000E-03 0. -1.
        -11    1    3    3    0    0  0.30110809485E+02  0.85882444833E+01 -0.17633718563E+02  0.35935592687E+02  0.51100000000E-03 0.  1.
        -12    1    3    3    0    0 -0.20693499557E+02  0.11903484033E+02  0.16407519748E+02  0.28967577743E+02  0.00000000000E+00 0.  1.
</event>
<event>
 7    1  0.1345786E-013  0.7246157E+02  0.7816164E-02  0.1226708E+00
        -11   -1    0    0    0    0  0.00000000000E+00  0.00000000000E+00  0.45593999997E+02  0.45594000000E+02  0.51100000000E-03 0.  1.
         11   -1    0    0    0    0 -0.00000000000E+00 -0.00000000000E+00 -0.45593999997E+02  0.45594000000E+02  0.51100000000E-03 0. -1.
    9900012    2    1    2    0    0  0.10131414696E+02 -0.15084833479E+02 -0.45256407539E+01  0.72461569773E+02  0.69999999321E+02 0.  0.
         12    1    1    2    0    0 -0.10131414696E+02  0.15084833479E+02  0.45256407539E+01  0.18726430227E+02  0.00000000000E+00 0. -1.
         11    1    3    3    0    0  0.22259874541E+02 -0.13246663208E+02 -0.21456741869E+02  0.33635812353E+02  0.51100000000E-03 0. -1.
        -11    1    3    3    0    0 -0.30300615349E+01  0.13254057545E+02  0.16253307483E+02  0.21190123140E+02  0.51100000000E-03 0.  1.
        -12    1    3    3    0    0 -0.90983983104E+01 -0.15092227816E+02  0.67779363242E+00  0.17635634280E+02  0.00000000000E+00 0.  1.
</event>
<event>
 7    1  0.1345786E-013  0.7246163E+02  0.7816164E-02  0.1226708E+00
        -11   -1    0    0    0    0  0.00000000000E+00  0.00000000000E+00  0.45593999997E+02  0.45594000000E+02  0.51100000000E-03 0.  1.
         11   -1    0    0    0    0 -0.00000000000E+00 -0.00000000000E+00 -0.45593999997E+02  0.45594000000E+02  0.51100000000E-03 0. -1.
    9900012    2    1    2    0    0  0.13844943562E+02 -0.38370719368E+01  0.12011294817E+02  0.72461633923E+02  0.70000082887E+02 0.  0.
         12    1    1    2    0    0 -0.13844943562E+02  0.38370719368E+01 -0.12011294817E+02  0.18726366077E+02  0.00000000000E+00 0. -1.
         11    1    3    3    0    0 -0.20030915086E+02  0.16713633615E+02  0.90405962372E-01  0.26088144459E+02  0.51100000000E-03 0.  1.
        -11    1    3    3    0    0  0.19776483149E+02 -0.19430638970E+02 -0.23206018733E+00  0.27725671655E+02  0.51100000000E-03 0. -1.
        -12    1    3    3    0    0  0.14099375499E+02 -0.11200665815E+01  0.12152949042E+02  0.18647817809E+02  0.00000000000E+00 0.  1.
</event>
<event>
 7    1  0.1345786E-013  0.7246156E+02  0.7816164E-02  0.1226708E+00
        -11   -1    0    0    0    0  0.00000000000E+00  0.00000000000E+00  0.45593999997E+02  0.45594000000E+02  0.51100000000E-03 0.  1.
         11   -1    0    0    0    0 -0.00000000000E+00 -0.00000000000E+00 -0.45593999997E+02  0.45594000000E+02  0.51100000000E-03 0. -1.
    9900012    2    1    2    0    0  0.31261748970E+00 -0.11120758242E+02  0.15063554765E+02  0.72461556778E+02  0.69999982393E+02 0.  0.
         12    1    1    2    0    0 -0.31261748970E+00  0.11120758242E+02 -0.15063554765E+02  0.18726443222E+02  0.00000000000E+00 0. -1.
         11    1    3    3    0    0 -0.14197071784E+02 -0.30037120790E+02 -0.23064800001E+01  0.33303232918E+02  0.51100000000E-03 0. -1.
        -11    1    3    3    0    0  0.68127505050E+01 -0.23281503765E+01  0.14747177788E+02  0.16410761914E+02  0.51100000000E-03 0.  1.
         12    1    3    3    0    0  0.76969387684E+01  0.21244512924E+02  0.26228569772E+01  0.22747561946E+02  0.00000000000E+00 0. -1.
</event>
<event>
 7    1  0.1345786E-013  0.7246158E+02  0.7816164E-02  0.1226708E+00
        -11   -1    0    0    0    0  0.00000000000E+00  0.00000000000E+00  0.45593999997E+02  0.45594000000E+02  0.51100000000E-03 0.  1.
         11   -1    0    0    0    0 -0.00000000000E+00 -0.00000000000E+00 -0.45593999997E+02  0.45594000000E+02  0.51100000000E-03 0. -1.
    9900012    2    1    2    0    0 -0.74169997711E+01  0.15216951181E+02  0.80069612246E+01  0.72461577039E+02  0.70000008786E+02 0.  0.
         12    1    1    2    0    0  0.74169997711E+01 -0.15216951181E+02 -0.80069612246E+01  0.18726422961E+02  0.00000000000E+00 0. -1.
         11    1    3    3    0    0 -0.27661664026E+02  0.54915277947E+01 -0.56339721883E+01  0.28758758267E+02  0.51100000000E-03 0. -1.
        -11    1    3    3    0    0  0.15095648458E+02  0.22223168040E+02  0.41437409644E+01  0.27183053353E+02  0.51100000000E-03 0.  1.
         12    1    3    3    0    0  0.51490157962E+01 -0.12497744654E+02  0.94971924485E+01  0.16519765419E+02  0.00000000000E+00 0. -1.
</event>
<event>
 7    1  0.1345786E-013  0.7246154E+02  0.7816164E-02  0.1226708E+00
        -11   -1    0    0    0    0  0.00000000000E+00  0.00000000000E+00  0.45593999997E+02  0.45594000000E+02  0.51100000000E-03 0.  1.
         11   -1    0    0    0    0 -0.00000000000E+00 -0.00000000000E+00 -0.45593999997E+02  0.45594000000E+02  0.51100000000E-03 0. -1.
    9900012    2    1    2    0    0  0.39979472327E+01  0.74501830668E+01  0.16709029268E+02  0.72461535601E+02  0.69999954806E+02 0.  0.
         12    1    1    2    0    0 -0.39979472327E+01 -0.74501830668E+01 -0.16709029268E+02  0.18726464399E+02  0.00000000000E+00 0. -1.
         11    1    3    3    0    0 -0.26122048068E+01 -0.95560387828E+01 -0.90437113598E+01  0.13413806566E+02  0.51100000000E-03 0. -1.
        -11    1    3    3    0    0 -0.17780907464E+02  0.10206595518E+02  0.26754685957E+02  0.33706801736E+02  0.51100000000E-03 0.  1.
        -12    1    3    3    0    0  0.24391059504E+02  0.67996263317E+01 -0.10019453300E+01  0.25340927300E+02  0.00000000000E+00 0.  1.
</event>
<event>
 7    1  0.1345786E-013  0.7246155E+02  0.7816164E-02  0.1226708E+00
        -11   -1    0    0    0    0  0.00000000000E+00  0.00000000000E+00  0.45593999997E+02  0.45594000000E+02  0.51100000000E-03 0.  1.
         11   -1    0    0    0    0 -0.00000000000E+00 -0.00000000000E+00 -0.45593999997E+02  0.45594000000E+02  0.51100000000E-03 0. -1.
    9900012    2    1    2    0    0  0.98114601388E+01  0.77085528859E+01  0.13964000022E+02  0.72461552545E+02  0.69999976879E+02 0.  0.
         12    1    1    2    0    0 -0.98114601388E+01 -0.77085528859E+01 -0.13964000022E+02  0.18726447455E+02  0.00000000000E+00 0. -1.
         11    1    3    3    0    0  0.43655598902E+01  0.94434093186E+01 -0.16774339673E+02  0.19738656602E+02  0.51100000000E-03 0. -1.
        -11    1    3    3    0    0  0.41829531519E+01 -0.11250682195E+02  0.38531919746E+02  0.40358193549E+02  0.51100000000E-03 0.  1.
        -12    1    3    3    0    0  0.12629470968E+01  0.95158257623E+01 -0.77935800506E+01  0.12364702395E+02  0.00000000000E+00 0.  1.
</event>
<event>
 7    1  0.1345786E-013  0.7246186E+02  0.7816164E-02  0.1226707E+00
        -11   -1    0    0    0    0  0.00000000000E+00  0.00000000000E+00  0.45593999997E+02  0.45594000000E+02  0.51100000000E-03 0. -1.
         11   -1    0    0    0    0 -0.00000000000E+00 -0.00000000000E+00 -0.45593999997E+02  0.45594000000E+02  0.51100000000E-03 0.  1.
    9900012    2    1    2    0    0  0.12094483473E+02  0.38450516454E+01 -0.13769794752E+02  0.72461863181E+02  0.70000381539E+02 0.  0.
         12    1    1    2    0    0 -0.12094483473E+02 -0.38450516454E+01  0.13769794752E+02  0.18726136819E+02  0.00000000000E+00 0. -1.
         11    1    3    3    0    0 -0.22610091654E+02 -0.25141822852E+01  0.75073583499E+01  0.23956163858E+02  0.51100000000E-03 0. -1.
        -11    1    3    3    0    0  0.13362095312E+02  0.14947132597E+02 -0.13706905457E+02  0.24286655214E+02  0.51100000000E-03 0.  1.
         12    1    3    3    0    0  0.21342479815E+02 -0.85878986667E+01 -0.75702476448E+01  0.24219044109E+02  0.00000000000E+00 0. -1.
</event>
<event>
 7    1  0.1345786E-013  0.7246154E+02  0.7816164E-02  0.1226708E+00
        -11   -1    0    0    0    0  0.00000000000E+00  0.00000000000E+00  0.45593999997E+02  0.45594000000E+02  0.51100000000E-03 0. -1.
         11   -1    0    0    0    0 -0.00000000000E+00 -0.00000000000E+00 -0.45593999997E+02  0.45594000000E+02  0.51100000000E-03 0.  1.
    9900012    2    1    2    0    0  0.42186258665E+00 -0.76225673138E+01 -0.17099669438E+02  0.72461542904E+02  0.69999964318E+02 0.  0.
         12    1    1    2    0    0 -0.42186258665E+00  0.76225673138E+01  0.17099669438E+02  0.18726457096E+02  0.00000000000E+00 0. -1.
         11    1    3    3    0    0 -0.36857469298E+00 -0.77233907373E+01  0.20456009902E+02  0.21868583703E+02  0.51100000000E-03 0. -1.
        -11    1    3    3    0    0  0.13328531281E+01  0.12061943068E+02 -0.36625350402E+02  0.38583458377E+02  0.51100000000E-03 0.  1.
        -12    1    3    3    0    0 -0.54241584848E+00 -0.11961119644E+02 -0.93032893877E+00  0.12009500824E+02  0.00000000000E+00 0.  1.
</event>
<event>
 7    1  0.1345786E-013  0.7246168E+02  0.7816164E-02  0.1226708E+00
        -11   -1    0    0    0    0  0.00000000000E+00  0.00000000000E+00  0.45593999997E+02  0.45594000000E+02  0.51100000000E-03 0. -1.
         11   -1    0    0    0    0 -0.00000000000E+00 -0.00000000000E+00 -0.45593999997E+02  0.45594000000E+02  0.51100000000E-03 0.  1.
    9900012    2    1    2    0    0 -0.14450761859E+02 -0.98696517761E+00 -0.11869138339E+02  0.72461679927E+02  0.70000142817E+02 0.  0.
         12    1    1    2    0    0  0.14450761859E+02  0.98696517761E+00  0.11869138339E+02  0.18726320073E+02  0.00000000000E+00 0. -1.
         11    1    3    3    0    0  0.17612706757E+01 -0.22855856610E+02 -0.17462775337E+01  0.22990035695E+02  0.51100000000E-03 0. -1.
        -11    1    3    3    0    0 -0.12844578702E+02 -0.44054281271E+01 -0.17332956721E+02  0.22018682703E+02  0.51100000000E-03 0.  1.
         12    1    3    3    0    0 -0.33674538330E+01  0.26274319559E+02  0.72100959161E+01  0.27452961529E+02  0.00000000000E+00 0. -1.
</event>
<event>
 7    1  0.1345786E-013  0.7246139E+02  0.7816164E-02  0.1226709E+00
        -11   -1    0    0    0    0  0.00000000000E+00  0.00000000000E+00  0.45593999997E+02  0.45594000000E+02  0.51100000000E-03 0. -1.
         11   -1    0    0    0    0 -0.00000000000E+00 -0.00000000000E+00 -0.45593999997E+02  0.45594000000E+02  0.51100000000E-03 0.  1.
    9900012    2    1    2    0    0  0.17376774871E+02  0.64841153124E+01 -0.25865020941E+01  0.72461386602E+02  0.69999760706E+02 0.  0.
         12    1    1    2    0    0 -0.17376774871E+02 -0.64841153124E+01  0.25865020941E+01  0.18726613398E+02  0.00000000000E+00 0. -1.
         11    1    3    3    0    0  0.20819555287E+02  0.80261030213E+00  0.11163000436E+02  0.23637060829E+02  0.51100000000E-03 0. -1.
        -11    1    3    3    0    0 -0.13506092570E+02  0.19678922726E+02 -0.19319970987E+02  0.30707259978E+02  0.51100000000E-03 0.  1.
         12    1    3    3    0    0  0.10063312154E+02 -0.13997417715E+02  0.55704684562E+01  0.18117065795E+02  0.00000000000E+00 0. -1.
</event>
<event>
 7    1  0.1345786E-013  0.7246158E+02  0.7816164E-02  0.1226708E+00
        -11   -1    0    0    0    0  0.00000000000E+00  0.00000000000E+00  0.45593999997E+02  0.45594000000E+02  0.51100000000E-03 0. -1.
         11   -1    0    0    0    0 -0.00000000000E+00 -0.00000000000E+00 -0.45593999997E+02  0.45594000000E+02  0.51100000000E-03 0.  1.
    9900012    2    1    2    0    0  0.16590366827E+02  0.41269346476E+01 -0.76424385878E+01  0.72461582067E+02  0.70000015335E+02 0.  0.
         12    1    1    2    0    0 -0.16590366827E+02 -0.41269346476E+01  0.76424385878E+01  0.18726417933E+02  0.00000000000E+00 0. -1.
         11    1    3    3    0    0 -0.81851041731E+01 -0.23874659793E+01 -0.56475512934E+01  0.10226962403E+02  0.51100000000E-03 0. -1.
        -11    1    3    3    0    0 -0.20544080045E+01  0.24061373612E+02  0.12337882996E+02  0.27118142440E+02  0.51100000000E-03 0.  1.
        -12    1    3    3    0    0  0.26829879005E+02 -0.17546972985E+02 -0.14332770290E+02  0.35116477223E+02  0.00000000000E+00 0.  1.
</event>
<event>
 7    1  0.1345786E-013  0.7246157E+02  0.7816164E-02  0.1226708E+00
        -11   -1    0    0    0    0  0.00000000000E+00  0.00000000000E+00  0.45593999997E+02  0.45594000000E+02  0.51100000000E-03 0. -1.
         11   -1    0    0    0    0 -0.00000000000E+00 -0.00000000000E+00 -0.45593999997E+02  0.45594000000E+02  0.51100000000E-03 0.  1.
    9900012    2    1    2    0    0 -0.98895360453E+01  0.15338701300E+01 -0.15827934985E+02  0.72461569303E+02  0.69999998709E+02 0.  0.
         12    1    1    2    0    0  0.98895360453E+01 -0.15338701300E+01  0.15827934985E+02  0.18726430697E+02  0.00000000000E+00 0. -1.
         11    1    3    3    0    0  0.14951031721E+02 -0.81161889831E+01 -0.27309194150E+01  0.17229735757E+02  0.51100000000E-03 0. -1.
        -11    1    3    3    0    0 -0.29084425223E+02  0.17683224270E+02 -0.23543609621E+02  0.41387217415E+02  0.51100000000E-03 0.  1.
        -12    1    3    3    0    0  0.42438574563E+01 -0.80331651568E+01  0.10446594051E+02  0.13844616131E+02  0.00000000000E+00 0.  1.
</event>
<event>
 7    1  0.1345786E-013  0.7246154E+02  0.7816164E-02  0.1226708E+00
        -11   -1    0    0    0    0  0.00000000000E+00  0.00000000000E+00  0.45593999997E+02  0.45594000000E+02  0.51100000000E-03 0. -1.
         11   -1    0    0    0    0 -0.00000000000E+00 -0.00000000000E+00 -0.45593999997E+02  0.45594000000E+02  0.51100000000E-03 0.  1.
    9900012    2    1    2    0    0  0.15419930063E+02 -0.10613836520E+02 -0.50270592493E+00  0.72461535249E+02  0.69999954347E+02 0.  0.
         12    1    1    2    0    0 -0.15419930063E+02  0.10613836520E+02  0.50270592493E+00  0.18726464751E+02  0.00000000000E+00 0. -1.
         11    1    3    3    0    0 -0.42660014908E+01 -0.84468903346E+01 -0.69819343876E+01  0.11759937632E+02  0.51100000000E-03 0. -1.
        -11    1    3    3    0    0  0.81038537321E+01  0.24017668846E+02 -0.10474442408E+02  0.27426899317E+02  0.51100000000E-03 0.  1.
        -12    1    3    3    0    0  0.11582077821E+02 -0.26184615032E+02  0.16953670871E+02  0.33274698301E+02  0.00000000000E+00 0.  1.
</event>
<event>
 7    1  0.1345786E-013  0.7246154E+02  0.7816164E-02  0.1226708E+00
        -11   -1    0    0    0    0  0.00000000000E+00  0.00000000000E+00  0.45593999997E+02  0.45594000000E+02  0.51100000000E-03 0.  1.
         11   -1    0    0    0    0 -0.00000000000E+00 -0.00000000000E+00 -0.45593999997E+02  0.45594000000E+02  0.51100000000E-03 0. -1.
    9900012    2    1    2    0    0  0.10193947766E+02  0.14117532382E+02 -0.68890410162E+01  0.72461543374E+02  0.69999964932E+02 0.  0.
         12    1    1    2    0    0 -0.10193947766E+02 -0.14117532382E+02  0.68890410162E+01  0.18726456626E+02  0.00000000000E+00 0. -1.
         11    1    3    3    0    0  0.98389719748E+01  0.17031438191E+00 -0.22118862306E+02  0.24209057117E+02  0.51100000000E-03 0. -1.
        -11    1    3    3    0    0  0.14361535639E+02  0.10035828821E+02  0.25148230728E+02  0.30649715741E+02  0.51100000000E-03 0.  1.
        -12    1    3    3    0    0 -0.14006559847E+02  0.39113891794E+01 -0.99184094377E+01  0.17602770516E+02  0.00000000000E+00 0.  1.
</event>
<event>
 7    1  0.1345786E-013  0.7246158E+02  0.7816164E-02  0.1226708E+00
        -11   -1    0    0    0    0  0.00000000000E+00  0.00000000000E+00  0.45593999997E+02  0.45594000000E+02  0.51100000000E-03 0. -1.
         11   -1    0    0    0    0 -0.00000000000E+00 -0.00000000000E+00 -0.45593999997E+02  0.45594000000E+02  0.51100000000E-03 0.  1.
    9900012    2    1    2    0    0 -0.16978722366E+02  0.74805825874E+01 -0.25382794537E+01  0.72461575045E+02  0.70000006188E+02 0.  0.
         12    1    1    2    0    0  0.16978722366E+02 -0.74805825874E+01  0.25382794537E+01  0.18726424955E+02  0.00000000000E+00 0. -1.
         11    1    3    3    0    0 -0.28362596307E+02  0.14798963340E+02 -0.22889735662E+02  0.39336829870E+02  0.51100000000E-03 0. -1.
        -11    1    3    3    0    0  0.56701494454E+01 -0.13602313427E+02  0.19706199566E+02  0.24607068637E+02  0.51100000000E-03 0.  1.
        -12    1    3    3    0    0  0.57137244964E+01  0.62839326747E+01  0.64525664277E+00  0.85176765386E+01  0.00000000000E+00 0.  1.
</event>
<event>
 7    1  0.1345786E-013  0.7246168E+02  0.7816164E-02  0.1226708E+00
        -11   -1    0    0    0    0  0.00000000000E+00  0.00000000000E+00  0.45593999997E+02  0.45594000000E+02  0.51100000000E-03 0. -1.
         11   -1    0    0    0    0 -0.00000000000E+00 -0.00000000000E+00 -0.45593999997E+02  0.45594000000E+02  0.51100000000E-03 0.  1.
    9900012    2    1    2    0    0  0.69804454067E+01  0.66344784563E+01  0.16060264622E+02  0.72461681029E+02  0.70000144252E+02 0.  0.
         12    1    1    2    0    0 -0.69804454067E+01 -0.66344784563E+01 -0.16060264622E+02  0.18726318971E+02  0.00000000000E+00 0. -1.
         11    1    3    3    0    0 -0.16844178471E+02 -0.54851967039E+00  0.96007277536E+01  0.19395906677E+02  0.51100000000E-03 0. -1.
        -11    1    3    3    0    0  0.24518670678E+02 -0.11917508547E+02 -0.87588074607E+01  0.28634051934E+02  0.51100000000E-03 0.  1.
         12    1    3    3    0    0 -0.69404680047E+00  0.19100506674E+02  0.15218344330E+02  0.24431722417E+02  0.00000000000E+00 0. -1.
</event>
<event>
 7    1  0.1345786E-013  0.7246157E+02  0.7816164E-02  0.1226708E+00
        -11   -1    0    0    0    0  0.00000000000E+00  0.00000000000E+00  0.45593999997E+02  0.45594000000E+02  0.51100000000E-03 0. -1.
         11   -1    0    0    0    0 -0.00000000000E+00 -0.00000000000E+00 -0.45593999997E+02  0.45594000000E+02  0.51100000000E-03 0.  1.
    9900012    2    1    2    0    0 -0.18426363773E+01  0.17451640410E+02 -0.65363800858E+01  0.72461566104E+02  0.69999994542E+02 0.  0.
         12    1    1    2    0    0  0.18426363773E+01 -0.17451640410E+02  0.65363800858E+01  0.18726433896E+02  0.00000000000E+00 0. -1.
         11    1    3    3    0    0  0.58740757619E+01  0.33194147287E+02 -0.20241937053E+02  0.39320378891E+02  0.51100000000E-03 0.  1.
        -11    1    3    3    0    0  0.82939503556E+01 -0.76098725076E+01  0.94234149448E+01  0.14679936020E+02  0.51100000000E-03 0. -1.
         12    1    3    3    0    0 -0.16010662495E+02 -0.81326343696E+01  0.42821420224E+01  0.18461251193E+02  0.00000000000E+00 0. -1.
</event>
<event>
 7    1  0.1345786E-013  0.7246173E+02  0.7816164E-02  0.1226708E+00
        -11   -1    0    0    0    0  0.00000000000E+00  0.00000000000E+00  0.45593999997E+02  0.45594000000E+02  0.51100000000E-03 0. -1.
         11   -1    0    0    0    0 -0.00000000000E+00 -0.00000000000E+00 -0.45593999997E+02  0.45594000000E+02  0.51100000000E-03 0.  1.
    9900012    2    1    2    0    0 -0.17628223185E+02 -0.40108662830E+01 -0.48817741707E+01  0.72461734487E+02  0.70000213891E+02 0.  0.
         12    1    1    2    0    0  0.17628223185E+02  0.40108662830E+01  0.48817741707E+01  0.18726265513E+02  0.00000000000E+00 0. -1.
         11    1    3    3    0    0 -0.19977353829E+02 -0.19466032702E+02 -0.12445346459E+02  0.30543538497E+02  0.51100000000E-03 0. -1.
        -11    1    3    3    0    0 -0.30605566509E+01  0.13758762903E+02 -0.13853549913E+02  0.19763385567E+02  0.51100000000E-03 0.  1.
         12    1    3    3    0    0  0.54096872948E+01  0.16964035158E+01  0.21417122201E+02  0.22154810423E+02  0.00000000000E+00 0. -1.
</event>
<event>
 7    1  0.1345786E-013  0.7246155E+02  0.7816164E-02  0.1226708E+00
        -11   -1    0    0    0    0  0.00000000000E+00  0.00000000000E+00  0.45593999997E+02  0.45594000000E+02  0.51100000000E-03 0.  1.
         11   -1    0    0    0    0 -0.00000000000E+00 -0.00000000000E+00 -0.45593999997E+02  0.45594000000E+02  0.51100000000E-03 0. -1.
    9900012    2    1    2    0    0 -0.11969929947E+02 -0.14197665649E+02 -0.24139231331E+01  0.72461549250E+02  0.69999972585E+02 0.  0.
         12    1    1    2    0    0  0.11969929947E+02  0.14197665649E+02  0.24139231331E+01  0.18726450750E+02  0.00000000000E+00 0. -1.
         11    1    3    3    0    0 -0.12203842622E+02  0.69479007584E+01 -0.12152035862E+02  0.18570920159E+02  0.51100000000E-03 0.  1.
        -11    1    3    3    0    0  0.61338140063E+01 -0.26470121670E+02  0.24846820152E+02  0.36819227143E+02  0.51100000000E-03 0. -1.
         12    1    3    3    0    0 -0.58999013309E+01  0.53245552625E+01 -0.15108707423E+02  0.17071401947E+02  0.00000000000E+00 0. -1.
</event>
<event>
 7    1  0.1345786E-013  0.7246151E+02  0.7816164E-02  0.1226708E+00
        -11   -1    0    0    0    0  0.00000000000E+00  0.00000000000E+00  0.45593999997E+02  0.45594000000E+02  0.51100000000E-03 0.  1.
         11   -1    0    0    0    0 -0.00000000000E+00 -0.00000000000E+00 -0.45593999997E+02  0.45594000000E+02  0.51100000000E-03 0. -1.
    9900012    2    1    2    0    0 -0.10223302892E+02  0.11036646824E+00  0.15689269718E+02  0.72461513756E+02  0.69999926348E+02 0.  0.
         12    1    1    2    0    0  0.10223302892E+02 -0.11036646824E+00 -0.15689269718E+02  0.18726486244E+02  0.00000000000E+00 0. -1.
         11    1    3    3    0    0 -0.12105828883E+02 -0.24753532627E+02  0.12528252350E+02  0.30269548687E+02  0.51100000000E-03 0. -1.
        -11    1    3    3    0    0 -0.11963114790E+02  0.24879746036E+02 -0.13234480123E+01  0.27638187227E+02  0.51100000000E-03 0.  1.
         12    1    3    3    0    0  0.13845640781E+02 -0.15846939993E-01  0.44844653797E+01  0.14553777843E+02  0.00000000000E+00 0. -1.
</event>
<event>
 7    1  0.1345786E-013  0.7246158E+02  0.7816164E-02  0.1226708E+00
        -11   -1    0    0    0    0  0.00000000000E+00  0.00000000000E+00  0.45593999997E+02  0.45594000000E+02  0.51100000000E-03 0. -1.
         11   -1    0    0    0    0 -0.00000000000E+00 -0.00000000000E+00 -0.45593999997E+02  0.45594000000E+02  0.51100000000E-03 0.  1.
    9900012    2    1    2    0    0  0.42456171308E+01  0.39065299072E+01 -0.17815514151E+02  0.72461580556E+02  0.70000013368E+02 0.  0.
         12    1    1    2    0    0 -0.42456171308E+01 -0.39065299072E+01  0.17815514151E+02  0.18726419444E+02  0.00000000000E+00 0. -1.
         11    1    3    3    0    0  0.13314145765E+02 -0.12033318799E+02  0.12381320930E+02  0.21802851809E+02  0.51100000000E-03 0. -1.
        -11    1    3    3    0    0 -0.11780167888E+02 -0.25921625056E+01 -0.29551376838E+02  0.31918263349E+02  0.51100000000E-03 0.  1.
         12    1    3    3    0    0  0.27116392543E+01  0.18532011212E+02 -0.64545824243E+00  0.18740465398E+02  0.00000000000E+00 0. -1.
</event>
<event>
 7    1  0.1345786E-013  0.7246168E+02  0.7816164E-02  0.1226708E+00
        -11   -1    0    0    0    0  0.00000000000E+00  0.00000000000E+00  0.45593999997E+02  0.45594000000E+02  0.51100000000E-03 0. -1.
         11   -1    0    0    0    0 -0.00000000000E+00 -0.00000000000E+00 -0.45593999997E+02  0.45594000000E+02  0.51100000000E-03 0.  1.
    9900012    2    1    2    0    0  0.94735732132E+01 -0.20337532155E+01  0.16024675758E+02  0.72461682297E+02  0.70000145904E+02 0.  0.
         12    1    1    2    0    0 -0.94735732132E+01  0.20337532155E+01 -0.16024675758E+02  0.18726317703E+02  0.00000000000E+00 0. -1.
         11    1    3    3    0    0  0.15231662947E+02 -0.13695348898E+01  0.19279682954E+02  0.24608643949E+02  0.51100000000E-03 0. -1.
        -11    1    3    3    0    0 -0.24097244206E+02  0.94524967752E+01  0.28386963787E+01  0.26040066647E+02  0.51100000000E-03 0.  1.
        -12    1    3    3    0    0  0.18339154472E+02 -0.10116715101E+02 -0.60937035745E+01  0.21812971701E+02  0.00000000000E+00 0.  1.
</event>
<event>
 7    1  0.1345786E-013  0.7246157E+02  0.7816164E-02  0.1226708E+00
        -11   -1    0    0    0    0  0.00000000000E+00  0.00000000000E+00  0.45593999997E+02  0.45594000000E+02  0.51100000000E-03 0.  1.
         11   -1    0    0    0    0 -0.00000000000E+00 -0.00000000000E+00 -0.45593999997E+02  0.45594000000E+02  0.51100000000E-03 0. -1.
    9900012    2    1    2    0    0 -0.51249754432E+01 -0.10701791362E+02  0.14487430317E+02  0.72461565507E+02  0.69999993763E+02 0.  0.
         12    1    1    2    0    0  0.51249754432E+01  0.10701791362E+02 -0.14487430317E+02  0.18726434493E+02  0.00000000000E+00 0. -1.
         11    1    3    3    0    0 -0.10832800994E+02  0.19504414792E+02 -0.12548754170E+02  0.25597714844E+02  0.51100000000E-03 0. -1.
        -11    1    3    3    0    0  0.74254116598E+00 -0.32502572364E+02  0.25055761139E+02  0.41045824930E+02  0.51100000000E-03 0.  1.
         12    1    3    3    0    0  0.49652843847E+01  0.22963662102E+01  0.19804233474E+01  0.58180257328E+01  0.00000000000E+00 0. -1.
</event>
<event>
 7    1  0.1345786E-013  0.7246151E+02  0.7816164E-02  0.1226708E+00
        -11   -1    0    0    0    0  0.00000000000E+00  0.00000000000E+00  0.45593999997E+02  0.45594000000E+02  0.51100000000E-03 0.  1.
         11   -1    0    0    0    0 -0.00000000000E+00 -0.00000000000E+00 -0.45593999997E+02  0.45594000000E+02  0.51100000000E-03 0. -1.
    9900012    2    1    2    0    0 -0.46987752056E+01 -0.16364491913E+02  0.77978304045E+01  0.72461514931E+02  0.69999927880E+02 0.  0.
         12    1    1    2    0    0  0.46987752056E+01  0.16364491913E+02 -0.77978304045E+01  0.18726485069E+02  0.00000000000E+00 0. -1.
         11    1    3    3    0    0 -0.22582575389E+02 -0.23726875422E+02 -0.13057492333E+02  0.35262379879E+02  0.51100000000E-03 0.  1.
        -11    1    3    3    0    0  0.12977698106E+02  0.14317240776E+02  0.62759883707E+01  0.20317284805E+02  0.51100000000E-03 0. -1.
        -12    1    3    3    0    0  0.49061020766E+01 -0.69548572669E+01  0.14579334367E+02  0.16881850247E+02  0.00000000000E+00 0.  1.
</event>
<event>
 7    1  0.1345786E-013  0.7246147E+02  0.7816164E-02  0.1226708E+00
        -11   -1    0    0    0    0  0.00000000000E+00  0.00000000000E+00  0.45593999997E+02  0.45594000000E+02  0.51100000000E-03 0.  1.
         11   -1    0    0    0    0 -0.00000000000E+00 -0.00000000000E+00 -0.45593999997E+02  0.45594000000E+02  0.51100000000E-03 0. -1.
    9900012    2    1    2    0    0  0.17347411315E+02 -0.46271025286E+01 -0.53235428614E+01  0.72461471605E+02  0.69999871438E+02 0.  0.
         12    1    1    2    0    0 -0.17347411315E+02  0.46271025286E+01  0.53235428614E+01  0.18726528395E+02  0.00000000000E+00 0. -1.
         11    1    3    3    0    0  0.20285698811E+02 -0.30832214349E+01 -0.10345668556E+02  0.22979310016E+02  0.51100000000E-03 0. -1.
        -11    1    3    3    0    0 -0.41419307440E+01  0.18777113346E+02  0.17168009924E+02  0.25777434723E+02  0.51100000000E-03 0.  1.
        -12    1    3    3    0    0  0.12036432479E+01 -0.20320994440E+02 -0.12145884229E+02  0.23704726866E+02  0.00000000000E+00 0.  1.
</event>
<event>
 7    1  0.1345786E-013  0.7246158E+02  0.7816164E-02  0.1226708E+00
        -11   -1    0    0    0    0  0.00000000000E+00  0.00000000000E+00  0.45593999997E+02  0.45594000000E+02  0.51100000000E-03 0. -1.
         11   -1    0    0    0    0 -0.00000000000E+00 -0.00000000000E+00 -0.45593999997E+02  0.45594000000E+02  0.51100000000E-03 0.  1.
    9900012    2    1    2    0    0 -0.69695228739E+01 -0.70363790736E+00 -0.17366907704E+02  0.72461579130E+02  0.70000011511E+02 0.  0.
         12    1    1    2    0    0  0.69695228739E+01  0.70363790736E+00  0.17366907704E+02  0.18726420870E+02  0.00000000000E+00 0. -1.
         11    1    3    3    0    0 -0.34681175498E+02  0.80944766332E+01 -0.20323608282E+02  0.41004311234E+02  0.51100000000E-03 0. -1.
        -11    1    3    3    0    0  0.19268124454E+02 -0.73237179966E+00 -0.47069064578E+00  0.19287782101E+02  0.51100000000E-03 0.  1.
         12    1    3    3    0    0  0.84435281708E+01 -0.80657427409E+01  0.34273912237E+01  0.12169485796E+02  0.00000000000E+00 0. -1.
</event>
<event>
 7    1  0.1345786E-013  0.7246161E+02  0.7816164E-02  0.1226708E+00
        -11   -1    0    0    0    0  0.00000000000E+00  0.00000000000E+00  0.45593999997E+02  0.45594000000E+02  0.51100000000E-03 0.  1.
         11   -1    0    0    0    0 -0.00000000000E+00 -0.00000000000E+00 -0.45593999997E+02  0.45594000000E+02  0.51100000000E-03 0. -1.
    9900012    2    1    2    0    0 -0.24553101626E+01 -0.16808625790E+02  0.78815646529E+01  0.72461614595E+02  0.70000057710E+02 0.  0.
         12    1    1    2    0    0  0.24553101626E+01  0.16808625790E+02 -0.78815646529E+01  0.18726385405E+02  0.00000000000E+00 0. -1.
         11    1    3    3    0    0  0.69596360225E+00 -0.30753147698E+02 -0.14646441309E+02  0.34069909039E+02  0.51100000000E-03 0. -1.
        -11    1    3    3    0    0  0.11552514427E+02  0.79532068082E+01  0.53802910638E+01  0.15022037822E+02  0.51100000000E-03 0.  1.
         12    1    3    3    0    0 -0.14703788192E+02  0.59913150993E+01  0.17147714898E+02  0.23369667735E+02  0.00000000000E+00 0. -1.
</event>
<event>
 7    1  0.1345786E-013  0.7246152E+02  0.7816164E-02  0.1226708E+00
        -11   -1    0    0    0    0  0.00000000000E+00  0.00000000000E+00  0.45593999997E+02  0.45594000000E+02  0.51100000000E-03 0. -1.
         11   -1    0    0    0    0 -0.00000000000E+00 -0.00000000000E+00 -0.45593999997E+02  0.45594000000E+02  0.51100000000E-03 0.  1.
    9900012    2    1    2    0    0 -0.48289753101E+01 -0.71485616627E+00 -0.18079026252E+02  0.72461515757E+02  0.69999928955E+02 0.  0.
         12    1    1    2    0    0  0.48289753101E+01  0.71485616627E+00  0.18079026252E+02  0.18726484243E+02  0.00000000000E+00 0. -1.
         11    1    3    3    0    0  0.38443340274E+01  0.97092512250E+01  0.21222028925E+01  0.10656087877E+02  0.51100000000E-03 0. -1.
        -11    1    3    3    0    0  0.35234748109E+01 -0.32551130572E+02 -0.14981059310E+02  0.36005876111E+02  0.51100000000E-03 0.  1.
        -12    1    3    3    0    0 -0.12196784148E+02  0.22127023180E+02 -0.52201698343E+01  0.25799551769E+02  0.00000000000E+00 0.  1.
</event>
<event>
 7    1  0.1345786E-013  0.7246157E+02  0.7816164E-02  0.1226708E+00
        -11   -1    0    0    0    0  0.00000000000E+00  0.00000000000E+00  0.45593999997E+02  0.45594000000E+02  0.51100000000E-03 0.  1.
         11   -1    0    0    0    0 -0.00000000000E+00 -0.00000000000E+00 -0.45593999997E+02  0.45594000000E+02  0.51100000000E-03 0. -1.
    9900012    2    1    2    0    0 -0.52174978332E+01 -0.17828717968E+02 -0.23650907649E+01  0.72461571554E+02  0.70000001641E+02 0.  0.
         12    1    1    2    0    0  0.52174978332E+01  0.17828717968E+02  0.23650907649E+01  0.18726428446E+02  0.00000000000E+00 0. -1.
         11    1    3    3    0    0  0.78548290784E+01  0.24322206863E+02 -0.85704962375E+01  0.26957772396E+02  0.51100000000E-03 0. -1.
        -11    1    3    3    0    0 -0.11012958642E+02 -0.27379497688E+02  0.77435470798E+01  0.30510402707E+02  0.51100000000E-03 0.  1.
         12    1    3    3    0    0 -0.20593682695E+01 -0.14771427143E+02 -0.15381416071E+01  0.14993396450E+02  0.00000000000E+00 0. -1.
</event>
<event>
 7    1  0.1345786E-013  0.7246175E+02  0.7816164E-02  0.1226708E+00
        -11   -1    0    0    0    0  0.00000000000E+00  0.00000000000E+00  0.45593999997E+02  0.45594000000E+02  0.51100000000E-03 0.  1.
         11   -1    0    0    0    0 -0.00000000000E+00 -0.00000000000E+00 -0.45593999997E+02  0.45594000000E+02  0.51100000000E-03 0. -1.
    9900012    2    1    2    0    0 -0.18261573965E+02 -0.20857284909E+01 -0.35828928577E+01  0.72461749221E+02  0.70000233085E+02 0.  0.
         12    1    1    2    0    0  0.18261573965E+02  0.20857284909E+01  0.35828928577E+01  0.18726250779E+02  0.00000000000E+00 0. -1.
         11    1    3    3    0    0  0.13266542640E+02  0.10366713727E+01  0.14683417876E+02  0.19816119750E+02  0.51100000000E-03 0.  1.
        -11    1    3    3    0    0 -0.28847502517E+02  0.10212800559E+02 -0.93780461670E+00  0.30616322027E+02  0.51100000000E-03 0. -1.
         12    1    3    3    0    0 -0.26806140887E+01 -0.13335200422E+02 -0.17328506117E+02  0.22029307444E+02  0.00000000000E+00 0. -1.
</event>
<event>
 7    1  0.1345786E-013  0.7246155E+02  0.7816164E-02  0.1226708E+00
        -11   -1    0    0    0    0  0.00000000000E+00  0.00000000000E+00  0.45593999997E+02  0.45594000000E+02  0.51100000000E-03 0. -1.
         11   -1    0    0    0    0 -0.00000000000E+00 -0.00000000000E+00 -0.45593999997E+02  0.45594000000E+02  0.51100000000E-03 0.  1.
    9900012    2    1    2    0    0  0.31265844246E+01 -0.15178332523E+01 -0.18401102217E+02  0.72461550504E+02  0.69999974219E+02 0.  0.
         12    1    1    2    0    0 -0.31265844246E+01  0.15178332523E+01  0.18401102217E+02  0.18726449496E+02  0.00000000000E+00 0. -1.
         11    1    3    3    0    0  0.15010745745E+02 -0.98166241644E+01  0.20527018020E+02  0.27258889685E+02  0.51100000000E-03 0. -1.
        -11    1    3    3    0    0  0.10395451201E+01  0.28066230805E+01 -0.25820543104E+02  0.25993426739E+02  0.51100000000E-03 0.  1.
         12    1    3    3    0    0 -0.12923706440E+02  0.54921678315E+01 -0.13107577133E+02  0.19209234080E+02  0.00000000000E+00 0. -1.
</event>
<event>
 7    1  0.1345786E-013  0.7246160E+02  0.7816164E-02  0.1226708E+00
        -11   -1    0    0    0    0  0.00000000000E+00  0.00000000000E+00  0.45593999997E+02  0.45594000000E+02  0.51100000000E-03 0.  1.
         11   -1    0    0    0    0 -0.00000000000E+00 -0.00000000000E+00 -0.45593999997E+02  0.45594000000E+02  0.51100000000E-03 0. -1.
    9900012    2    1    2    0    0  0.30851526313E+01 -0.77082943867E+01  0.16785176562E+02  0.72461598281E+02  0.70000036458E+02 0.  0.
         12    1    1    2    0    0 -0.30851526313E+01  0.77082943867E+01 -0.16785176562E+02  0.18726401719E+02  0.00000000000E+00 0. -1.
         11    1    3    3    0    0 -0.13053351552E+02  0.48645462564E+01 -0.11299153578E+02  0.17936685002E+02  0.51100000000E-03 0. -1.
        -11    1    3    3    0    0  0.28652377416E+02 -0.14569627515E+02  0.12622157502E+02  0.34533340959E+02  0.51100000000E-03 0.  1.
        -12    1    3    3    0    0 -0.12513873233E+02  0.19967868720E+01  0.15462172638E+02  0.19991572319E+02  0.00000000000E+00 0.  1.
</event>
<event>
 7    1  0.1345786E-013  0.7246164E+02  0.7816164E-02  0.1226708E+00
        -11   -1    0    0    0    0  0.00000000000E+00  0.00000000000E+00  0.45593999997E+02  0.45594000000E+02  0.51100000000E-03 0.  1.
         11   -1    0    0    0    0 -0.00000000000E+00 -0.00000000000E+00 -0.45593999997E+02  0.45594000000E+02  0.51100000000E-03 0. -1.
    9900012    2    1    2    0    0  0.32092842514E+00  0.18087035401E+02  0.48407248423E+01  0.72461642595E+02  0.70000094185E+02 0.  0.
         12    1    1    2    0    0 -0.32092842514E+00 -0.18087035401E+02 -0.48407248423E+01  0.18726357405E+02  0.00000000000E+00 0. -1.
         11    1    3    3    0    0  0.64489968898E+01 -0.84642633586E+01 -0.11676735743E+02  0.15798084471E+02  0.51100000000E-03 0. -1.
        -11    1    3    3    0    0 -0.12851225391E+02  0.96862553228E+01  0.30003679467E+02  0.34047001602E+02  0.51100000000E-03 0.  1.
        -12    1    3    3    0    0  0.67231569259E+01  0.16865043437E+02 -0.13486218882E+02  0.22616556522E+02  0.00000000000E+00 0.  1.
</event>
<event>
 7    1  0.1345786E-013  0.7246163E+02  0.7816164E-02  0.1226708E+00
        -11   -1    0    0    0    0  0.00000000000E+00  0.00000000000E+00  0.45593999997E+02  0.45594000000E+02  0.51100000000E-03 0. -1.
         11   -1    0    0    0    0 -0.00000000000E+00 -0.00000000000E+00 -0.45593999997E+02  0.45594000000E+02  0.51100000000E-03 0.  1.
    9900012    2    1    2    0    0 -0.74885559804E+01 -0.12596356672E+02 -0.11658916695E+02  0.72461627939E+02  0.70000075093E+02 0.  0.
         12    1    1    2    0    0  0.74885559804E+01  0.12596356672E+02  0.11658916695E+02  0.18726372061E+02  0.00000000000E+00 0. -1.
         11    1    3    3    0    0  0.23927337331E+02 -0.35943516881E+01  0.82033442417E+01  0.25548614303E+02  0.51100000000E-03 0. -1.
        -11    1    3    3    0    0 -0.19834185689E+02 -0.82644651223E+01  0.25862158135E+01  0.21642199939E+02  0.51100000000E-03 0.  1.
         12    1    3    3    0    0 -0.11581707622E+02 -0.73753986153E+00 -0.22448476750E+02  0.25270813697E+02  0.00000000000E+00 0. -1.
</event>
<event>
 7    1  0.1345786E-013  0.7246151E+02  0.7816164E-02  0.1226708E+00
        -11   -1    0    0    0    0  0.00000000000E+00  0.00000000000E+00  0.45593999997E+02  0.45594000000E+02  0.51100000000E-03 0.  1.
         11   -1    0    0    0    0 -0.00000000000E+00 -0.00000000000E+00 -0.45593999997E+02  0.45594000000E+02  0.51100000000E-03 0. -1.
    9900012    2    1    2    0    0 -0.51578961317E+01 -0.17642841312E+02 -0.35788038054E+01  0.72461505968E+02  0.69999916202E+02 0.  0.
         12    1    1    2    0    0  0.51578961317E+01  0.17642841312E+02  0.35788038054E+01  0.18726494032E+02  0.00000000000E+00 0. -1.
         11    1    3    3    0    0  0.21789518408E+02 -0.57884760834E+01  0.83292279970E+00  0.22560658866E+02  0.51100000000E-03 0. -1.
        -11    1    3    3    0    0 -0.34381048071E+02 -0.52256854843E+00 -0.90855694867E+01  0.35565110958E+02  0.51100000000E-03 0.  1.
        -12    1    3    3    0    0  0.74336335306E+01 -0.11331796680E+02  0.46738428816E+01  0.14335736143E+02  0.00000000000E+00 0.  1.
</event>
<event>
 7    1  0.1345786E-013  0.7246176E+02  0.7816164E-02  0.1226707E+00
        -11   -1    0    0    0    0  0.00000000000E+00  0.00000000000E+00  0.45593999997E+02  0.45594000000E+02  0.51100000000E-03 0. -1.
         11   -1    0    0    0    0 -0.00000000000E+00 -0.00000000000E+00 -0.45593999997E+02  0.45594000000E+02  0.51100000000E-03 0.  1.
    9900012    2    1    2    0    0 -0.10165128262E+02  0.13818490991E+02 -0.75094211636E+01  0.72461763537E+02  0.70000251734E+02 0.  0.
         12    1    1    2    0    0  0.10165128262E+02 -0.13818490991E+02  0.75094211636E+01  0.18726236463E+02  0.00000000000E+00 0. -1.
         11    1    3    3    0    0 -0.15710944179E+02 -0.19480229594E+02  0.12940250802E+02  0.28173803491E+02  0.51100000000E-03 0. -1.
        -11    1    3    3    0    0 -0.18671011684E+01  0.31481710907E+02 -0.15087118886E+02  0.34960053560E+02  0.51100000000E-03 0.  1.
        -12    1    3    3    0    0  0.74129170858E+01  0.18170096781E+01 -0.53625530794E+01  0.93279064865E+01  0.00000000000E+00 0.  1.
</event>
<event>
 7    1  0.1345786E-013  0.7246161E+02  0.7816164E-02  0.1226708E+00
        -11   -1    0    0    0    0  0.00000000000E+00  0.00000000000E+00  0.45593999997E+02  0.45594000000E+02  0.51100000000E-03 0.  1.
         11   -1    0    0    0    0 -0.00000000000E+00 -0.00000000000E+00 -0.45593999997E+02  0.45594000000E+02  0.51100000000E-03 0. -1.
    9900012    2    1    2    0    0 -0.47325650233E+00  0.49173369355E+01  0.18063047575E+02  0.72461605207E+02  0.70000045480E+02 0.  0.
         12    1    1    2    0    0  0.47325650233E+00 -0.49173369355E+01 -0.18063047575E+02  0.18726394793E+02  0.00000000000E+00 0. -1.
         11    1    3    3    0    0  0.11983530222E+02  0.19188298438E+02  0.17395507314E+02  0.28537685059E+02  0.51100000000E-03 0. -1.
        -11    1    3    3    0    0 -0.19632881633E+02  0.60456230025E+01  0.65975876667E+01  0.21576092371E+02  0.51100000000E-03 0.  1.
         12    1    3    3    0    0  0.71760949090E+01 -0.20316584505E+02 -0.59300474060E+01  0.22347827777E+02  0.00000000000E+00 0. -1.
</event>
<event>
 7    1  0.1345786E-013  0.7246157E+02  0.7816164E-02  0.1226708E+00
        -11   -1    0    0    0    0  0.00000000000E+00  0.00000000000E+00  0.45593999997E+02  0.45594000000E+02  0.51100000000E-03 0.  1.
         11   -1    0    0    0    0 -0.00000000000E+00 -0.00000000000E+00 -0.45593999997E+02  0.45594000000E+02  0.51100000000E-03 0. -1.
    9900012    2    1    2    0    0 -0.12771065254E+02 -0.13669856618E+02  0.84513521183E+00  0.72461565710E+02  0.69999994029E+02 0.  0.
         12    1    1    2    0    0  0.12771065254E+02  0.13669856618E+02 -0.84513521183E+00  0.18726434290E+02  0.00000000000E+00 0. -1.
         11    1    3    3    0    0 -0.24551865833E+02  0.14614161372E+02 -0.27756158362E+01  0.28706652051E+02  0.51100000000E-03 0. -1.
        -11    1    3    3    0    0  0.41685741570E+01 -0.15852992772E+02  0.17252123373E+02  0.23797692146E+02  0.51100000000E-03 0.  1.
        -12    1    3    3    0    0  0.76122264214E+01 -0.12431025218E+02 -0.13631372325E+02  0.19957221513E+02  0.00000000000E+00 0.  1.
</event>
<event>
 7    1  0.1345786E-013  0.7246142E+02  0.7816164E-02  0.1226708E+00
        -11   -1    0    0    0    0  0.00000000000E+00  0.00000000000E+00  0.45593999997E+02  0.45594000000E+02  0.51100000000E-03 0. -1.
         11   -1    0    0    0    0 -0.00000000000E+00 -0.00000000000E+00 -0.45593999997E+02  0.45594000000E+02  0.51100000000E-03 0.  1.
    9900012    2    1    2    0    0  0.35585256206E+01  0.87041663603E+01 -0.16194421517E+02  0.72461417160E+02  0.69999800513E+02 0.  0.
         12    1    1    2    0    0 -0.35585256206E+01 -0.87041663603E+01  0.16194421517E+02  0.18726582840E+02  0.00000000000E+00 0. -1.
         11    1    3    3    0    0  0.38982946382E+01  0.47650676756E+01  0.16600361489E+02  0.17705213155E+02  0.51100000000E-03 0. -1.
        -11    1    3    3    0    0  0.15845991101E+02 -0.62897007665E+01 -0.31185883475E+02  0.35541737410E+02  0.51100000000E-03 0.  1.
        -12    1    3    3    0    0 -0.16185760119E+02  0.10228799451E+02 -0.16088995302E+01  0.19214466595E+02  0.00000000000E+00 0.  1.
</event>
<event>
 7    1  0.1345786E-013  0.7246166E+02  0.7816164E-02  0.1226708E+00
        -11   -1    0    0    0    0  0.00000000000E+00  0.00000000000E+00  0.45593999997E+02  0.45594000000E+02  0.51100000000E-03 0.  1.
         11   -1    0    0    0    0 -0.00000000000E+00 -0.00000000000E+00 -0.45593999997E+02  0.45594000000E+02  0.51100000000E-03 0. -1.
    9900012    2    1    2    0    0  0.12841029194E+02  0.11904483502E+02  0.66383049188E+01  0.72461658916E+02  0.70000115446E+02 0.  0.
         12    1    1    2    0    0 -0.12841029194E+02 -0.11904483502E+02 -0.66383049188E+01  0.18726341084E+02  0.00000000000E+00 0. -1.
         11    1    3    3    0    0 -0.94198993823E+01 -0.11655483085E+02 -0.17422049221E+02  0.22980700373E+02  0.51100000000E-03 0. -1.
        -11    1    3    3    0    0  0.26599773910E+02  0.11650613007E+02  0.10398859609E+02  0.30845113664E+02  0.51100000000E-03 0.  1.
        -12    1    3    3    0    0 -0.43388453345E+01  0.11909353580E+02  0.13661494530E+02  0.18635844879E+02  0.00000000000E+00 0.  1.
</event>
<event>
 7    1  0.1345786E-013  0.7246159E+02  0.7816164E-02  0.1226708E+00
        -11   -1    0    0    0    0  0.00000000000E+00  0.00000000000E+00  0.45593999997E+02  0.45594000000E+02  0.51100000000E-03 0. -1.
         11   -1    0    0    0    0 -0.00000000000E+00 -0.00000000000E+00 -0.45593999997E+02  0.45594000000E+02  0.51100000000E-03 0.  1.
    9900012    2    1    2    0    0  0.16368811937E+02  0.56479462513E+01 -0.71303083090E+01  0.72461585563E+02  0.70000019890E+02 0.  0.
         12    1    1    2    0    0 -0.16368811937E+02 -0.56479462513E+01  0.71303083090E+01  0.18726414437E+02  0.00000000000E+00 0. -1.
         11    1    3    3    0    0 -0.20882034105E+02  0.39149801162E+01  0.11722441750E+01  0.21278171311E+02  0.51100000000E-03 0. -1.
        -11    1    3    3    0    0  0.40154770134E+02  0.76843270404E+00  0.22215279806E+01  0.40223516009E+02  0.51100000000E-03 0.  1.
        -12    1    3    3    0    0 -0.29039240920E+01  0.96453343101E+00 -0.10524080465E+02  0.10959898243E+02  0.00000000000E+00 0.  1.
</event>
<event>
 7    1  0.1345786E-013  0.7246162E+02  0.7816164E-02  0.1226708E+00
        -11   -1    0    0    0    0  0.00000000000E+00  0.00000000000E+00  0.45593999997E+02  0.45594000000E+02  0.51100000000E-03 0.  1.
         11   -1    0    0    0    0 -0.00000000000E+00 -0.00000000000E+00 -0.45593999997E+02  0.45594000000E+02  0.51100000000E-03 0. -1.
    9900012    2    1    2    0    0  0.10021986971E+02  0.14837556699E+02  0.54848954094E+01  0.72461617827E+02  0.70000061920E+02 0.  0.
         12    1    1    2    0    0 -0.10021986971E+02 -0.14837556699E+02 -0.54848954094E+01  0.18726382173E+02  0.00000000000E+00 0. -1.
         11    1    3    3    0    0  0.20254374775E+02  0.72973062818E+01 -0.25161149662E+02  0.33114556151E+02  0.51100000000E-03 0. -1.
        -11    1    3    3    0    0 -0.58775609396E+01  0.11359190949E+02  0.31009540773E+02  0.33543532325E+02  0.51100000000E-03 0.  1.
        -12    1    3    3    0    0 -0.43548268647E+01 -0.38189405322E+01 -0.36349570205E+00  0.58035293517E+01  0.00000000000E+00 0.  1.
</event>
<event>
 7    1  0.1345786E-013  0.7246159E+02  0.7816164E-02  0.1226708E+00
        -11   -1    0    0    0    0  0.00000000000E+00  0.00000000000E+00  0.45593999997E+02  0.45594000000E+02  0.51100000000E-03 0. -1.
         11   -1    0    0    0    0 -0.00000000000E+00 -0.00000000000E+00 -0.45593999997E+02  0.45594000000E+02  0.51100000000E-03 0.  1.
    9900012    2    1    2    0    0  0.79700913026E+01 -0.16742771058E+02 -0.26144896344E+01  0.72461593667E+02  0.70000030448E+02 0.  0.
         12    1    1    2    0    0 -0.79700913026E+01  0.16742771058E+02  0.26144896344E+01  0.18726406333E+02  0.00000000000E+00 0. -1.
         11    1    3    3    0    0 -0.17698393674E+01  0.11033501021E+02  0.18183701931E+02  0.21342855768E+02  0.51100000000E-03 0. -1.
        -11    1    3    3    0    0  0.22680912672E+02 -0.15972625643E+02 -0.18751864564E+02  0.33484040892E+02  0.51100000000E-03 0.  1.
         12    1    3    3    0    0 -0.12940982002E+02 -0.11803646436E+02 -0.20463270010E+01  0.17634697007E+02  0.00000000000E+00 0. -1.
</event>
<event>
 7    1  0.1345786E-013  0.7246160E+02  0.7816164E-02  0.1226708E+00
        -11   -1    0    0    0    0  0.00000000000E+00  0.00000000000E+00  0.45593999997E+02  0.45594000000E+02  0.51100000000E-03 0. -1.
         11   -1    0    0    0    0 -0.00000000000E+00 -0.00000000000E+00 -0.45593999997E+02  0.45594000000E+02  0.51100000000E-03 0.  1.
    9900012    2    1    2    0    0 -0.18696976386E+02  0.93019411666E+00 -0.48580518949E+00  0.72461596347E+02  0.70000033939E+02 0.  0.
         12    1    1    2    0    0  0.18696976386E+02 -0.93019411666E+00  0.48580518949E+00  0.18726403653E+02  0.00000000000E+00 0. -1.
         11    1    3    3    0    0 -0.24181955188E+02 -0.16934611792E+02  0.24460774913E+02  0.38338982027E+02  0.51100000000E-03 0. -1.
        -11    1    3    3    0    0  0.30476580161E+01  0.29387395817E+01 -0.16000262851E+02  0.16550916026E+02  0.51100000000E-03 0.  1.
         12    1    3    3    0    0  0.24373207860E+01  0.14926066327E+02 -0.89463172515E+01  0.17571698295E+02  0.00000000000E+00 0. -1.
</event>
<event>
 7    1  0.1347047E-013  0.7246152E+02  0.7816164E-02  0.1226708E+00
        -11   -1    0    0    0    0  0.00000000000E+00  0.00000000000E+00  0.45593999997E+02  0.45594000000E+02  0.51100000000E-03 0.  1.
         11   -1    0    0    0    0 -0.00000000000E+00 -0.00000000000E+00 -0.45593999997E+02  0.45594000000E+02  0.51100000000E-03 0. -1.
    9900012    2    1    2    0    0 -0.69287510396E+01 -0.16246357856E+02  0.62232735369E+01  0.72461524943E+02  0.69999940922E+02 0.  0.
         12    1    1    2    0    0  0.69287510396E+01  0.16246357856E+02 -0.62232735369E+01  0.18726475057E+02  0.00000000000E+00 0. -1.
         11    1    3    3    0    0 -0.16403920146E+02 -0.30436536021E+02 -0.30521001757E+01  0.34710036543E+02  0.51100000000E-03 0. -1.
        -11    1    3    3    0    0  0.88175805855E+01  0.11756942513E+02 -0.10343616421E+02  0.17971249972E+02  0.51100000000E-03 0.  1.
        -12    1    3    3    0    0  0.65758852067E+00  0.24332356520E+01  0.19618990133E+02  0.19780238428E+02  0.00000000000E+00 0.  1.
</event>
<event>
 7    1  0.1345786E-013  0.7246153E+02  0.7816164E-02  0.1226708E+00
        -11   -1    0    0    0    0  0.00000000000E+00  0.00000000000E+00  0.45593999997E+02  0.45594000000E+02  0.51100000000E-03 0. -1.
         11   -1    0    0    0    0 -0.00000000000E+00 -0.00000000000E+00 -0.45593999997E+02  0.45594000000E+02  0.51100000000E-03 0.  1.
    9900012    2    1    2    0    0 -0.81085165163E+01 -0.14295420883E+02 -0.89762806886E+01  0.72461529075E+02  0.69999946304E+02 0.  0.
         12    1    1    2    0    0  0.81085165163E+01  0.14295420883E+02  0.89762806886E+01  0.18726470925E+02  0.00000000000E+00 0. -1.
         11    1    3    3    0    0 -0.94452157953E+01 -0.10968221923E+02 -0.34090035346E+02  0.37035719295E+02  0.51100000000E-03 0. -1.
        -11    1    3    3    0    0  0.10793379781E+02 -0.36473098432E+01  0.36408624420E+01  0.11960593454E+02  0.51100000000E-03 0.  1.
         12    1    3    3    0    0 -0.94566805022E+01  0.32011088380E+00  0.21472892215E+02  0.23465216325E+02  0.00000000000E+00 0. -1.
</event>
<event>
 7    1  0.1345786E-013  0.7246158E+02  0.7816164E-02  0.1226708E+00
        -11   -1    0    0    0    0  0.00000000000E+00  0.00000000000E+00  0.45593999997E+02  0.45594000000E+02  0.51100000000E-03 0.  1.
         11   -1    0    0    0    0 -0.00000000000E+00 -0.00000000000E+00 -0.45593999997E+02  0.45594000000E+02  0.51100000000E-03 0. -1.
    9900012    2    1    2    0    0 -0.15761215381E+02 -0.58640507224E+01  0.82386864459E+01  0.72461576008E+02  0.70000007443E+02 0.  0.
         12    1    1    2    0    0  0.15761215381E+02  0.58640507224E+01 -0.82386864459E+01  0.18726423992E+02  0.00000000000E+00 0. -1.
         11    1    3    3    0    0 -0.42492937920E+00 -0.35906268861E+01 -0.25398848626E+02  0.25654915283E+02  0.51100000000E-03 0. -1.
        -11    1    3    3    0    0 -0.16173143659E+02 -0.13140070301E+02  0.26770798048E+02  0.33925029871E+02  0.51100000000E-03 0.  1.
         12    1    3    3    0    0  0.83685765695E+00  0.10866646464E+02  0.68667370231E+01  0.12881630854E+02  0.00000000000E+00 0. -1.
</event>
<event>
 7    1  0.1345786E-013  0.7246159E+02  0.7816164E-02  0.1226708E+00
        -11   -1    0    0    0    0  0.00000000000E+00  0.00000000000E+00  0.45593999997E+02  0.45594000000E+02  0.51100000000E-03 0.  1.
         11   -1    0    0    0    0 -0.00000000000E+00 -0.00000000000E+00 -0.45593999997E+02  0.45594000000E+02  0.51100000000E-03 0. -1.
    9900012    2    1    2    0    0  0.11353015412E+01 -0.18685389695E+02  0.49560083955E+00  0.72461593035E+02  0.70000029624E+02 0.  0.
         12    1    1    2    0    0 -0.11353015412E+01  0.18685389695E+02 -0.49560083955E+00  0.18726406965E+02  0.00000000000E+00 0. -1.
         11    1    3    3    0    0  0.20748430104E+02 -0.81714691907E+01 -0.22259156833E+02  0.31507781954E+02  0.51100000000E-03 0. -1.
        -11    1    3    3    0    0 -0.17446328878E+02 -0.17586954568E+02  0.11090889275E+02  0.27141908324E+02  0.51100000000E-03 0.  1.
         12    1    3    3    0    0 -0.21667996844E+01  0.70730340645E+01  0.11663868398E+02  0.13811902757E+02  0.00000000000E+00 0. -1.
</event>
<event>
 7    1  0.1345786E-013  0.7246157E+02  0.7816164E-02  0.1226708E+00
        -11   -1    0    0    0    0  0.00000000000E+00  0.00000000000E+00  0.45593999997E+02  0.45594000000E+02  0.51100000000E-03 0.  1.
         11   -1    0    0    0    0 -0.00000000000E+00 -0.00000000000E+00 -0.45593999997E+02  0.45594000000E+02  0.51100000000E-03 0. -1.
    9900012    2    1    2    0    0 -0.17552650928E+01  0.17707569021E+02  0.58344132189E+01  0.72461565909E+02  0.69999994287E+02 0.  0.
         12    1    1    2    0    0  0.17552650928E+01 -0.17707569021E+02 -0.58344132189E+01  0.18726434091E+02  0.00000000000E+00 0. -1.
         11    1    3    3    0    0 -0.98978019375E+01  0.28252868731E+02 -0.74778886346E+01  0.30856278022E+02  0.51100000000E-03 0. -1.
        -11    1    3    3    0    0  0.73202443154E+01 -0.24404372413E+02  0.75519261833E+01  0.26574253688E+02  0.51100000000E-03 0.  1.
        -12    1    3    3    0    0  0.82229252929E+00  0.13859072704E+02  0.57603756701E+01  0.15031034198E+02  0.00000000000E+00 0.  1.
</event>
<event>
 7    1  0.1345786E-013  0.7246201E+02  0.7816164E-02  0.1226707E+00
        -11   -1    0    0    0    0  0.00000000000E+00  0.00000000000E+00  0.45593999997E+02  0.45594000000E+02  0.51100000000E-03 0. -1.
         11   -1    0    0    0    0 -0.00000000000E+00 -0.00000000000E+00 -0.45593999997E+02  0.45594000000E+02  0.51100000000E-03 0.  1.
    9900012    2    1    2    0    0  0.60907243915E+01  0.16433351867E+02 -0.65962642561E+01  0.72462010592E+02  0.70000573567E+02 0.  0.
         12    1    1    2    0    0 -0.60907243915E+01 -0.16433351867E+02  0.65962642561E+01  0.18725989408E+02  0.00000000000E+00 0. -1.
         11    1    3    3    0    0  0.33513042626E+02  0.12756364887E+02  0.51767311048E+01  0.36230476348E+02  0.51100000000E-03 0. -1.
        -11    1    3    3    0    0  0.38203704486E+00  0.10168167474E+01 -0.79686268654E+01  0.80423182592E+01  0.51100000000E-03 0.  1.
         12    1    3    3    0    0 -0.27804355280E+02  0.26601702322E+01 -0.38043684955E+01  0.28189215985E+02  0.00000000000E+00 0. -1.
</event>
<event>
 7    1  0.1345786E-013  0.7246153E+02  0.7816164E-02  0.1226708E+00
        -11   -1    0    0    0    0  0.00000000000E+00  0.00000000000E+00  0.45593999997E+02  0.45594000000E+02  0.51100000000E-03 0.  1.
         11   -1    0    0    0    0 -0.00000000000E+00 -0.00000000000E+00 -0.45593999997E+02  0.45594000000E+02  0.51100000000E-03 0. -1.
    9900012    2    1    2    0    0 -0.10061347729E+02 -0.14533667102E+02  0.61824289320E+01  0.72461531431E+02  0.69999949374E+02 0.  0.
         12    1    1    2    0    0  0.10061347729E+02  0.14533667102E+02 -0.61824289320E+01  0.18726468569E+02  0.00000000000E+00 0. -1.
         11    1    3    3    0    0  0.43921542265E+01  0.21545339795E+01 -0.29858527042E+01  0.57313481879E+01  0.51100000000E-03 0. -1.
        -11    1    3    3    0    0 -0.97049713367E+01  0.18497730398E+02  0.20691417922E+02  0.29402164451E+02  0.51100000000E-03 0.  1.
        -12    1    3    3    0    0 -0.47485306183E+01 -0.35185931480E+02 -0.11523136285E+02  0.37328018793E+02  0.00000000000E+00 0.  1.
</event>
<event>
 7    1  0.1345786E-013  0.7246135E+02  0.7816164E-02  0.1226709E+00
        -11   -1    0    0    0    0  0.00000000000E+00  0.00000000000E+00  0.45593999997E+02  0.45594000000E+02  0.51100000000E-03 0. -1.
         11   -1    0    0    0    0 -0.00000000000E+00 -0.00000000000E+00 -0.45593999997E+02  0.45594000000E+02  0.51100000000E-03 0.  1.
    9900012    2    1    2    0    0  0.35240095517E+01  0.11596874310E+02 -0.14275202656E+02  0.72461346590E+02  0.69999708583E+02 0.  0.
         12    1    1    2    0    0 -0.35240095517E+01 -0.11596874310E+02  0.14275202656E+02  0.18726653410E+02  0.00000000000E+00 0. -1.
         11    1    3    3    0    0 -0.15227356793E+01  0.24031485729E+02  0.13819638583E+02  0.27763527173E+02  0.51100000000E-03 0. -1.
        -11    1    3    3    0    0  0.14583848996E+02 -0.21312158831E+00 -0.24918789184E+02  0.28873519477E+02  0.51100000000E-03 0.  1.
         12    1    3    3    0    0 -0.95371037649E+01 -0.12221489831E+02 -0.31760520547E+01  0.15824299939E+02  0.00000000000E+00 0. -1.
</event>
<event>
 8    1  0.1345786E-013  0.7246173E+02  0.7816164E-02  0.1226708E+00
        -11   -1    0    0    0    0  0.00000000000E+00  0.00000000000E+00  0.45593999997E+02  0.45594000000E+02  0.51100000000E-03 0.  1.
         11   -1    0    0    0    0 -0.00000000000E+00 -0.00000000000E+00 -0.45593999997E+02  0.45594000000E+02  0.51100000000E-03 0. -1.
    9900012    2    1    2    0    0 -0.10852438026E+02 -0.13062447549E+02  0.78911542582E+01  0.72461728011E+02  0.70000205455E+02 0.  0.
         24    2    3    3    0    0  0.61549018446E+01  0.28421452786E+00  0.75306055686E+01  0.50839679225E+02  0.49899893475E+02 0.  0.
         12    1    1    2    0    0  0.10852438026E+02  0.13062447549E+02 -0.78911542582E+01  0.18726271989E+02  0.00000000000E+00 0. -1.
         11    1    3    3    0    0 -0.17007339871E+02 -0.13346662077E+02  0.36054868957E+00  0.21622048786E+02  0.51100000000E-03 0. -1.
        -11    1    4    4    0    0  0.12338622495E+02 -0.21141606864E+02  0.13226354840E+02  0.27823472258E+02  0.51100000000E-03 0.  1.
         12    1    4    4    0    0 -0.61837206503E+01  0.21425821392E+02 -0.56957492713E+01  0.23016206967E+02  0.00000000000E+00 0. -1.
</event>
<event>
 7    1  0.1345786E-013  0.7246157E+02  0.7816164E-02  0.1226708E+00
        -11   -1    0    0    0    0  0.00000000000E+00  0.00000000000E+00  0.45593999997E+02  0.45594000000E+02  0.51100000000E-03 0.  1.
         11   -1    0    0    0    0 -0.00000000000E+00 -0.00000000000E+00 -0.45593999997E+02  0.45594000000E+02  0.51100000000E-03 0. -1.
    9900012    2    1    2    0    0  0.88507913559E+01  0.15246117143E+02 -0.63165407076E+01  0.72461567289E+02  0.69999996085E+02 0.  0.
         12    1    1    2    0    0 -0.88507913559E+01 -0.15246117143E+02  0.63165407076E+01  0.18726432711E+02  0.00000000000E+00 0. -1.
         11    1    3    3    0    0  0.14639858048E+02  0.41430825266E+00 -0.17698476970E+02  0.22972443978E+02  0.51100000000E-03 0. -1.
        -11    1    3    3    0    0  0.45228097795E+01 -0.10174000593E+02  0.18434762591E+02  0.21536168843E+02  0.51100000000E-03 0.  1.
        -12    1    3    3    0    0 -0.10311876472E+02  0.25005809483E+02 -0.70528263284E+01  0.27952954468E+02  0.00000000000E+00 0.  1.
</event>
<event>
 7    1  0.1345786E-013  0.7246158E+02  0.7816164E-02  0.1226708E+00
        -11   -1    0    0    0    0  0.00000000000E+00  0.00000000000E+00  0.45593999997E+02  0.45594000000E+02  0.51100000000E-03 0.  1.
         11   -1    0    0    0    0 -0.00000000000E+00 -0.00000000000E+00 -0.45593999997E+02  0.45594000000E+02  0.51100000000E-03 0. -1.
    9900012    2    1    2    0    0 -0.18725696862E+02 -0.12891956956E+00 -0.10256251816E+00  0.72461578498E+02  0.70000010687E+02 0.  0.
         12    1    1    2    0    0  0.18725696862E+02  0.12891956956E+00  0.10256251816E+00  0.18726421502E+02  0.00000000000E+00 0. -1.
         11    1    3    3    0    0 -0.65847291262E+00  0.28914220865E+02 -0.19891489544E+01  0.28990040852E+02  0.51100000000E-03 0. -1.
        -11    1    3    3    0    0 -0.88474863924E-01 -0.98801188816E+01 -0.10503458781E+02  0.14420375291E+02  0.51100000000E-03 0.  1.
         12    1    3    3    0    0 -0.17978749085E+02 -0.19163021553E+02  0.12390045217E+02  0.29051162355E+02  0.00000000000E+00 0. -1.
</event>
<event>
 7    1  0.1345786E-013  0.7246155E+02  0.7816164E-02  0.1226708E+00
        -11   -1    0    0    0    0  0.00000000000E+00  0.00000000000E+00  0.45593999997E+02  0.45594000000E+02  0.51100000000E-03 0. -1.
         11   -1    0    0    0    0 -0.00000000000E+00 -0.00000000000E+00 -0.45593999997E+02  0.45594000000E+02  0.51100000000E-03 0.  1.
    9900012    2    1    2    0    0  0.71613008792E+01  0.16989666766E+02 -0.32782649761E+01  0.72461547363E+02  0.69999970128E+02 0.  0.
         12    1    1    2    0    0 -0.71613008792E+01 -0.16989666766E+02  0.32782649761E+01  0.18726452637E+02  0.00000000000E+00 0. -1.
         11    1    3    3    0    0 -0.53394571471E-01  0.22579929540E+01  0.96991280872E+01  0.99586379125E+01  0.51100000000E-03 0. -1.
        -11    1    3    3    0    0 -0.60224848555E+01  0.35116085959E+02 -0.15951868819E+01  0.35664470252E+02  0.51100000000E-03 0.  1.
        -12    1    3    3    0    0  0.13237180306E+02 -0.20384412147E+02 -0.11382206181E+02  0.26838439198E+02  0.00000000000E+00 0.  1.
</event>
<event>
 7    1  0.1345786E-013  0.7246157E+02  0.7816164E-02  0.1226708E+00
        -11   -1    0    0    0    0  0.00000000000E+00  0.00000000000E+00  0.45593999997E+02  0.45594000000E+02  0.51100000000E-03 0.  1.
         11   -1    0    0    0    0 -0.00000000000E+00 -0.00000000000E+00 -0.45593999997E+02  0.45594000000E+02  0.51100000000E-03 0. -1.
    9900012    2    1    2    0    0 -0.32443934270E+01  0.11517891182E+02  0.14404551479E+02  0.72461574572E+02  0.70000005573E+02 0.  0.
         12    1    1    2    0    0  0.32443934270E+01 -0.11517891182E+02 -0.14404551479E+02  0.18726425428E+02  0.00000000000E+00 0. -1.
         11    1    3    3    0    0 -0.12577493070E+02 -0.11129176531E+02 -0.59954800312E+01  0.17832489542E+02  0.51100000000E-03 0. -1.
        -11    1    3    3    0    0  0.18458542641E+02  0.14922333785E+01  0.25023440331E+02  0.31130646045E+02  0.51100000000E-03 0.  1.
        -12    1    3    3    0    0 -0.91254429981E+01  0.21154834335E+02 -0.46234088213E+01  0.23498438986E+02  0.00000000000E+00 0.  1.
</event>
<event>
 7    1  0.1345786E-013  0.7246162E+02  0.7816164E-02  0.1226708E+00
        -11   -1    0    0    0    0  0.00000000000E+00  0.00000000000E+00  0.45593999997E+02  0.45594000000E+02  0.51100000000E-03 0. -1.
         11   -1    0    0    0    0 -0.00000000000E+00 -0.00000000000E+00 -0.45593999997E+02  0.45594000000E+02  0.51100000000E-03 0.  1.
    9900012    2    1    2    0    0  0.14711126312E+01  0.77119929085E+01 -0.17001126960E+02  0.72461619546E+02  0.70000064160E+02 0.  0.
         12    1    1    2    0    0 -0.14711126312E+01 -0.77119929085E+01  0.17001126960E+02  0.18726380454E+02  0.00000000000E+00 0. -1.
         11    1    3    3    0    0 -0.69546565959E+01 -0.11288295812E+02  0.19581260665E+02  0.23647804131E+02  0.51100000000E-03 0. -1.
        -11    1    3    3    0    0 -0.49807964717E+01 -0.70459380576E-01 -0.18925557252E+02  0.19570130699E+02  0.51100000000E-03 0.  1.
         12    1    3    3    0    0  0.13406565699E+02  0.19070748101E+02 -0.17656830374E+02  0.29243684717E+02  0.00000000000E+00 0. -1.
</event>
<event>
 8    1  0.1345786E-013  0.7246209E+02  0.7816164E-02  0.1226707E+00
        -11   -1    0    0    0    0  0.00000000000E+00  0.00000000000E+00  0.45593999997E+02  0.45594000000E+02  0.51100000000E-03 0.  1.
         11   -1    0    0    0    0 -0.00000000000E+00 -0.00000000000E+00 -0.45593999997E+02  0.45594000000E+02  0.51100000000E-03 0. -1.
    9900012    2    1    2    0    0  0.96202577658E+01 -0.13302977685E+02 -0.90078309684E+01  0.72462092985E+02  0.70000680899E+02 0.  0.
         24    2    3    3    0    0  0.74830014378E+01 -0.33204398326E+01 -0.21077903179E+02  0.56653691105E+02  0.51945568456E+02 0.  0.
         12    1    1    2    0    0 -0.96202577658E+01  0.13302977685E+02  0.90078309684E+01  0.18725907015E+02  0.00000000000E+00 0. -1.
         11    1    3    3    0    0  0.21372563280E+01 -0.99825378522E+01  0.12070072210E+02  0.15808401880E+02  0.51100000000E-03 0. -1.
        -11    1    4    4    0    0  0.23101821618E+02  0.52118078612E+01  0.58328627669E+01  0.24390149478E+02  0.51100000000E-03 0.  1.
         12    1    4    4    0    0 -0.15618820180E+02 -0.85322476938E+01 -0.26910765945E+02  0.32263541627E+02  0.00000000000E+00 0. -1.
</event>
<event>
 7    1  0.1345786E-013  0.7246157E+02  0.7816164E-02  0.1226708E+00
        -11   -1    0    0    0    0  0.00000000000E+00  0.00000000000E+00  0.45593999997E+02  0.45594000000E+02  0.51100000000E-03 0.  1.
         11   -1    0    0    0    0 -0.00000000000E+00 -0.00000000000E+00 -0.45593999997E+02  0.45594000000E+02  0.51100000000E-03 0. -1.
    9900012    2    1    2    0    0  0.96728038180E+01 -0.14543668789E+02  0.67526216574E+01  0.72461565881E+02  0.69999994251E+02 0.  0.
         12    1    1    2    0    0 -0.96728038180E+01  0.14543668789E+02 -0.67526216574E+01  0.18726434119E+02  0.00000000000E+00 0. -1.
         11    1    3    3    0    0  0.20157119324E+01 -0.22260443015E+02 -0.24646919205E+02  0.33272526871E+02  0.51100000000E-03 0. -1.
        -11    1    3    3    0    0  0.14553283255E+02  0.78407814824E+01  0.22891203230E+02  0.28236201822E+02  0.51100000000E-03 0.  1.
        -12    1    3    3    0    0 -0.68961913690E+01 -0.12400725667E+00  0.85083376324E+01  0.10952837188E+02  0.00000000000E+00 0.  1.
</event>
<event>
 7    1  0.1345786E-013  0.7246157E+02  0.7816164E-02  0.1226708E+00
        -11   -1    0    0    0    0  0.00000000000E+00  0.00000000000E+00  0.45593999997E+02  0.45594000000E+02  0.51100000000E-03 0. -1.
         11   -1    0    0    0    0 -0.00000000000E+00 -0.00000000000E+00 -0.45593999997E+02  0.45594000000E+02  0.51100000000E-03 0.  1.
    9900012    2    1    2    0    0 -0.57353063750E+01  0.15635723523E+02  0.85621075232E+01  0.72461567490E+02  0.69999996347E+02 0.  0.
         12    1    1    2    0    0  0.57353063750E+01 -0.15635723523E+02 -0.85621075232E+01  0.18726432510E+02  0.00000000000E+00 0. -1.
         11    1    3    3    0    0 -0.24641248385E+01 -0.65833826784E+01  0.25379756776E+02  0.26335240515E+02  0.51100000000E-03 0. -1.
        -11    1    3    3    0    0  0.16403971385E+02  0.74520253629E+01 -0.99646854794E+01  0.20589267014E+02  0.51100000000E-03 0.  1.
         12    1    3    3    0    0 -0.19675152922E+02  0.14767080838E+02 -0.68529637735E+01  0.25537059961E+02  0.00000000000E+00 0. -1.
</event>
<event>
 7    1  0.1345786E-013  0.7246159E+02  0.7816164E-02  0.1226708E+00
        -11   -1    0    0    0    0  0.00000000000E+00  0.00000000000E+00  0.45593999997E+02  0.45594000000E+02  0.51100000000E-03 0. -1.
         11   -1    0    0    0    0 -0.00000000000E+00 -0.00000000000E+00 -0.45593999997E+02  0.45594000000E+02  0.51100000000E-03 0.  1.
    9900012    2    1    2    0    0  0.14106747126E+02  0.11996401649E+02 -0.27864906035E+01  0.72461588254E+02  0.70000023396E+02 0.  0.
         12    1    1    2    0    0 -0.14106747126E+02 -0.11996401649E+02  0.27864906035E+01  0.18726411746E+02  0.00000000000E+00 0. -1.
         11    1    3    3    0    0  0.16349445102E+02 -0.10961816469E+01 -0.40659727584E+01  0.16883071524E+02  0.51100000000E-03 0. -1.
        -11    1    3    3    0    0 -0.25722191783E+02 -0.36795169038E+01 -0.38617578730E+01  0.26269434118E+02  0.51100000000E-03 0.  1.
        -12    1    3    3    0    0  0.23479493807E+02  0.16772100199E+02  0.51412400279E+01  0.29309082612E+02  0.00000000000E+00 0.  1.
</event>
<event>
 7    1  0.1345786E-013  0.7246154E+02  0.7816164E-02  0.1226708E+00
        -11   -1    0    0    0    0  0.00000000000E+00  0.00000000000E+00  0.45593999997E+02  0.45594000000E+02  0.51100000000E-03 0. -1.
         11   -1    0    0    0    0 -0.00000000000E+00 -0.00000000000E+00 -0.45593999997E+02  0.45594000000E+02  0.51100000000E-03 0.  1.
    9900012    2    1    2    0    0 -0.13526225213E+02 -0.12927071352E+02 -0.78246255793E+00  0.72461543050E+02  0.69999964509E+02 0.  0.
         12    1    1    2    0    0  0.13526225213E+02  0.12927071352E+02  0.78246255793E+00  0.18726456950E+02  0.00000000000E+00 0. -1.
         11    1    3    3    0    0 -0.16676617996E+02 -0.25514040048E+02  0.23087113275E+02  0.38237293667E+02  0.51100000000E-03 0. -1.
        -11    1    3    3    0    0  0.57790043408E+01  0.15383688557E+02 -0.87350670735E+01  0.18610646464E+02  0.51100000000E-03 0.  1.
         12    1    3    3    0    0 -0.26286115576E+01 -0.27967198606E+01 -0.15134508759E+02  0.15613602918E+02  0.00000000000E+00 0. -1.
</event>
<event>
 7    1  0.1345786E-013  0.7246152E+02  0.7816164E-02  0.1226708E+00
        -11   -1    0    0    0    0  0.00000000000E+00  0.00000000000E+00  0.45593999997E+02  0.45594000000E+02  0.51100000000E-03 0. -1.
         11   -1    0    0    0    0 -0.00000000000E+00 -0.00000000000E+00 -0.45593999997E+02  0.45594000000E+02  0.51100000000E-03 0.  1.
    9900012    2    1    2    0    0 -0.11457622057E+02 -0.10511939026E+02 -0.10435661779E+02  0.72461521365E+02  0.69999936261E+02 0.  0.
         12    1    1    2    0    0  0.11457622057E+02  0.10511939026E+02  0.10435661779E+02  0.18726478635E+02  0.00000000000E+00 0. -1.
         11    1    3    3    0    0 -0.10994950231E+02 -0.23178229580E+02 -0.24675638802E+02  0.35595033467E+02  0.51100000000E-03 0. -1.
        -11    1    3    3    0    0  0.11539900543E+02 -0.33435201756E+01  0.11570031226E+02  0.16679749834E+02  0.51100000000E-03 0.  1.
         12    1    3    3    0    0 -0.12002572370E+02  0.16009810729E+02  0.26699457970E+01  0.20186738063E+02  0.00000000000E+00 0. -1.
</event>
<event>
 7    1  0.1345786E-013  0.7246151E+02  0.7816164E-02  0.1226708E+00
        -11   -1    0    0    0    0  0.00000000000E+00  0.00000000000E+00  0.45593999997E+02  0.45594000000E+02  0.51100000000E-03 0.  1.
         11   -1    0    0    0    0 -0.00000000000E+00 -0.00000000000E+00 -0.45593999997E+02  0.45594000000E+02  0.51100000000E-03 0. -1.
    9900012    2    1    2    0    0  0.13457657130E+02  0.11791550425E+02 -0.55256128293E+01  0.72461505561E+02  0.69999915672E+02 0.  0.
         12    1    1    2    0    0 -0.13457657130E+02 -0.11791550425E+02  0.55256128293E+01  0.18726494439E+02  0.00000000000E+00 0. -1.
         11    1    3    3    0    0 -0.16705710908E+02 -0.81580958191E+01  0.11887642574E+01  0.18629236835E+02  0.51100000000E-03 0.  1.
        -11    1    3    3    0    0  0.62595282370E+01  0.19909592751E+02 -0.17849302516E+02  0.27462177223E+02  0.51100000000E-03 0. -1.
         12    1    3    3    0    0  0.23903839801E+02  0.40053492452E-01  0.11134925430E+02  0.26370091502E+02  0.00000000000E+00 0. -1.
</event>
<event>
 7    1  0.1345786E-013  0.7246160E+02  0.7816164E-02  0.1226708E+00
        -11   -1    0    0    0    0  0.00000000000E+00  0.00000000000E+00  0.45593999997E+02  0.45594000000E+02  0.51100000000E-03 0.  1.
         11   -1    0    0    0    0 -0.00000000000E+00 -0.00000000000E+00 -0.45593999997E+02  0.45594000000E+02  0.51100000000E-03 0. -1.
    9900012    2    1    2    0    0 -0.82584139562E+01 -0.15802188483E+02  0.57242811487E+01  0.72461602680E+02  0.70000042188E+02 0.  0.
         12    1    1    2    0    0  0.82584139562E+01  0.15802188483E+02 -0.57242811487E+01  0.18726397320E+02  0.00000000000E+00 0. -1.
         11    1    3    3    0    0 -0.11327806532E+02  0.19541077343E+02  0.11831321092E+02  0.25498099216E+02  0.51100000000E-03 0. -1.
        -11    1    3    3    0    0 -0.13367533979E+02 -0.20118189843E+02 -0.28049999991E+01  0.24316672315E+02  0.51100000000E-03 0.  1.
         12    1    3    3    0    0  0.16436926555E+02 -0.15225075984E+02 -0.33020399446E+01  0.22646831149E+02  0.00000000000E+00 0. -1.
</event>
<event>
 7    1  0.1345786E-013  0.7246159E+02  0.7816164E-02  0.1226708E+00
        -11   -1    0    0    0    0  0.00000000000E+00  0.00000000000E+00  0.45593999997E+02  0.45594000000E+02  0.51100000000E-03 0.  1.
         11   -1    0    0    0    0 -0.00000000000E+00 -0.00000000000E+00 -0.45593999997E+02  0.45594000000E+02  0.51100000000E-03 0. -1.
    9900012    2    1    2    0    0  0.63913798028E+01 -0.17509504076E+02  0.18016089627E+01  0.72461594482E+02  0.70000031508E+02 0.  0.
         12    1    1    2    0    0 -0.63913798028E+01  0.17509504076E+02 -0.18016089627E+01  0.18726405518E+02  0.00000000000E+00 0. -1.
         11    1    3    3    0    0 -0.90867833890E+01 -0.32990429094E+01  0.20857154649E+02  0.22988567088E+02  0.51100000000E-03 0.  1.
        -11    1    3    3    0    0  0.19075720999E+02 -0.26594724008E+02 -0.12841127237E+02  0.35157602672E+02  0.51100000000E-03 0. -1.
        -12    1    3    3    0    0 -0.35975578070E+01  0.12384262841E+02 -0.62144184489E+01  0.14315424721E+02  0.00000000000E+00 0.  1.
</event>
<event>
 7    1  0.1345786E-013  0.7246157E+02  0.7816164E-02  0.1226708E+00
        -11   -1    0    0    0    0  0.00000000000E+00  0.00000000000E+00  0.45593999997E+02  0.45594000000E+02  0.51100000000E-03 0.  1.
         11   -1    0    0    0    0 -0.00000000000E+00 -0.00000000000E+00 -0.45593999997E+02  0.45594000000E+02  0.51100000000E-03 0. -1.
    9900012    2    1    2    0    0  0.10250277172E+02  0.37528296520E+01  0.15216021952E+02  0.72461568505E+02  0.69999997669E+02 0.  0.
         12    1    1    2    0    0 -0.10250277172E+02 -0.37528296520E+01 -0.15216021952E+02  0.18726431495E+02  0.00000000000E+00 0. -1.
         11    1    3    3    0    0  0.39829470017E+01  0.14870494797E+02  0.30858204076E+02  0.34485130729E+02  0.51100000000E-03 0. -1.
        -11    1    3    3    0    0  0.47257578874E+01 -0.21149348415E+02 -0.31780629373E+01  0.21902689568E+02  0.51100000000E-03 0.  1.
         12    1    3    3    0    0  0.15415722830E+01  0.10031683271E+02 -0.12464119187E+02  0.16073748208E+02  0.00000000000E+00 0. -1.
</event>
<event>
 7    1  0.1345786E-013  0.7246154E+02  0.7816164E-02  0.1226708E+00
        -11   -1    0    0    0    0  0.00000000000E+00  0.00000000000E+00  0.45593999997E+02  0.45594000000E+02  0.51100000000E-03 0. -1.
         11   -1    0    0    0    0 -0.00000000000E+00 -0.00000000000E+00 -0.45593999997E+02  0.45594000000E+02  0.51100000000E-03 0.  1.
    9900012    2    1    2    0    0 -0.69468333310E+01 -0.60922993934E+01 -0.16288211149E+02  0.72461536701E+02  0.69999956239E+02 0.  0.
         12    1    1    2    0    0  0.69468333310E+01  0.60922993934E+01  0.16288211149E+02  0.18726463299E+02  0.00000000000E+00 0. -1.
         11    1    3    3    0    0  0.30769954992E+01 -0.29324249835E+02  0.76588590456E+01  0.30463710408E+02  0.51100000000E-03 0. -1.
        -11    1    3    3    0    0 -0.26884165821E+01  0.35840046745E+01 -0.20202791537E+02  0.20693609143E+02  0.51100000000E-03 0.  1.
         12    1    3    3    0    0 -0.73354122481E+01  0.19647945767E+02 -0.37442786580E+01  0.21304217150E+02  0.00000000000E+00 0. -1.
</event>
<event>
 7    1  0.1345786E-013  0.7246154E+02  0.7816164E-02  0.1226708E+00
        -11   -1    0    0    0    0  0.00000000000E+00  0.00000000000E+00  0.45593999997E+02  0.45594000000E+02  0.51100000000E-03 0.  1.
         11   -1    0    0    0    0 -0.00000000000E+00 -0.00000000000E+00 -0.45593999997E+02  0.45594000000E+02  0.51100000000E-03 0. -1.
    9900012    2    1    2    0    0 -0.42055322047E+01  0.16191846897E+02  0.84153360225E+01  0.72461540446E+02  0.69999961117E+02 0.  0.
         12    1    1    2    0    0  0.42055322047E+01 -0.16191846897E+02 -0.84153360225E+01  0.18726459554E+02  0.00000000000E+00 0. -1.
         11    1    3    3    0    0  0.86102346541E+01  0.21978741072E+01 -0.25551575756E+02  0.27052722881E+02  0.51100000000E-03 0. -1.
        -11    1    3    3    0    0 -0.18580126654E+02  0.46746771190E+01  0.22385625284E+02  0.29465062910E+02  0.51100000000E-03 0.  1.
        -12    1    3    3    0    0  0.57643597953E+01  0.93192956704E+01  0.11581286495E+02  0.15943754656E+02  0.00000000000E+00 0.  1.
</event>
<event>
 7    1  0.1345786E-013  0.7246158E+02  0.7816164E-02  0.1226708E+00
        -11   -1    0    0    0    0  0.00000000000E+00  0.00000000000E+00  0.45593999997E+02  0.45594000000E+02  0.51100000000E-03 0.  1.
         11   -1    0    0    0    0 -0.00000000000E+00 -0.00000000000E+00 -0.45593999997E+02  0.45594000000E+02  0.51100000000E-03 0. -1.
    9900012    2    1    2    0    0  0.89371224077E+01  0.13877059362E+02  0.88449871612E+01  0.72461581994E+02  0.70000015241E+02 0.  0.
         12    1    1    2    0    0 -0.89371224077E+01 -0.13877059362E+02 -0.88449871612E+01  0.18726418006E+02  0.00000000000E+00 0. -1.
         11    1    3    3    0    0  0.87731284535E+01  0.22334401655E+02 -0.12672034894E+02  0.27136207340E+02  0.51100000000E-03 0. -1.
        -11    1    3    3    0    0  0.16435177376E+02 -0.14683240348E+02  0.15293786121E+02  0.26825594060E+02  0.51100000000E-03 0.  1.
        -12    1    3    3    0    0 -0.16271183422E+02  0.62258980550E+01  0.62232359341E+01  0.18499780594E+02  0.00000000000E+00 0.  1.
</event>
<event>
 7    1  0.1345786E-013  0.7246167E+02  0.7816164E-02  0.1226708E+00
        -11   -1    0    0    0    0  0.00000000000E+00  0.00000000000E+00  0.45593999997E+02  0.45594000000E+02  0.51100000000E-03 0. -1.
         11   -1    0    0    0    0 -0.00000000000E+00 -0.00000000000E+00 -0.45593999997E+02  0.45594000000E+02  0.51100000000E-03 0.  1.
    9900012    2    1    2    0    0 -0.75060930245E+01  0.14376612270E+02 -0.93619896965E+01  0.72461674574E+02  0.70000135844E+02 0.  0.
         12    1    1    2    0    0  0.75060930245E+01 -0.14376612270E+02  0.93619896965E+01  0.18726325426E+02  0.00000000000E+00 0. -1.
         11    1    3    3    0    0 -0.66354150419E+01 -0.18162238949E+02 -0.13316535050E+02  0.23478197598E+02  0.51100000000E-03 0.  1.
        -11    1    3    3    0    0 -0.10756553644E+02  0.17027579217E+02  0.17062982289E+02  0.26396728303E+02  0.51100000000E-03 0. -1.
        -12    1    3    3    0    0  0.98858756616E+01  0.15511272003E+02 -0.13108436935E+02  0.22586748673E+02  0.00000000000E+00 0.  1.
</event>
<event>
 7    1  0.1400499E-013  0.7246157E+02  0.7816164E-02  0.1226708E+00
        -11   -1    0    0    0    0  0.00000000000E+00  0.00000000000E+00  0.45593999997E+02  0.45594000000E+02  0.51100000000E-03 0.  1.
         11   -1    0    0    0    0 -0.00000000000E+00 -0.00000000000E+00 -0.45593999997E+02  0.45594000000E+02  0.51100000000E-03 0. -1.
    9900012    2    1    2    0    0 -0.15454920791E+02  0.10543313954E+02  0.81444398035E+00  0.72461565081E+02  0.69999993209E+02 0.  0.
         12    1    1    2    0    0  0.15454920791E+02 -0.10543313954E+02 -0.81444398035E+00  0.18726434919E+02  0.00000000000E+00 0. -1.
         11    1    3    3    0    0  0.18665398525E+02 -0.60579197003E+01  0.48477616892E+01  0.20213764787E+02  0.51100000000E-03 0. -1.
        -11    1    3    3    0    0 -0.15047958823E+02  0.17552350865E+02  0.13116338856E+02  0.26581279707E+02  0.51100000000E-03 0.  1.
         12    1    3    3    0    0 -0.19072360493E+02 -0.95111721095E+00 -0.17149656565E+02  0.25666520587E+02  0.00000000000E+00 0. -1.
</event>
<event>
 7    1  0.1345786E-013  0.7246157E+02  0.7816164E-02  0.1226708E+00
        -11   -1    0    0    0    0  0.00000000000E+00  0.00000000000E+00  0.45593999997E+02  0.45594000000E+02  0.51100000000E-03 0.  1.
         11   -1    0    0    0    0 -0.00000000000E+00 -0.00000000000E+00 -0.45593999997E+02  0.45594000000E+02  0.51100000000E-03 0. -1.
    9900012    2    1    2    0    0  0.18599326085E+00  0.11423669153E+02  0.14837263924E+02  0.72461569182E+02  0.69999998551E+02 0.  0.
         12    1    1    2    0    0 -0.18599326085E+00 -0.11423669153E+02 -0.14837263924E+02  0.18726430818E+02  0.00000000000E+00 0. -1.
         11    1    3    3    0    0 -0.12110932710E+02  0.36900189540E+02  0.14568158690E+02  0.41479271053E+02  0.51100000000E-03 0. -1.
        -11    1    3    3    0    0  0.10228163669E+01 -0.81181746003E+00  0.34388586112E+01  0.36784439261E+01  0.51100000000E-03 0.  1.
         12    1    3    3    0    0  0.11274109604E+02 -0.24664702928E+02 -0.31697533762E+01  0.27303854203E+02  0.00000000000E+00 0. -1.
</event>
<event>
 7    1  0.1345786E-013  0.7246154E+02  0.7816164E-02  0.1226708E+00
        -11   -1    0    0    0    0  0.00000000000E+00  0.00000000000E+00  0.45593999997E+02  0.45594000000E+02  0.51100000000E-03 0.  1.
         11   -1    0    0    0    0 -0.00000000000E+00 -0.00000000000E+00 -0.45593999997E+02  0.45594000000E+02  0.51100000000E-03 0. -1.
    9900012    2    1    2    0    0 -0.15397818019E+02 -0.13061025737E+01 -0.10577415555E+02  0.72461536813E+02  0.69999956384E+02 0.  0.
         12    1    1    2    0    0  0.15397818019E+02  0.13061025737E+01  0.10577415555E+02  0.18726463187E+02  0.00000000000E+00 0. -1.
         11    1    3    3    0    0 -0.22978324122E+02  0.18169362329E+02 -0.30063509702E+02  0.41975513371E+02  0.51100000000E-03 0.  1.
        -11    1    3    3    0    0  0.65652814551E+01 -0.13652972486E+02  0.70347273742E+01  0.16703112518E+02  0.51100000000E-03 0. -1.
        -12    1    3    3    0    0  0.10152246473E+01 -0.58224924167E+01  0.12451366773E+02  0.13782910924E+02  0.00000000000E+00 0.  1.
</event>
<event>
 7    1  0.1345786E-013  0.7246140E+02  0.7816164E-02  0.1226708E+00
        -11   -1    0    0    0    0  0.00000000000E+00  0.00000000000E+00  0.45593999997E+02  0.45594000000E+02  0.51100000000E-03 0.  1.
         11   -1    0    0    0    0 -0.00000000000E+00 -0.00000000000E+00 -0.45593999997E+02  0.45594000000E+02  0.51100000000E-03 0. -1.
    9900012    2    1    2    0    0 -0.13031983588E+02 -0.12807893393E+02  0.41001130418E+01  0.72461397095E+02  0.69999774375E+02 0.  0.
         12    1    1    2    0    0  0.13031983588E+02  0.12807893393E+02 -0.41001130418E+01  0.18726602905E+02  0.00000000000E+00 0. -1.
         11    1    3    3    0    0  0.31978567461E+01  0.17968179517E+02 -0.14350489757E+02  0.23216768067E+02  0.51100000000E-03 0. -1.
        -11    1    3    3    0    0 -0.96328299791E+01  0.16444661831E+00  0.14435053554E+02  0.17354804161E+02  0.51100000000E-03 0.  1.
         12    1    3    3    0    0 -0.65970103549E+01 -0.30940519528E+02  0.40155492447E+01  0.31889824867E+02  0.00000000000E+00 0. -1.
</event>
<event>
 7    1  0.1345786E-013  0.7246158E+02  0.7816164E-02  0.1226708E+00
        -11   -1    0    0    0    0  0.00000000000E+00  0.00000000000E+00  0.45593999997E+02  0.45594000000E+02  0.51100000000E-03 0.  1.
         11   -1    0    0    0    0 -0.00000000000E+00 -0.00000000000E+00 -0.45593999997E+02  0.45594000000E+02  0.51100000000E-03 0. -1.
    9900012    2    1    2    0    0 -0.71239914164E+01 -0.15658627900E+02  0.73983058701E+01  0.72461579863E+02  0.70000012465E+02 0.  0.
         12    1    1    2    0    0  0.71239914164E+01  0.15658627900E+02 -0.73983058701E+01  0.18726420137E+02  0.00000000000E+00 0. -1.
         11    1    3    3    0    0 -0.12641354285E+02  0.15656917833E+02 -0.79919210250E+01  0.21652106505E+02  0.51100000000E-03 0. -1.
        -11    1    3    3    0    0  0.17468057453E+02 -0.26287633635E+02  0.11955977572E+01  0.31584840787E+02  0.51100000000E-03 0.  1.
         12    1    3    3    0    0 -0.11950694585E+02 -0.50279120975E+01  0.14194629138E+02  0.19224632571E+02  0.00000000000E+00 0. -1.
</event>
<event>
 7    1  0.1345786E-013  0.7246157E+02  0.7816164E-02  0.1226708E+00
        -11   -1    0    0    0    0  0.00000000000E+00  0.00000000000E+00  0.45593999997E+02  0.45594000000E+02  0.51100000000E-03 0.  1.
         11   -1    0    0    0    0 -0.00000000000E+00 -0.00000000000E+00 -0.45593999997E+02  0.45594000000E+02  0.51100000000E-03 0. -1.
    9900012    2    1    2    0    0 -0.96919503133E+01 -0.39774908732E+01  0.15521753378E+02  0.72461570483E+02  0.70000000246E+02 0.  0.
         12    1    1    2    0    0  0.96919503133E+01  0.39774908732E+01 -0.15521753378E+02  0.18726429517E+02  0.00000000000E+00 0. -1.
         11    1    3    3    0    0  0.15945767101E+02 -0.25400987251E+02  0.17902773268E+02  0.34928311335E+02  0.51100000000E-03 0. -1.
        -11    1    3    3    0    0 -0.24144138413E+02  0.11378921829E+02  0.13226580968E+01  0.26723935085E+02  0.51100000000E-03 0.  1.
         12    1    3    3    0    0 -0.14935790014E+01  0.10044574548E+02 -0.37036779870E+01  0.10809324064E+02  0.00000000000E+00 0. -1.
</event>
<event>
 7    1  0.1345786E-013  0.7246156E+02  0.7816164E-02  0.1226708E+00
        -11   -1    0    0    0    0  0.00000000000E+00  0.00000000000E+00  0.45593999997E+02  0.45594000000E+02  0.51100000000E-03 0. -1.
         11   -1    0    0    0    0 -0.00000000000E+00 -0.00000000000E+00 -0.45593999997E+02  0.45594000000E+02  0.51100000000E-03 0.  1.
    9900012    2    1    2    0    0 -0.14492287938E+02 -0.10421752103E+02  0.56604173288E+01  0.72461557441E+02  0.69999983256E+02 0.  0.
         12    1    1    2    0    0  0.14492287938E+02  0.10421752103E+02 -0.56604173288E+01  0.18726442559E+02  0.00000000000E+00 0. -1.
         11    1    3    3    0    0 -0.21074361515E+01  0.12597678812E+02  0.15785517637E+02  0.20305796362E+02  0.51100000000E-03 0. -1.
        -11    1    3    3    0    0 -0.24543530491E+02 -0.60191410450E+01 -0.16646871711E+02  0.30261085339E+02  0.51100000000E-03 0.  1.
        -12    1    3    3    0    0  0.12158678704E+02 -0.17000289870E+02  0.65217714031E+01  0.21894675739E+02  0.00000000000E+00 0.  1.
</event>
<event>
 7    1  0.1345786E-013  0.7246150E+02  0.7816164E-02  0.1226708E+00
        -11   -1    0    0    0    0  0.00000000000E+00  0.00000000000E+00  0.45593999997E+02  0.45594000000E+02  0.51100000000E-03 0.  1.
         11   -1    0    0    0    0 -0.00000000000E+00 -0.00000000000E+00 -0.45593999997E+02  0.45594000000E+02  0.51100000000E-03 0. -1.
    9900012    2    1    2    0    0  0.10722130328E+02  0.63936700332E+01  0.13958466128E+02  0.72461498140E+02  0.69999906006E+02 0.  0.
         12    1    1    2    0    0 -0.10722130328E+02 -0.63936700332E+01 -0.13958466128E+02  0.18726501860E+02  0.00000000000E+00 0. -1.
         11    1    3    3    0    0 -0.35938925257E+01  0.30787324591E+02  0.11952382876E+01  0.31019413498E+02  0.51100000000E-03 0. -1.
        -11    1    3    3    0    0  0.13586805779E+02 -0.44307017069E+01 -0.45598526534E+01  0.15000822156E+02  0.51100000000E-03 0.  1.
         12    1    3    3    0    0  0.72921707499E+00 -0.19962952851E+02  0.17323080493E+02  0.26441262486E+02  0.00000000000E+00 0. -1.
</event>
<event>
 7    1  0.1345786E-013  0.7246156E+02  0.7816164E-02  0.1226708E+00
        -11   -1    0    0    0    0  0.00000000000E+00  0.00000000000E+00  0.45593999997E+02  0.45594000000E+02  0.51100000000E-03 0.  1.
         11   -1    0    0    0    0 -0.00000000000E+00 -0.00000000000E+00 -0.45593999997E+02  0.45594000000E+02  0.51100000000E-03 0. -1.
    9900012    2    1    2    0    0 -0.10423156699E+02 -0.60945015343E+01  0.14314127517E+02  0.72461564379E+02  0.69999992294E+02 0.  0.
         12    1    1    2    0    0  0.10423156699E+02  0.60945015343E+01 -0.14314127517E+02  0.18726435621E+02  0.00000000000E+00 0. -1.
         11    1    3    3    0    0  0.87773516198E+01 -0.11750926906E+00 -0.62594910649E+01  0.10781323599E+02  0.51100000000E-03 0. -1.
        -11    1    3    3    0    0 -0.25680613226E+02  0.51219464349E+01  0.34117827287E+02  0.43008770850E+02  0.51100000000E-03 0.  1.
        -12    1    3    3    0    0  0.64801049075E+01 -0.11098938700E+02 -0.13544208706E+02  0.18671469930E+02  0.00000000000E+00 0.  1.
</event>
<event>
 7    1  0.1345786E-013  0.7246100E+02  0.7816164E-02  0.1226710E+00
        -11   -1    0    0    0    0  0.00000000000E+00  0.00000000000E+00  0.45593999997E+02  0.45594000000E+02  0.51100000000E-03 0.  1.
         11   -1    0    0    0    0 -0.00000000000E+00 -0.00000000000E+00 -0.45593999997E+02  0.45594000000E+02  0.51100000000E-03 0. -1.
    9900012    2    1    2    0    0 -0.37028903564E+01 -0.15125738381E+02  0.10401983163E+02  0.72460997777E+02  0.69999254186E+02 0.  0.
         12    1    1    2    0    0  0.37028903564E+01  0.15125738381E+02 -0.10401983163E+02  0.18727002223E+02  0.00000000000E+00 0. -1.
         11    1    3    3    0    0 -0.12633887034E+01 -0.74733872710E+01 -0.12382537557E+02  0.14518088887E+02  0.51100000000E-03 0. -1.
        -11    1    3    3    0    0 -0.16691118094E+02 -0.19717052943E+02  0.28451108416E+02  0.38429431044E+02  0.51100000000E-03 0.  1.
        -12    1    3    3    0    0  0.14251616441E+02  0.12064701833E+02 -0.56665876962E+01  0.19513477846E+02  0.00000000000E+00 0.  1.
</event>
<event>
 7    1  0.1345786E-013  0.7246105E+02  0.7816164E-02  0.1226709E+00
        -11   -1    0    0    0    0  0.00000000000E+00  0.00000000000E+00  0.45593999997E+02  0.45594000000E+02  0.51100000000E-03 0. -1.
         11   -1    0    0    0    0 -0.00000000000E+00 -0.00000000000E+00 -0.45593999997E+02  0.45594000000E+02  0.51100000000E-03 0.  1.
    9900012    2    1    2    0    0  0.13356189778E+02 -0.12908620890E+02 -0.23829167434E+01  0.72461051747E+02  0.69999324493E+02 0.  0.
         12    1    1    2    0    0 -0.13356189778E+02  0.12908620890E+02  0.23829167434E+01  0.18726948253E+02  0.00000000000E+00 0. -1.
         11    1    3    3    0    0  0.24121599895E+02 -0.16942170663E+02 -0.26932587592E+02  0.39928097913E+02  0.51100000000E-03 0.  1.
        -11    1    3    3    0    0  0.79919142996E+00 -0.13975724608E+01  0.18190197997E+02  0.18261303873E+02  0.51100000000E-03 0. -1.
         12    1    3    3    0    0 -0.11564601548E+02  0.54311222337E+01  0.63594728511E+01  0.14271649961E+02  0.00000000000E+00 0. -1.
</event>
<event>
 7    1  0.1345786E-013  0.7246158E+02  0.7816164E-02  0.1226708E+00
        -11   -1    0    0    0    0  0.00000000000E+00  0.00000000000E+00  0.45593999997E+02  0.45594000000E+02  0.51100000000E-03 0. -1.
         11   -1    0    0    0    0 -0.00000000000E+00 -0.00000000000E+00 -0.45593999997E+02  0.45594000000E+02  0.51100000000E-03 0.  1.
    9900012    2    1    2    0    0 -0.81675319834E+01  0.16766910748E+02  0.16854613927E+01  0.72461584037E+02  0.70000017902E+02 0.  0.
         12    1    1    2    0    0  0.81675319834E+01 -0.16766910748E+02 -0.16854613927E+01  0.18726415963E+02  0.00000000000E+00 0. -1.
         11    1    3    3    0    0  0.12218130745E+02 -0.97407282555E+01  0.18097565008E+02  0.23909963725E+02  0.51100000000E-03 0. -1.
        -11    1    3    3    0    0 -0.25124365472E+02  0.13754223495E+02 -0.19703652051E+01  0.28710533670E+02  0.51100000000E-03 0.  1.
        -12    1    3    3    0    0  0.47387027440E+01  0.12753415509E+02 -0.14441738410E+02  0.19841086642E+02  0.00000000000E+00 0.  1.
</event>
<event>
 7    1  0.1345786E-013  0.7246156E+02  0.7816164E-02  0.1226708E+00
        -11   -1    0    0    0    0  0.00000000000E+00  0.00000000000E+00  0.45593999997E+02  0.45594000000E+02  0.51100000000E-03 0.  1.
         11   -1    0    0    0    0 -0.00000000000E+00 -0.00000000000E+00 -0.45593999997E+02  0.45594000000E+02  0.51100000000E-03 0. -1.
    9900012    2    1    2    0    0  0.38749259427E+01  0.13032672662E+01  0.18274735996E+02  0.72461560607E+02  0.69999987380E+02 0.  0.
         12    1    1    2    0    0 -0.38749259427E+01 -0.13032672662E+01 -0.18274735996E+02  0.18726439393E+02  0.00000000000E+00 0. -1.
         11    1    3    3    0    0 -0.19136610199E+02 -0.81740742063E+01 -0.17245637519E+02  0.27026604536E+02  0.51100000000E-03 0. -1.
        -11    1    3    3    0    0  0.10553060388E+02  0.11545327230E+02  0.21117374154E+02  0.26279367493E+02  0.51100000000E-03 0.  1.
         12    1    3    3    0    0  0.12458475754E+02 -0.20679857572E+01  0.14402999360E+02  0.19155588578E+02  0.00000000000E+00 0. -1.
</event>
<event>
 7    1  0.1345786E-013  0.7246155E+02  0.7816164E-02  0.1226708E+00
        -11   -1    0    0    0    0  0.00000000000E+00  0.00000000000E+00  0.45593999997E+02  0.45594000000E+02  0.51100000000E-03 0. -1.
         11   -1    0    0    0    0 -0.00000000000E+00 -0.00000000000E+00 -0.45593999997E+02  0.45594000000E+02  0.51100000000E-03 0.  1.
    9900012    2    1    2    0    0  0.65376052631E+01 -0.73771504330E+01 -0.15922227524E+02  0.72461549178E+02  0.69999972492E+02 0.  0.
         12    1    1    2    0    0 -0.65376052631E+01  0.73771504330E+01  0.15922227524E+02  0.18726450822E+02  0.00000000000E+00 0. -1.
         11    1    3    3    0    0 -0.18346743538E+00  0.45344152656E+01  0.70951842407E+01  0.84223643813E+01  0.51100000000E-03 0. -1.
        -11    1    3    3    0    0  0.24582810822E+02 -0.26849962168E+02 -0.15551677843E+02  0.39586484314E+02  0.51100000000E-03 0.  1.
        -12    1    3    3    0    0 -0.17861738124E+02  0.14938396470E+02 -0.74657339215E+01  0.24452700482E+02  0.00000000000E+00 0.  1.
</event>
<event>
 7    1  0.1345786E-013  0.7246166E+02  0.7816164E-02  0.1226708E+00
        -11   -1    0    0    0    0  0.00000000000E+00  0.00000000000E+00  0.45593999997E+02  0.45594000000E+02  0.51100000000E-03 0.  1.
         11   -1    0    0    0    0 -0.00000000000E+00 -0.00000000000E+00 -0.45593999997E+02  0.45594000000E+02  0.51100000000E-03 0. -1.
    9900012    2    1    2    0    0 -0.12644199453E+02 -0.13191460014E+02  0.40969983409E+01  0.72461660462E+02  0.70000117460E+02 0.  0.
         12    1    1    2    0    0  0.12644199453E+02  0.13191460014E+02 -0.40969983409E+01  0.18726339538E+02  0.00000000000E+00 0. -1.
         11    1    3    3    0    0 -0.20227679933E+02  0.18326468657E+02 -0.88841341449E+01  0.28704465309E+02  0.51100000000E-03 0. -1.
        -11    1    3    3    0    0 -0.78894981770E+01 -0.16322898825E+02  0.12580680545E+02  0.22067050794E+02  0.51100000000E-03 0.  1.
         12    1    3    3    0    0  0.15472978657E+02 -0.15195029845E+02  0.40045194103E+00  0.21690144359E+02  0.00000000000E+00 0. -1.
</event>
<event>
 7    1  0.1345786E-013  0.7246154E+02  0.7816164E-02  0.1226708E+00
        -11   -1    0    0    0    0  0.00000000000E+00  0.00000000000E+00  0.45593999997E+02  0.45594000000E+02  0.51100000000E-03 0.  1.
         11   -1    0    0    0    0 -0.00000000000E+00 -0.00000000000E+00 -0.45593999997E+02  0.45594000000E+02  0.51100000000E-03 0. -1.
    9900012    2    1    2    0    0 -0.43031384936E+01  0.18157593323E+02  0.15700170940E+01  0.72461544119E+02  0.69999965902E+02 0.  0.
         12    1    1    2    0    0  0.43031384936E+01 -0.18157593323E+02 -0.15700170940E+01  0.18726455881E+02  0.00000000000E+00 0. -1.
         11    1    3    3    0    0  0.88270305426E+01  0.18322009162E+02  0.31948141502E+02  0.37872103634E+02  0.51100000000E-03 0. -1.
        -11    1    3    3    0    0 -0.45683124111E+00 -0.14776241327E+01  0.10550578116E+00  0.15502256582E+01  0.51100000000E-03 0.  1.
         12    1    3    3    0    0 -0.12673337795E+02  0.13132082939E+01 -0.30483630189E+02  0.33039214827E+02  0.00000000000E+00 0. -1.
</event>
<event>
 7    1  0.1345786E-013  0.7246159E+02  0.7816164E-02  0.1226708E+00
        -11   -1    0    0    0    0  0.00000000000E+00  0.00000000000E+00  0.45593999997E+02  0.45594000000E+02  0.51100000000E-03 0.  1.
         11   -1    0    0    0    0 -0.00000000000E+00 -0.00000000000E+00 -0.45593999997E+02  0.45594000000E+02  0.51100000000E-03 0. -1.
    9900012    2    1    2    0    0  0.12877799209E+02 -0.74051253162E+01  0.11401961922E+02  0.72461592734E+02  0.70000029232E+02 0.  0.
         12    1    1    2    0    0 -0.12877799209E+02  0.74051253162E+01 -0.11401961922E+02  0.18726407266E+02  0.00000000000E+00 0. -1.
         11    1    3    3    0    0 -0.69649346291E+01 -0.16399084913E+02 -0.13567471293E+02  0.22394565812E+02  0.51100000000E-03 0. -1.
        -11    1    3    3    0    0  0.15811004891E+02 -0.14207738228E+01  0.32791707710E+02  0.36432163931E+02  0.51100000000E-03 0.  1.
         12    1    3    3    0    0  0.40317289477E+01  0.10414733419E+02 -0.78222744954E+01  0.13634862991E+02  0.00000000000E+00 0. -1.
</event>
<event>
 7    1  0.1345786E-013  0.7246159E+02  0.7816164E-02  0.1226708E+00
        -11   -1    0    0    0    0  0.00000000000E+00  0.00000000000E+00  0.45593999997E+02  0.45594000000E+02  0.51100000000E-03 0.  1.
         11   -1    0    0    0    0 -0.00000000000E+00 -0.00000000000E+00 -0.45593999997E+02  0.45594000000E+02  0.51100000000E-03 0. -1.
    9900012    2    1    2    0    0 -0.14571074812E+02  0.77204971457E+01  0.88744569716E+01  0.72461593941E+02  0.70000030804E+02 0.  0.
         12    1    1    2    0    0  0.14571074812E+02 -0.77204971457E+01 -0.88744569716E+01  0.18726406059E+02  0.00000000000E+00 0. -1.
         11    1    3    3    0    0 -0.27997958475E+02 -0.24634377479E+01  0.63575913313E+01  0.28816196351E+02  0.51100000000E-03 0. -1.
        -11    1    3    3    0    0  0.85966125187E+01  0.31239632468E+01  0.21204422020E+02  0.23093038056E+02  0.51100000000E-03 0.  1.
         12    1    3    3    0    0  0.48302711452E+01  0.70599716468E+01 -0.18687556380E+02  0.20552359535E+02  0.00000000000E+00 0. -1.
</event>
<event>
 7    1  0.1345786E-013  0.7246155E+02  0.7816164E-02  0.1226708E+00
        -11   -1    0    0    0    0  0.00000000000E+00  0.00000000000E+00  0.45593999997E+02  0.45594000000E+02  0.51100000000E-03 0.  1.
         11   -1    0    0    0    0 -0.00000000000E+00 -0.00000000000E+00 -0.45593999997E+02  0.45594000000E+02  0.51100000000E-03 0. -1.
    9900012    2    1    2    0    0  0.69565977298E+01  0.10564937194E+02  0.13808252377E+02  0.72461548558E+02  0.69999971684E+02 0.  0.
         12    1    1    2    0    0 -0.69565977298E+01 -0.10564937194E+02 -0.13808252377E+02  0.18726451442E+02  0.00000000000E+00 0. -1.
         11    1    3    3    0    0 -0.90353077596E+01 -0.17901047502E+02 -0.16488113262E+02  0.25960396129E+02  0.51100000000E-03 0.  1.
        -11    1    3    3    0    0  0.10504838293E+02  0.23157309786E+02  0.15309221723E+02  0.29681389693E+02  0.51100000000E-03 0. -1.
        -12    1    3    3    0    0  0.54870671961E+01  0.53086749101E+01  0.14987143916E+02  0.16819762735E+02  0.00000000000E+00 0.  1.
</event>
<event>
 7    1  0.1345786E-013  0.7246159E+02  0.7816164E-02  0.1226708E+00
        -11   -1    0    0    0    0  0.00000000000E+00  0.00000000000E+00  0.45593999997E+02  0.45594000000E+02  0.51100000000E-03 0.  1.
         11   -1    0    0    0    0 -0.00000000000E+00 -0.00000000000E+00 -0.45593999997E+02  0.45594000000E+02  0.51100000000E-03 0. -1.
    9900012    2    1    2    0    0 -0.10070373831E+02 -0.39156343516E+01  0.15294896143E+02  0.72461588985E+02  0.70000024348E+02 0.  0.
         12    1    1    2    0    0  0.10070373831E+02  0.39156343516E+01 -0.15294896143E+02  0.18726411015E+02  0.00000000000E+00 0. -1.
         11    1    3    3    0    0  0.13980116284E+02 -0.28043776543E+02  0.48405762500E+01  0.31706911436E+02  0.51100000000E-03 0.  1.
        -11    1    3    3    0    0 -0.91800650181E+01  0.67528212658E-01  0.83195079805E+01  0.12389203651E+02  0.51100000000E-03 0. -1.
         12    1    3    3    0    0 -0.14870425097E+02  0.24060613979E+02  0.21348119124E+01  0.28365473899E+02  0.00000000000E+00 0. -1.
</event>
<event>
 7    1  0.1345786E-013  0.7246165E+02  0.7816164E-02  0.1226708E+00
        -11   -1    0    0    0    0  0.00000000000E+00  0.00000000000E+00  0.45593999997E+02  0.45594000000E+02  0.51100000000E-03 0.  1.
         11   -1    0    0    0    0 -0.00000000000E+00 -0.00000000000E+00 -0.45593999997E+02  0.45594000000E+02  0.51100000000E-03 0. -1.
    9900012    2    1    2    0    0 -0.69990338152E+01  0.11319358759E+02  0.13174279641E+02  0.72461654892E+02  0.70000110204E+02 0.  0.
         12    1    1    2    0    0  0.69990338152E+01 -0.11319358759E+02 -0.13174279641E+02  0.18726345108E+02  0.00000000000E+00 0. -1.
         11    1    3    3    0    0  0.46166142357E+01 -0.26503381643E+01 -0.26248776480E+01  0.59352676700E+01  0.51100000000E-03 0. -1.
        -11    1    3    3    0    0 -0.29572633493E+02 -0.13015382592E+01  0.27326628352E+02  0.40286216885E+02  0.51100000000E-03 0.  1.
        -12    1    3    3    0    0  0.17956985442E+02  0.15271235183E+02 -0.11527471063E+02  0.26240170337E+02  0.00000000000E+00 0.  1.
</event>
<event>
 7    1  0.1345786E-013  0.7246158E+02  0.7816164E-02  0.1226708E+00
        -11   -1    0    0    0    0  0.00000000000E+00  0.00000000000E+00  0.45593999997E+02  0.45594000000E+02  0.51100000000E-03 0. -1.
         11   -1    0    0    0    0 -0.00000000000E+00 -0.00000000000E+00 -0.45593999997E+02  0.45594000000E+02  0.51100000000E-03 0.  1.
    9900012    2    1    2    0    0  0.70521682254E+01  0.99234912772E+01 -0.14229194880E+02  0.72461581689E+02  0.70000014844E+02 0.  0.
         12    1    1    2    0    0 -0.70521682254E+01 -0.99234912772E+01  0.14229194880E+02  0.18726418311E+02  0.00000000000E+00 0. -1.
         11    1    3    3    0    0  0.20206155242E+02  0.35247405970E+02 -0.12103707144E+02  0.42393019050E+02  0.51100000000E-03 0.  1.
        -11    1    3    3    0    0 -0.10099006075E+02 -0.22680646802E+02  0.11701862640E+01  0.24854999481E+02  0.51100000000E-03 0. -1.
         12    1    3    3    0    0 -0.30549809417E+01 -0.26432678907E+01 -0.32956740001E+01  0.52135631589E+01  0.00000000000E+00 0. -1.
</event>
<event>
 7    1  0.1345786E-013  0.7246158E+02  0.7816164E-02  0.1226708E+00
        -11   -1    0    0    0    0  0.00000000000E+00  0.00000000000E+00  0.45593999997E+02  0.45594000000E+02  0.51100000000E-03 0. -1.
         11   -1    0    0    0    0 -0.00000000000E+00 -0.00000000000E+00 -0.45593999997E+02  0.45594000000E+02  0.51100000000E-03 0.  1.
    9900012    2    1    2    0    0 -0.72210433472E+01  0.14997822458E+02  0.85790742751E+01  0.72461583874E+02  0.70000017690E+02 0.  0.
         12    1    1    2    0    0  0.72210433472E+01 -0.14997822458E+02 -0.85790742751E+01  0.18726416126E+02  0.00000000000E+00 0. -1.
         11    1    3    3    0    0  0.14374543550E+02 -0.11182030576E+02  0.26194627614E+00  0.18213564346E+02  0.51100000000E-03 0. -1.
        -11    1    3    3    0    0 -0.13660535261E+02  0.26676638798E+02 -0.12112436138E+02  0.32325908968E+02  0.51100000000E-03 0.  1.
         12    1    3    3    0    0 -0.79350516366E+01 -0.49678576388E+00  0.20429564137E+02  0.21922110560E+02  0.00000000000E+00 0. -1.
</event>
<event>
 7    1  0.1345786E-013  0.7246156E+02  0.7816164E-02  0.1226708E+00
        -11   -1    0    0    0    0  0.00000000000E+00  0.00000000000E+00  0.45593999997E+02  0.45594000000E+02  0.51100000000E-03 0. -1.
         11   -1    0    0    0    0 -0.00000000000E+00 -0.00000000000E+00 -0.45593999997E+02  0.45594000000E+02  0.51100000000E-03 0.  1.
    9900012    2    1    2    0    0  0.15394094538E+02  0.10209045155E+02 -0.30784515418E+01  0.72461558440E+02  0.69999984557E+02 0.  0.
         12    1    1    2    0    0 -0.15394094538E+02 -0.10209045155E+02  0.30784515418E+01  0.18726441560E+02  0.00000000000E+00 0. -1.
         11    1    3    3    0    0  0.20841611251E+01  0.17143246273E+02  0.79608642171E+01  0.19016045323E+02  0.51100000000E-03 0. -1.
        -11    1    3    3    0    0 -0.97328775572E+01  0.10227748613E+01 -0.23941024054E+02  0.25864021478E+02  0.51100000000E-03 0.  1.
        -12    1    3    3    0    0  0.23042810970E+02 -0.79569759791E+01  0.12901708295E+02  0.27581491640E+02  0.00000000000E+00 0.  1.
</event>
<event>
 7    1  0.1345786E-013  0.7246166E+02  0.7816164E-02  0.1226708E+00
        -11   -1    0    0    0    0  0.00000000000E+00  0.00000000000E+00  0.45593999997E+02  0.45594000000E+02  0.51100000000E-03 0.  1.
         11   -1    0    0    0    0 -0.00000000000E+00 -0.00000000000E+00 -0.45593999997E+02  0.45594000000E+02  0.51100000000E-03 0. -1.
    9900012    2    1    2    0    0  0.99930773037E+01 -0.19192092622E+01  0.15720400757E+02  0.72461656039E+02  0.70000111698E+02 0.  0.
         12    1    1    2    0    0 -0.99930773037E+01  0.19192092622E+01 -0.15720400757E+02  0.18726343961E+02  0.00000000000E+00 0. -1.
         11    1    3    3    0    0 -0.44888234935E+01  0.14490977337E+02 -0.20180497978E+02  0.25246593027E+02  0.51100000000E-03 0. -1.
        -11    1    3    3    0    0  0.13854879517E+02 -0.96784462613E+01  0.83576726552E+01  0.18854195844E+02  0.51100000000E-03 0.  1.
         12    1    3    3    0    0  0.62702128030E+00 -0.67317403380E+01  0.27543226080E+02  0.28360867168E+02  0.00000000000E+00 0. -1.
</event>
<event>
 8    1  0.1345786E-013  0.7246167E+02  0.7816164E-02  0.1226708E+00
        -11   -1    0    0    0    0  0.00000000000E+00  0.00000000000E+00  0.45593999997E+02  0.45594000000E+02  0.51100000000E-03 0.  1.
         11   -1    0    0    0    0 -0.00000000000E+00 -0.00000000000E+00 -0.45593999997E+02  0.45594000000E+02  0.51100000000E-03 0. -1.
    9900012    2    1    2    0    0 -0.74132762764E+01  0.16114265864E+02  0.60041017026E+01  0.72461669159E+02  0.70000128790E+02 0.  0.
        -24    2    3    3    0    0  0.12047784359E+01 -0.54305498728E+00  0.13577046630E+02  0.52235777334E+02  0.50423147846E+02 0.  0.
         12    1    1    2    0    0  0.74132762764E+01 -0.16114265864E+02 -0.60041017026E+01  0.18726330841E+02  0.00000000000E+00 0. -1.
         11    1    4    4    0    0  0.13807243982E+02 -0.21337487410E+02  0.25684171757E+01  0.25544571290E+02  0.51100000000E-03 0. -1.
        -11    1    3    3    0    0 -0.86180547123E+01  0.16657320852E+02 -0.75729449276E+01  0.20225891825E+02  0.51100000000E-03 0.  1.
        -12    1    4    4    0    0 -0.12602465546E+02  0.20794432423E+02  0.11008629454E+02  0.26691206044E+02  0.00000000000E+00 0.  1.
</event>
<event>
 7    1  0.1345786E-013  0.7246167E+02  0.7816164E-02  0.1226708E+00
        -11   -1    0    0    0    0  0.00000000000E+00  0.00000000000E+00  0.45593999997E+02  0.45594000000E+02  0.51100000000E-03 0. -1.
         11   -1    0    0    0    0 -0.00000000000E+00 -0.00000000000E+00 -0.45593999997E+02  0.45594000000E+02  0.51100000000E-03 0.  1.
    9900012    2    1    2    0    0 -0.32049066964E+01  0.10034919580E+02 -0.15482387026E+02  0.72461672385E+02  0.70000132992E+02 0.  0.
         12    1    1    2    0    0  0.32049066964E+01 -0.10034919580E+02  0.15482387026E+02  0.18726327615E+02  0.00000000000E+00 0. -1.
         11    1    3    3    0    0  0.21037895587E+02  0.33663039078E+01 -0.16639549587E+02  0.27033306558E+02  0.51100000000E-03 0.  1.
        -11    1    3    3    0    0 -0.32565864867E+02  0.11757649556E+02  0.49220915325E+01  0.34971486427E+02  0.51100000000E-03 0. -1.
         12    1    3    3    0    0  0.83230625828E+01 -0.50890338837E+01 -0.37649289713E+01  0.10456879400E+02  0.00000000000E+00 0. -1.
</event>
<event>
 7    1  0.1345786E-013  0.7246150E+02  0.7816164E-02  0.1226708E+00
        -11   -1    0    0    0    0  0.00000000000E+00  0.00000000000E+00  0.45593999997E+02  0.45594000000E+02  0.51100000000E-03 0. -1.
         11   -1    0    0    0    0 -0.00000000000E+00 -0.00000000000E+00 -0.45593999997E+02  0.45594000000E+02  0.51100000000E-03 0.  1.
    9900012    2    1    2    0    0 -0.13150647794E+02  0.84954832393E+01 -0.10274684037E+02  0.72461497259E+02  0.69999904857E+02 0.  0.
         12    1    1    2    0    0  0.13150647794E+02 -0.84954832393E+01  0.10274684037E+02  0.18726502741E+02  0.00000000000E+00 0. -1.
         11    1    3    3    0    0  0.21055821129E+02 -0.13398601094E+02 -0.78798555620E+01  0.26171783253E+02  0.51100000000E-03 0. -1.
        -11    1    3    3    0    0 -0.23451630729E+02  0.18196892656E+02  0.81486892651E+01  0.30781602025E+02  0.51100000000E-03 0.  1.
         12    1    3    3    0    0 -0.10754838193E+02  0.36971916775E+01 -0.10543517740E+02  0.15508111981E+02  0.00000000000E+00 0. -1.
</event>
<event>
 7    1  0.1345786E-013  0.7246176E+02  0.7816164E-02  0.1226707E+00
        -11   -1    0    0    0    0  0.00000000000E+00  0.00000000000E+00  0.45593999997E+02  0.45594000000E+02  0.51100000000E-03 0. -1.
         11   -1    0    0    0    0 -0.00000000000E+00 -0.00000000000E+00 -0.45593999997E+02  0.45594000000E+02  0.51100000000E-03 0.  1.
    9900012    2    1    2    0    0 -0.13316065306E+02  0.47728442650E+01 -0.12270870198E+02  0.72461764579E+02  0.70000253091E+02 0.  0.
         12    1    1    2    0    0  0.13316065306E+02 -0.47728442650E+01  0.12270870198E+02  0.18726235421E+02  0.00000000000E+00 0. -1.
         11    1    3    3    0    0  0.11274293617E+02 -0.86361518873E+01 -0.14361834296E+02  0.20197898420E+02  0.51100000000E-03 0. -1.
        -11    1    3    3    0    0 -0.12866281174E+01  0.23555264748E+02  0.10032881162E+02  0.25635222135E+02  0.51100000000E-03 0.  1.
        -12    1    3    3    0    0 -0.23303730806E+02 -0.10146268595E+02 -0.79419170641E+01  0.26628644024E+02  0.00000000000E+00 0.  1.
</event>
<event>
 7    1  0.1345786E-013  0.7246154E+02  0.7816164E-02  0.1226708E+00
        -11   -1    0    0    0    0  0.00000000000E+00  0.00000000000E+00  0.45593999997E+02  0.45594000000E+02  0.51100000000E-03 0.  1.
         11   -1    0    0    0    0 -0.00000000000E+00 -0.00000000000E+00 -0.45593999997E+02  0.45594000000E+02  0.51100000000E-03 0. -1.
    9900012    2    1    2    0    0  0.11616797060E+02 -0.49570493077E+01  0.13825993342E+02  0.72461537343E+02  0.69999957075E+02 0.  0.
         12    1    1    2    0    0 -0.11616797060E+02  0.49570493077E+01 -0.13825993342E+02  0.18726462657E+02  0.00000000000E+00 0. -1.
         11    1    3    3    0    0  0.88002900347E+01 -0.50534511216E+01 -0.28875412821E+01  0.10550846784E+02  0.51100000000E-03 0. -1.
        -11    1    3    3    0    0 -0.50416319861E+01  0.26584270771E+02  0.20603196020E+02  0.34009310372E+02  0.51100000000E-03 0.  1.
        -12    1    3    3    0    0  0.78581390109E+01 -0.26487868957E+02 -0.38896613959E+01  0.27901380187E+02  0.00000000000E+00 0.  1.
</event>
<event>
 7    1  0.1345786E-013  0.7246155E+02  0.7816164E-02  0.1226708E+00
        -11   -1    0    0    0    0  0.00000000000E+00  0.00000000000E+00  0.45593999997E+02  0.45594000000E+02  0.51100000000E-03 0.  1.
         11   -1    0    0    0    0 -0.00000000000E+00 -0.00000000000E+00 -0.45593999997E+02  0.45594000000E+02  0.51100000000E-03 0. -1.
    9900012    2    1    2    0    0 -0.45380445468E+01  0.13789766758E+01  0.18115865976E+02  0.72461547452E+02  0.69999970243E+02 0.  0.
         12    1    1    2    0    0  0.45380445468E+01 -0.13789766758E+01 -0.18115865976E+02  0.18726452548E+02  0.00000000000E+00 0. -1.
         11    1    3    3    0    0 -0.21886003450E+02 -0.15925155352E+02  0.16505725659E+02  0.31702471509E+02  0.51100000000E-03 0. -1.
        -11    1    3    3    0    0  0.18649567601E+02 -0.51325110083E+00  0.98367985131E+01  0.21091050321E+02  0.51100000000E-03 0.  1.
         12    1    3    3    0    0 -0.13016086979E+01  0.17817383129E+02 -0.82266581958E+01  0.19668025621E+02  0.00000000000E+00 0. -1.
</event>
<event>
 7    1  0.1345786E-013  0.7246159E+02  0.7816164E-02  0.1226708E+00
        -11   -1    0    0    0    0  0.00000000000E+00  0.00000000000E+00  0.45593999997E+02  0.45594000000E+02  0.51100000000E-03 0. -1.
         11   -1    0    0    0    0 -0.00000000000E+00 -0.00000000000E+00 -0.45593999997E+02  0.45594000000E+02  0.51100000000E-03 0.  1.
    9900012    2    1    2    0    0  0.13738227405E+02  0.16762553084E+01 -0.12614655570E+02  0.72461594599E+02  0.70000031661E+02 0.  0.
         12    1    1    2    0    0 -0.13738227405E+02 -0.16762553084E+01  0.12614655570E+02  0.18726405401E+02  0.00000000000E+00 0. -1.
         11    1    3    3    0    0  0.19963677429E+02 -0.22779564965E+02  0.51818975558E+01  0.30729612088E+02  0.51100000000E-03 0. -1.
        -11    1    3    3    0    0  0.77423200176E+01  0.19128499571E+02 -0.17042795764E+02  0.26763779681E+02  0.51100000000E-03 0.  1.
        -12    1    3    3    0    0 -0.13967770042E+02  0.53273207024E+01 -0.75375736112E+00  0.14968202830E+02  0.00000000000E+00 0.  1.
</event>
<event>
 7    1  0.1345786E-013  0.7246157E+02  0.7816164E-02  0.1226708E+00
        -11   -1    0    0    0    0  0.00000000000E+00  0.00000000000E+00  0.45593999997E+02  0.45594000000E+02  0.51100000000E-03 0.  1.
         11   -1    0    0    0    0 -0.00000000000E+00 -0.00000000000E+00 -0.45593999997E+02  0.45594000000E+02  0.51100000000E-03 0. -1.
    9900012    2    1    2    0    0  0.69122361085E+01  0.11126217250E+02  0.13383102628E+02  0.72461570701E+02  0.70000000530E+02 0.  0.
         12    1    1    2    0    0 -0.69122361085E+01 -0.11126217250E+02 -0.13383102628E+02  0.18726429299E+02  0.00000000000E+00 0. -1.
         11    1    3    3    0    0  0.17929312353E+02  0.22279781113E+02 -0.41965814388E+01  0.28904328118E+02  0.51100000000E-03 0. -1.
        -11    1    3    3    0    0  0.41888081290E+01 -0.13676065840E+02  0.23112766140E+02  0.27180523344E+02  0.51100000000E-03 0.  1.
        -12    1    3    3    0    0 -0.15205884374E+02  0.25225019769E+01 -0.55330820724E+01  0.16376719239E+02  0.00000000000E+00 0.  1.
</event>
<event>
 7    1  0.1345786E-013  0.7246153E+02  0.7816164E-02  0.1226708E+00
        -11   -1    0    0    0    0  0.00000000000E+00  0.00000000000E+00  0.45593999997E+02  0.45594000000E+02  0.51100000000E-03 0.  1.
         11   -1    0    0    0    0 -0.00000000000E+00 -0.00000000000E+00 -0.45593999997E+02  0.45594000000E+02  0.51100000000E-03 0. -1.
    9900012    2    1    2    0    0  0.12602864326E+02 -0.96197868358E+01  0.99653455476E+01  0.72461532104E+02  0.69999950249E+02 0.  0.
         12    1    1    2    0    0 -0.12602864326E+02  0.96197868358E+01 -0.99653455476E+01  0.18726467896E+02  0.00000000000E+00 0. -1.
         11    1    3    3    0    0  0.63181728547E+01  0.42030617801E+01  0.22236949013E+02  0.23496104746E+02  0.51100000000E-03 0. -1.
        -11    1    3    3    0    0  0.11238845425E+02 -0.13540675884E+02 -0.27667557500E+02  0.32789560658E+02  0.51100000000E-03 0.  1.
        -12    1    3    3    0    0 -0.49541539531E+01 -0.28217273230E+00  0.15395954035E+02  0.16175866699E+02  0.00000000000E+00 0.  1.
</event>
<event>
 7    1  0.1345786E-013  0.7246156E+02  0.7816164E-02  0.1226708E+00
        -11   -1    0    0    0    0  0.00000000000E+00  0.00000000000E+00  0.45593999997E+02  0.45594000000E+02  0.51100000000E-03 0. -1.
         11   -1    0    0    0    0 -0.00000000000E+00 -0.00000000000E+00 -0.45593999997E+02  0.45594000000E+02  0.51100000000E-03 0.  1.
    9900012    2    1    2    0    0  0.12351535394E+02  0.13783394108E+02  0.28525958718E+01  0.72461556586E+02  0.69999982142E+02 0.  0.
         12    1    1    2    0    0 -0.12351535394E+02 -0.13783394108E+02 -0.28525958718E+01  0.18726443414E+02  0.00000000000E+00 0. -1.
         11    1    3    3    0    0  0.19265740037E+02 -0.33711005867E+01  0.14683324889E+02  0.24456759565E+02  0.51100000000E-03 0. -1.
        -11    1    3    3    0    0  0.11585880760E+01  0.30575947412E+02 -0.10221868883E+02  0.32260153288E+02  0.51100000000E-03 0.  1.
         12    1    3    3    0    0 -0.80727927198E+01 -0.13421452717E+02 -0.16088601350E+01  0.15744643733E+02  0.00000000000E+00 0. -1.
</event>
<event>
 7    1  0.1581721E-013  0.7246162E+02  0.7816164E-02  0.1226708E+00
        -11   -1    0    0    0    0  0.00000000000E+00  0.00000000000E+00  0.45593999997E+02  0.45594000000E+02  0.51100000000E-03 0. -1.
         11   -1    0    0    0    0 -0.00000000000E+00 -0.00000000000E+00 -0.45593999997E+02  0.45594000000E+02  0.51100000000E-03 0.  1.
    9900012    2    1    2    0    0  0.32352144977E+01 -0.88764013991E+01 -0.16168498395E+02  0.72461616073E+02  0.70000059635E+02 0.  0.
         12    1    1    2    0    0 -0.32352144977E+01  0.88764013991E+01  0.16168498395E+02  0.18726383927E+02  0.00000000000E+00 0. -1.
         11    1    3    3    0    0 -0.48171739712E+01  0.24226257000E+02 -0.38325098589E+01  0.24996096203E+02  0.51100000000E-03 0. -1.
        -11    1    3    3    0    0  0.37485056981E+01 -0.16969511658E+02 -0.22106483225E+02  0.28119605646E+02  0.51100000000E-03 0.  1.
         12    1    3    3    0    0  0.43038827708E+01 -0.16133146741E+02  0.97704946884E+01  0.19345914223E+02  0.00000000000E+00 0. -1.
</event>
<event>
 7    1  0.1345786E-013  0.7246153E+02  0.7816164E-02  0.1226708E+00
        -11   -1    0    0    0    0  0.00000000000E+00  0.00000000000E+00  0.45593999997E+02  0.45594000000E+02  0.51100000000E-03 0.  1.
         11   -1    0    0    0    0 -0.00000000000E+00 -0.00000000000E+00 -0.45593999997E+02  0.45594000000E+02  0.51100000000E-03 0. -1.
    9900012    2    1    2    0    0  0.17351238822E+02 -0.70395287178E+01  0.24530499043E+00  0.72461531359E+02  0.69999949280E+02 0.  0.
         12    1    1    2    0    0 -0.17351238822E+02  0.70395287178E+01 -0.24530499043E+00  0.18726468641E+02  0.00000000000E+00 0. -1.
         11    1    3    3    0    0 -0.15686127413E+02 -0.26015014543E+02 -0.37232544193E+00  0.30380490473E+02  0.51100000000E-03 0. -1.
        -11    1    3    3    0    0  0.11475686714E+02  0.89895678600E+01  0.87071650564E+01  0.16979942269E+02  0.51100000000E-03 0.  1.
         12    1    3    3    0    0  0.21561679520E+02  0.99859179655E+01 -0.80895346241E+01  0.25101098617E+02  0.00000000000E+00 0. -1.
</event>
<event>
 7    1  0.1345786E-013  0.7246169E+02  0.7816164E-02  0.1226708E+00
        -11   -1    0    0    0    0  0.00000000000E+00  0.00000000000E+00  0.45593999997E+02  0.45594000000E+02  0.51100000000E-03 0. -1.
         11   -1    0    0    0    0 -0.00000000000E+00 -0.00000000000E+00 -0.45593999997E+02  0.45594000000E+02  0.51100000000E-03 0.  1.
    9900012    2    1    2    0    0  0.60386440779E+01 -0.64142555276E+01 -0.16524733355E+02  0.72461689399E+02  0.70000155156E+02 0.  0.
         12    1    1    2    0    0 -0.60386440779E+01  0.64142555276E+01  0.16524733355E+02  0.18726310601E+02  0.00000000000E+00 0. -1.
         11    1    3    3    0    0 -0.93173771917E+01 -0.11115165316E+02 -0.27345861472E+02  0.30954104052E+02  0.51100000000E-03 0. -1.
        -11    1    3    3    0    0  0.27097093998E+02  0.12575204198E+01  0.10997337783E+02  0.29270724271E+02  0.51100000000E-03 0.  1.
         12    1    3    3    0    0 -0.11741072729E+02  0.34433893691E+01 -0.17620966656E+00  0.12236861077E+02  0.00000000000E+00 0. -1.
</event>
<event>
 7    1  0.1345786E-013  0.7246156E+02  0.7816164E-02  0.1226708E+00
        -11   -1    0    0    0    0  0.00000000000E+00  0.00000000000E+00  0.45593999997E+02  0.45594000000E+02  0.51100000000E-03 0.  1.
         11   -1    0    0    0    0 -0.00000000000E+00 -0.00000000000E+00 -0.45593999997E+02  0.45594000000E+02  0.51100000000E-03 0. -1.
    9900012    2    1    2    0    0 -0.91009866292E+01  0.10160629911E+02  0.12830171604E+02  0.72461557166E+02  0.69999982898E+02 0.  0.
         12    1    1    2    0    0  0.91009866292E+01 -0.10160629911E+02 -0.12830171604E+02  0.18726442834E+02  0.00000000000E+00 0. -1.
         11    1    3    3    0    0 -0.55511690629E+01  0.36754376061E+02 -0.32741503261E+01  0.37315140334E+02  0.51100000000E-03 0. -1.
        -11    1    3    3    0    0  0.52040826855E+01 -0.31136705938E+01  0.19708776358E+01  0.63766590062E+01  0.51100000000E-03 0.  1.
         12    1    3    3    0    0 -0.87539002518E+01 -0.23480075555E+02  0.14133444295E+02  0.28769757825E+02  0.00000000000E+00 0. -1.
</event>
<event>
 7    1  0.1345786E-013  0.7246160E+02  0.7816164E-02  0.1226708E+00
        -11   -1    0    0    0    0  0.00000000000E+00  0.00000000000E+00  0.45593999997E+02  0.45594000000E+02  0.51100000000E-03 0.  1.
         11   -1    0    0    0    0 -0.00000000000E+00 -0.00000000000E+00 -0.45593999997E+02  0.45594000000E+02  0.51100000000E-03 0. -1.
    9900012    2    1    2    0    0 -0.17827631584E+02 -0.34386120021E+01 -0.45857890421E+01  0.72461602548E+02  0.70000042017E+02 0.  0.
         12    1    1    2    0    0  0.17827631584E+02  0.34386120021E+01  0.45857890421E+01  0.18726397452E+02  0.00000000000E+00 0. -1.
         11    1    3    3    0    0  0.16128355089E+02 -0.31399376654E+01  0.21538329188E+01  0.16571724199E+02  0.51100000000E-03 0. -1.
        -11    1    3    3    0    0 -0.28201276303E+02 -0.84298014040E+01  0.14215734566E+02  0.32687316292E+02  0.51100000000E-03 0.  1.
        -12    1    3    3    0    0 -0.57547103699E+01  0.81311270672E+01 -0.20955356527E+02  0.23202562057E+02  0.00000000000E+00 0.  1.
</event>
<event>
 7    1  0.1345786E-013  0.7246155E+02  0.7816164E-02  0.1226708E+00
        -11   -1    0    0    0    0  0.00000000000E+00  0.00000000000E+00  0.45593999997E+02  0.45594000000E+02  0.51100000000E-03 0. -1.
         11   -1    0    0    0    0 -0.00000000000E+00 -0.00000000000E+00 -0.45593999997E+02  0.45594000000E+02  0.51100000000E-03 0.  1.
    9900012    2    1    2    0    0 -0.11361753763E+02 -0.97846359100E+01 -0.11218344622E+02  0.72461553340E+02  0.69999977913E+02 0.  0.
         12    1    1    2    0    0  0.11361753763E+02  0.97846359100E+01  0.11218344622E+02  0.18726446660E+02  0.00000000000E+00 0. -1.
         11    1    3    3    0    0  0.89666356567E-01  0.16113080357E+02 -0.26694604174E+02  0.31180784001E+02  0.51100000000E-03 0. -1.
        -11    1    3    3    0    0 -0.12504809398E+01 -0.22238469710E+02 -0.13806054083E+00  0.22274027444E+02  0.51100000000E-03 0.  1.
         12    1    3    3    0    0 -0.10200939179E+02 -0.36592465574E+01  0.15614320092E+02  0.19006741895E+02  0.00000000000E+00 0. -1.
</event>
<event>
 7    1  0.1345786E-013  0.7246153E+02  0.7816164E-02  0.1226708E+00
        -11   -1    0    0    0    0  0.00000000000E+00  0.00000000000E+00  0.45593999997E+02  0.45594000000E+02  0.51100000000E-03 0.  1.
         11   -1    0    0    0    0 -0.00000000000E+00 -0.00000000000E+00 -0.45593999997E+02  0.45594000000E+02  0.51100000000E-03 0. -1.
    9900012    2    1    2    0    0 -0.63645382109E+01  0.17589677308E+02 -0.88133231889E+00  0.72461525663E+02  0.69999941859E+02 0.  0.
         12    1    1    2    0    0  0.63645382109E+01 -0.17589677308E+02  0.88133231889E+00  0.18726474337E+02  0.00000000000E+00 0. -1.
         11    1    3    3    0    0 -0.13391543406E+02  0.27483938837E+01 -0.20971883001E+02  0.25034116334E+02  0.51100000000E-03 0. -1.
        -11    1    3    3    0    0  0.19647937422E+02  0.11646865974E+00  0.19995792303E+02  0.28033671183E+02  0.51100000000E-03 0.  1.
        -12    1    3    3    0    0 -0.12620932227E+02  0.14724814765E+02  0.94758379244E-01  0.19393738146E+02  0.00000000000E+00 0.  1.
</event>
<event>
 7    1  0.1345786E-013  0.7246158E+02  0.7816164E-02  0.1226708E+00
        -11   -1    0    0    0    0  0.00000000000E+00  0.00000000000E+00  0.45593999997E+02  0.45594000000E+02  0.51100000000E-03 0. -1.
         11   -1    0    0    0    0 -0.00000000000E+00 -0.00000000000E+00 -0.45593999997E+02  0.45594000000E+02  0.51100000000E-03 0.  1.
    9900012    2    1    2    0    0 -0.88410593689E+00  0.38209461094E+01 -0.18311129198E+02  0.72461582163E+02  0.70000015462E+02 0.  0.
         12    1    1    2    0    0  0.88410593689E+00 -0.38209461094E+01  0.18311129198E+02  0.18726417837E+02  0.00000000000E+00 0. -1.
         11    1    3    3    0    0 -0.67026178030E+01  0.18017692243E+02 -0.21107629985E+02  0.28549857495E+02  0.51100000000E-03 0. -1.
        -11    1    3    3    0    0 -0.12791190150E+02 -0.14692813194E+02  0.12270866717E+02  0.23023194288E+02  0.51100000000E-03 0.  1.
        -12    1    3    3    0    0  0.18609702016E+02  0.49606706043E+00 -0.94743659304E+01  0.20888530380E+02  0.00000000000E+00 0.  1.
</event>
<event>
 7    1  0.1345786E-013  0.7246157E+02  0.7816164E-02  0.1226708E+00
        -11   -1    0    0    0    0  0.00000000000E+00  0.00000000000E+00  0.45593999997E+02  0.45594000000E+02  0.51100000000E-03 0.  1.
         11   -1    0    0    0    0 -0.00000000000E+00 -0.00000000000E+00 -0.45593999997E+02  0.45594000000E+02  0.51100000000E-03 0. -1.
    9900012    2    1    2    0    0 -0.16719327493E+02 -0.15645980527E+01  0.82882648018E+01  0.72461569152E+02  0.69999998512E+02 0.  0.
         12    1    1    2    0    0  0.16719327493E+02  0.15645980527E+01 -0.82882648018E+01  0.18726430848E+02  0.00000000000E+00 0. -1.
         11    1    3    3    0    0  0.52742053363E+01 -0.14522518201E+01  0.23161219472E+02  0.23798495015E+02  0.51100000000E-03 0.  1.
        -11    1    3    3    0    0 -0.31355674471E+02 -0.29132830525E+01 -0.76348933723E+00  0.31499975490E+02  0.51100000000E-03 0. -1.
        -12    1    3    3    0    0  0.93621416411E+01  0.28009368198E+01 -0.14109465333E+02  0.17163098647E+02  0.00000000000E+00 0.  1.
</event>
<event>
 7    1  0.1345786E-013  0.7246158E+02  0.7816164E-02  0.1226708E+00
        -11   -1    0    0    0    0  0.00000000000E+00  0.00000000000E+00  0.45593999997E+02  0.45594000000E+02  0.51100000000E-03 0.  1.
         11   -1    0    0    0    0 -0.00000000000E+00 -0.00000000000E+00 -0.45593999997E+02  0.45594000000E+02  0.51100000000E-03 0. -1.
    9900012    2    1    2    0    0 -0.13628645618E+02 -0.84109612524E+01 -0.97053937747E+01  0.72461576986E+02  0.70000008717E+02 0.  0.
         12    1    1    2    0    0  0.13628645618E+02  0.84109612524E+01  0.97053937747E+01  0.18726423014E+02  0.00000000000E+00 0. -1.
         11    1    3    3    0    0 -0.22438727871E+02  0.81452587808E+01  0.33846068594E+01  0.24110108107E+02  0.51100000000E-03 0. -1.
        -11    1    3    3    0    0  0.23748451207E+02 -0.94054733326E+01  0.24247355596E+01  0.25657965744E+02  0.51100000000E-03 0.  1.
        -12    1    3    3    0    0 -0.14938368953E+02 -0.71507467006E+01 -0.15514736194E+02  0.22693503135E+02  0.00000000000E+00 0.  1.
</event>
<event>
 7    1  0.1345786E-013  0.7246156E+02  0.7816164E-02  0.1226708E+00
        -11   -1    0    0    0    0  0.00000000000E+00  0.00000000000E+00  0.45593999997E+02  0.45594000000E+02  0.51100000000E-03 0. -1.
         11   -1    0    0    0    0 -0.00000000000E+00 -0.00000000000E+00 -0.45593999997E+02  0.45594000000E+02  0.51100000000E-03 0.  1.
    9900012    2    1    2    0    0 -0.15735741539E+01  0.13497650103E+02 -0.12884754143E+02  0.72461559248E+02  0.69999985610E+02 0.  0.
         12    1    1    2    0    0  0.15735741539E+01 -0.13497650103E+02  0.12884754143E+02  0.18726440752E+02  0.00000000000E+00 0. -1.
         11    1    3    3    0    0  0.23588033032E+02 -0.55153333121E+01 -0.21966982976E+02  0.32701109235E+02  0.51100000000E-03 0. -1.
        -11    1    3    3    0    0 -0.19972405998E+02  0.15629300265E+02 -0.36297969055E+01  0.25619278951E+02  0.51100000000E-03 0.  1.
         12    1    3    3    0    0 -0.51892011874E+01  0.33836831493E+01  0.12712025738E+02  0.14141171062E+02  0.00000000000E+00 0. -1.
</event>
<event>
 7    1  0.1345786E-013  0.7246112E+02  0.7816164E-02  0.1226709E+00
        -11   -1    0    0    0    0  0.00000000000E+00  0.00000000000E+00  0.45593999997E+02  0.45594000000E+02  0.51100000000E-03 0.  1.
         11   -1    0    0    0    0 -0.00000000000E+00 -0.00000000000E+00 -0.45593999997E+02  0.45594000000E+02  0.51100000000E-03 0. -1.
    9900012    2    1    2    0    0  0.88063339768E+01 -0.63814648459E+01  0.15245377153E+02  0.72461117285E+02  0.69999409869E+02 0.  0.
         12    1    1    2    0    0 -0.88063339768E+01  0.63814648459E+01 -0.15245377153E+02  0.18726882715E+02  0.00000000000E+00 0. -1.
         11    1    3    3    0    0  0.25861848643E+02  0.13247023217E+01  0.45709554942E+01  0.26296077385E+02  0.51100000000E-03 0. -1.
        -11    1    3    3    0    0 -0.86434144274E+00 -0.17961461686E+02  0.18190328480E+02  0.25578296317E+02  0.51100000000E-03 0.  1.
         12    1    3    3    0    0 -0.16191173223E+02  0.10255294518E+02 -0.75159068213E+01  0.20586743583E+02  0.00000000000E+00 0. -1.
</event>
<event>
 7    1  0.1345786E-013  0.7246157E+02  0.7816164E-02  0.1226708E+00
        -11   -1    0    0    0    0  0.00000000000E+00  0.00000000000E+00  0.45593999997E+02  0.45594000000E+02  0.51100000000E-03 0. -1.
         11   -1    0    0    0    0 -0.00000000000E+00 -0.00000000000E+00 -0.45593999997E+02  0.45594000000E+02  0.51100000000E-03 0.  1.
    9900012    2    1    2    0    0 -0.73532302999E+01 -0.16945809575E+02  0.30738695329E+01  0.72461571298E+02  0.70000001308E+02 0.  0.
         12    1    1    2    0    0  0.73532302999E+01  0.16945809575E+02 -0.30738695329E+01  0.18726428702E+02  0.00000000000E+00 0. -1.
         11    1    3    3    0    0  0.21254469814E+02 -0.31206580913E+02 -0.53267931937E+01  0.38131062211E+02  0.51100000000E-03 0.  1.
        -11    1    3    3    0    0 -0.22014279218E+02  0.61967613412E+01  0.58680343484E+01  0.23610636755E+02  0.51100000000E-03 0. -1.
        -12    1    3    3    0    0 -0.65934208962E+01  0.80640099960E+01  0.25326283781E+01  0.10719872333E+02  0.00000000000E+00 0.  1.
</event>
<event>
 7    1  0.1345786E-013  0.7246156E+02  0.7816164E-02  0.1226708E+00
        -11   -1    0    0    0    0  0.00000000000E+00  0.00000000000E+00  0.45593999997E+02  0.45594000000E+02  0.51100000000E-03 0.  1.
         11   -1    0    0    0    0 -0.00000000000E+00 -0.00000000000E+00 -0.45593999997E+02  0.45594000000E+02  0.51100000000E-03 0. -1.
    9900012    2    1    2    0    0  0.51360152761E+01 -0.81942619767E+01  0.16036047873E+02  0.72461563776E+02  0.69999991509E+02 0.  0.
         12    1    1    2    0    0 -0.51360152761E+01  0.81942619767E+01 -0.16036047873E+02  0.18726436224E+02  0.00000000000E+00 0. -1.
         11    1    3    3    0    0 -0.45686147159E+01 -0.28839324343E+01 -0.21737725448E+02  0.22399062807E+02  0.51100000000E-03 0. -1.
        -11    1    3    3    0    0 -0.14323518272E+01  0.60523050917E+01  0.32812130004E+02  0.33396375617E+02  0.51100000000E-03 0.  1.
        -12    1    3    3    0    0  0.11136981819E+02 -0.11362634634E+02  0.49616433167E+01  0.16666125353E+02  0.00000000000E+00 0.  1.
</event>
<event>
 7    1  0.1345786E-013  0.7246140E+02  0.7816164E-02  0.1226708E+00
        -11   -1    0    0    0    0  0.00000000000E+00  0.00000000000E+00  0.45593999997E+02  0.45594000000E+02  0.51100000000E-03 0.  1.
         11   -1    0    0    0    0 -0.00000000000E+00 -0.00000000000E+00 -0.45593999997E+02  0.45594000000E+02  0.51100000000E-03 0. -1.
    9900012    2    1    2    0    0  0.10955520355E+02  0.30484736775E+01  0.14878469678E+02  0.72461401858E+02  0.69999780580E+02 0.  0.
         12    1    1    2    0    0 -0.10955520355E+02 -0.30484736775E+01 -0.14878469678E+02  0.18726598142E+02  0.00000000000E+00 0. -1.
         11    1    3    3    0    0 -0.15976933903E+02  0.14329473033E+02  0.18852942925E+02  0.28566233065E+02  0.51100000000E-03 0. -1.
        -11    1    3    3    0    0  0.20884983171E+02  0.80509189967E+01  0.27524704793E+01  0.22551627718E+02  0.51100000000E-03 0.  1.
         12    1    3    3    0    0  0.60474710868E+01 -0.19331918352E+02 -0.67269437266E+01  0.21343541075E+02  0.00000000000E+00 0. -1.
</event>
<event>
 7    1  0.1345786E-013  0.7246156E+02  0.7816164E-02  0.1226708E+00
        -11   -1    0    0    0    0  0.00000000000E+00  0.00000000000E+00  0.45593999997E+02  0.45594000000E+02  0.51100000000E-03 0.  1.
         11   -1    0    0    0    0 -0.00000000000E+00 -0.00000000000E+00 -0.45593999997E+02  0.45594000000E+02  0.51100000000E-03 0. -1.
    9900012    2    1    2    0    0 -0.78690631878E+01 -0.15334374199E+02 -0.73221730496E+01  0.72461563989E+02  0.69999991786E+02 0.  0.
         12    1    1    2    0    0  0.78690631878E+01  0.15334374199E+02  0.73221730496E+01  0.18726436011E+02  0.00000000000E+00 0. -1.
         11    1    3    3    0    0  0.15041916683E+02  0.91210804795E+01 -0.20444762184E+02  0.26971126555E+02  0.51100000000E-03 0. -1.
        -11    1    3    3    0    0 -0.21434582530E+02 -0.29181423173E+02  0.58272537800E+01  0.36673610042E+02  0.51100000000E-03 0.  1.
        -12    1    3    3    0    0 -0.14763973410E+01  0.47259684955E+01  0.72953353542E+01  0.88168273919E+01  0.00000000000E+00 0.  1.
</event>
<event>
 7    1  0.1345786E-013  0.7246165E+02  0.7816164E-02  0.1226708E+00
        -11   -1    0    0    0    0  0.00000000000E+00  0.00000000000E+00  0.45593999997E+02  0.45594000000E+02  0.51100000000E-03 0.  1.
         11   -1    0    0    0    0 -0.00000000000E+00 -0.00000000000E+00 -0.45593999997E+02  0.45594000000E+02  0.51100000000E-03 0. -1.
    9900012    2    1    2    0    0 -0.41494999562E+01  0.24979631597E+01  0.18089169960E+02  0.72461648522E+02  0.70000101906E+02 0.  0.
         12    1    1    2    0    0  0.41494999562E+01 -0.24979631597E+01 -0.18089169960E+02  0.18726351478E+02  0.00000000000E+00 0. -1.
         11    1    3    3    0    0 -0.27567113217E+02 -0.11885072459E+01 -0.89317049942E+01  0.29002303959E+02  0.51100000000E-03 0. -1.
        -11    1    3    3    0    0  0.20574892543E+02  0.12303366900E+02  0.23933091210E+02  0.33874649745E+02  0.51100000000E-03 0.  1.
         12    1    3    3    0    0  0.28427207180E+01 -0.86168964948E+01  0.30877837444E+01  0.95846948170E+01  0.00000000000E+00 0. -1.
</event>
<event>
 7    1  0.1345786E-013  0.7246185E+02  0.7816164E-02  0.1226707E+00
        -11   -1    0    0    0    0  0.00000000000E+00  0.00000000000E+00  0.45593999997E+02  0.45594000000E+02  0.51100000000E-03 0. -1.
         11   -1    0    0    0    0 -0.00000000000E+00 -0.00000000000E+00 -0.45593999997E+02  0.45594000000E+02  0.51100000000E-03 0.  1.
    9900012    2    1    2    0    0  0.72880130987E+00  0.11589838772E+02 -0.14690587246E+02  0.72461845357E+02  0.70000358319E+02 0.  0.
         12    1    1    2    0    0 -0.72880130987E+00 -0.11589838772E+02  0.14690587246E+02  0.18726154643E+02  0.00000000000E+00 0. -1.
         11    1    3    3    0    0 -0.24587704106E+02 -0.27533855469E+01 -0.34722173164E+01  0.24983847152E+02  0.51100000000E-03 0. -1.
        -11    1    3    3    0    0  0.11744746938E+02  0.14448373459E+02  0.10864614197E+02  0.21557699742E+02  0.51100000000E-03 0.  1.
         12    1    3    3    0    0  0.13571758477E+02 -0.10514913971E+00 -0.22082984126E+02  0.25920298463E+02  0.00000000000E+00 0. -1.
</event>
<event>
 7    1  0.1345786E-013  0.7246154E+02  0.7816164E-02  0.1226708E+00
        -11   -1    0    0    0    0  0.00000000000E+00  0.00000000000E+00  0.45593999997E+02  0.45594000000E+02  0.51100000000E-03 0. -1.
         11   -1    0    0    0    0 -0.00000000000E+00 -0.00000000000E+00 -0.45593999997E+02  0.45594000000E+02  0.51100000000E-03 0.  1.
    9900012    2    1    2    0    0 -0.78246219397E+00 -0.13894049656E+02 -0.12530904902E+02  0.72461536356E+02  0.69999955789E+02 0.  0.
         12    1    1    2    0    0  0.78246219397E+00  0.13894049656E+02  0.12530904902E+02  0.18726463644E+02  0.00000000000E+00 0. -1.
         11    1    3    3    0    0  0.35666907132E+01  0.15553221255E+02 -0.18121030876E+02  0.24145304602E+02  0.51100000000E-03 0. -1.
        -11    1    3    3    0    0 -0.14187402617E+02 -0.22238305713E+02  0.17189149956E+02  0.31484782205E+02  0.51100000000E-03 0.  1.
         12    1    3    3    0    0  0.98382497097E+01 -0.72089651978E+01 -0.11599023982E+02  0.16831449549E+02  0.00000000000E+00 0. -1.
</event>
<event>
 7    1  0.1345786E-013  0.7246158E+02  0.7816164E-02  0.1226708E+00
        -11   -1    0    0    0    0  0.00000000000E+00  0.00000000000E+00  0.45593999997E+02  0.45594000000E+02  0.51100000000E-03 0. -1.
         11   -1    0    0    0    0 -0.00000000000E+00 -0.00000000000E+00 -0.45593999997E+02  0.45594000000E+02  0.51100000000E-03 0.  1.
    9900012    2    1    2    0    0 -0.14319104726E+02  0.47059569043E+01 -0.11112881542E+02  0.72461576778E+02  0.70000008446E+02 0.  0.
         12    1    1    2    0    0  0.14319104726E+02 -0.47059569043E+01  0.11112881542E+02  0.18726423222E+02  0.00000000000E+00 0. -1.
         11    1    3    3    0    0  0.15550236678E+02  0.14695196982E+02 -0.27421772797E+02  0.34780918600E+02  0.51100000000E-03 0. -1.
        -11    1    3    3    0    0 -0.16702036520E+02 -0.46621788310E+00  0.37020957494E+01  0.17113763357E+02  0.51100000000E-03 0.  1.
         12    1    3    3    0    0 -0.13167304883E+02 -0.95230221951E+01  0.12606795505E+02  0.20566894820E+02  0.00000000000E+00 0. -1.
</event>
<event>
 7    1  0.1345786E-013  0.7246158E+02  0.7816164E-02  0.1226708E+00
        -11   -1    0    0    0    0  0.00000000000E+00  0.00000000000E+00  0.45593999997E+02  0.45594000000E+02  0.51100000000E-03 0.  1.
         11   -1    0    0    0    0 -0.00000000000E+00 -0.00000000000E+00 -0.45593999997E+02  0.45594000000E+02  0.51100000000E-03 0. -1.
    9900012    2    1    2    0    0  0.69739249448E+01 -0.82036190852E+01  0.15321351785E+02  0.72461579740E+02  0.70000012305E+02 0.  0.
         12    1    1    2    0    0 -0.69739249448E+01  0.82036190852E+01 -0.15321351785E+02  0.18726420260E+02  0.00000000000E+00 0. -1.
         11    1    3    3    0    0  0.53722415080E+01 -0.29042323600E+02  0.11613541054E+02  0.31736286408E+02  0.51100000000E-03 0. -1.
        -11    1    3    3    0    0  0.65266191197E+01  0.23577939384E+02  0.14579768302E+02  0.28479565073E+02  0.51100000000E-03 0.  1.
         12    1    3    3    0    0 -0.49249356830E+01 -0.27392348690E+01 -0.10871957571E+02  0.12245728259E+02  0.00000000000E+00 0. -1.
</event>
<event>
 7    1  0.1345786E-013  0.7246162E+02  0.7816164E-02  0.1226708E+00
        -11   -1    0    0    0    0  0.00000000000E+00  0.00000000000E+00  0.45593999997E+02  0.45594000000E+02  0.51100000000E-03 0. -1.
         11   -1    0    0    0    0 -0.00000000000E+00 -0.00000000000E+00 -0.45593999997E+02  0.45594000000E+02  0.51100000000E-03 0.  1.
    9900012    2    1    2    0    0 -0.99596475095E+01 -0.90730855269E+00 -0.15832235459E+02  0.72461615753E+02  0.70000059219E+02 0.  0.
         12    1    1    2    0    0  0.99596475095E+01  0.90730855269E+00  0.15832235459E+02  0.18726384247E+02  0.00000000000E+00 0. -1.
         11    1    3    3    0    0  0.97289131641E+01  0.21793053685E+02 -0.37537290572E+01  0.24159458239E+02  0.51100000000E-03 0. -1.
        -11    1    3    3    0    0 -0.16780115969E+02 -0.27091886517E+02 -0.20841676712E+02  0.38077790054E+02  0.51100000000E-03 0.  1.
        -12    1    3    3    0    0 -0.29084447042E+01  0.43915242786E+01  0.87631703102E+01  0.10224367461E+02  0.00000000000E+00 0.  1.
</event>
<event>
 7    1  0.1345786E-013  0.7246155E+02  0.7816164E-02  0.1226708E+00
        -11   -1    0    0    0    0  0.00000000000E+00  0.00000000000E+00  0.45593999997E+02  0.45594000000E+02  0.51100000000E-03 0. -1.
         11   -1    0    0    0    0 -0.00000000000E+00 -0.00000000000E+00 -0.45593999997E+02  0.45594000000E+02  0.51100000000E-03 0.  1.
    9900012    2    1    2    0    0  0.91038486766E+01  0.15163742962E+02  0.61531014700E+01  0.72461552952E+02  0.69999977409E+02 0.  0.
         12    1    1    2    0    0 -0.91038486766E+01 -0.15163742962E+02 -0.61531014700E+01  0.18726447048E+02  0.00000000000E+00 0. -1.
         11    1    3    3    0    0  0.29348658706E+02 -0.23143113774E+01  0.18394047948E+01  0.29497173005E+02  0.51100000000E-03 0. -1.
        -11    1    3    3    0    0 -0.28473794317E+02  0.13341064017E+02 -0.24466131721E+01  0.31539290864E+02  0.51100000000E-03 0.  1.
        -12    1    3    3    0    0  0.82289842879E+01  0.41369903219E+01  0.67603098474E+01  0.11425089083E+02  0.00000000000E+00 0.  1.
</event>
<event>
 7    1  0.1345786E-013  0.7246159E+02  0.7816164E-02  0.1226708E+00
        -11   -1    0    0    0    0  0.00000000000E+00  0.00000000000E+00  0.45593999997E+02  0.45594000000E+02  0.51100000000E-03 0. -1.
         11   -1    0    0    0    0 -0.00000000000E+00 -0.00000000000E+00 -0.45593999997E+02  0.45594000000E+02  0.51100000000E-03 0.  1.
    9900012    2    1    2    0    0  0.29614280071E+01  0.18158588425E+02 -0.34891235536E+01  0.72461591572E+02  0.70000027718E+02 0.  0.
         12    1    1    2    0    0 -0.29614280071E+01 -0.18158588425E+02  0.34891235536E+01  0.18726408428E+02  0.00000000000E+00 0. -1.
         11    1    3    3    0    0 -0.24022066701E+01 -0.13987242633E+02 -0.52084424995E+01  0.15117586675E+02  0.51100000000E-03 0. -1.
        -11    1    3    3    0    0 -0.48287007246E+01  0.35989276119E+02  0.15750720951E+02  0.39580671507E+02  0.51100000000E-03 0.  1.
        -12    1    3    3    0    0  0.10192335402E+02 -0.38434450605E+01 -0.14031402005E+02  0.17763333389E+02  0.00000000000E+00 0.  1.
</event>
<event>
 7    1  0.1345786E-013  0.7246153E+02  0.7816164E-02  0.1226708E+00
        -11   -1    0    0    0    0  0.00000000000E+00  0.00000000000E+00  0.45593999997E+02  0.45594000000E+02  0.51100000000E-03 0.  1.
         11   -1    0    0    0    0 -0.00000000000E+00 -0.00000000000E+00 -0.45593999997E+02  0.45594000000E+02  0.51100000000E-03 0. -1.
    9900012    2    1    2    0    0 -0.16353865808E+01  0.14185011136E+01  0.18600913335E+02  0.72461531791E+02  0.69999949842E+02 0.  0.
         12    1    1    2    0    0  0.16353865808E+01 -0.14185011136E+01 -0.18600913335E+02  0.18726468209E+02  0.00000000000E+00 0. -1.
         11    1    3    3    0    0  0.46920216034E+01  0.25603091781E+02 -0.87884344039E+01  0.27473076911E+02  0.51100000000E-03 0. -1.
        -11    1    3    3    0    0 -0.19410485148E+01 -0.29063204665E+02  0.22518815029E+02  0.36817585001E+02  0.51100000000E-03 0.  1.
        -12    1    3    3    0    0 -0.43863596694E+01  0.48786139983E+01  0.48705327100E+01  0.81708698786E+01  0.00000000000E+00 0.  1.
</event>
<event>
 7    1  0.1345786E-013  0.7246167E+02  0.7816164E-02  0.1226708E+00
        -11   -1    0    0    0    0  0.00000000000E+00  0.00000000000E+00  0.45593999997E+02  0.45594000000E+02  0.51100000000E-03 0. -1.
         11   -1    0    0    0    0 -0.00000000000E+00 -0.00000000000E+00 -0.45593999997E+02  0.45594000000E+02  0.51100000000E-03 0.  1.
    9900012    2    1    2    0    0 -0.10351547143E+02  0.57759492970E+01 -0.14496873334E+02  0.72461669473E+02  0.70000129199E+02 0.  0.
         12    1    1    2    0    0  0.10351547143E+02 -0.57759492970E+01  0.14496873334E+02  0.18726330527E+02  0.00000000000E+00 0. -1.
         11    1    3    3    0    0  0.15923214032E+02 -0.11864279250E+02  0.63265945336E+01  0.20840721338E+02  0.51100000000E-03 0. -1.
        -11    1    3    3    0    0 -0.23965986895E+02 -0.14972374743E+01 -0.21643541592E+02  0.32327281680E+02  0.51100000000E-03 0.  1.
         12    1    3    3    0    0 -0.23087742808E+01  0.19137466021E+02  0.82007372415E+00  0.19293666456E+02  0.00000000000E+00 0. -1.
</event>
<event>
 7    1  0.1345786E-013  0.7246159E+02  0.7816164E-02  0.1226708E+00
        -11   -1    0    0    0    0  0.00000000000E+00  0.00000000000E+00  0.45593999997E+02  0.45594000000E+02  0.51100000000E-03 0.  1.
         11   -1    0    0    0    0 -0.00000000000E+00 -0.00000000000E+00 -0.45593999997E+02  0.45594000000E+02  0.51100000000E-03 0. -1.
    9900012    2    1    2    0    0 -0.12154228420E+02 -0.95410562315E+01  0.10579298370E+02  0.72461586128E+02  0.70000020627E+02 0.  0.
         12    1    1    2    0    0  0.12154228420E+02  0.95410562315E+01 -0.10579298370E+02  0.18726413872E+02  0.00000000000E+00 0. -1.
         11    1    3    3    0    0  0.12914111082E+02  0.75901817409E+01 -0.20905780802E+02  0.25718413542E+02  0.51100000000E-03 0. -1.
        -11    1    3    3    0    0 -0.11470864655E+02 -0.75184150760E+01  0.25670998954E+02  0.29105111042E+02  0.51100000000E-03 0.  1.
         12    1    3    3    0    0 -0.13597474848E+02 -0.96128228963E+01  0.58140802174E+01  0.17638061544E+02  0.00000000000E+00 0. -1.
</event>
<event>
 7    1  0.1345786E-013  0.7246158E+02  0.7816164E-02  0.1226708E+00
        -11   -1    0    0    0    0  0.00000000000E+00  0.00000000000E+00  0.45593999997E+02  0.45594000000E+02  0.51100000000E-03 0.  1.
         11   -1    0    0    0    0 -0.00000000000E+00 -0.00000000000E+00 -0.45593999997E+02  0.45594000000E+02  0.51100000000E-03 0. -1.
    9900012    2    1    2    0    0 -0.14527933375E+02  0.68647211055E+01  0.96173621125E+01  0.72461577543E+02  0.70000009443E+02 0.  0.
         12    1    1    2    0    0  0.14527933375E+02 -0.68647211055E+01 -0.96173621125E+01  0.18726422457E+02  0.00000000000E+00 0. -1.
         11    1    3    3    0    0 -0.10389048013E+02 -0.64593106860E+01  0.20851082217E+02  0.24174834913E+02  0.51100000000E-03 0. -1.
        -11    1    3    3    0    0  0.22126751543E+01  0.23206308578E+02 -0.22218298322E+02  0.32203749312E+02  0.51100000000E-03 0.  1.
        -12    1    3    3    0    0 -0.63515605169E+01 -0.98822767869E+01  0.10984578217E+02  0.16082993319E+02  0.00000000000E+00 0.  1.
</event>
<event>
 7    1  0.1345786E-013  0.7246160E+02  0.7816164E-02  0.1226708E+00
        -11   -1    0    0    0    0  0.00000000000E+00  0.00000000000E+00  0.45593999997E+02  0.45594000000E+02  0.51100000000E-03 0. -1.
         11   -1    0    0    0    0 -0.00000000000E+00 -0.00000000000E+00 -0.45593999997E+02  0.45594000000E+02  0.51100000000E-03 0.  1.
    9900012    2    1    2    0    0  0.84945917577E+01 -0.61162414912E-01 -0.16688804164E+02  0.72461601136E+02  0.70000040177E+02 0.  0.
         12    1    1    2    0    0 -0.84945917577E+01  0.61162414912E-01  0.16688804164E+02  0.18726398864E+02  0.00000000000E+00 0. -1.
         11    1    3    3    0    0  0.21615282097E+01  0.17131955002E+02  0.10872945547E+02  0.20405808770E+02  0.51100000000E-03 0. -1.
        -11    1    3    3    0    0 -0.15791427474E+02 -0.14847315704E+02 -0.16295149484E+02  0.27117224457E+02  0.51100000000E-03 0.  1.
        -12    1    3    3    0    0  0.22124491022E+02 -0.23458017128E+01 -0.11266600228E+02  0.24938567909E+02  0.00000000000E+00 0.  1.
</event>
<event>
 7    1  0.1345786E-013  0.7246156E+02  0.7816164E-02  0.1226708E+00
        -11   -1    0    0    0    0  0.00000000000E+00  0.00000000000E+00  0.45593999997E+02  0.45594000000E+02  0.51100000000E-03 0.  1.
         11   -1    0    0    0    0 -0.00000000000E+00 -0.00000000000E+00 -0.45593999997E+02  0.45594000000E+02  0.51100000000E-03 0. -1.
    9900012    2    1    2    0    0 -0.10481623593E+02  0.15326455160E+02 -0.24320243464E+01  0.72461564051E+02  0.69999991867E+02 0.  0.
         12    1    1    2    0    0  0.10481623593E+02 -0.15326455160E+02  0.24320243464E+01  0.18726435949E+02  0.00000000000E+00 0. -1.
         11    1    3    3    0    0  0.26541797763E+02  0.52708204416E+00 -0.91043250618E+01  0.28064810333E+02  0.51100000000E-03 0. -1.
        -11    1    3    3    0    0 -0.21181434382E+02  0.27350418430E+01  0.10993390810E+02  0.24020579888E+02  0.51100000000E-03 0.  1.
        -12    1    3    3    0    0 -0.15841986973E+02  0.12064331273E+02 -0.43210900946E+01  0.20376173830E+02  0.00000000000E+00 0.  1.
</event>
<event>
 7    1  0.1345786E-013  0.7246157E+02  0.7816164E-02  0.1226708E+00
        -11   -1    0    0    0    0  0.00000000000E+00  0.00000000000E+00  0.45593999997E+02  0.45594000000E+02  0.51100000000E-03 0. -1.
         11   -1    0    0    0    0 -0.00000000000E+00 -0.00000000000E+00 -0.45593999997E+02  0.45594000000E+02  0.51100000000E-03 0.  1.
    9900012    2    1    2    0    0  0.27769490303E+01  0.13242068201E+02 -0.12946633827E+02  0.72461570986E+02  0.70000000901E+02 0.  0.
         12    1    1    2    0    0 -0.27769490303E+01 -0.13242068201E+02  0.12946633827E+02  0.18726429014E+02  0.00000000000E+00 0. -1.
         11    1    3    3    0    0 -0.10876177184E+02 -0.59472078057E+01  0.14749528345E+02  0.19266787419E+02  0.51100000000E-03 0. -1.
        -11    1    3    3    0    0  0.53534979523E+01  0.18901921404E+02 -0.36276073492E+02  0.41254043212E+02  0.51100000000E-03 0.  1.
         12    1    3    3    0    0  0.82996282618E+01  0.28735460281E+00  0.85799113199E+01  0.11940740354E+02  0.00000000000E+00 0. -1.
</event>
<event>
 7    1  0.1345786E-013  0.7246164E+02  0.7816164E-02  0.1226708E+00
        -11   -1    0    0    0    0  0.00000000000E+00  0.00000000000E+00  0.45593999997E+02  0.45594000000E+02  0.51100000000E-03 0.  1.
         11   -1    0    0    0    0 -0.00000000000E+00 -0.00000000000E+00 -0.45593999997E+02  0.45594000000E+02  0.51100000000E-03 0. -1.
    9900012    2    1    2    0    0  0.92400444081E+01 -0.25352795918E+00  0.16286001628E+02  0.72461640340E+02  0.70000091248E+02 0.  0.
         12    1    1    2    0    0 -0.92400444081E+01  0.25352795918E+00 -0.16286001628E+02  0.18726359660E+02  0.00000000000E+00 0. -1.
         11    1    3    3    0    0 -0.10116156997E+02  0.52483177631E+00 -0.13287672910E+02  0.16708510778E+02  0.51100000000E-03 0. -1.
        -11    1    3    3    0    0  0.36449832832E+01  0.11242353401E+02  0.33553845483E+02  0.35574386292E+02  0.51100000000E-03 0.  1.
        -12    1    3    3    0    0  0.15711218122E+02 -0.12020713136E+02 -0.39801709448E+01  0.20178743269E+02  0.00000000000E+00 0.  1.
</event>
<event>
 7    1  0.1345786E-013  0.7246158E+02  0.7816164E-02  0.1226708E+00
        -11   -1    0    0    0    0  0.00000000000E+00  0.00000000000E+00  0.45593999997E+02  0.45594000000E+02  0.51100000000E-03 0.  1.
         11   -1    0    0    0    0 -0.00000000000E+00 -0.00000000000E+00 -0.45593999997E+02  0.45594000000E+02  0.51100000000E-03 0. -1.
    9900012    2    1    2    0    0  0.17677107243E+01 -0.14297878919E+02  0.11963479138E+02  0.72461575465E+02  0.70000006736E+02 0.  0.
         12    1    1    2    0    0 -0.17677107243E+01  0.14297878919E+02 -0.11963479138E+02  0.18726424535E+02  0.00000000000E+00 0. -1.
         11    1    3    3    0    0  0.11475123093E+02 -0.79869596413E+01 -0.55500055306E+01  0.15042358058E+02  0.51100000000E-03 0. -1.
        -11    1    3    3    0    0 -0.24436995588E+02  0.14238818620E+02  0.34627738145E+01  0.28493885516E+02  0.51100000000E-03 0.  1.
        -12    1    3    3    0    0  0.14729583220E+02 -0.20549737897E+02  0.14050710854E+02  0.28925331890E+02  0.00000000000E+00 0.  1.
</event>
<event>
 7    1  0.1345786E-013  0.7246151E+02  0.7816164E-02  0.1226708E+00
        -11   -1    0    0    0    0  0.00000000000E+00  0.00000000000E+00  0.45593999997E+02  0.45594000000E+02  0.51100000000E-03 0. -1.
         11   -1    0    0    0    0 -0.00000000000E+00 -0.00000000000E+00 -0.45593999997E+02  0.45594000000E+02  0.51100000000E-03 0.  1.
    9900012    2    1    2    0    0 -0.86159179675E+01  0.32527364447E+01 -0.16305433363E+02  0.72461508232E+02  0.69999919152E+02 0.  0.
         12    1    1    2    0    0  0.86159179675E+01 -0.32527364447E+01  0.16305433363E+02  0.18726491768E+02  0.00000000000E+00 0. -1.
         11    1    3    3    0    0  0.11137267754E+02  0.93276340118E+01  0.66702522296E+01  0.15985485740E+02  0.51100000000E-03 0. -1.
        -11    1    3    3    0    0 -0.26408240634E+01 -0.70438297846E+01 -0.34832025608E+02  0.35635088017E+02  0.51100000000E-03 0.  1.
        -12    1    3    3    0    0 -0.17112361658E+02  0.96893221756E+00  0.11856340016E+02  0.20840934474E+02  0.00000000000E+00 0.  1.
</event>
<event>
 7    1  0.1345786E-013  0.7246152E+02  0.7816164E-02  0.1226708E+00
        -11   -1    0    0    0    0  0.00000000000E+00  0.00000000000E+00  0.45593999997E+02  0.45594000000E+02  0.51100000000E-03 0. -1.
         11   -1    0    0    0    0 -0.00000000000E+00 -0.00000000000E+00 -0.45593999997E+02  0.45594000000E+02  0.51100000000E-03 0.  1.
    9900012    2    1    2    0    0 -0.40097284234E+01 -0.13528934612E+02 -0.12311425747E+02  0.72461516142E+02  0.69999929456E+02 0.  0.
         12    1    1    2    0    0  0.40097284234E+01  0.13528934612E+02  0.12311425747E+02  0.18726483858E+02  0.00000000000E+00 0. -1.
         11    1    3    3    0    0  0.71804901902E+01  0.13453041275E+02 -0.52782633223E+01  0.16137032654E+02  0.51100000000E-03 0. -1.
        -11    1    3    3    0    0 -0.29038337433E+02 -0.19901217851E+02  0.16694546191E+01  0.35243021888E+02  0.51100000000E-03 0.  1.
         12    1    3    3    0    0  0.17848118820E+02 -0.70807580361E+01 -0.87026170442E+01  0.21081461600E+02  0.00000000000E+00 0. -1.
</event>
<event>
 7    1  0.1345786E-013  0.7246159E+02  0.7816164E-02  0.1226708E+00
        -11   -1    0    0    0    0  0.00000000000E+00  0.00000000000E+00  0.45593999997E+02  0.45594000000E+02  0.51100000000E-03 0. -1.
         11   -1    0    0    0    0 -0.00000000000E+00 -0.00000000000E+00 -0.45593999997E+02  0.45594000000E+02  0.51100000000E-03 0.  1.
    9900012    2    1    2    0    0 -0.10853167727E+02 -0.12657591389E+02 -0.85248168239E+01  0.72461591605E+02  0.70000027762E+02 0.  0.
         12    1    1    2    0    0  0.10853167727E+02  0.12657591389E+02  0.85248168239E+01  0.18726408395E+02  0.00000000000E+00 0. -1.
         11    1    3    3    0    0 -0.26152125197E+02  0.58809124163E+01  0.20608695042E+01  0.26884307068E+02  0.51100000000E-03 0. -1.
        -11    1    3    3    0    0  0.18122242104E+00 -0.26493479947E+02 -0.23079415204E+01  0.26594433921E+02  0.51100000000E-03 0.  1.
         12    1    3    3    0    0  0.15117735049E+02  0.79549761415E+01 -0.82777448077E+01  0.18982850616E+02  0.00000000000E+00 0. -1.
</event>
<event>
 7    1  0.1345786E-013  0.7246161E+02  0.7816164E-02  0.1226708E+00
        -11   -1    0    0    0    0  0.00000000000E+00  0.00000000000E+00  0.45593999997E+02  0.45594000000E+02  0.51100000000E-03 0.  1.
         11   -1    0    0    0    0 -0.00000000000E+00 -0.00000000000E+00 -0.45593999997E+02  0.45594000000E+02  0.51100000000E-03 0. -1.
    9900012    2    1    2    0    0  0.11114358260E+02  0.12683221135E+02  0.81415319334E+01  0.72461612198E+02  0.70000054587E+02 0.  0.
         12    1    1    2    0    0 -0.11114358260E+02 -0.12683221135E+02 -0.81415319334E+01  0.18726387802E+02  0.00000000000E+00 0. -1.
         11    1    3    3    0    0 -0.21707344128E+02 -0.66761372038E+00  0.23595929256E+02  0.32069025162E+02  0.51100000000E-03 0. -1.
        -11    1    3    3    0    0  0.93755735397E+01  0.70765906305E+01 -0.24360069907E+00  0.11748993817E+02  0.51100000000E-03 0.  1.
         12    1    3    3    0    0  0.23446128848E+02  0.62742442252E+01 -0.15210796624E+02  0.28643593218E+02  0.00000000000E+00 0. -1.
</event>
<event>
 7    1  0.1345786E-013  0.7246152E+02  0.7816164E-02  0.1226708E+00
        -11   -1    0    0    0    0  0.00000000000E+00  0.00000000000E+00  0.45593999997E+02  0.45594000000E+02  0.51100000000E-03 0.  1.
         11   -1    0    0    0    0 -0.00000000000E+00 -0.00000000000E+00 -0.45593999997E+02  0.45594000000E+02  0.51100000000E-03 0. -1.
    9900012    2    1    2    0    0  0.32883203231E+01  0.15852806886E+02  0.94104394704E+01  0.72461523884E+02  0.69999939541E+02 0.  0.
         12    1    1    2    0    0 -0.32883203231E+01 -0.15852806886E+02 -0.94104394704E+01  0.18726476116E+02  0.00000000000E+00 0. -1.
         11    1    3    3    0    0 -0.17323824231E+02  0.24441444587E+01  0.89131215967E+01  0.19634980647E+02  0.51100000000E-03 0. -1.
        -11    1    3    3    0    0  0.18052864625E+02  0.50173099244E+01  0.22416988991E+02  0.29216445980E+02  0.51100000000E-03 0.  1.
         12    1    3    3    0    0  0.25592799299E+01  0.83913525030E+01 -0.21919671117E+02  0.23610097257E+02  0.00000000000E+00 0. -1.
</event>
<event>
 7    1  0.1345786E-013  0.7246155E+02  0.7816164E-02  0.1226708E+00
        -11   -1    0    0    0    0  0.00000000000E+00  0.00000000000E+00  0.45593999997E+02  0.45594000000E+02  0.51100000000E-03 0.  1.
         11   -1    0    0    0    0 -0.00000000000E+00 -0.00000000000E+00 -0.45593999997E+02  0.45594000000E+02  0.51100000000E-03 0. -1.
    9900012    2    1    2    0    0 -0.14849334960E+01  0.17459267746E+02  0.66067156794E+01  0.72461554801E+02  0.69999979817E+02 0.  0.
         12    1    1    2    0    0  0.14849334960E+01 -0.17459267746E+02 -0.66067156794E+01  0.18726445199E+02  0.00000000000E+00 0. -1.
         11    1    3    3    0    0  0.13229538837E+02  0.26904137935E+02  0.57595297179E+01  0.30529092988E+02  0.51100000000E-03 0. -1.
        -11    1    3    3    0    0 -0.22898524280E+02  0.35760963967E+01 -0.75944363702E+01  0.24388651945E+02  0.51100000000E-03 0.  1.
        -12    1    3    3    0    0  0.81840519474E+01 -0.13020966585E+02  0.84416223316E+01  0.17543809868E+02  0.00000000000E+00 0.  1.
</event>
<event>
 7    1  0.1345786E-013  0.7246158E+02  0.7816164E-02  0.1226708E+00
        -11   -1    0    0    0    0  0.00000000000E+00  0.00000000000E+00  0.45593999997E+02  0.45594000000E+02  0.51100000000E-03 0. -1.
         11   -1    0    0    0    0 -0.00000000000E+00 -0.00000000000E+00 -0.45593999997E+02  0.45594000000E+02  0.51100000000E-03 0.  1.
    9900012    2    1    2    0    0  0.70506421442E+01  0.16428863983E+02 -0.55731282929E+01  0.72461577881E+02  0.70000009882E+02 0.  0.
         12    1    1    2    0    0 -0.70506421442E+01 -0.16428863983E+02  0.55731282929E+01  0.18726422119E+02  0.00000000000E+00 0. -1.
         11    1    3    3    0    0  0.11083387291E+02 -0.16881107325E+02  0.12342972334E+02  0.23667746506E+02  0.51100000000E-03 0. -1.
        -11    1    3    3    0    0 -0.12401526903E+01  0.29258636670E+02  0.94629776648E+00  0.29300192460E+02  0.51100000000E-03 0.  1.
         12    1    3    3    0    0 -0.27925924568E+01  0.40513346381E+01 -0.18862398394E+02  0.19493638915E+02  0.00000000000E+00 0. -1.
</event>
<event>
 7    1  0.1345786E-013  0.7246155E+02  0.7816164E-02  0.1226708E+00
        -11   -1    0    0    0    0  0.00000000000E+00  0.00000000000E+00  0.45593999997E+02  0.45594000000E+02  0.51100000000E-03 0. -1.
         11   -1    0    0    0    0 -0.00000000000E+00 -0.00000000000E+00 -0.45593999997E+02  0.45594000000E+02  0.51100000000E-03 0.  1.
    9900012    2    1    2    0    0  0.14880419785E+02 -0.89590488940E+01 -0.69991791162E+01  0.72461549232E+02  0.69999972562E+02 0.  0.
         12    1    1    2    0    0 -0.14880419785E+02  0.89590488940E+01  0.69991791162E+01  0.18726450768E+02  0.00000000000E+00 0. -1.
         11    1    3    3    0    0 -0.10805731248E+02 -0.12662882079E+02 -0.28966785262E+02  0.33409385792E+02  0.51100000000E-03 0. -1.
        -11    1    3    3    0    0  0.85463681870E+01 -0.35496640150E+01 -0.12033877791E+01  0.93321308508E+01  0.51100000000E-03 0.  1.
         12    1    3    3    0    0  0.17139782847E+02  0.72534971997E+01  0.23170993924E+02  0.29720032589E+02  0.00000000000E+00 0. -1.
</event>
<event>
 7    1  0.1345786E-013  0.7246161E+02  0.7816164E-02  0.1226708E+00
        -11   -1    0    0    0    0  0.00000000000E+00  0.00000000000E+00  0.45593999997E+02  0.45594000000E+02  0.51100000000E-03 0.  1.
         11   -1    0    0    0    0 -0.00000000000E+00 -0.00000000000E+00 -0.45593999997E+02  0.45594000000E+02  0.51100000000E-03 0. -1.
    9900012    2    1    2    0    0 -0.15299818809E+02  0.48876821381E+01  0.96282877713E+01  0.72461606389E+02  0.70000047020E+02 0.  0.
         12    1    1    2    0    0  0.15299818809E+02 -0.48876821381E+01 -0.96282877713E+01  0.18726393611E+02  0.00000000000E+00 0. -1.
         11    1    3    3    0    0 -0.25281777094E+02  0.99140198642E+01 -0.49911882845E+01  0.27611012362E+02  0.51100000000E-03 0. -1.
        -11    1    3    3    0    0  0.16141387228E+02 -0.85820198394E+01 -0.88619481706E+01  0.20315746893E+02  0.51100000000E-03 0.  1.
        -12    1    3    3    0    0 -0.61594289431E+01  0.35556821133E+01  0.23481424226E+02  0.24534847134E+02  0.00000000000E+00 0.  1.
</event>
<event>
 7    1  0.1345786E-013  0.7246159E+02  0.7816164E-02  0.1226708E+00
        -11   -1    0    0    0    0  0.00000000000E+00  0.00000000000E+00  0.45593999997E+02  0.45594000000E+02  0.51100000000E-03 0. -1.
         11   -1    0    0    0    0 -0.00000000000E+00 -0.00000000000E+00 -0.45593999997E+02  0.45594000000E+02  0.51100000000E-03 0.  1.
    9900012    2    1    2    0    0 -0.27603454347E+01  0.17711030002E+02 -0.54201876692E+01  0.72461587503E+02  0.70000022417E+02 0.  0.
         12    1    1    2    0    0  0.27603454347E+01 -0.17711030002E+02  0.54201876692E+01  0.18726412497E+02  0.00000000000E+00 0. -1.
         11    1    3    3    0    0 -0.12762722240E+02 -0.67724407388E+01  0.12823747958E+01  0.14505085932E+02  0.51100000000E-03 0. -1.
        -11    1    3    3    0    0 -0.10032190916E+02  0.23893249634E+02 -0.20984929601E+02  0.33345157119E+02  0.51100000000E-03 0.  1.
        -12    1    3    3    0    0  0.20034567721E+02  0.59022110669E+00  0.14282367136E+02  0.24611344452E+02  0.00000000000E+00 0.  1.
</event>
<event>
 7    1  0.1345786E-013  0.7246167E+02  0.7816164E-02  0.1226708E+00
        -11   -1    0    0    0    0  0.00000000000E+00  0.00000000000E+00  0.45593999997E+02  0.45594000000E+02  0.51100000000E-03 0.  1.
         11   -1    0    0    0    0 -0.00000000000E+00 -0.00000000000E+00 -0.45593999997E+02  0.45594000000E+02  0.51100000000E-03 0. -1.
    9900012    2    1    2    0    0 -0.75732129060E+01 -0.12771156213E+01  0.17078954288E+02  0.72461674743E+02  0.70000136064E+02 0.  0.
         12    1    1    2    0    0  0.75732129060E+01  0.12771156213E+01 -0.17078954288E+02  0.18726325257E+02  0.00000000000E+00 0. -1.
         11    1    3    3    0    0  0.56231997801E+01  0.51193275407E+01 -0.54978047548E+01  0.93836958401E+01  0.51100000000E-03 0. -1.
        -11    1    3    3    0    0 -0.14152811749E+02 -0.10730090628E+02  0.40706830852E+02  0.44412644636E+02  0.51100000000E-03 0.  1.
        -12    1    3    3    0    0  0.95639906338E+00  0.43336474662E+01 -0.18130071809E+02  0.18665334267E+02  0.00000000000E+00 0.  1.
</event>
<event>
 7    1  0.1345786E-013  0.7246158E+02  0.7816164E-02  0.1226708E+00
        -11   -1    0    0    0    0  0.00000000000E+00  0.00000000000E+00  0.45593999997E+02  0.45594000000E+02  0.51100000000E-03 0.  1.
         11   -1    0    0    0    0 -0.00000000000E+00 -0.00000000000E+00 -0.45593999997E+02  0.45594000000E+02  0.51100000000E-03 0. -1.
    9900012    2    1    2    0    0 -0.93352932954E+01 -0.24075002829E+01  0.16054126556E+02  0.72461581816E+02  0.70000015010E+02 0.  0.
         12    1    1    2    0    0  0.93352932954E+01  0.24075002829E+01 -0.16054126556E+02  0.18726418184E+02  0.00000000000E+00 0. -1.
         11    1    3    3    0    0 -0.93822579445E+01 -0.96647678156E+01 -0.17116326359E+02  0.21780797262E+02  0.51100000000E-03 0. -1.
        -11    1    3    3    0    0  0.79810168395E+01 -0.12374351479E+02  0.22704118383E+02  0.27061008779E+02  0.51100000000E-03 0.  1.
         12    1    3    3    0    0 -0.79340521904E+01  0.19631619011E+02  0.10466334531E+02  0.23619775776E+02  0.00000000000E+00 0. -1.
</event>
<event>
 7    1  0.1345786E-013  0.7246160E+02  0.7816164E-02  0.1226708E+00
        -11   -1    0    0    0    0  0.00000000000E+00  0.00000000000E+00  0.45593999997E+02  0.45594000000E+02  0.51100000000E-03 0.  1.
         11   -1    0    0    0    0 -0.00000000000E+00 -0.00000000000E+00 -0.45593999997E+02  0.45594000000E+02  0.51100000000E-03 0. -1.
    9900012    2    1    2    0    0 -0.65580208321E+01  0.48050712113E+01  0.16869547742E+02  0.72461601852E+02  0.70000041110E+02 0.  0.
         12    1    1    2    0    0  0.65580208321E+01 -0.48050712113E+01 -0.16869547742E+02  0.18726398148E+02  0.00000000000E+00 0. -1.
         11    1    3    3    0    0 -0.32826166119E+01 -0.99350580616E+01 -0.22677294018E+02  0.24974799594E+02  0.51100000000E-03 0. -1.
        -11    1    3    3    0    0  0.67078371004E+01 -0.12712742510E+01  0.64668924953E+01  0.94038245195E+01  0.51100000000E-03 0.  1.
         12    1    3    3    0    0 -0.99832413206E+01  0.16011403524E+02  0.33079949265E+02  0.38082977739E+02  0.00000000000E+00 0. -1.
</event>
<event>
 7    1  0.1345786E-013  0.7246150E+02  0.7816164E-02  0.1226708E+00
        -11   -1    0    0    0    0  0.00000000000E+00  0.00000000000E+00  0.45593999997E+02  0.45594000000E+02  0.51100000000E-03 0. -1.
         11   -1    0    0    0    0 -0.00000000000E+00 -0.00000000000E+00 -0.45593999997E+02  0.45594000000E+02  0.51100000000E-03 0.  1.
    9900012    2    1    2    0    0 -0.43090164195E+01 -0.83348996094E+01 -0.16206280081E+02  0.72461503049E+02  0.69999912400E+02 0.  0.
         12    1    1    2    0    0  0.43090164195E+01  0.83348996094E+01  0.16206280081E+02  0.18726496951E+02  0.00000000000E+00 0. -1.
         11    1    3    3    0    0 -0.18936488068E+02  0.93502148210E+01 -0.35807165190E+02  0.41571266240E+02  0.51100000000E-03 0. -1.
        -11    1    3    3    0    0  0.95962767894E+01 -0.68110808162E+01  0.81306907042E+01  0.14303408045E+02  0.51100000000E-03 0.  1.
         12    1    3    3    0    0  0.50311948593E+01 -0.10874033614E+02  0.11470194406E+02  0.16586828764E+02  0.00000000000E+00 0. -1.
</event>
<event>
 7    1  0.1345786E-013  0.7246158E+02  0.7816164E-02  0.1226708E+00
        -11   -1    0    0    0    0  0.00000000000E+00  0.00000000000E+00  0.45593999997E+02  0.45594000000E+02  0.51100000000E-03 0.  1.
         11   -1    0    0    0    0 -0.00000000000E+00 -0.00000000000E+00 -0.45593999997E+02  0.45594000000E+02  0.51100000000E-03 0. -1.
    9900012    2    1    2    0    0 -0.14732452807E+02 -0.45264041698E+01  0.10636975658E+02  0.72461581454E+02  0.70000014537E+02 0.  0.
         12    1    1    2    0    0  0.14732452807E+02  0.45264041698E+01 -0.10636975658E+02  0.18726418546E+02  0.00000000000E+00 0. -1.
         11    1    3    3    0    0 -0.39934574468E+01 -0.20464592868E+02 -0.21219986323E+01  0.20958295305E+02  0.51100000000E-03 0. -1.
        -11    1    3    3    0    0 -0.86567926047E+01  0.14612978316E+02  0.29791403899E+02  0.34292957586E+02  0.51100000000E-03 0.  1.
        -12    1    3    3    0    0 -0.20822027554E+01  0.13252103823E+01 -0.17032429609E+02  0.17210328563E+02  0.00000000000E+00 0.  1.
</event>
<event>
 7    1  0.1345786E-013  0.7246193E+02  0.7816164E-02  0.1226707E+00
        -11   -1    0    0    0    0  0.00000000000E+00  0.00000000000E+00  0.45593999997E+02  0.45594000000E+02  0.51100000000E-03 0.  1.
         11   -1    0    0    0    0 -0.00000000000E+00 -0.00000000000E+00 -0.45593999997E+02  0.45594000000E+02  0.51100000000E-03 0. -1.
    9900012    2    1    2    0    0 -0.20212421021E+01 -0.70758075155E+00  0.18603215578E+02  0.72461929403E+02  0.70000467804E+02 0.  0.
         12    1    1    2    0    0  0.20212421021E+01  0.70758075155E+00 -0.18603215578E+02  0.18726070597E+02  0.00000000000E+00 0. -1.
         11    1    3    3    0    0 -0.12671120628E+02 -0.27111495213E+02  0.13909461476E+02  0.33000963462E+02  0.51100000000E-03 0.  1.
        -11    1    3    3    0    0  0.71019011887E+01  0.18586714811E+02 -0.10132504799E+02  0.22328695029E+02  0.51100000000E-03 0. -1.
         12    1    3    3    0    0  0.35479773369E+01  0.78171996507E+01  0.14826258901E+02  0.17132270911E+02  0.00000000000E+00 0. -1.
</event>
<event>
 7    1  0.1345786E-013  0.7246158E+02  0.7816164E-02  0.1226708E+00
        -11   -1    0    0    0    0  0.00000000000E+00  0.00000000000E+00  0.45593999997E+02  0.45594000000E+02  0.51100000000E-03 0.  1.
         11   -1    0    0    0    0 -0.00000000000E+00 -0.00000000000E+00 -0.45593999997E+02  0.45594000000E+02  0.51100000000E-03 0. -1.
    9900012    2    1    2    0    0  0.53829967727E+01  0.14947190035E+02  0.99138112860E+01  0.72461580203E+02  0.70000012907E+02 0.  0.
         12    1    1    2    0    0 -0.53829967727E+01 -0.14947190035E+02 -0.99138112860E+01  0.18726419797E+02  0.00000000000E+00 0. -1.
         11    1    3    3    0    0 -0.25642093965E+02 -0.60000107597E+01  0.18858873928E+02  0.32390959203E+02  0.51100000000E-03 0. -1.
        -11    1    3    3    0    0  0.18649363998E+02  0.14529683787E+02 -0.10828603009E+02  0.26003252332E+02  0.51100000000E-03 0.  1.
         12    1    3    3    0    0  0.12375726740E+02  0.64175170084E+01  0.18835403672E+01  0.14067368667E+02  0.00000000000E+00 0. -1.
</event>
<event>
 7    1  0.1345786E-013  0.7246157E+02  0.7816164E-02  0.1226708E+00
        -11   -1    0    0    0    0  0.00000000000E+00  0.00000000000E+00  0.45593999997E+02  0.45594000000E+02  0.51100000000E-03 0. -1.
         11   -1    0    0    0    0 -0.00000000000E+00 -0.00000000000E+00 -0.45593999997E+02  0.45594000000E+02  0.51100000000E-03 0.  1.
    9900012    2    1    2    0    0  0.10446452869E+01  0.18579493399E+02 -0.20953540391E+01  0.72461565014E+02  0.69999993122E+02 0.  0.
         12    1    1    2    0    0 -0.10446452869E+01 -0.18579493399E+02  0.20953540391E+01  0.18726434986E+02  0.00000000000E+00 0. -1.
         11    1    3    3    0    0  0.23733952215E+02 -0.85050407399E+01 -0.11640631622E+02  0.27769416820E+02  0.51100000000E-03 0. -1.
        -11    1    3    3    0    0 -0.13573345583E+02  0.22331093639E+02  0.17706030883E+02  0.31566073296E+02  0.51100000000E-03 0.  1.
        -12    1    3    3    0    0 -0.91159613450E+01  0.47534404992E+01 -0.81607532992E+01  0.13126074898E+02  0.00000000000E+00 0.  1.
</event>
<event>
 7    1  0.1345786E-013  0.7246165E+02  0.7816164E-02  0.1226708E+00
        -11   -1    0    0    0    0  0.00000000000E+00  0.00000000000E+00  0.45593999997E+02  0.45594000000E+02  0.51100000000E-03 0.  1.
         11   -1    0    0    0    0 -0.00000000000E+00 -0.00000000000E+00 -0.45593999997E+02  0.45594000000E+02  0.51100000000E-03 0. -1.
    9900012    2    1    2    0    0 -0.12435268605E+01  0.18603276411E+02 -0.17458657455E+01  0.72461646925E+02  0.70000099826E+02 0.  0.
         12    1    1    2    0    0  0.12435268605E+01 -0.18603276411E+02  0.17458657455E+01  0.18726353075E+02  0.00000000000E+00 0. -1.
         11    1    3    3    0    0  0.12865091580E+02  0.26781306833E+02  0.62252586925E+01  0.30356264973E+02  0.51100000000E-03 0. -1.
        -11    1    3    3    0    0  0.58864703725E+01 -0.17191418176E+02  0.14622367916E+01  0.18230017253E+02  0.51100000000E-03 0.  1.
         12    1    3    3    0    0 -0.19995088813E+02  0.90133877537E+01 -0.94333612296E+01  0.23875364700E+02  0.00000000000E+00 0. -1.
</event>
<event>
 7    1  0.1345786E-013  0.7246162E+02  0.7816164E-02  0.1226708E+00
        -11   -1    0    0    0    0  0.00000000000E+00  0.00000000000E+00  0.45593999997E+02  0.45594000000E+02  0.51100000000E-03 0.  1.
         11   -1    0    0    0    0 -0.00000000000E+00 -0.00000000000E+00 -0.45593999997E+02  0.45594000000E+02  0.51100000000E-03 0. -1.
    9900012    2    1    2    0    0  0.18413357493E+02 -0.15841531452E+01 -0.30192622663E+01  0.72461622347E+02  0.70000067808E+02 0.  0.
         12    1    1    2    0    0 -0.18413357493E+02  0.15841531452E+01  0.30192622663E+01  0.18726377653E+02  0.00000000000E+00 0. -1.
         11    1    3    3    0    0  0.97923626699E+00 -0.20088176318E+02 -0.60764365235E+01  0.21009921765E+02  0.51100000000E-03 0. -1.
        -11    1    3    3    0    0  0.61923729433E+01  0.19266161335E+02  0.21697799829E+02  0.29670270860E+02  0.51100000000E-03 0.  1.
        -12    1    3    3    0    0  0.11241748283E+02 -0.76213816127E+00 -0.18640625572E+02  0.21781429722E+02  0.00000000000E+00 0.  1.
</event>
<event>
 7    1  0.1345786E-013  0.7246154E+02  0.7816164E-02  0.1226708E+00
        -11   -1    0    0    0    0  0.00000000000E+00  0.00000000000E+00  0.45593999997E+02  0.45594000000E+02  0.51100000000E-03 0. -1.
         11   -1    0    0    0    0 -0.00000000000E+00 -0.00000000000E+00 -0.45593999997E+02  0.45594000000E+02  0.51100000000E-03 0.  1.
    9900012    2    1    2    0    0  0.16170560236E+02 -0.36630382207E+01 -0.87049032433E+01  0.72461542571E+02  0.69999963886E+02 0.  0.
         12    1    1    2    0    0 -0.16170560236E+02  0.36630382207E+01  0.87049032433E+01  0.18726457429E+02  0.00000000000E+00 0. -1.
         11    1    3    3    0    0  0.10108718114E+02  0.31420727935E+02 -0.40653407836E+01  0.33256207268E+02  0.51100000000E-03 0. -1.
        -11    1    3    3    0    0  0.27603338191E+01 -0.34108938027E+02 -0.10567592409E+01  0.34236761478E+02  0.51100000000E-03 0.  1.
         12    1    3    3    0    0  0.33015083033E+01 -0.97482812845E+00 -0.35828032188E+01  0.49685738257E+01  0.00000000000E+00 0. -1.
</event>
<event>
 7    1  0.1345786E-013  0.7246156E+02  0.7816164E-02  0.1226708E+00
        -11   -1    0    0    0    0  0.00000000000E+00  0.00000000000E+00  0.45593999997E+02  0.45594000000E+02  0.51100000000E-03 0. -1.
         11   -1    0    0    0    0 -0.00000000000E+00 -0.00000000000E+00 -0.45593999997E+02  0.45594000000E+02  0.51100000000E-03 0.  1.
    9900012    2    1    2    0    0  0.17512473375E+01 -0.85830383295E+01 -0.16551257878E+02  0.72461560094E+02  0.69999986712E+02 0.  0.
         12    1    1    2    0    0 -0.17512473375E+01  0.85830383295E+01  0.16551257878E+02  0.18726439906E+02  0.00000000000E+00 0. -1.
         11    1    3    3    0    0 -0.68805145627E-01 -0.14406542949E+02 -0.29445537953E+02  0.32780984114E+02  0.51100000000E-03 0.  1.
        -11    1    3    3    0    0 -0.11698608582E+02  0.29557513191E+01  0.20588304272E+02  0.23863616274E+02  0.51100000000E-03 0. -1.
         12    1    3    3    0    0  0.13518661065E+02  0.28677533008E+01 -0.76940241975E+01  0.15816959706E+02  0.00000000000E+00 0. -1.
</event>
<event>
 7    1  0.1345786E-013  0.7246136E+02  0.7816164E-02  0.1226709E+00
        -11   -1    0    0    0    0  0.00000000000E+00  0.00000000000E+00  0.45593999997E+02  0.45594000000E+02  0.51100000000E-03 0. -1.
         11   -1    0    0    0    0 -0.00000000000E+00 -0.00000000000E+00 -0.45593999997E+02  0.45594000000E+02  0.51100000000E-03 0.  1.
    9900012    2    1    2    0    0 -0.16845812577E+02  0.64791897853E+01 -0.49925758420E+01  0.72461358144E+02  0.69999723634E+02 0.  0.
         12    1    1    2    0    0  0.16845812577E+02 -0.64791897853E+01  0.49925758420E+01  0.18726641856E+02  0.00000000000E+00 0. -1.
         11    1    3    3    0    0 -0.13810210790E+02 -0.80528738314E+00 -0.52224506658E+01  0.14786629131E+02  0.51100000000E-03 0. -1.
        -11    1    3    3    0    0  0.19563548366E+02  0.44479339690E+01  0.19397183624E+02  0.27906402026E+02  0.51100000000E-03 0.  1.
        -12    1    3    3    0    0 -0.22599150153E+02  0.28365431994E+01 -0.19167308800E+02  0.29768326987E+02  0.00000000000E+00 0.  1.
</event>
<event>
 7    1  0.1345786E-013  0.7246149E+02  0.7816164E-02  0.1226708E+00
        -11   -1    0    0    0    0  0.00000000000E+00  0.00000000000E+00  0.45593999997E+02  0.45594000000E+02  0.51100000000E-03 0.  1.
         11   -1    0    0    0    0 -0.00000000000E+00 -0.00000000000E+00 -0.45593999997E+02  0.45594000000E+02  0.51100000000E-03 0. -1.
    9900012    2    1    2    0    0 -0.80290961343E+01 -0.93147894379E+01  0.14122688728E+02  0.72461494082E+02  0.69999900719E+02 0.  0.
         12    1    1    2    0    0  0.80290961343E+01  0.93147894379E+01 -0.14122688728E+02  0.18726505918E+02  0.00000000000E+00 0. -1.
         11    1    3    3    0    0 -0.25373026670E+02 -0.72853234272E+01  0.32246392851E+01  0.26594449019E+02  0.51100000000E-03 0. -1.
        -11    1    3    3    0    0  0.30643611890E+02  0.15775126127E+01  0.61700479868E+01  0.31298386350E+02  0.51100000000E-03 0.  1.
        -12    1    3    3    0    0 -0.13299681354E+02 -0.36069786233E+01  0.47280014559E+01  0.14568658712E+02  0.00000000000E+00 0.  1.
</event>
<event>
 7    1  0.1345786E-013  0.7246158E+02  0.7816164E-02  0.1226708E+00
        -11   -1    0    0    0    0  0.00000000000E+00  0.00000000000E+00  0.45593999997E+02  0.45594000000E+02  0.51100000000E-03 0. -1.
         11   -1    0    0    0    0 -0.00000000000E+00 -0.00000000000E+00 -0.45593999997E+02  0.45594000000E+02  0.51100000000E-03 0.  1.
    9900012    2    1    2    0    0 -0.18363122317E+02  0.34943095483E+01  0.11244449905E+01  0.72461579173E+02  0.70000011566E+02 0.  0.
         12    1    1    2    0    0  0.18363122317E+02 -0.34943095483E+01 -0.11244449905E+01  0.18726420827E+02  0.00000000000E+00 0. -1.
         11    1    3    3    0    0 -0.17500392610E+02 -0.20571158353E+02  0.10996902175E+02  0.29161072600E+02  0.51100000000E-03 0. -1.
        -11    1    3    3    0    0 -0.12106552862E+02  0.64452506205E+01 -0.16422258117E+02  0.21396271631E+02  0.51100000000E-03 0.  1.
        -12    1    3    3    0    0  0.11243823155E+02  0.17620217280E+02  0.65498009325E+01  0.21904234942E+02  0.00000000000E+00 0.  1.
</event>
<event>
 7    1  0.1345786E-013  0.7246153E+02  0.7816164E-02  0.1226708E+00
        -11   -1    0    0    0    0  0.00000000000E+00  0.00000000000E+00  0.45593999997E+02  0.45594000000E+02  0.51100000000E-03 0.  1.
         11   -1    0    0    0    0 -0.00000000000E+00 -0.00000000000E+00 -0.45593999997E+02  0.45594000000E+02  0.51100000000E-03 0. -1.
    9900012    2    1    2    0    0  0.11108236683E+01  0.15683580031E+02  0.10172123687E+02  0.72461529107E+02  0.69999946346E+02 0.  0.
         12    1    1    2    0    0 -0.11108236683E+01 -0.15683580031E+02 -0.10172123687E+02  0.18726470893E+02  0.00000000000E+00 0. -1.
         11    1    3    3    0    0 -0.24538382520E+02  0.11537827781E+02 -0.17056937038E+02  0.32034243990E+02  0.51100000000E-03 0. -1.
        -11    1    3    3    0    0  0.46095108910E+01  0.21943440494E+01  0.15372568452E+02  0.16198104751E+02  0.51100000000E-03 0.  1.
         12    1    3    3    0    0  0.21039695298E+02  0.19514082004E+01  0.11856492273E+02  0.24229180366E+02  0.00000000000E+00 0. -1.
</event>
<event>
 7    1  0.1345786E-013  0.7246157E+02  0.7816164E-02  0.1226708E+00
        -11   -1    0    0    0    0  0.00000000000E+00  0.00000000000E+00  0.45593999997E+02  0.45594000000E+02  0.51100000000E-03 0. -1.
         11   -1    0    0    0    0 -0.00000000000E+00 -0.00000000000E+00 -0.45593999997E+02  0.45594000000E+02  0.51100000000E-03 0.  1.
    9900012    2    1    2    0    0 -0.12402319564E+01 -0.13932598815E+02 -0.12450849985E+02  0.72461570805E+02  0.70000000665E+02 0.  0.
         12    1    1    2    0    0  0.12402319564E+01  0.13932598815E+02  0.12450849985E+02  0.18726429195E+02  0.00000000000E+00 0. -1.
         11    1    3    3    0    0 -0.19878035940E+02  0.74165762648E+01 -0.21183116711E+02  0.29981099882E+02  0.51100000000E-03 0. -1.
        -11    1    3    3    0    0 -0.11940028601E+01 -0.17494694711E+02 -0.47801658975E+01  0.18175257141E+02  0.51100000000E-03 0.  1.
         12    1    3    3    0    0  0.19831806843E+02 -0.38544803693E+01  0.13512432623E+02  0.24305213782E+02  0.00000000000E+00 0. -1.
</event>
<event>
 7    1  0.1345786E-013  0.7246155E+02  0.7816164E-02  0.1226708E+00
        -11   -1    0    0    0    0  0.00000000000E+00  0.00000000000E+00  0.45593999997E+02  0.45594000000E+02  0.51100000000E-03 0.  1.
         11   -1    0    0    0    0 -0.00000000000E+00 -0.00000000000E+00 -0.45593999997E+02  0.45594000000E+02  0.51100000000E-03 0. -1.
    9900012    2    1    2    0    0 -0.27055446781E+01  0.15848509362E+02  0.96012795324E+01  0.72461553737E+02  0.69999978431E+02 0.  0.
         12    1    1    2    0    0  0.27055446781E+01 -0.15848509362E+02 -0.96012795324E+01  0.18726446263E+02  0.00000000000E+00 0. -1.
         11    1    3    3    0    0 -0.45281369238E+01 -0.10960044412E+01 -0.22648126095E+01  0.51802148752E+01  0.51100000000E-03 0. -1.
        -11    1    3    3    0    0  0.24745522221E+02  0.30591643658E+02  0.44885414007E+01  0.39602228925E+02  0.51100000000E-03 0.  1.
        -12    1    3    3    0    0 -0.22922929975E+02 -0.13647129855E+02  0.73775507412E+01  0.27679109936E+02  0.00000000000E+00 0.  1.
</event>
<event>
 7    1  0.1345786E-013  0.7246160E+02  0.7816164E-02  0.1226708E+00
        -11   -1    0    0    0    0  0.00000000000E+00  0.00000000000E+00  0.45593999997E+02  0.45594000000E+02  0.51100000000E-03 0.  1.
         11   -1    0    0    0    0 -0.00000000000E+00 -0.00000000000E+00 -0.45593999997E+02  0.45594000000E+02  0.51100000000E-03 0. -1.
    9900012    2    1    2    0    0  0.28169069626E+01 -0.50173505985E+01  0.17820471480E+02  0.72461602171E+02  0.70000041526E+02 0.  0.
         12    1    1    2    0    0 -0.28169069626E+01  0.50173505985E+01 -0.17820471480E+02  0.18726397829E+02  0.00000000000E+00 0. -1.
         11    1    3    3    0    0 -0.17621189540E+02 -0.96135589098E+01  0.17250066153E+02  0.26466802192E+02  0.51100000000E-03 0.  1.
        -11    1    3    3    0    0  0.18974201688E+02  0.16999201407E+02  0.12804232548E+02  0.28512129867E+02  0.51100000000E-03 0. -1.
         12    1    3    3    0    0  0.14638948147E+01 -0.12402993095E+02 -0.12233827221E+02  0.17482670112E+02  0.00000000000E+00 0. -1.
</event>
<event>
 7    1  0.1345786E-013  0.7246160E+02  0.7816164E-02  0.1226708E+00
        -11   -1    0    0    0    0  0.00000000000E+00  0.00000000000E+00  0.45593999997E+02  0.45594000000E+02  0.51100000000E-03 0. -1.
         11   -1    0    0    0    0 -0.00000000000E+00 -0.00000000000E+00 -0.45593999997E+02  0.45594000000E+02  0.51100000000E-03 0.  1.
    9900012    2    1    2    0    0 -0.14921211493E+02 -0.10453997409E+02 -0.43300542134E+01  0.72461601955E+02  0.70000041244E+02 0.  0.
         12    1    1    2    0    0  0.14921211493E+02  0.10453997409E+02  0.43300542134E+01  0.18726398045E+02  0.00000000000E+00 0. -1.
         11    1    3    3    0    0  0.14740098304E+02 -0.27169895263E+02  0.13810653977E+02  0.33855691843E+02  0.51100000000E-03 0.  1.
        -11    1    3    3    0    0 -0.26665866621E+02  0.14838798293E+02 -0.15778754784E+02  0.34354439018E+02  0.51100000000E-03 0. -1.
        -12    1    3    3    0    0 -0.29954431756E+01  0.18770995614E+01 -0.23619534060E+01  0.42514710952E+01  0.00000000000E+00 0.  1.
</event>
<event>
 7    1  0.1345786E-013  0.7246154E+02  0.7816164E-02  0.1226708E+00
        -11   -1    0    0    0    0  0.00000000000E+00  0.00000000000E+00  0.45593999997E+02  0.45594000000E+02  0.51100000000E-03 0. -1.
         11   -1    0    0    0    0 -0.00000000000E+00 -0.00000000000E+00 -0.45593999997E+02  0.45594000000E+02  0.51100000000E-03 0.  1.
    9900012    2    1    2    0    0 -0.12264763045E+01  0.16720722748E+01 -0.18611293720E+02  0.72461539476E+02  0.69999959854E+02 0.  0.
         12    1    1    2    0    0  0.12264763045E+01 -0.16720722748E+01  0.18611293720E+02  0.18726460524E+02  0.00000000000E+00 0. -1.
         11    1    3    3    0    0  0.13008903344E+02 -0.10623579433E+02  0.36167581743E+01  0.17180597956E+02  0.51100000000E-03 0. -1.
        -11    1    3    3    0    0  0.52024189331E+01  0.25716289261E+02 -0.16436592867E+02  0.30960527796E+02  0.51100000000E-03 0.  1.
        -12    1    3    3    0    0 -0.19437798581E+02 -0.13420637553E+02 -0.57914590278E+01  0.24320413724E+02  0.00000000000E+00 0.  1.
</event>
<event>
 7    1  0.1345786E-013  0.7246157E+02  0.7816164E-02  0.1226708E+00
        -11   -1    0    0    0    0  0.00000000000E+00  0.00000000000E+00  0.45593999997E+02  0.45594000000E+02  0.51100000000E-03 0. -1.
         11   -1    0    0    0    0 -0.00000000000E+00 -0.00000000000E+00 -0.45593999997E+02  0.45594000000E+02  0.51100000000E-03 0.  1.
    9900012    2    1    2    0    0  0.38969695954E+00 -0.16246120371E+02 -0.93054236889E+01  0.72461569458E+02  0.69999998910E+02 0.  0.
         12    1    1    2    0    0 -0.38969695954E+00  0.16246120371E+02  0.93054236889E+01  0.18726430542E+02  0.00000000000E+00 0. -1.
         11    1    3    3    0    0 -0.61952439788E-01 -0.16989194818E+02 -0.26039998199E+02  0.31092090395E+02  0.51100000000E-03 0.  1.
        -11    1    3    3    0    0  0.42933796547E+01  0.18775122734E+02  0.10308078072E+02  0.21844789226E+02  0.51100000000E-03 0. -1.
         12    1    3    3    0    0 -0.38417302554E+01 -0.18032048287E+02  0.64264964381E+01  0.19524689837E+02  0.00000000000E+00 0. -1.
</event>
<event>
 7    1  0.1345786E-013  0.7246156E+02  0.7816164E-02  0.1226708E+00
        -11   -1    0    0    0    0  0.00000000000E+00  0.00000000000E+00  0.45593999997E+02  0.45594000000E+02  0.51100000000E-03 0.  1.
         11   -1    0    0    0    0 -0.00000000000E+00 -0.00000000000E+00 -0.45593999997E+02  0.45594000000E+02  0.51100000000E-03 0. -1.
    9900012    2    1    2    0    0 -0.67357989355E+01 -0.40053208456E+01  0.17007820476E+02  0.72461560410E+02  0.69999987124E+02 0.  0.
         12    1    1    2    0    0  0.67357989355E+01  0.40053208456E+01 -0.17007820476E+02  0.18726439590E+02  0.00000000000E+00 0. -1.
         11    1    3    3    0    0 -0.30989275692E+02  0.36150546908E+01 -0.63760535387E+01  0.31844275582E+02  0.51100000000E-03 0. -1.
        -11    1    3    3    0    0  0.18992346980E+02  0.13319545454E+01  0.23485086203E+02  0.30232972414E+02  0.51100000000E-03 0.  1.
         12    1    3    3    0    0  0.52611297763E+01 -0.89523300818E+01 -0.10121218854E+00  0.10384312415E+02  0.00000000000E+00 0. -1.
</event>
<event>
 7    1  0.1345786E-013  0.7246162E+02  0.7816164E-02  0.1226708E+00
        -11   -1    0    0    0    0  0.00000000000E+00  0.00000000000E+00  0.45593999997E+02  0.45594000000E+02  0.51100000000E-03 0.  1.
         11   -1    0    0    0    0 -0.00000000000E+00 -0.00000000000E+00 -0.45593999997E+02  0.45594000000E+02  0.51100000000E-03 0. -1.
    9900012    2    1    2    0    0  0.40405648167E+01 -0.10019820241E+02  0.15295570204E+02  0.72461616752E+02  0.70000060519E+02 0.  0.
         12    1    1    2    0    0 -0.40405648167E+01  0.10019820241E+02 -0.15295570204E+02  0.18726383248E+02  0.00000000000E+00 0. -1.
         11    1    3    3    0    0  0.27379537031E+02 -0.20373464847E+02  0.27570935198E+02  0.43873381291E+02  0.51100000000E-03 0. -1.
        -11    1    3    3    0    0 -0.20929052924E+02  0.83646417876E+01 -0.11756891587E+02  0.25420798347E+02  0.51100000000E-03 0.  1.
         12    1    3    3    0    0 -0.24099192903E+01  0.19890028194E+01 -0.51847340688E+00  0.31674371146E+01  0.00000000000E+00 0. -1.
</event>
<event>
 7    1  0.1345786E-013  0.7246153E+02  0.7816164E-02  0.1226708E+00
        -11   -1    0    0    0    0  0.00000000000E+00  0.00000000000E+00  0.45593999997E+02  0.45594000000E+02  0.51100000000E-03 0.  1.
         11   -1    0    0    0    0 -0.00000000000E+00 -0.00000000000E+00 -0.45593999997E+02  0.45594000000E+02  0.51100000000E-03 0. -1.
    9900012    2    1    2    0    0  0.80283356273E+01  0.93986223499E+01  0.14067420708E+02  0.72461532090E+02  0.69999950232E+02 0.  0.
         12    1    1    2    0    0 -0.80283356273E+01 -0.93986223499E+01 -0.14067420708E+02  0.18726467910E+02  0.00000000000E+00 0. -1.
         11    1    3    3    0    0 -0.17918874426E+02  0.17615873909E+02  0.22807381663E+02  0.33934963281E+02  0.51100000000E-03 0. -1.
        -11    1    3    3    0    0  0.11150538171E+02  0.72585449956E+01  0.36400441027E+01  0.13793871765E+02  0.51100000000E-03 0.  1.
         12    1    3    3    0    0  0.14796671882E+02 -0.15475796555E+02 -0.12380005058E+02  0.24732697044E+02  0.00000000000E+00 0. -1.
</event>
<event>
 7    1  0.1345786E-013  0.7246146E+02  0.7816164E-02  0.1226708E+00
        -11   -1    0    0    0    0  0.00000000000E+00  0.00000000000E+00  0.45593999997E+02  0.45594000000E+02  0.51100000000E-03 0.  1.
         11   -1    0    0    0    0 -0.00000000000E+00 -0.00000000000E+00 -0.45593999997E+02  0.45594000000E+02  0.51100000000E-03 0. -1.
    9900012    2    1    2    0    0  0.70407861843E+01 -0.10529781302E+02  0.13792539862E+02  0.72461464811E+02  0.69999862588E+02 0.  0.
         12    1    1    2    0    0 -0.70407861843E+01  0.10529781302E+02 -0.13792539862E+02  0.18726535189E+02  0.00000000000E+00 0. -1.
         11    1    3    3    0    0 -0.26313634896E+02 -0.42251821854E+00  0.11727371175E+02  0.28811753470E+02  0.51100000000E-03 0. -1.
        -11    1    3    3    0    0  0.19765251733E+02 -0.13374323386E+02  0.11794410842E+02  0.26620402504E+02  0.51100000000E-03 0.  1.
         12    1    3    3    0    0  0.13589169347E+02  0.32670603028E+01 -0.97292421551E+01  0.17029308837E+02  0.00000000000E+00 0. -1.
</event>
<event>
 7    1  0.1345786E-013  0.7246166E+02  0.7816164E-02  0.1226708E+00
        -11   -1    0    0    0    0  0.00000000000E+00  0.00000000000E+00  0.45593999997E+02  0.45594000000E+02  0.51100000000E-03 0.  1.
         11   -1    0    0    0    0 -0.00000000000E+00 -0.00000000000E+00 -0.45593999997E+02  0.45594000000E+02  0.51100000000E-03 0. -1.
    9900012    2    1    2    0    0  0.16495564841E+02  0.19158253389E+01  0.86545839288E+01  0.72461658416E+02  0.70000114794E+02 0.  0.
         12    1    1    2    0    0 -0.16495564841E+02 -0.19158253389E+01 -0.86545839288E+01  0.18726341584E+02  0.00000000000E+00 0. -1.
         11    1    3    3    0    0 -0.21252714316E+01  0.10982294254E+02 -0.41157206633E+01  0.11919174576E+02  0.51100000000E-03 0. -1.
        -11    1    3    3    0    0  0.31556545870E+02 -0.16623476662E+02  0.22965325999E+02  0.42421241874E+02  0.51100000000E-03 0.  1.
        -12    1    3    3    0    0 -0.12935709597E+02  0.75570077470E+01 -0.10195021407E+02  0.18121241965E+02  0.00000000000E+00 0.  1.
</event>
<event>
 7    1  0.1345786E-013  0.7246156E+02  0.7816164E-02  0.1226708E+00
        -11   -1    0    0    0    0  0.00000000000E+00  0.00000000000E+00  0.45593999997E+02  0.45594000000E+02  0.51100000000E-03 0. -1.
         11   -1    0    0    0    0 -0.00000000000E+00 -0.00000000000E+00 -0.45593999997E+02  0.45594000000E+02  0.51100000000E-03 0.  1.
    9900012    2    1    2    0    0 -0.14907184951E+02  0.26695374299E+01 -0.11014944669E+02  0.72461558819E+02  0.69999985051E+02 0.  0.
         12    1    1    2    0    0  0.14907184951E+02 -0.26695374299E+01  0.11014944669E+02  0.18726441181E+02  0.00000000000E+00 0. -1.
         11    1    3    3    0    0  0.21416541224E+02 -0.59881841005E+01  0.93249656810E+01  0.24113929004E+02  0.51100000000E-03 0. -1.
        -11    1    3    3    0    0 -0.29758524399E+02  0.38355172766E+01 -0.42380146469E+01  0.30302503785E+02  0.51100000000E-03 0.  1.
         12    1    3    3    0    0 -0.65652017753E+01  0.48222042538E+01 -0.16101895703E+02  0.18045126030E+02  0.00000000000E+00 0. -1.
</event>
<event>
 7    1  0.1345786E-013  0.7246157E+02  0.7816164E-02  0.1226708E+00
        -11   -1    0    0    0    0  0.00000000000E+00  0.00000000000E+00  0.45593999997E+02  0.45594000000E+02  0.51100000000E-03 0.  1.
         11   -1    0    0    0    0 -0.00000000000E+00 -0.00000000000E+00 -0.45593999997E+02  0.45594000000E+02  0.51100000000E-03 0. -1.
    9900012    2    1    2    0    0  0.14019240614E+02 -0.96960573955E-01  0.12414932560E+02  0.72461573239E+02  0.70000003836E+02 0.  0.
         12    1    1    2    0    0 -0.14019240614E+02  0.96960573955E-01 -0.12414932560E+02  0.18726426761E+02  0.00000000000E+00 0. -1.
         11    1    3    3    0    0  0.22797801566E+02 -0.24465582670E+02 -0.45416728006E-02  0.33441060278E+02  0.51100000000E-03 0. -1.
        -11    1    3    3    0    0  0.39358679664E+00  0.20420244487E+02 -0.30068474896E+01  0.20644186289E+02  0.51100000000E-03 0.  1.
        -12    1    3    3    0    0 -0.91721477488E+01  0.39483776092E+01  0.15426321723E+02  0.18376326672E+02  0.00000000000E+00 0.  1.
</event>
<event>
 7    1  0.1345786E-013  0.7246161E+02  0.7816164E-02  0.1226708E+00
        -11   -1    0    0    0    0  0.00000000000E+00  0.00000000000E+00  0.45593999997E+02  0.45594000000E+02  0.51100000000E-03 0.  1.
         11   -1    0    0    0    0 -0.00000000000E+00 -0.00000000000E+00 -0.45593999997E+02  0.45594000000E+02  0.51100000000E-03 0. -1.
    9900012    2    1    2    0    0  0.11988147624E+02  0.14202456448E+02 -0.22917989967E+01  0.72461606988E+02  0.70000047800E+02 0.  0.
         12    1    1    2    0    0 -0.11988147624E+02 -0.14202456448E+02  0.22917989967E+01  0.18726393012E+02  0.00000000000E+00 0. -1.
         11    1    3    3    0    0 -0.16136104735E+02 -0.12493065223E+02 -0.69613983388E+01  0.21561809335E+02  0.51100000000E-03 0. -1.
        -11    1    3    3    0    0  0.34350831190E+01  0.91090510784E+01  0.15841887546E+02  0.18594085320E+02  0.51100000000E-03 0.  1.
         12    1    3    3    0    0  0.24689169241E+02  0.17586470592E+02 -0.11172288204E+02  0.32305712334E+02  0.00000000000E+00 0. -1.
</event>
<event>
 7    1  0.1345786E-013  0.7246158E+02  0.7816164E-02  0.1226708E+00
        -11   -1    0    0    0    0  0.00000000000E+00  0.00000000000E+00  0.45593999997E+02  0.45594000000E+02  0.51100000000E-03 0. -1.
         11   -1    0    0    0    0 -0.00000000000E+00 -0.00000000000E+00 -0.45593999997E+02  0.45594000000E+02  0.51100000000E-03 0.  1.
    9900012    2    1    2    0    0 -0.10563024012E+02  0.18369489660E+01 -0.15353407943E+02  0.72461575002E+02  0.70000006132E+02 0.  0.
         12    1    1    2    0    0  0.10563024012E+02 -0.18369489660E+01  0.15353407943E+02  0.18726424998E+02  0.00000000000E+00 0. -1.
         11    1    3    3    0    0 -0.10448618561E+02 -0.10265687318E+01  0.12725845532E+02  0.16497715538E+02  0.51100000000E-03 0. -1.
        -11    1    3    3    0    0  0.18960024029E+02  0.14303380578E+02 -0.23183411874E+02  0.33189453046E+02  0.51100000000E-03 0.  1.
        -12    1    3    3    0    0 -0.19074429479E+02 -0.11439862881E+02 -0.48958416010E+01  0.22774406417E+02  0.00000000000E+00 0.  1.
</event>
<event>
 7    1  0.1345786E-013  0.7246155E+02  0.7816164E-02  0.1226708E+00
        -11   -1    0    0    0    0  0.00000000000E+00  0.00000000000E+00  0.45593999997E+02  0.45594000000E+02  0.51100000000E-03 0.  1.
         11   -1    0    0    0    0 -0.00000000000E+00 -0.00000000000E+00 -0.45593999997E+02  0.45594000000E+02  0.51100000000E-03 0. -1.
    9900012    2    1    2    0    0 -0.61643410937E+01  0.62776448167E+01  0.16530946118E+02  0.72461545313E+02  0.69999967457E+02 0.  0.
         12    1    1    2    0    0  0.61643410937E+01 -0.62776448167E+01 -0.16530946118E+02  0.18726454687E+02  0.00000000000E+00 0. -1.
         11    1    3    3    0    0 -0.28523710186E+01 -0.26541224585E+01 -0.56484174336E+01  0.68618515153E+01  0.51100000000E-03 0. -1.
        -11    1    3    3    0    0 -0.26371168595E+02  0.21595634726E+02  0.19207297378E+02  0.39124547858E+02  0.51100000000E-03 0.  1.
        -12    1    3    3    0    0  0.23059198520E+02 -0.12663867451E+02  0.29720661741E+01  0.26475145940E+02  0.00000000000E+00 0.  1.
</event>
<event>
 7    1  0.1345786E-013  0.7246163E+02  0.7816164E-02  0.1226708E+00
        -11   -1    0    0    0    0  0.00000000000E+00  0.00000000000E+00  0.45593999997E+02  0.45594000000E+02  0.51100000000E-03 0. -1.
         11   -1    0    0    0    0 -0.00000000000E+00 -0.00000000000E+00 -0.45593999997E+02  0.45594000000E+02  0.51100000000E-03 0.  1.
    9900012    2    1    2    0    0  0.63000423296E+01  0.12475771510E+02 -0.12463611805E+02  0.72461627491E+02  0.70000074510E+02 0.  0.
         12    1    1    2    0    0 -0.63000423296E+01 -0.12475771510E+02  0.12463611805E+02  0.18726372509E+02  0.00000000000E+00 0. -1.
         11    1    3    3    0    0 -0.14097733108E+02 -0.59375569786E+01  0.17287604644E+02  0.23083802465E+02  0.51100000000E-03 0. -1.
        -11    1    3    3    0    0  0.21767254683E+02  0.18026555781E+02 -0.34397103390E+02  0.44518881519E+02  0.51100000000E-03 0.  1.
        -12    1    3    3    0    0 -0.13694792454E+01  0.38677270706E+00  0.46458869420E+01  0.48589435074E+01  0.00000000000E+00 0.  1.
</event>
<event>
 7    1  0.1345786E-013  0.7246181E+02  0.7816164E-02  0.1226707E+00
        -11   -1    0    0    0    0  0.00000000000E+00  0.00000000000E+00  0.45593999997E+02  0.45594000000E+02  0.51100000000E-03 0. -1.
         11   -1    0    0    0    0 -0.00000000000E+00 -0.00000000000E+00 -0.45593999997E+02  0.45594000000E+02  0.51100000000E-03 0.  1.
    9900012    2    1    2    0    0 -0.13613147546E+02 -0.90572085053E+01 -0.91279493822E+01  0.72461807863E+02  0.70000309477E+02 0.  0.
         12    1    1    2    0    0  0.13613147546E+02  0.90572085053E+01  0.91279493822E+01  0.18726192137E+02  0.00000000000E+00 0. -1.
         11    1    3    3    0    0 -0.31322217514E+02 -0.27013588647E+02 -0.80000038722E+01  0.42128557343E+02  0.51100000000E-03 0. -1.
        -11    1    3    3    0    0  0.30263621220E+01  0.70003429503E+01 -0.77310994352E+01  0.10859722273E+02  0.51100000000E-03 0.  1.
         12    1    3    3    0    0  0.14682707846E+02  0.10956037191E+02  0.66031539252E+01  0.19473528247E+02  0.00000000000E+00 0. -1.
</event>
<event>
 7    1  0.1345786E-013  0.7246163E+02  0.7816164E-02  0.1226708E+00
        -11   -1    0    0    0    0  0.00000000000E+00  0.00000000000E+00  0.45593999997E+02  0.45594000000E+02  0.51100000000E-03 0.  1.
         11   -1    0    0    0    0 -0.00000000000E+00 -0.00000000000E+00 -0.45593999997E+02  0.45594000000E+02  0.51100000000E-03 0. -1.
    9900012    2    1    2    0    0  0.15940896441E+02  0.90085699590E+01  0.39256005176E+01  0.72461632187E+02  0.70000080627E+02 0.  0.
         12    1    1    2    0    0 -0.15940896441E+02 -0.90085699590E+01 -0.39256005176E+01  0.18726367813E+02  0.00000000000E+00 0. -1.
         11    1    3    3    0    0 -0.61470054894E+01  0.82151811997E+01 -0.18603076682E+02  0.21244983900E+02  0.51100000000E-03 0. -1.
        -11    1    3    3    0    0  0.81325832923E+01 -0.18554103780E+02  0.31909386544E+01  0.20507944018E+02  0.51100000000E-03 0.  1.
         12    1    3    3    0    0  0.13955318638E+02  0.19347492539E+02  0.19337738545E+02  0.30708704269E+02  0.00000000000E+00 0. -1.
</event>
<event>
 7    1  0.1345786E-013  0.7246157E+02  0.7816164E-02  0.1226708E+00
        -11   -1    0    0    0    0  0.00000000000E+00  0.00000000000E+00  0.45593999997E+02  0.45594000000E+02  0.51100000000E-03 0. -1.
         11   -1    0    0    0    0 -0.00000000000E+00 -0.00000000000E+00 -0.45593999997E+02  0.45594000000E+02  0.51100000000E-03 0.  1.
    9900012    2    1    2    0    0  0.70834065088E+01  0.16301312656E+02 -0.58967572116E+01  0.72461569809E+02  0.69999999368E+02 0.  0.
         12    1    1    2    0    0 -0.70834065088E+01 -0.16301312656E+02  0.58967572116E+01  0.18726430191E+02  0.00000000000E+00 0. -1.
         11    1    3    3    0    0  0.16544639946E+02 -0.21629105988E+02  0.35872554511E+01  0.27466556732E+02  0.51100000000E-03 0. -1.
        -11    1    3    3    0    0  0.12274276707E+01  0.10227868978E+02 -0.11244564136E+02  0.15249790339E+02  0.51100000000E-03 0.  1.
         12    1    3    3    0    0 -0.10688661108E+02  0.27702549665E+02  0.17605514729E+01  0.29745222738E+02  0.00000000000E+00 0. -1.
</event>
<event>
 7    1  0.1345786E-013  0.7246146E+02  0.7816164E-02  0.1226708E+00
        -11   -1    0    0    0    0  0.00000000000E+00  0.00000000000E+00  0.45593999997E+02  0.45594000000E+02  0.51100000000E-03 0.  1.
         11   -1    0    0    0    0 -0.00000000000E+00 -0.00000000000E+00 -0.45593999997E+02  0.45594000000E+02  0.51100000000E-03 0. -1.
    9900012    2    1    2    0    0 -0.45762385043E+01 -0.96732288180E+01  0.15367818348E+02  0.72461463871E+02  0.69999861364E+02 0.  0.
         12    1    1    2    0    0  0.45762385043E+01  0.96732288180E+01 -0.15367818348E+02  0.18726536129E+02  0.00000000000E+00 0. -1.
         11    1    3    3    0    0 -0.10865335160E+02  0.84951383141E+01 -0.15746072678E+02  0.20932312059E+02  0.51100000000E-03 0. -1.
        -11    1    3    3    0    0 -0.73857383200E+00 -0.24876241724E+02  0.33298743811E+02  0.41571375167E+02  0.51100000000E-03 0.  1.
        -12    1    3    3    0    0  0.70276704875E+01  0.67078745917E+01 -0.21848527858E+01  0.99577766451E+01  0.00000000000E+00 0.  1.
</event>
<event>
 7    1  0.1345786E-013  0.7246156E+02  0.7816164E-02  0.1226708E+00
        -11   -1    0    0    0    0  0.00000000000E+00  0.00000000000E+00  0.45593999997E+02  0.45594000000E+02  0.51100000000E-03 0.  1.
         11   -1    0    0    0    0 -0.00000000000E+00 -0.00000000000E+00 -0.45593999997E+02  0.45594000000E+02  0.51100000000E-03 0. -1.
    9900012    2    1    2    0    0 -0.76714388172E+01  0.64230267541E+01  0.15829508031E+02  0.72461559583E+02  0.69999986046E+02 0.  0.
         12    1    1    2    0    0  0.76714388172E+01 -0.64230267541E+01 -0.15829508031E+02  0.18726440417E+02  0.00000000000E+00 0. -1.
         11    1    3    3    0    0 -0.14703840888E+02  0.36806049229E+01 -0.20735095456E+02  0.25684508430E+02  0.51100000000E-03 0. -1.
        -11    1    3    3    0    0  0.14653371659E+02 -0.59777153862E+01  0.28712444859E+02  0.32785040373E+02  0.51100000000E-03 0.  1.
        -12    1    3    3    0    0 -0.76209695882E+01  0.87201372173E+01  0.78521586271E+01  0.13992010780E+02  0.00000000000E+00 0.  1.
</event>
<event>
 7    1  0.1345786E-013  0.7246161E+02  0.7816164E-02  0.1226708E+00
        -11   -1    0    0    0    0  0.00000000000E+00  0.00000000000E+00  0.45593999997E+02  0.45594000000E+02  0.51100000000E-03 0. -1.
         11   -1    0    0    0    0 -0.00000000000E+00 -0.00000000000E+00 -0.45593999997E+02  0.45594000000E+02  0.51100000000E-03 0.  1.
    9900012    2    1    2    0    0 -0.54537746326E+01 -0.14922806883E+02 -0.99118055518E+01  0.72461609202E+02  0.70000050684E+02 0.  0.
         12    1    1    2    0    0  0.54537746326E+01  0.14922806883E+02  0.99118055518E+01  0.18726390798E+02  0.00000000000E+00 0. -1.
         11    1    3    3    0    0 -0.30641187389E+02  0.64149292092E+01 -0.10106912793E+02  0.32896555561E+02  0.51100000000E-03 0. -1.
        -11    1    3    3    0    0  0.66175000264E+01 -0.19321904073E+02  0.31128070221E+01  0.20659546254E+02  0.51100000000E-03 0.  1.
         12    1    3    3    0    0  0.18569912730E+02 -0.20158320192E+01 -0.29176997813E+01  0.18905507386E+02  0.00000000000E+00 0. -1.
</event>
<event>
 7    1  0.1345786E-013  0.7246157E+02  0.7816164E-02  0.1226708E+00
        -11   -1    0    0    0    0  0.00000000000E+00  0.00000000000E+00  0.45593999997E+02  0.45594000000E+02  0.51100000000E-03 0.  1.
         11   -1    0    0    0    0 -0.00000000000E+00 -0.00000000000E+00 -0.45593999997E+02  0.45594000000E+02  0.51100000000E-03 0. -1.
    9900012    2    1    2    0    0 -0.58383939249E+01  0.17787477743E+02 -0.44503335270E+00  0.72461567804E+02  0.69999996756E+02 0.  0.
         12    1    1    2    0    0  0.58383939249E+01 -0.17787477743E+02  0.44503335270E+00  0.18726432196E+02  0.00000000000E+00 0. -1.
         11    1    3    3    0    0  0.12994569323E+02  0.62281897172E+01 -0.78557907097E+01  0.16412270622E+02  0.51100000000E-03 0. -1.
        -11    1    3    3    0    0 -0.28967324967E+02 -0.68111038822E+01 -0.70338176695E+01  0.30577306015E+02  0.51100000000E-03 0.  1.
        -12    1    3    3    0    0  0.10134361720E+02  0.18370391908E+02  0.14444575027E+02  0.25471991167E+02  0.00000000000E+00 0.  1.
</event>
<event>
 7    1  0.1345786E-013  0.7246159E+02  0.7816164E-02  0.1226708E+00
        -11   -1    0    0    0    0  0.00000000000E+00  0.00000000000E+00  0.45593999997E+02  0.45594000000E+02  0.51100000000E-03 0.  1.
         11   -1    0    0    0    0 -0.00000000000E+00 -0.00000000000E+00 -0.45593999997E+02  0.45594000000E+02  0.51100000000E-03 0. -1.
    9900012    2    1    2    0    0  0.93073783230E+01  0.13820992114E+02  0.85458364316E+01  0.72461589918E+02  0.70000025563E+02 0.  0.
         12    1    1    2    0    0 -0.93073783230E+01 -0.13820992114E+02 -0.85458364316E+01  0.18726410082E+02  0.00000000000E+00 0. -1.
         11    1    3    3    0    0  0.25501798635E+01  0.36254097658E+02 -0.19744899353E+01  0.36397274968E+02  0.51100000000E-03 0. -1.
        -11    1    3    3    0    0  0.10785342264E+02  0.48678805771E+00  0.74063699959E+00  0.10821696438E+02  0.51100000000E-03 0.  1.
         12    1    3    3    0    0 -0.40281438049E+01 -0.22919893601E+02  0.97796893673E+01  0.25242618512E+02  0.00000000000E+00 0. -1.
</event>
<event>
 7    1  0.1345786E-013  0.7246165E+02  0.7816164E-02  0.1226708E+00
        -11   -1    0    0    0    0  0.00000000000E+00  0.00000000000E+00  0.45593999997E+02  0.45594000000E+02  0.51100000000E-03 0.  1.
         11   -1    0    0    0    0 -0.00000000000E+00 -0.00000000000E+00 -0.45593999997E+02  0.45594000000E+02  0.51100000000E-03 0. -1.
    9900012    2    1    2    0    0  0.12973497027E+02 -0.97666282574E+01  0.93261745247E+01  0.72461650012E+02  0.70000103847E+02 0.  0.
         12    1    1    2    0    0 -0.12973497027E+02  0.97666282574E+01 -0.93261745247E+01  0.18726349988E+02  0.00000000000E+00 0. -1.
         11    1    3    3    0    0  0.37651040486E+02  0.67595474687E+01 -0.37820248318E+01  0.38439511492E+02  0.51100000000E-03 0. -1.
        -11    1    3    3    0    0 -0.52053342047E+01 -0.89163750123E+01  0.59944880663E+01  0.11938640416E+02  0.51100000000E-03 0.  1.
         12    1    3    3    0    0 -0.19472209255E+02 -0.76098007137E+01  0.71137112902E+01  0.22083498104E+02  0.00000000000E+00 0. -1.
</event>
<event>
 7    1  0.1345786E-013  0.7246156E+02  0.7816164E-02  0.1226708E+00
        -11   -1    0    0    0    0  0.00000000000E+00  0.00000000000E+00  0.45593999997E+02  0.45594000000E+02  0.51100000000E-03 0. -1.
         11   -1    0    0    0    0 -0.00000000000E+00 -0.00000000000E+00 -0.45593999997E+02  0.45594000000E+02  0.51100000000E-03 0.  1.
    9900012    2    1    2    0    0 -0.11243316564E+02  0.38270993806E+01 -0.14478283615E+02  0.72461560043E+02  0.69999986645E+02 0.  0.
         12    1    1    2    0    0  0.11243316564E+02 -0.38270993806E+01  0.14478283615E+02  0.18726439957E+02  0.00000000000E+00 0. -1.
         11    1    3    3    0    0  0.55303115197E+01 -0.25414203094E+02 -0.19104816637E+02  0.32271660686E+02  0.51100000000E-03 0.  1.
        -11    1    3    3    0    0 -0.10805191073E+02  0.10124046305E+02 -0.76834786893E+01  0.16681855794E+02  0.51100000000E-03 0. -1.
         12    1    3    3    0    0 -0.59684370114E+01  0.19117256169E+02  0.12310011712E+02  0.23508043563E+02  0.00000000000E+00 0. -1.
</event>
<event>
 7    1  0.1345786E-013  0.7246148E+02  0.7816164E-02  0.1226708E+00
        -11   -1    0    0    0    0  0.00000000000E+00  0.00000000000E+00  0.45593999997E+02  0.45594000000E+02  0.51100000000E-03 0. -1.
         11   -1    0    0    0    0 -0.00000000000E+00 -0.00000000000E+00 -0.45593999997E+02  0.45594000000E+02  0.51100000000E-03 0.  1.
    9900012    2    1    2    0    0 -0.17440704986E+02  0.58031100983E+01  0.35816477237E+01  0.72461481967E+02  0.69999884937E+02 0.  0.
         12    1    1    2    0    0  0.17440704986E+02 -0.58031100983E+01 -0.35816477237E+01  0.18726518033E+02  0.00000000000E+00 0. -1.
         11    1    3    3    0    0 -0.52953981600E+01 -0.22045438367E+02  0.19337125731E+02  0.29798775583E+02  0.51100000000E-03 0. -1.
        -11    1    3    3    0    0 -0.40666593276E+01  0.20957647621E+02 -0.21743798459E+02  0.30472175563E+02  0.51100000000E-03 0.  1.
         12    1    3    3    0    0 -0.80786474982E+01  0.68909008447E+01  0.59883204521E+01  0.12190530821E+02  0.00000000000E+00 0. -1.
</event>
<event>
 7    1  0.1345786E-013  0.7246184E+02  0.7816164E-02  0.1226707E+00
        -11   -1    0    0    0    0  0.00000000000E+00  0.00000000000E+00  0.45593999997E+02  0.45594000000E+02  0.51100000000E-03 0. -1.
         11   -1    0    0    0    0 -0.00000000000E+00 -0.00000000000E+00 -0.45593999997E+02  0.45594000000E+02  0.51100000000E-03 0.  1.
    9900012    2    1    2    0    0  0.85914980833E+01 -0.16072389382E+02 -0.43050736184E+01  0.72461836521E+02  0.70000346809E+02 0.  0.
         12    1    1    2    0    0 -0.85914980833E+01  0.16072389382E+02  0.43050736184E+01  0.18726163479E+02  0.00000000000E+00 0. -1.
         11    1    3    3    0    0  0.15323908947E+02 -0.14836015933E+02 -0.50488458506E+01  0.21918494448E+02  0.51100000000E-03 0. -1.
        -11    1    3    3    0    0 -0.18318122461E+02 -0.20741750038E+02 -0.17033815660E+01  0.27724994395E+02  0.51100000000E-03 0.  1.
        -12    1    3    3    0    0  0.11585711597E+02  0.19505376589E+02  0.24471537982E+01  0.22818347679E+02  0.00000000000E+00 0.  1.
</event>
<event>
 7    1  0.1345786E-013  0.7246158E+02  0.7816164E-02  0.1226708E+00
        -11   -1    0    0    0    0  0.00000000000E+00  0.00000000000E+00  0.45593999997E+02  0.45594000000E+02  0.51100000000E-03 0. -1.
         11   -1    0    0    0    0 -0.00000000000E+00 -0.00000000000E+00 -0.45593999997E+02  0.45594000000E+02  0.51100000000E-03 0.  1.
    9900012    2    1    2    0    0  0.69189803644E+01 -0.10562265923E+02 -0.13829140646E+02  0.72461577979E+02  0.70000010011E+02 0.  0.
         12    1    1    2    0    0 -0.69189803644E+01  0.10562265923E+02  0.13829140646E+02  0.18726422021E+02  0.00000000000E+00 0. -1.
         11    1    3    3    0    0  0.30053442818E+01  0.28127136995E+01  0.84921744618E+01  0.94371860190E+01  0.51100000000E-03 0. -1.
        -11    1    3    3    0    0 -0.12292983020E+02 -0.30842809012E+02 -0.20731656744E+02  0.39143299438E+02  0.51100000000E-03 0.  1.
        -12    1    3    3    0    0  0.16206619103E+02  0.17467829390E+02 -0.15896583631E+01  0.23881092522E+02  0.00000000000E+00 0.  1.
</event>
<event>
 7    1  0.1345786E-013  0.7246158E+02  0.7816164E-02  0.1226708E+00
        -11   -1    0    0    0    0  0.00000000000E+00  0.00000000000E+00  0.45593999997E+02  0.45594000000E+02  0.51100000000E-03 0.  1.
         11   -1    0    0    0    0 -0.00000000000E+00 -0.00000000000E+00 -0.45593999997E+02  0.45594000000E+02  0.51100000000E-03 0. -1.
    9900012    2    1    2    0    0 -0.77120368416E+01  0.16898211384E+02  0.23777368272E+01  0.72461583027E+02  0.70000016586E+02 0.  0.
         12    1    1    2    0    0  0.77120368416E+01 -0.16898211384E+02 -0.23777368272E+01  0.18726416973E+02  0.00000000000E+00 0. -1.
         11    1    3    3    0    0  0.26283092066E+00  0.13145420965E+02 -0.19745061817E+02  0.23722112867E+02  0.51100000000E-03 0. -1.
        -11    1    3    3    0    0 -0.20985741259E+02  0.14927220439E+02  0.16930606216E+02  0.30819939541E+02  0.51100000000E-03 0.  1.
        -12    1    3    3    0    0  0.13010873496E+02 -0.11174430020E+02  0.51921924280E+01  0.17919530619E+02  0.00000000000E+00 0.  1.
</event>
<event>
 7    1  0.1345786E-013  0.7246157E+02  0.7816164E-02  0.1226708E+00
        -11   -1    0    0    0    0  0.00000000000E+00  0.00000000000E+00  0.45593999997E+02  0.45594000000E+02  0.51100000000E-03 0.  1.
         11   -1    0    0    0    0 -0.00000000000E+00 -0.00000000000E+00 -0.45593999997E+02  0.45594000000E+02  0.51100000000E-03 0. -1.
    9900012    2    1    2    0    0  0.86034770270E+01 -0.11258379617E+02  0.12243708395E+02  0.72461566175E+02  0.69999994634E+02 0.  0.
         12    1    1    2    0    0 -0.86034770270E+01  0.11258379617E+02 -0.12243708395E+02  0.18726433825E+02  0.00000000000E+00 0. -1.
         11    1    3    3    0    0 -0.39336199050E+01  0.22739992743E+02 -0.47549368180E+01  0.23562471431E+02  0.51100000000E-03 0. -1.
        -11    1    3    3    0    0  0.81870571186E+01 -0.30900039347E+02  0.24086079057E+02  0.40024736608E+02  0.51100000000E-03 0.  1.
         12    1    3    3    0    0  0.43500398135E+01 -0.30983330131E+01 -0.70874338446E+01  0.88743581368E+01  0.00000000000E+00 0. -1.
</event>
<event>
 7    1  0.1345786E-013  0.7246162E+02  0.7816164E-02  0.1226708E+00
        -11   -1    0    0    0    0  0.00000000000E+00  0.00000000000E+00  0.45593999997E+02  0.45594000000E+02  0.51100000000E-03 0.  1.
         11   -1    0    0    0    0 -0.00000000000E+00 -0.00000000000E+00 -0.45593999997E+02  0.45594000000E+02  0.51100000000E-03 0. -1.
    9900012    2    1    2    0    0 -0.82293958786E+01  0.14956641368E+02  0.76976057392E+01  0.72461622570E+02  0.70000068099E+02 0.  0.
         12    1    1    2    0    0  0.82293958786E+01 -0.14956641368E+02 -0.76976057392E+01  0.18726377430E+02  0.00000000000E+00 0. -1.
         11    1    3    3    0    0 -0.25153381729E+01  0.14883197490E+02 -0.14168589621E+01  0.15160606295E+02  0.51100000000E-03 0. -1.
        -11    1    3    3    0    0 -0.10633649343E+02 -0.21326187564E+02  0.21495940548E+02  0.32092931226E+02  0.51100000000E-03 0.  1.
        -12    1    3    3    0    0  0.49195916372E+01  0.21399631441E+02 -0.12381475847E+02  0.25208085049E+02  0.00000000000E+00 0.  1.
</event>
<event>
 7    1  0.1345786E-013  0.7246158E+02  0.7816164E-02  0.1226708E+00
        -11   -1    0    0    0    0  0.00000000000E+00  0.00000000000E+00  0.45593999997E+02  0.45594000000E+02  0.51100000000E-03 0. -1.
         11   -1    0    0    0    0 -0.00000000000E+00 -0.00000000000E+00 -0.45593999997E+02  0.45594000000E+02  0.51100000000E-03 0.  1.
    9900012    2    1    2    0    0  0.72638473493E+01  0.11528706837E+02 -0.12845391149E+02  0.72461584609E+02  0.70000018647E+02 0.  0.
         12    1    1    2    0    0 -0.72638473493E+01 -0.11528706837E+02  0.12845391149E+02  0.18726415391E+02  0.00000000000E+00 0. -1.
         11    1    3    3    0    0  0.93822779500E+01 -0.23694396064E+02  0.55950435508E+01  0.26091302324E+02  0.51100000000E-03 0. -1.
        -11    1    3    3    0    0  0.23059187549E+01  0.25896615340E+02 -0.89623709753E+00  0.26014518803E+02  0.51100000000E-03 0.  1.
        -12    1    3    3    0    0 -0.44243493555E+01  0.93264875612E+01 -0.17544197602E+02  0.20355763482E+02  0.00000000000E+00 0.  1.
</event>
<event>
 7    1  0.1345786E-013  0.7246156E+02  0.7816164E-02  0.1226708E+00
        -11   -1    0    0    0    0  0.00000000000E+00  0.00000000000E+00  0.45593999997E+02  0.45594000000E+02  0.51100000000E-03 0.  1.
         11   -1    0    0    0    0 -0.00000000000E+00 -0.00000000000E+00 -0.45593999997E+02  0.45594000000E+02  0.51100000000E-03 0. -1.
    9900012    2    1    2    0    0  0.13522789674E+02  0.10276609573E+02 -0.78870247190E+01  0.72461556029E+02  0.69999981417E+02 0.  0.
         12    1    1    2    0    0 -0.13522789674E+02 -0.10276609573E+02  0.78870247190E+01  0.18726443971E+02  0.00000000000E+00 0. -1.
         11    1    3    3    0    0 -0.94331467763E+01  0.16347219452E+01 -0.20276875102E+02  0.22423385964E+02  0.51100000000E-03 0. -1.
        -11    1    3    3    0    0  0.83562973462E+01 -0.10687216204E+02  0.20422530976E+02  0.24517831618E+02  0.51100000000E-03 0.  1.
        -12    1    3    3    0    0  0.14599639104E+02  0.19329103832E+02 -0.80326805924E+01  0.25520338446E+02  0.00000000000E+00 0.  1.
</event>
<event>
 7    1  0.1345786E-013  0.7246157E+02  0.7816164E-02  0.1226708E+00
        -11   -1    0    0    0    0  0.00000000000E+00  0.00000000000E+00  0.45593999997E+02  0.45594000000E+02  0.51100000000E-03 0.  1.
         11   -1    0    0    0    0 -0.00000000000E+00 -0.00000000000E+00 -0.45593999997E+02  0.45594000000E+02  0.51100000000E-03 0. -1.
    9900012    2    1    2    0    0  0.60532540547E+01  0.15403347472E+02  0.87620879519E+01  0.72461569928E+02  0.69999999522E+02 0.  0.
         12    1    1    2    0    0 -0.60532540547E+01 -0.15403347472E+02 -0.87620879519E+01  0.18726430072E+02  0.00000000000E+00 0. -1.
         11    1    3    3    0    0  0.28037050392E+02  0.21504017598E+02  0.12569093174E+02  0.37503080820E+02  0.51100000000E-03 0. -1.
        -11    1    3    3    0    0 -0.23527350702E+02 -0.46262536394E-01  0.51045945658E+01  0.24074784677E+02  0.51100000000E-03 0.  1.
         12    1    3    3    0    0  0.15435543656E+01 -0.60544075905E+01 -0.89115997879E+01  0.10883704430E+02  0.00000000000E+00 0. -1.
</event>
<event>
 7    1  0.1345786E-013  0.7246156E+02  0.7816164E-02  0.1226708E+00
        -11   -1    0    0    0    0  0.00000000000E+00  0.00000000000E+00  0.45593999997E+02  0.45594000000E+02  0.51100000000E-03 0. -1.
         11   -1    0    0    0    0 -0.00000000000E+00 -0.00000000000E+00 -0.45593999997E+02  0.45594000000E+02  0.51100000000E-03 0.  1.
    9900012    2    1    2    0    0 -0.98042276499E+01 -0.95425084178E+01  0.12786603646E+02  0.72461559348E+02  0.69999985740E+02 0.  0.
         12    1    1    2    0    0  0.98042276499E+01  0.95425084178E+01 -0.12786603646E+02  0.18726440652E+02  0.00000000000E+00 0. -1.
         11    1    3    3    0    0 -0.24231433181E+02  0.17251810699E+02  0.14721660606E+02  0.33189073770E+02  0.51100000000E-03 0. -1.
        -11    1    3    3    0    0  0.52053165654E+01 -0.30075501818E+01 -0.10719888711E+02  0.12290512311E+02  0.51100000000E-03 0.  1.
         12    1    3    3    0    0  0.92218889657E+01 -0.23786768935E+02  0.87848317500E+01  0.26981973267E+02  0.00000000000E+00 0. -1.
</event>
<event>
 7    1  0.1345786E-013  0.7246159E+02  0.7816164E-02  0.1226708E+00
        -11   -1    0    0    0    0  0.00000000000E+00  0.00000000000E+00  0.45593999997E+02  0.45594000000E+02  0.51100000000E-03 0.  1.
         11   -1    0    0    0    0 -0.00000000000E+00 -0.00000000000E+00 -0.45593999997E+02  0.45594000000E+02  0.51100000000E-03 0. -1.
    9900012    2    1    2    0    0 -0.28715432867E+01  0.11866360033E+02  0.14199366926E+02  0.72461593981E+02  0.70000030857E+02 0.  0.
         12    1    1    2    0    0  0.28715432867E+01 -0.11866360033E+02 -0.14199366926E+02  0.18726406019E+02  0.00000000000E+00 0. -1.
         11    1    3    3    0    0  0.21798804909E+02  0.13516255363E+02 -0.15400529487E+02  0.29917442458E+02  0.51100000000E-03 0. -1.
        -11    1    3    3    0    0 -0.20921363963E+02  0.61865525998E+01  0.22299651424E+02  0.31196976729E+02  0.51100000000E-03 0.  1.
         12    1    3    3    0    0 -0.37489842330E+01 -0.78364479292E+01  0.73002449880E+01  0.11347174794E+02  0.00000000000E+00 0. -1.
</event>
<event>
 7    1  0.1345786E-013  0.7246156E+02  0.7816164E-02  0.1226708E+00
        -11   -1    0    0    0    0  0.00000000000E+00  0.00000000000E+00  0.45593999997E+02  0.45594000000E+02  0.51100000000E-03 0. -1.
         11   -1    0    0    0    0 -0.00000000000E+00 -0.00000000000E+00 -0.45593999997E+02  0.45594000000E+02  0.51100000000E-03 0.  1.
    9900012    2    1    2    0    0 -0.14659371695E+02  0.11417853476E+02 -0.23269879357E+01  0.72461563357E+02  0.69999990963E+02 0.  0.
         12    1    1    2    0    0  0.14659371695E+02 -0.11417853476E+02  0.23269879357E+01  0.18726436643E+02  0.00000000000E+00 0. -1.
         11    1    3    3    0    0 -0.10884799777E+02  0.11158935808E+02  0.32354996534E+02  0.35914433248E+02  0.51100000000E-03 0. -1.
        -11    1    3    3    0    0  0.33391170868E+01 -0.55021510027E+00 -0.51699453448E+01  0.61790593705E+01  0.51100000000E-03 0.  1.
         12    1    3    3    0    0 -0.71136890043E+01  0.80913276786E+00 -0.29512039125E+02  0.30368070739E+02  0.00000000000E+00 0. -1.
</event>
<event>
 7    1  0.1345786E-013  0.7246141E+02  0.7816164E-02  0.1226708E+00
        -11   -1    0    0    0    0  0.00000000000E+00  0.00000000000E+00  0.45593999997E+02  0.45594000000E+02  0.51100000000E-03 0. -1.
         11   -1    0    0    0    0 -0.00000000000E+00 -0.00000000000E+00 -0.45593999997E+02  0.45594000000E+02  0.51100000000E-03 0.  1.
    9900012    2    1    2    0    0 -0.76147231400E+01 -0.16769616004E+02 -0.33883820986E+01  0.72461410277E+02  0.69999791547E+02 0.  0.
         12    1    1    2    0    0  0.76147231400E+01  0.16769616004E+02  0.33883820986E+01  0.18726589723E+02  0.00000000000E+00 0. -1.
         11    1    3    3    0    0 -0.21436502269E+02 -0.15578707867E+02 -0.13681342075E+02  0.29822791445E+02  0.51100000000E-03 0. -1.
        -11    1    3    3    0    0  0.12493088669E+02  0.91921849584E+01 -0.10929913858E+02  0.18974629008E+02  0.51100000000E-03 0.  1.
         12    1    3    3    0    0  0.13286904598E+01 -0.10383093096E+02  0.21222873835E+02  0.23663989824E+02  0.00000000000E+00 0. -1.
</event>
<event>
 7    1  0.1345786E-013  0.7246158E+02  0.7816164E-02  0.1226708E+00
        -11   -1    0    0    0    0  0.00000000000E+00  0.00000000000E+00  0.45593999997E+02  0.45594000000E+02  0.51100000000E-03 0. -1.
         11   -1    0    0    0    0 -0.00000000000E+00 -0.00000000000E+00 -0.45593999997E+02  0.45594000000E+02  0.51100000000E-03 0.  1.
    9900012    2    1    2    0    0 -0.95661006583E+01 -0.56345223607E+00 -0.16088847616E+02  0.72461580753E+02  0.70000013624E+02 0.  0.
         12    1    1    2    0    0  0.95661006583E+01  0.56345223607E+00  0.16088847616E+02  0.18726419247E+02  0.00000000000E+00 0. -1.
         11    1    3    3    0    0  0.13168820335E+02  0.19093057699E+02  0.12398714607E+02  0.26300015313E+02  0.51100000000E-03 0. -1.
        -11    1    3    3    0    0 -0.10232946841E+02 -0.36203310462E+01 -0.22472883427E+02  0.24956972728E+02  0.51100000000E-03 0.  1.
         12    1    3    3    0    0 -0.12501974152E+02 -0.16036178889E+02 -0.60146787954E+01  0.21204592712E+02  0.00000000000E+00 0. -1.
</event>
<event>
 7    1  0.1345786E-013  0.7246178E+02  0.7816164E-02  0.1226707E+00
        -11   -1    0    0    0    0  0.00000000000E+00  0.00000000000E+00  0.45593999997E+02  0.45594000000E+02  0.51100000000E-03 0. -1.
         11   -1    0    0    0    0 -0.00000000000E+00 -0.00000000000E+00 -0.45593999997E+02  0.45594000000E+02  0.51100000000E-03 0.  1.
    9900012    2    1    2    0    0  0.14882063440E+02  0.85140668004E+01  0.75303518269E+01  0.72461779230E+02  0.70000272177E+02 0.  0.
         12    1    1    2    0    0 -0.14882063440E+02 -0.85140668004E+01 -0.75303518269E+01  0.18726220770E+02  0.00000000000E+00 0. -1.
         11    1    3    3    0    0 -0.17669502861E+02 -0.52312970120E+01  0.76672225660E+01  0.19959060648E+02  0.51100000000E-03 0. -1.
        -11    1    3    3    0    0  0.19600504475E+02 -0.10619389878E+02 -0.82049389245E+01  0.23754415170E+02  0.51100000000E-03 0.  1.
        -12    1    3    3    0    0  0.12951061825E+02  0.24364753691E+02  0.80680681854E+01  0.28748303412E+02  0.00000000000E+00 0.  1.
</event>
<event>
 7    1  0.1345786E-013  0.7246163E+02  0.7816164E-02  0.1226708E+00
        -11   -1    0    0    0    0  0.00000000000E+00  0.00000000000E+00  0.45593999997E+02  0.45594000000E+02  0.51100000000E-03 0.  1.
         11   -1    0    0    0    0 -0.00000000000E+00 -0.00000000000E+00 -0.45593999997E+02  0.45594000000E+02  0.51100000000E-03 0. -1.
    9900012    2    1    2    0    0  0.99090105073E+00 -0.22736693690E+01  0.18561398042E+02  0.72461629434E+02  0.70000077041E+02 0.  0.
         12    1    1    2    0    0 -0.99090105073E+00  0.22736693690E+01 -0.18561398042E+02  0.18726370566E+02  0.00000000000E+00 0. -1.
         11    1    3    3    0    0  0.18638348806E+02  0.16275741682E+02  0.17452460612E+02  0.30279963593E+02  0.51100000000E-03 0.  1.
        -11    1    3    3    0    0 -0.19336679543E+02 -0.52088814914E+01  0.13292547091E+02  0.24036044404E+02  0.51100000000E-03 0. -1.
         12    1    3    3    0    0  0.16892317878E+01 -0.13340529560E+02 -0.12183609661E+02  0.18145621437E+02  0.00000000000E+00 0. -1.
</event>
<event>
 7    1  0.1345786E-013  0.7246156E+02  0.7816164E-02  0.1226708E+00
        -11   -1    0    0    0    0  0.00000000000E+00  0.00000000000E+00  0.45593999997E+02  0.45594000000E+02  0.51100000000E-03 0.  1.
         11   -1    0    0    0    0 -0.00000000000E+00 -0.00000000000E+00 -0.45593999997E+02  0.45594000000E+02  0.51100000000E-03 0. -1.
    9900012    2    1    2    0    0  0.31193861967E+01 -0.17832247618E+02 -0.47916581328E+01  0.72461558453E+02  0.69999984574E+02 0.  0.
         12    1    1    2    0    0 -0.31193861967E+01  0.17832247618E+02  0.47916581328E+01  0.18726441547E+02  0.00000000000E+00 0. -1.
         11    1    3    3    0    0  0.26784191331E+02  0.94128028355E+01 -0.14368980317E+01  0.28426368722E+02  0.51100000000E-03 0. -1.
        -11    1    3    3    0    0 -0.70998089956E+01 -0.22208252962E+02  0.63795170839E+01  0.24172546947E+02  0.51100000000E-03 0.  1.
         12    1    3    3    0    0 -0.16564996139E+02 -0.50367974916E+01 -0.97342771850E+01  0.19862642784E+02  0.00000000000E+00 0. -1.
</event>
<event>
 7    1  0.1345786E-013  0.7246155E+02  0.7816164E-02  0.1226708E+00
        -11   -1    0    0    0    0  0.00000000000E+00  0.00000000000E+00  0.45593999997E+02  0.45594000000E+02  0.51100000000E-03 0. -1.
         11   -1    0    0    0    0 -0.00000000000E+00 -0.00000000000E+00 -0.45593999997E+02  0.45594000000E+02  0.51100000000E-03 0.  1.
    9900012    2    1    2    0    0  0.20358988140E+01 -0.29972920896E+01 -0.18372573490E+02  0.72461545437E+02  0.69999967619E+02 0.  0.
         12    1    1    2    0    0 -0.20358988140E+01  0.29972920896E+01  0.18372573490E+02  0.18726454563E+02  0.00000000000E+00 0. -1.
         11    1    3    3    0    0 -0.13035404650E+01  0.53885247528E+01  0.85835368265E+01  0.10218244539E+02  0.51100000000E-03 0. -1.
        -11    1    3    3    0    0 -0.19360084176E+02 -0.19982940059E+02 -0.23694004499E+02  0.36544994215E+02  0.51100000000E-03 0.  1.
        -12    1    3    3    0    0  0.22699523455E+02  0.11597123217E+02 -0.32621058171E+01  0.25698306683E+02  0.00000000000E+00 0.  1.
</event>
<event>
 7    1  0.1345786E-013  0.7246153E+02  0.7816164E-02  0.1226708E+00
        -11   -1    0    0    0    0  0.00000000000E+00  0.00000000000E+00  0.45593999997E+02  0.45594000000E+02  0.51100000000E-03 0. -1.
         11   -1    0    0    0    0 -0.00000000000E+00 -0.00000000000E+00 -0.45593999997E+02  0.45594000000E+02  0.51100000000E-03 0.  1.
    9900012    2    1    2    0    0  0.16799324907E+02  0.28749151313E+01 -0.77587567127E+01  0.72461527826E+02  0.69999944677E+02 0.  0.
         12    1    1    2    0    0 -0.16799324907E+02 -0.28749151313E+01  0.77587567127E+01  0.18726472174E+02  0.00000000000E+00 0. -1.
         11    1    3    3    0    0  0.59998966258E+01 -0.17447887519E+01  0.25259091274E+02  0.26020467704E+02  0.51100000000E-03 0. -1.
        -11    1    3    3    0    0  0.89839265581E+01  0.17464301846E+02 -0.18656500101E+02  0.27088332759E+02  0.51100000000E-03 0.  1.
        -12    1    3    3    0    0  0.18155017233E+01 -0.12844597962E+02 -0.14361347885E+02  0.19352727364E+02  0.00000000000E+00 0.  1.
</event>
<event>
 7    1  0.1345786E-013  0.7246159E+02  0.7816164E-02  0.1226708E+00
        -11   -1    0    0    0    0  0.00000000000E+00  0.00000000000E+00  0.45593999997E+02  0.45594000000E+02  0.51100000000E-03 0. -1.
         11   -1    0    0    0    0 -0.00000000000E+00 -0.00000000000E+00 -0.45593999997E+02  0.45594000000E+02  0.51100000000E-03 0.  1.
    9900012    2    1    2    0    0  0.69105967794E+01 -0.17086044749E+02 -0.33149901861E+01  0.72461589961E+02  0.70000025620E+02 0.  0.
         12    1    1    2    0    0 -0.69105967794E+01  0.17086044749E+02  0.33149901861E+01  0.18726410039E+02  0.00000000000E+00 0. -1.
         11    1    3    3    0    0 -0.16384965336E+02 -0.90574488364E+01 -0.11515241326E+02  0.21979655401E+02  0.51100000000E-03 0. -1.
        -11    1    3    3    0    0  0.23587113152E+02 -0.24010351381E+02  0.36063468359E+01  0.33850474414E+02  0.51100000000E-03 0.  1.
        -12    1    3    3    0    0 -0.29155103679E+00  0.15981755468E+02  0.45939043037E+01  0.16631460147E+02  0.00000000000E+00 0.  1.
</event>
<event>
 7    1  0.1345786E-013  0.7246161E+02  0.7816164E-02  0.1226708E+00
        -11   -1    0    0    0    0  0.00000000000E+00  0.00000000000E+00  0.45593999997E+02  0.45594000000E+02  0.51100000000E-03 0.  1.
         11   -1    0    0    0    0 -0.00000000000E+00 -0.00000000000E+00 -0.45593999997E+02  0.45594000000E+02  0.51100000000E-03 0. -1.
    9900012    2    1    2    0    0 -0.16542037760E+02  0.77677698851E+01  0.40866371200E+01  0.72461605121E+02  0.70000045368E+02 0.  0.
         12    1    1    2    0    0  0.16542037760E+02 -0.77677698851E+01 -0.40866371200E+01  0.18726394879E+02  0.00000000000E+00 0. -1.
         11    1    3    3    0    0  0.96404954951E+01 -0.10497905780E+02 -0.21653389234E+02  0.25923241401E+02  0.51100000000E-03 0. -1.
        -11    1    3    3    0    0 -0.22678309351E+02  0.12818057790E+02  0.73890611864E+01  0.27077786948E+02  0.51100000000E-03 0.  1.
        -12    1    3    3    0    0 -0.35042239034E+01  0.54476178758E+01  0.18350965167E+02  0.19460576771E+02  0.00000000000E+00 0.  1.
</event>
<event>
 7    1  0.1345786E-013  0.7246155E+02  0.7816164E-02  0.1226708E+00
        -11   -1    0    0    0    0  0.00000000000E+00  0.00000000000E+00  0.45593999997E+02  0.45594000000E+02  0.51100000000E-03 0. -1.
         11   -1    0    0    0    0 -0.00000000000E+00 -0.00000000000E+00 -0.45593999997E+02  0.45594000000E+02  0.51100000000E-03 0.  1.
    9900012    2    1    2    0    0  0.55004555233E+01 -0.83493920554E+01 -0.15833900722E+02  0.72461554242E+02  0.69999979089E+02 0.  0.
         12    1    1    2    0    0 -0.55004555233E+01  0.83493920554E+01  0.15833900722E+02  0.18726445758E+02  0.00000000000E+00 0. -1.
         11    1    3    3    0    0 -0.20023238079E+02  0.56153747178E+01  0.12317311547E+02  0.24169788175E+02  0.51100000000E-03 0.  1.
        -11    1    3    3    0    0  0.23404904561E+02 -0.15313669077E+02 -0.95999217396E+01  0.29571210928E+02  0.51100000000E-03 0. -1.
        -12    1    3    3    0    0  0.21187890419E+01  0.13489023037E+01 -0.18551290529E+02  0.18720555139E+02  0.00000000000E+00 0.  1.
</event>
<event>
 7    1  0.1345786E-013  0.7246154E+02  0.7816164E-02  0.1226708E+00
        -11   -1    0    0    0    0  0.00000000000E+00  0.00000000000E+00  0.45593999997E+02  0.45594000000E+02  0.51100000000E-03 0.  1.
         11   -1    0    0    0    0 -0.00000000000E+00 -0.00000000000E+00 -0.45593999997E+02  0.45594000000E+02  0.51100000000E-03 0. -1.
    9900012    2    1    2    0    0  0.95572558607E+01 -0.97768522693E+01  0.12796572506E+02  0.72461541504E+02  0.69999962496E+02 0.  0.
         12    1    1    2    0    0 -0.95572558607E+01  0.97768522693E+01 -0.12796572506E+02  0.18726458496E+02  0.00000000000E+00 0. -1.
         11    1    3    3    0    0  0.14580031908E+02  0.10828851343E+02  0.23513358616E+00  0.18163057009E+02  0.51100000000E-03 0. -1.
        -11    1    3    3    0    0 -0.11087938345E+02 -0.19460322194E+02 -0.14408156269E+02  0.26631588086E+02  0.51100000000E-03 0.  1.
        -12    1    3    3    0    0  0.60651622977E+01 -0.11453814185E+01  0.26969595189E+02  0.27666896410E+02  0.00000000000E+00 0.  1.
</event>
<event>
 7    1  0.1345786E-013  0.7246155E+02  0.7816164E-02  0.1226708E+00
        -11   -1    0    0    0    0  0.00000000000E+00  0.00000000000E+00  0.45593999997E+02  0.45594000000E+02  0.51100000000E-03 0. -1.
         11   -1    0    0    0    0 -0.00000000000E+00 -0.00000000000E+00 -0.45593999997E+02  0.45594000000E+02  0.51100000000E-03 0.  1.
    9900012    2    1    2    0    0  0.67792205174E+01 -0.14098151116E+02 -0.10293892497E+02  0.72461550297E+02  0.69999973950E+02 0.  0.
         12    1    1    2    0    0 -0.67792205174E+01  0.14098151116E+02  0.10293892497E+02  0.18726449703E+02  0.00000000000E+00 0. -1.
         11    1    3    3    0    0  0.64218905041E+01  0.81541062808E+01 -0.17482270070E+02  0.20331254116E+02  0.51100000000E-03 0. -1.
        -11    1    3    3    0    0 -0.17064132261E+02 -0.31049044563E+01 -0.10958707166E+02  0.20516293635E+02  0.51100000000E-03 0.  1.
         12    1    3    3    0    0  0.17421462275E+02 -0.19147352941E+02  0.18147084739E+02  0.31614002546E+02  0.00000000000E+00 0. -1.
</event>
<event>
 7    1  0.1368852E-013  0.7246159E+02  0.7816164E-02  0.1226708E+00
        -11   -1    0    0    0    0  0.00000000000E+00  0.00000000000E+00  0.45593999997E+02  0.45594000000E+02  0.51100000000E-03 0.  1.
         11   -1    0    0    0    0 -0.00000000000E+00 -0.00000000000E+00 -0.45593999997E+02  0.45594000000E+02  0.51100000000E-03 0. -1.
    9900012    2    1    2    0    0 -0.13428462721E+02 -0.49949203638E+01  0.12058416853E+02  0.72461594646E+02  0.70000031722E+02 0.  0.
         12    1    1    2    0    0  0.13428462721E+02  0.49949203638E+01 -0.12058416853E+02  0.18726405354E+02  0.00000000000E+00 0. -1.
         11    1    3    3    0    0 -0.24087954420E+02  0.17750464132E+01 -0.10602197877E+02  0.26377773560E+02  0.51100000000E-03 0. -1.
        -11    1    3    3    0    0  0.79421053349E+01 -0.21496964572E+02  0.20879955910E+02  0.31002727010E+02  0.51100000000E-03 0.  1.
         12    1    3    3    0    0  0.27173863635E+01  0.14726997795E+02  0.17806588191E+01  0.15081094076E+02  0.00000000000E+00 0. -1.
</event>
<event>
 7    1  0.1345786E-013  0.7246152E+02  0.7816164E-02  0.1226708E+00
        -11   -1    0    0    0    0  0.00000000000E+00  0.00000000000E+00  0.45593999997E+02  0.45594000000E+02  0.51100000000E-03 0.  1.
         11   -1    0    0    0    0 -0.00000000000E+00 -0.00000000000E+00 -0.45593999997E+02  0.45594000000E+02  0.51100000000E-03 0. -1.
    9900012    2    1    2    0    0 -0.39134790699E+01 -0.18311256194E+02  0.25235094105E+00  0.72461518674E+02  0.69999932756E+02 0.  0.
         12    1    1    2    0    0  0.39134790699E+01  0.18311256194E+02 -0.25235094105E+00  0.18726481326E+02  0.00000000000E+00 0. -1.
         11    1    3    3    0    0  0.25854255436E+02 -0.17766729643E+02  0.13816776872E+01  0.31400768141E+02  0.51100000000E-03 0. -1.
        -11    1    3    3    0    0 -0.23734838054E+02  0.75307950608E+01  0.92769998129E+01  0.26572883500E+02  0.51100000000E-03 0.  1.
        -12    1    3    3    0    0 -0.60328964516E+01 -0.80753216117E+01 -0.10406326559E+02  0.14487867033E+02  0.00000000000E+00 0.  1.
</event>
<event>
 7    1  0.1345786E-013  0.7246157E+02  0.7816164E-02  0.1226708E+00
        -11   -1    0    0    0    0  0.00000000000E+00  0.00000000000E+00  0.45593999997E+02  0.45594000000E+02  0.51100000000E-03 0. -1.
         11   -1    0    0    0    0 -0.00000000000E+00 -0.00000000000E+00 -0.45593999997E+02  0.45594000000E+02  0.51100000000E-03 0.  1.
    9900012    2    1    2    0    0  0.39631267835E+01 -0.15190091140E+02 -0.10209499901E+02  0.72461571324E+02  0.70000001341E+02 0.  0.
         12    1    1    2    0    0 -0.39631267835E+01  0.15190091140E+02  0.10209499901E+02  0.18726428676E+02  0.00000000000E+00 0. -1.
         11    1    3    3    0    0  0.28430275633E+02  0.11676426150E+02 -0.22950993334E+01  0.30820236557E+02  0.51100000000E-03 0. -1.
        -11    1    3    3    0    0 -0.62098789207E+00 -0.24014007997E+01 -0.70421070082E+01  0.74661652231E+01  0.51100000000E-03 0.  1.
         12    1    3    3    0    0 -0.23846160958E+02 -0.24465116490E+02 -0.87229355920E+00  0.34175169544E+02  0.00000000000E+00 0. -1.
</event>
<event>
 7    1  0.1345786E-013  0.7246154E+02  0.7816164E-02  0.1226708E+00
        -11   -1    0    0    0    0  0.00000000000E+00  0.00000000000E+00  0.45593999997E+02  0.45594000000E+02  0.51100000000E-03 0. -1.
         11   -1    0    0    0    0 -0.00000000000E+00 -0.00000000000E+00 -0.45593999997E+02  0.45594000000E+02  0.51100000000E-03 0.  1.
    9900012    2    1    2    0    0 -0.56029260030E+01 -0.17775633483E+02 -0.18205624495E+01  0.72461538157E+02  0.69999958135E+02 0.  0.
         12    1    1    2    0    0  0.56029260030E+01  0.17775633483E+02  0.18205624495E+01  0.18726461843E+02  0.00000000000E+00 0. -1.
         11    1    3    3    0    0  0.21772634028E+02 -0.32563942492E+01  0.99862432766E+01  0.24173885726E+02  0.51100000000E-03 0. -1.
        -11    1    3    3    0    0 -0.11306061031E+02  0.64915531733E+01 -0.16906125244E+02  0.21349106530E+02  0.51100000000E-03 0.  1.
        -12    1    3    3    0    0 -0.16069499001E+02 -0.21010792407E+02  0.50993195174E+01  0.26938545901E+02  0.00000000000E+00 0.  1.
</event>
<event>
 7    1  0.1345786E-013  0.7246162E+02  0.7816164E-02  0.1226708E+00
        -11   -1    0    0    0    0  0.00000000000E+00  0.00000000000E+00  0.45593999997E+02  0.45594000000E+02  0.51100000000E-03 0.  1.
         11   -1    0    0    0    0 -0.00000000000E+00 -0.00000000000E+00 -0.45593999997E+02  0.45594000000E+02  0.51100000000E-03 0. -1.
    9900012    2    1    2    0    0  0.13461322660E+02  0.10652092723E+02 -0.74835153643E+01  0.72461620496E+02  0.70000065397E+02 0.  0.
         12    1    1    2    0    0 -0.13461322660E+02 -0.10652092723E+02  0.74835153643E+01  0.18726379504E+02  0.00000000000E+00 0. -1.
         11    1    3    3    0    0 -0.18179262256E+02  0.15290878248E+02 -0.19372024592E+02  0.30652436621E+02  0.51100000000E-03 0. -1.
        -11    1    3    3    0    0  0.92731042650E+01  0.96171828094E+01  0.20348069496E+01  0.13513737732E+02  0.51100000000E-03 0.  1.
         12    1    3    3    0    0  0.22367480651E+02 -0.14255968334E+02  0.98537022785E+01  0.28295446143E+02  0.00000000000E+00 0. -1.
</event>
<event>
 7    1  0.1345786E-013  0.7246160E+02  0.7816164E-02  0.1226708E+00
        -11   -1    0    0    0    0  0.00000000000E+00  0.00000000000E+00  0.45593999997E+02  0.45594000000E+02  0.51100000000E-03 0.  1.
         11   -1    0    0    0    0 -0.00000000000E+00 -0.00000000000E+00 -0.45593999997E+02  0.45594000000E+02  0.51100000000E-03 0. -1.
    9900012    2    1    2    0    0 -0.71277347999E+01  0.17292214039E+02 -0.92351638590E+00  0.72461597456E+02  0.70000035383E+02 0.  0.
         12    1    1    2    0    0  0.71277347999E+01 -0.17292214039E+02  0.92351638590E+00  0.18726402544E+02  0.00000000000E+00 0. -1.
         11    1    3    3    0    0  0.50895364321E+01 -0.11976298031E+01 -0.23179291377E+02  0.23761676019E+02  0.51100000000E-03 0. -1.
        -11    1    3    3    0    0  0.10967582653E+02  0.16626803316E+02  0.83280977830E+01  0.21589248961E+02  0.51100000000E-03 0.  1.
         12    1    3    3    0    0 -0.23184853885E+02  0.18630405252E+01  0.13927677208E+02  0.27110672475E+02  0.00000000000E+00 0. -1.
</event>
<event>
 7    1  0.1345786E-013  0.7246162E+02  0.7816164E-02  0.1226708E+00
        -11   -1    0    0    0    0  0.00000000000E+00  0.00000000000E+00  0.45593999997E+02  0.45594000000E+02  0.51100000000E-03 0.  1.
         11   -1    0    0    0    0 -0.00000000000E+00 -0.00000000000E+00 -0.45593999997E+02  0.45594000000E+02  0.51100000000E-03 0. -1.
    9900012    2    1    2    0    0 -0.10241196418E+02 -0.31229684047E+01  0.15363669424E+02  0.72461618238E+02  0.70000062456E+02 0.  0.
         12    1    1    2    0    0  0.10241196418E+02  0.31229684047E+01 -0.15363669424E+02  0.18726381762E+02  0.00000000000E+00 0. -1.
         11    1    3    3    0    0  0.81103391419E+01  0.53272727334E+01  0.75343099245E+01  0.12285082909E+02  0.51100000000E-03 0. -1.
        -11    1    3    3    0    0 -0.29796625098E+02 -0.45813178497E+01 -0.15504830249E+02  0.33900252237E+02  0.51100000000E-03 0.  1.
        -12    1    3    3    0    0  0.11445089538E+02 -0.38689232885E+01  0.23334189748E+02  0.26276283092E+02  0.00000000000E+00 0.  1.
</event>
<event>
 7    1  0.1345786E-013  0.7246174E+02  0.7816164E-02  0.1226708E+00
        -11   -1    0    0    0    0  0.00000000000E+00  0.00000000000E+00  0.45593999997E+02  0.45594000000E+02  0.51100000000E-03 0.  1.
         11   -1    0    0    0    0 -0.00000000000E+00 -0.00000000000E+00 -0.45593999997E+02  0.45594000000E+02  0.51100000000E-03 0. -1.
    9900012    2    1    2    0    0 -0.12312528439E+02  0.44427368969E+00  0.14102372740E+02  0.72461744299E+02  0.70000226673E+02 0.  0.
         12    1    1    2    0    0  0.12312528439E+02 -0.44427368969E+00 -0.14102372740E+02  0.18726255701E+02  0.00000000000E+00 0. -1.
         11    1    3    3    0    0 -0.20442724948E+02  0.24934266755E+02 -0.89730706865E+01  0.33468472623E+02  0.51100000000E-03 0. -1.
        -11    1    3    3    0    0  0.11762684658E+01 -0.34471883212E+00  0.11084455957E+02  0.11152022359E+02  0.51100000000E-03 0.  1.
         12    1    3    3    0    0  0.69539280427E+01 -0.24145274233E+02  0.11990987470E+02  0.27841249317E+02  0.00000000000E+00 0. -1.
</event>
<event>
 7    1  0.1910524E-013  0.7246160E+02  0.7816164E-02  0.1226708E+00
        -11   -1    0    0    0    0  0.00000000000E+00  0.00000000000E+00  0.45593999997E+02  0.45594000000E+02  0.51100000000E-03 0.  1.
         11   -1    0    0    0    0 -0.00000000000E+00 -0.00000000000E+00 -0.45593999997E+02  0.45594000000E+02  0.51100000000E-03 0. -1.
    9900012    2    1    2    0    0  0.12406562917E+01 -0.14515140858E+02  0.11766463817E+02  0.72461595836E+02  0.70000033272E+02 0.  0.
         12    1    1    2    0    0 -0.12406562917E+01  0.14515140858E+02 -0.11766463817E+02  0.18726404164E+02  0.00000000000E+00 0. -1.
         11    1    3    3    0    0 -0.16922443680E+02  0.61122582391E+01 -0.14171076968E+02  0.22903017784E+02  0.51100000000E-03 0. -1.
        -11    1    3    3    0    0  0.59798065893E+01 -0.45254565675E+01  0.28255982976E+02  0.29234199462E+02  0.51100000000E-03 0.  1.
         12    1    3    3    0    0  0.12183293383E+02 -0.16101942530E+02 -0.23184421905E+01  0.20324378590E+02  0.00000000000E+00 0. -1.
</event>
<event>
 7    1  0.1345786E-013  0.7246158E+02  0.7816164E-02  0.1226708E+00
        -11   -1    0    0    0    0  0.00000000000E+00  0.00000000000E+00  0.45593999997E+02  0.45594000000E+02  0.51100000000E-03 0. -1.
         11   -1    0    0    0    0 -0.00000000000E+00 -0.00000000000E+00 -0.45593999997E+02  0.45594000000E+02  0.51100000000E-03 0.  1.
    9900012    2    1    2    0    0  0.12793771828E+02 -0.11286302780E+02  0.77212359715E+01  0.72461582485E+02  0.70000015881E+02 0.  0.
         12    1    1    2    0    0 -0.12793771828E+02  0.11286302780E+02 -0.77212359715E+01  0.18726417515E+02  0.00000000000E+00 0. -1.
         11    1    3    3    0    0 -0.16614132895E+02  0.48126714158E+01  0.69165266971E+01  0.18628729420E+02  0.51100000000E-03 0.  1.
        -11    1    3    3    0    0  0.23822622825E+02 -0.13436065915E+01  0.18450829833E+02  0.30162157727E+02  0.51100000000E-03 0. -1.
        -12    1    3    3    0    0  0.55852818974E+01 -0.14755367604E+02 -0.17646120559E+02  0.23670695338E+02  0.00000000000E+00 0.  1.
</event>
<event>
 7    1  0.1345786E-013  0.7246157E+02  0.7816164E-02  0.1226708E+00
        -11   -1    0    0    0    0  0.00000000000E+00  0.00000000000E+00  0.45593999997E+02  0.45594000000E+02  0.51100000000E-03 0. -1.
         11   -1    0    0    0    0 -0.00000000000E+00 -0.00000000000E+00 -0.45593999997E+02  0.45594000000E+02  0.51100000000E-03 0.  1.
    9900012    2    1    2    0    0  0.17000908079E+02 -0.68034947190E+01  0.39192679699E+01  0.72461572756E+02  0.70000003207E+02 0.  0.
         12    1    1    2    0    0 -0.17000908079E+02  0.68034947190E+01 -0.39192679699E+01  0.18726427244E+02  0.00000000000E+00 0. -1.
         11    1    3    3    0    0  0.23912677570E+02 -0.75375480103E+01 -0.15286112822E+02  0.29364877389E+02  0.51100000000E-03 0.  1.
        -11    1    3    3    0    0 -0.46448241467E+01 -0.60059976102E+01  0.29568881660E+02  0.30528104453E+02  0.51100000000E-03 0. -1.
         12    1    3    3    0    0 -0.22669453444E+01  0.67400509016E+01 -0.10363500867E+02  0.12568590915E+02  0.00000000000E+00 0. -1.
</event>
<event>
 7    1  0.1345786E-013  0.7246158E+02  0.7816164E-02  0.1226708E+00
        -11   -1    0    0    0    0  0.00000000000E+00  0.00000000000E+00  0.45593999997E+02  0.45594000000E+02  0.51100000000E-03 0.  1.
         11   -1    0    0    0    0 -0.00000000000E+00 -0.00000000000E+00 -0.45593999997E+02  0.45594000000E+02  0.51100000000E-03 0. -1.
    9900012    2    1    2    0    0 -0.12966550969E+02 -0.12307140480E+02 -0.55750776684E+01  0.72461584383E+02  0.70000018353E+02 0.  0.
         12    1    1    2    0    0  0.12966550969E+02  0.12307140480E+02  0.55750776684E+01  0.18726415617E+02  0.00000000000E+00 0. -1.
         11    1    3    3    0    0  0.15219154572E+02 -0.14301952221E+02 -0.84587440764E+01  0.22532617576E+02  0.51100000000E-03 0. -1.
        -11    1    3    3    0    0 -0.19097424477E+02  0.21232950519E+02  0.21706557253E+01  0.28640208727E+02  0.51100000000E-03 0.  1.
        -12    1    3    3    0    0 -0.90882810642E+01 -0.19238138778E+02  0.71301068268E+00  0.21288758079E+02  0.00000000000E+00 0.  1.
</event>
<event>
 7    1  0.1345786E-013  0.7246157E+02  0.7816164E-02  0.1226708E+00
        -11   -1    0    0    0    0  0.00000000000E+00  0.00000000000E+00  0.45593999997E+02  0.45594000000E+02  0.51100000000E-03 0.  1.
         11   -1    0    0    0    0 -0.00000000000E+00 -0.00000000000E+00 -0.45593999997E+02  0.45594000000E+02  0.51100000000E-03 0. -1.
    9900012    2    1    2    0    0 -0.17771267584E+02  0.19544509856E+01 -0.55714906693E+01  0.72461565784E+02  0.69999994124E+02 0.  0.
         12    1    1    2    0    0  0.17771267584E+02 -0.19544509856E+01  0.55714906693E+01  0.18726434216E+02  0.00000000000E+00 0. -1.
         11    1    3    3    0    0 -0.34899954715E+02 -0.10651411021E+02 -0.26491403730E+01  0.36585206584E+02  0.51100000000E-03 0.  1.
        -11    1    3    3    0    0  0.96829969877E+01  0.13515133979E+02  0.11088216598E+02  0.19984189369E+02  0.51100000000E-03 0. -1.
        -12    1    3    3    0    0  0.74456901432E+01 -0.90927197217E+00 -0.14010566895E+02  0.15892169831E+02  0.00000000000E+00 0.  1.
</event>
<event>
 7    1  0.1345786E-013  0.7246157E+02  0.7816164E-02  0.1226708E+00
        -11   -1    0    0    0    0  0.00000000000E+00  0.00000000000E+00  0.45593999997E+02  0.45594000000E+02  0.51100000000E-03 0.  1.
         11   -1    0    0    0    0 -0.00000000000E+00 -0.00000000000E+00 -0.45593999997E+02  0.45594000000E+02  0.51100000000E-03 0. -1.
    9900012    2    1    2    0    0  0.13346059888E+02 -0.57346926695E+00  0.13123753741E+02  0.72461572317E+02  0.70000002634E+02 0.  0.
         12    1    1    2    0    0 -0.13346059888E+02  0.57346926695E+00 -0.13123753741E+02  0.18726427683E+02  0.00000000000E+00 0. -1.
         11    1    3    3    0    0 -0.28849558361E+01 -0.81602559623E+01 -0.11563317241E+02  0.14443789441E+02  0.51100000000E-03 0. -1.
        -11    1    3    3    0    0  0.96680702555E+01  0.24302691428E+02 -0.15753493329E+01  0.26202559396E+02  0.51100000000E-03 0.  1.
        -12    1    3    3    0    0  0.65629454688E+01 -0.16715904733E+02  0.26262420314E+02  0.31815223479E+02  0.00000000000E+00 0.  1.
</event>
<event>
 7    1  0.1345786E-013  0.7246157E+02  0.7816164E-02  0.1226708E+00
        -11   -1    0    0    0    0  0.00000000000E+00  0.00000000000E+00  0.45593999997E+02  0.45594000000E+02  0.51100000000E-03 0. -1.
         11   -1    0    0    0    0 -0.00000000000E+00 -0.00000000000E+00 -0.45593999997E+02  0.45594000000E+02  0.51100000000E-03 0.  1.
    9900012    2    1    2    0    0  0.11174648648E+02  0.61022998362E+01 -0.13732024983E+02  0.72461565587E+02  0.69999993868E+02 0.  0.
         12    1    1    2    0    0 -0.11174648648E+02 -0.61022998362E+01  0.13732024983E+02  0.18726434413E+02  0.00000000000E+00 0. -1.
         11    1    3    3    0    0  0.99899840465E+01 -0.19458868446E+02 -0.16214888095E+02  0.27228109347E+02  0.51100000000E-03 0. -1.
        -11    1    3    3    0    0  0.16786814865E+02  0.19038245077E+02  0.92553635881E+01  0.27016914782E+02  0.51100000000E-03 0.  1.
         12    1    3    3    0    0 -0.15602150263E+02  0.65229232048E+01 -0.67725004763E+01  0.18216541457E+02  0.00000000000E+00 0. -1.
</event>
<event>
 7    1  0.1345786E-013  0.7246176E+02  0.7816164E-02  0.1226708E+00
        -11   -1    0    0    0    0  0.00000000000E+00  0.00000000000E+00  0.45593999997E+02  0.45594000000E+02  0.51100000000E-03 0. -1.
         11   -1    0    0    0    0 -0.00000000000E+00 -0.00000000000E+00 -0.45593999997E+02  0.45594000000E+02  0.51100000000E-03 0.  1.
    9900012    2    1    2    0    0 -0.27090756406E+01 -0.77964056058E+01 -0.16809193031E+02  0.72461761682E+02  0.70000249317E+02 0.  0.
         12    1    1    2    0    0  0.27090756406E+01  0.77964056058E+01  0.16809193031E+02  0.18726238318E+02  0.00000000000E+00 0. -1.
         11    1    3    3    0    0 -0.13419688771E+02  0.18107632344E+02  0.65460684191E+00  0.22547791604E+02  0.51100000000E-03 0. -1.
        -11    1    3    3    0    0 -0.12203890445E+02 -0.12396350636E+02 -0.15402937992E+02  0.23234778891E+02  0.51100000000E-03 0.  1.
         12    1    3    3    0    0  0.22914503575E+02 -0.13507687314E+02 -0.20608618810E+01  0.26679191187E+02  0.00000000000E+00 0. -1.
</event>
<event>
 7    1  0.1345786E-013  0.7246177E+02  0.7816164E-02  0.1226707E+00
        -11   -1    0    0    0    0  0.00000000000E+00  0.00000000000E+00  0.45593999997E+02  0.45594000000E+02  0.51100000000E-03 0. -1.
         11   -1    0    0    0    0 -0.00000000000E+00 -0.00000000000E+00 -0.45593999997E+02  0.45594000000E+02  0.51100000000E-03 0.  1.
    9900012    2    1    2    0    0  0.97095168355E+01 -0.32444969458E+01 -0.15680252697E+02  0.72461767003E+02  0.70000256249E+02 0.  0.
         12    1    1    2    0    0 -0.97095168355E+01  0.32444969458E+01  0.15680252697E+02  0.18726232997E+02  0.00000000000E+00 0. -1.
         11    1    3    3    0    0 -0.19450244851E+01  0.23920070019E+02 -0.22597653969E+02  0.32963719983E+02  0.51100000000E-03 0.  1.
        -11    1    3    3    0    0 -0.27205044526E+01 -0.23624369887E+02  0.66431116935E+01  0.24690948347E+02  0.51100000000E-03 0. -1.
         12    1    3    3    0    0  0.14375045773E+02 -0.35401970774E+01  0.27428957826E+00  0.14807098673E+02  0.00000000000E+00 0. -1.
</event>
<event>
 7    1  0.1345786E-013  0.7246145E+02  0.7816164E-02  0.1226708E+00
        -11   -1    0    0    0    0  0.00000000000E+00  0.00000000000E+00  0.45593999997E+02  0.45594000000E+02  0.51100000000E-03 0.  1.
         11   -1    0    0    0    0 -0.00000000000E+00 -0.00000000000E+00 -0.45593999997E+02  0.45594000000E+02  0.51100000000E-03 0. -1.
    9900012    2    1    2    0    0 -0.15198920145E+02  0.12930338493E+00  0.10938908488E+02  0.72461451684E+02  0.69999845487E+02 0.  0.
         12    1    1    2    0    0  0.15198920145E+02 -0.12930338493E+00 -0.10938908488E+02  0.18726548316E+02  0.00000000000E+00 0. -1.
         11    1    3    3    0    0 -0.38125427194E+02  0.78999049678E+01  0.79476132609E+01  0.39738158664E+02  0.51100000000E-03 0. -1.
        -11    1    3    3    0    0  0.61696607152E+00 -0.42545343282E+01 -0.68500546623E+01  0.80873332206E+01  0.51100000000E-03 0.  1.
         12    1    3    3    0    0  0.22309540977E+02 -0.35160672547E+01  0.98413498895E+01  0.24635959799E+02  0.00000000000E+00 0. -1.
</event>
<event>
 7    1  0.1345786E-013  0.7246151E+02  0.7816164E-02  0.1226708E+00
        -11   -1    0    0    0    0  0.00000000000E+00  0.00000000000E+00  0.45593999997E+02  0.45594000000E+02  0.51100000000E-03 0.  1.
         11   -1    0    0    0    0 -0.00000000000E+00 -0.00000000000E+00 -0.45593999997E+02  0.45594000000E+02  0.51100000000E-03 0. -1.
    9900012    2    1    2    0    0 -0.13608648288E+02  0.69913962035E+01  0.10798445457E+02  0.72461511985E+02  0.69999924041E+02 0.  0.
         12    1    1    2    0    0  0.13608648288E+02 -0.69913962035E+01 -0.10798445457E+02  0.18726488015E+02  0.00000000000E+00 0. -1.
         11    1    3    3    0    0  0.17082757726E+02  0.18578450361E+02 -0.10055325741E+02  0.27167793531E+02  0.51100000000E-03 0. -1.
        -11    1    3    3    0    0 -0.28669961611E+02 -0.14053573091E+01  0.10315803272E+02  0.30501762660E+02  0.51100000000E-03 0.  1.
         12    1    3    3    0    0 -0.20214444024E+01 -0.10181696848E+02  0.10537967926E+02  0.14791955793E+02  0.00000000000E+00 0. -1.
</event>
<event>
 7    1  0.1345786E-013  0.7246179E+02  0.7816164E-02  0.1226707E+00
        -11   -1    0    0    0    0  0.00000000000E+00  0.00000000000E+00  0.45593999997E+02  0.45594000000E+02  0.51100000000E-03 0.  1.
         11   -1    0    0    0    0 -0.00000000000E+00 -0.00000000000E+00 -0.45593999997E+02  0.45594000000E+02  0.51100000000E-03 0. -1.
    9900012    2    1    2    0    0  0.90735836664E+01 -0.10128281808E+02 -0.12874742756E+02  0.72461788051E+02  0.70000283668E+02 0.  0.
         12    1    1    2    0    0 -0.90735836664E+01  0.10128281808E+02  0.12874742756E+02  0.18726211949E+02  0.00000000000E+00 0. -1.
         11    1    3    3    0    0  0.22462741427E+02 -0.56740089704E+01  0.15385654881E+02  0.27811643364E+02  0.51100000000E-03 0.  1.
        -11    1    3    3    0    0 -0.11212696172E+02 -0.17749841939E+02 -0.15529607683E+02  0.26114175448E+02  0.51100000000E-03 0. -1.
         12    1    3    3    0    0 -0.21764615885E+01  0.13295569101E+02 -0.12730789954E+02  0.18535969239E+02  0.00000000000E+00 0. -1.
</event>
<event>
 7    1  0.1345786E-013  0.7246163E+02  0.7816164E-02  0.1226708E+00
        -11   -1    0    0    0    0  0.00000000000E+00  0.00000000000E+00  0.45593999997E+02  0.45594000000E+02  0.51100000000E-03 0.  1.
         11   -1    0    0    0    0 -0.00000000000E+00 -0.00000000000E+00 -0.45593999997E+02  0.45594000000E+02  0.51100000000E-03 0. -1.
    9900012    2    1    2    0    0  0.15018034615E+02 -0.86729903470E+01  0.70650406513E+01  0.72461630233E+02  0.70000078081E+02 0.  0.
         12    1    1    2    0    0 -0.15018034615E+02  0.86729903470E+01 -0.70650406513E+01  0.18726369767E+02  0.00000000000E+00 0. -1.
         11    1    3    3    0    0  0.24365804020E+01  0.20233587971E+02  0.15646605914E+02  0.25693409332E+02  0.51100000000E-03 0.  1.
        -11    1    3    3    0    0  0.11223619393E+02 -0.30028574932E+02 -0.18285386893E+02  0.36905830418E+02  0.51100000000E-03 0. -1.
         12    1    3    3    0    0  0.13578348194E+01  0.11219966146E+01  0.97038216303E+01  0.98623904826E+01  0.00000000000E+00 0. -1.
</event>
<event>
 7    1  0.1345786E-013  0.7246157E+02  0.7816164E-02  0.1226708E+00
        -11   -1    0    0    0    0  0.00000000000E+00  0.00000000000E+00  0.45593999997E+02  0.45594000000E+02  0.51100000000E-03 0.  1.
         11   -1    0    0    0    0 -0.00000000000E+00 -0.00000000000E+00 -0.45593999997E+02  0.45594000000E+02  0.51100000000E-03 0. -1.
    9900012    2    1    2    0    0  0.16332887200E+02  0.36060584536E+01 -0.84209481404E+01  0.72461568695E+02  0.69999997916E+02 0.  0.
         12    1    1    2    0    0 -0.16332887200E+02 -0.36060584536E+01  0.84209481404E+01  0.18726431305E+02  0.00000000000E+00 0. -1.
         11    1    3    3    0    0  0.82977239720E+01  0.29885179534E+02 -0.13342282440E+02  0.33763777630E+02  0.51100000000E-03 0. -1.
        -11    1    3    3    0    0  0.68726295372E+01 -0.52251538458E+01  0.13425193476E+02  0.15961550351E+02  0.51100000000E-03 0.  1.
         12    1    3    3    0    0  0.11625336905E+01 -0.21053967235E+02 -0.85038591763E+01  0.22736240714E+02  0.00000000000E+00 0. -1.
</event>
<event>
 7    1  0.1345786E-013  0.7246158E+02  0.7816164E-02  0.1226708E+00
        -11   -1    0    0    0    0  0.00000000000E+00  0.00000000000E+00  0.45593999997E+02  0.45594000000E+02  0.51100000000E-03 0.  1.
         11   -1    0    0    0    0 -0.00000000000E+00 -0.00000000000E+00 -0.45593999997E+02  0.45594000000E+02  0.51100000000E-03 0. -1.
    9900012    2    1    2    0    0  0.28476220440E+00 -0.10195295509E+02  0.15705213445E+02  0.72461578308E+02  0.70000010439E+02 0.  0.
         12    1    1    2    0    0 -0.28476220440E+00  0.10195295509E+02 -0.15705213445E+02  0.18726421692E+02  0.00000000000E+00 0. -1.
         11    1    3    3    0    0 -0.10539639027E+01 -0.53167789235E+01 -0.16934870180E+02  0.17781136249E+02  0.51100000000E-03 0. -1.
        -11    1    3    3    0    0 -0.83792417382E+01 -0.76803063535E+01  0.40377172281E+02  0.41946571248E+02  0.51100000000E-03 0.  1.
        -12    1    3    3    0    0  0.97179678453E+01  0.28017897678E+01 -0.77370886561E+01  0.12733870811E+02  0.00000000000E+00 0.  1.
</event>
<event>
 7    1  0.1345786E-013  0.7246157E+02  0.7816164E-02  0.1226708E+00
        -11   -1    0    0    0    0  0.00000000000E+00  0.00000000000E+00  0.45593999997E+02  0.45594000000E+02  0.51100000000E-03 0.  1.
         11   -1    0    0    0    0 -0.00000000000E+00 -0.00000000000E+00 -0.45593999997E+02  0.45594000000E+02  0.51100000000E-03 0. -1.
    9900012    2    1    2    0    0 -0.49455898648E+00  0.13596510011E+02  0.12867374377E+02  0.72461574916E+02  0.70000006021E+02 0.  0.
         12    1    1    2    0    0  0.49455898648E+00 -0.13596510011E+02 -0.12867374377E+02  0.18726425084E+02  0.00000000000E+00 0. -1.
         11    1    3    3    0    0 -0.10217487206E+02 -0.19148670755E+01 -0.19282779808E+02  0.21906377111E+02  0.51100000000E-03 0. -1.
        -11    1    3    3    0    0  0.61308909676E+01 -0.10403042301E+02  0.15070429628E+02  0.19311368740E+02  0.51100000000E-03 0.  1.
         12    1    3    3    0    0  0.35920372516E+01  0.25914419387E+02  0.17079724557E+02  0.31243829066E+02  0.00000000000E+00 0. -1.
</event>
<event>
 7    1  0.1345786E-013  0.7246161E+02  0.7816164E-02  0.1226708E+00
        -11   -1    0    0    0    0  0.00000000000E+00  0.00000000000E+00  0.45593999997E+02  0.45594000000E+02  0.51100000000E-03 0.  1.
         11   -1    0    0    0    0 -0.00000000000E+00 -0.00000000000E+00 -0.45593999997E+02  0.45594000000E+02  0.51100000000E-03 0. -1.
    9900012    2    1    2    0    0 -0.13965678003E+01  0.22673488841E+01  0.18536087886E+02  0.72461606148E+02  0.70000046707E+02 0.  0.
         12    1    1    2    0    0  0.13965678003E+01 -0.22673488841E+01 -0.18536087886E+02  0.18726393852E+02  0.00000000000E+00 0. -1.
         11    1    3    3    0    0  0.75563268698E+01  0.28644528093E+02  0.17546638969E+02  0.34430968688E+02  0.51100000000E-03 0. -1.
        -11    1    3    3    0    0 -0.14850650163E+02 -0.81520600099E+01  0.64254476332E+01  0.18118616675E+02  0.51100000000E-03 0.  1.
         12    1    3    3    0    0  0.58977554931E+01 -0.18225119199E+02 -0.54359987170E+01  0.19912020785E+02  0.00000000000E+00 0. -1.
</event>
<event>
 7    1  0.1345786E-013  0.7246157E+02  0.7816164E-02  0.1226708E+00
        -11   -1    0    0    0    0  0.00000000000E+00  0.00000000000E+00  0.45593999997E+02  0.45594000000E+02  0.51100000000E-03 0. -1.
         11   -1    0    0    0    0 -0.00000000000E+00 -0.00000000000E+00 -0.45593999997E+02  0.45594000000E+02  0.51100000000E-03 0.  1.
    9900012    2    1    2    0    0 -0.11670284784E+02  0.86648151438E+01 -0.11806977274E+02  0.72461567324E+02  0.69999996131E+02 0.  0.
         12    1    1    2    0    0  0.11670284784E+02 -0.86648151438E+01  0.11806977274E+02  0.18726432676E+02  0.00000000000E+00 0. -1.
         11    1    3    3    0    0  0.11441614582E+02  0.23514010373E+02  0.12075039785E+02  0.28803225760E+02  0.51100000000E-03 0. -1.
        -11    1    3    3    0    0 -0.27497007761E+02 -0.12464817810E+02 -0.15585221053E+02  0.33975818377E+02  0.51100000000E-03 0.  1.
         12    1    3    3    0    0  0.43851083952E+01 -0.23843774191E+01 -0.82967960059E+01  0.96825231876E+01  0.00000000000E+00 0. -1.
</event>
<event>
 7    1  0.1345786E-013  0.7246147E+02  0.7816164E-02  0.1226708E+00
        -11   -1    0    0    0    0  0.00000000000E+00  0.00000000000E+00  0.45593999997E+02  0.45594000000E+02  0.51100000000E-03 0. -1.
         11   -1    0    0    0    0 -0.00000000000E+00 -0.00000000000E+00 -0.45593999997E+02  0.45594000000E+02  0.51100000000E-03 0.  1.
    9900012    2    1    2    0    0  0.64337268299E+00  0.50382428966E+01 -0.18024568755E+02  0.72461470725E+02  0.69999870292E+02 0.  0.
         12    1    1    2    0    0 -0.64337268299E+00 -0.50382428966E+01  0.18024568755E+02  0.18726529275E+02  0.00000000000E+00 0. -1.
         11    1    3    3    0    0  0.17398910691E+02  0.16260691834E+02  0.15929334410E+02  0.28650931698E+02  0.51100000000E-03 0. -1.
        -11    1    3    3    0    0 -0.15525883234E+02  0.53498339924E+00 -0.15890479356E+02  0.22222659424E+02  0.51100000000E-03 0.  1.
        -12    1    3    3    0    0 -0.12296547738E+01 -0.11757432337E+02 -0.18063423810E+02  0.21587879603E+02  0.00000000000E+00 0.  1.
</event>
<event>
 7    1  0.1345786E-013  0.7246150E+02  0.7816164E-02  0.1226708E+00
        -11   -1    0    0    0    0  0.00000000000E+00  0.00000000000E+00  0.45593999997E+02  0.45594000000E+02  0.51100000000E-03 0. -1.
         11   -1    0    0    0    0 -0.00000000000E+00 -0.00000000000E+00 -0.45593999997E+02  0.45594000000E+02  0.51100000000E-03 0.  1.
    9900012    2    1    2    0    0 -0.11486069627E+02 -0.14536228815E+02 -0.27294950824E+01  0.72461497736E+02  0.69999905480E+02 0.  0.
         12    1    1    2    0    0  0.11486069627E+02  0.14536228815E+02  0.27294950824E+01  0.18726502264E+02  0.00000000000E+00 0. -1.
         11    1    3    3    0    0 -0.38953297314E+02 -0.30472519060E+01  0.16857982104E+01  0.39108656736E+02  0.51100000000E-03 0. -1.
        -11    1    3    3    0    0  0.58133443872E+01 -0.27757425973E+01 -0.74117857369E+01  0.98200961300E+01  0.51100000000E-03 0.  1.
         12    1    3    3    0    0  0.21653883301E+02 -0.87132343114E+01  0.29964924442E+01  0.23532744870E+02  0.00000000000E+00 0. -1.
</event>
<event>
 7    1  0.1345786E-013  0.7246157E+02  0.7816164E-02  0.1226708E+00
        -11   -1    0    0    0    0  0.00000000000E+00  0.00000000000E+00  0.45593999997E+02  0.45594000000E+02  0.51100000000E-03 0.  1.
         11   -1    0    0    0    0 -0.00000000000E+00 -0.00000000000E+00 -0.45593999997E+02  0.45594000000E+02  0.51100000000E-03 0. -1.
    9900012    2    1    2    0    0  0.63463337137E+00  0.32412139392E+01  0.18432871902E+02  0.72461574984E+02  0.70000006109E+02 0.  0.
         12    1    1    2    0    0 -0.63463337137E+00 -0.32412139392E+01 -0.18432871902E+02  0.18726425016E+02  0.00000000000E+00 0. -1.
         11    1    3    3    0    0 -0.17947551379E+02  0.41578559070E+01  0.65445902995E+01  0.19550806343E+02  0.51100000000E-03 0. -1.
        -11    1    3    3    0    0  0.25531760397E+02  0.99664354778E+01 -0.85713819379E+01  0.28717054404E+02  0.51100000000E-03 0.  1.
        -12    1    3    3    0    0 -0.69495756466E+01 -0.10883077446E+02  0.20459663540E+02  0.24193714236E+02  0.00000000000E+00 0.  1.
</event>
<event>
 7    1  0.1345786E-013  0.7246162E+02  0.7816164E-02  0.1226708E+00
        -11   -1    0    0    0    0  0.00000000000E+00  0.00000000000E+00  0.45593999997E+02  0.45594000000E+02  0.51100000000E-03 0. -1.
         11   -1    0    0    0    0 -0.00000000000E+00 -0.00000000000E+00 -0.45593999997E+02  0.45594000000E+02  0.51100000000E-03 0.  1.
    9900012    2    1    2    0    0  0.65472667473E+01  0.16590761279E+02  0.57058983647E+01  0.72461619201E+02  0.70000063710E+02 0.  0.
         12    1    1    2    0    0 -0.65472667473E+01 -0.16590761279E+02 -0.57058983647E+01  0.18726380799E+02  0.00000000000E+00 0. -1.
         11    1    3    3    0    0 -0.30145000540E+02  0.18642818087E+01  0.45190500212E+01  0.30538801836E+02  0.51100000000E-03 0. -1.
        -11    1    3    3    0    0  0.45248135820E+01  0.48391002305E+00 -0.43676993655E+01  0.63075276354E+01  0.51100000000E-03 0.  1.
         12    1    3    3    0    0  0.32167453705E+02  0.14242569447E+02  0.55545477091E+01  0.35615289730E+02  0.00000000000E+00 0. -1.
</event>
<event>
 7    1  0.1578518E-013  0.7246154E+02  0.7816164E-02  0.1226708E+00
        -11   -1    0    0    0    0  0.00000000000E+00  0.00000000000E+00  0.45593999997E+02  0.45594000000E+02  0.51100000000E-03 0. -1.
         11   -1    0    0    0    0 -0.00000000000E+00 -0.00000000000E+00 -0.45593999997E+02  0.45594000000E+02  0.51100000000E-03 0.  1.
    9900012    2    1    2    0    0 -0.10488315648E+02 -0.90327344122E-01 -0.15513460987E+02  0.72461537548E+02  0.69999957342E+02 0.  0.
         12    1    1    2    0    0  0.10488315648E+02  0.90327344122E-01  0.15513460987E+02  0.18726462452E+02  0.00000000000E+00 0. -1.
         11    1    3    3    0    0  0.88329621997E+01  0.15381215580E+02  0.11319539619E+02  0.21041268769E+02  0.51100000000E-03 0. -1.
        -11    1    3    3    0    0 -0.12950378670E+02  0.57836108406E+01 -0.25514591852E+02  0.29191725878E+02  0.51100000000E-03 0.  1.
        -12    1    3    3    0    0 -0.63708991777E+01 -0.21255153765E+02 -0.13184087531E+01  0.22228542902E+02  0.00000000000E+00 0.  1.
</event>
<event>
 7    1  0.1345786E-013  0.7246158E+02  0.7816164E-02  0.1226708E+00
        -11   -1    0    0    0    0  0.00000000000E+00  0.00000000000E+00  0.45593999997E+02  0.45594000000E+02  0.51100000000E-03 0.  1.
         11   -1    0    0    0    0 -0.00000000000E+00 -0.00000000000E+00 -0.45593999997E+02  0.45594000000E+02  0.51100000000E-03 0. -1.
    9900012    2    1    2    0    0  0.81145799482E+01  0.77182907815E+01  0.15008672656E+02  0.72461583493E+02  0.70000017193E+02 0.  0.
         12    1    1    2    0    0 -0.81145799482E+01 -0.77182907815E+01 -0.15008672656E+02  0.18726416507E+02  0.00000000000E+00 0. -1.
         11    1    3    3    0    0  0.79285563694E+01  0.29963742203E+02 -0.11973218238E+02  0.33227184776E+02  0.51100000000E-03 0. -1.
        -11    1    3    3    0    0 -0.32845675182E+01 -0.73395562467E+01 -0.19620537739E+00  0.80433802901E+01  0.51100000000E-03 0.  1.
         12    1    3    3    0    0  0.34705910969E+01 -0.14905895175E+02  0.27178096271E+02  0.31191018426E+02  0.00000000000E+00 0. -1.
</event>
<event>
 7    1  0.1345786E-013  0.7246161E+02  0.7816164E-02  0.1226708E+00
        -11   -1    0    0    0    0  0.00000000000E+00  0.00000000000E+00  0.45593999997E+02  0.45594000000E+02  0.51100000000E-03 0.  1.
         11   -1    0    0    0    0 -0.00000000000E+00 -0.00000000000E+00 -0.45593999997E+02  0.45594000000E+02  0.51100000000E-03 0. -1.
    9900012    2    1    2    0    0 -0.13955719022E+02  0.11353089944E+02  0.51983585428E+01  0.72461610165E+02  0.70000051939E+02 0.  0.
         12    1    1    2    0    0  0.13955719022E+02 -0.11353089944E+02 -0.51983585428E+01  0.18726389835E+02  0.00000000000E+00 0. -1.
         11    1    3    3    0    0 -0.72517180091E-01 -0.12894289689E+02  0.14698916334E+02  0.19553161048E+02  0.51100000000E-03 0. -1.
        -11    1    3    3    0    0  0.29308222438E+01  0.32924715377E+02 -0.73816024458E+01  0.33869081130E+02  0.51100000000E-03 0.  1.
        -12    1    3    3    0    0 -0.16814024086E+02 -0.86773357437E+01 -0.21189553455E+01  0.19039367986E+02  0.00000000000E+00 0.  1.
</event>
<event>
 7    1  0.1345786E-013  0.7246158E+02  0.7816164E-02  0.1226708E+00
        -11   -1    0    0    0    0  0.00000000000E+00  0.00000000000E+00  0.45593999997E+02  0.45594000000E+02  0.51100000000E-03 0. -1.
         11   -1    0    0    0    0 -0.00000000000E+00 -0.00000000000E+00 -0.45593999997E+02  0.45594000000E+02  0.51100000000E-03 0.  1.
    9900012    2    1    2    0    0 -0.83658376049E+01  0.16428238582E+02 -0.32869982735E+01  0.72461584983E+02  0.70000019135E+02 0.  0.
         12    1    1    2    0    0  0.83658376049E+01 -0.16428238582E+02  0.32869982735E+01  0.18726415017E+02  0.00000000000E+00 0. -1.
         11    1    3    3    0    0  0.49356066659E+00 -0.19513427774E+02  0.44597352945E+01  0.20022654788E+02  0.51100000000E-03 0. -1.
        -11    1    3    3    0    0 -0.19513760091E+02  0.28740761833E+02 -0.14813195627E+02  0.37765711811E+02  0.51100000000E-03 0.  1.
        -12    1    3    3    0    0  0.10654361820E+02  0.72009045218E+01  0.70664620592E+01  0.14673218384E+02  0.00000000000E+00 0.  1.
</event>
<event>
 7    1  0.1345786E-013  0.7246155E+02  0.7816164E-02  0.1226708E+00
        -11   -1    0    0    0    0  0.00000000000E+00  0.00000000000E+00  0.45593999997E+02  0.45594000000E+02  0.51100000000E-03 0. -1.
         11   -1    0    0    0    0 -0.00000000000E+00 -0.00000000000E+00 -0.45593999997E+02  0.45594000000E+02  0.51100000000E-03 0.  1.
    9900012    2    1    2    0    0 -0.50816318212E+01 -0.17969546874E+02  0.13973199563E+01  0.72461545453E+02  0.69999967640E+02 0.  0.
         12    1    1    2    0    0  0.50816318212E+01  0.17969546874E+02 -0.13973199563E+01  0.18726454547E+02  0.00000000000E+00 0. -1.
         11    1    3    3    0    0 -0.22860555986E+02 -0.23792798204E+02  0.10743628444E+02  0.34700544934E+02  0.51100000000E-03 0. -1.
        -11    1    3    3    0    0  0.16123851762E+02  0.10190379960E+02  0.73368146954E+01  0.20436518527E+02  0.51100000000E-03 0.  1.
        -12    1    3    3    0    0  0.16550724025E+01 -0.43671286305E+01 -0.16683123183E+02  0.17324481992E+02  0.00000000000E+00 0.  1.
</event>
<event>
 7    1  0.1345786E-013  0.7246170E+02  0.7816164E-02  0.1226708E+00
        -11   -1    0    0    0    0  0.00000000000E+00  0.00000000000E+00  0.45593999997E+02  0.45594000000E+02  0.51100000000E-03 0.  1.
         11   -1    0    0    0    0 -0.00000000000E+00 -0.00000000000E+00 -0.45593999997E+02  0.45594000000E+02  0.51100000000E-03 0. -1.
    9900012    2    1    2    0    0  0.14493875052E+02  0.67672037587E+01  0.97368803225E+01  0.72461700335E+02  0.70000169402E+02 0.  0.
         12    1    1    2    0    0 -0.14493875052E+02 -0.67672037587E+01 -0.97368803225E+01  0.18726299665E+02  0.00000000000E+00 0. -1.
         11    1    3    3    0    0  0.35115394209E+02  0.48185320347E+01 -0.11572287278E+02  0.37285747874E+02  0.51100000000E-03 0. -1.
        -11    1    3    3    0    0 -0.86576967683E+01  0.39111593268E+01  0.20999294197E+02  0.23048280579E+02  0.51100000000E-03 0.  1.
         12    1    3    3    0    0 -0.11963822389E+02 -0.19624876027E+01  0.30987340347E+00  0.12127671882E+02  0.00000000000E+00 0. -1.
</event>
<event>
 7    1  0.1345786E-013  0.7246160E+02  0.7816164E-02  0.1226708E+00
        -11   -1    0    0    0    0  0.00000000000E+00  0.00000000000E+00  0.45593999997E+02  0.45594000000E+02  0.51100000000E-03 0.  1.
         11   -1    0    0    0    0 -0.00000000000E+00 -0.00000000000E+00 -0.45593999997E+02  0.45594000000E+02  0.51100000000E-03 0. -1.
    9900012    2    1    2    0    0  0.86273491587E+01  0.13465881842E+02  0.97425273422E+01  0.72461602421E+02  0.70000041851E+02 0.  0.
         12    1    1    2    0    0 -0.86273491587E+01 -0.13465881842E+02 -0.97425273422E+01  0.18726397579E+02  0.00000000000E+00 0. -1.
         11    1    3    3    0    0  0.61528955562E+01 -0.13573197185E+02  0.16113479277E+02  0.21948440041E+02  0.51100000000E-03 0. -1.
        -11    1    3    3    0    0 -0.82016754624E+01  0.24579083637E+02  0.12441107116E+02  0.28743346697E+02  0.51100000000E-03 0.  1.
         12    1    3    3    0    0  0.10676129065E+02  0.24599953901E+01 -0.18812059051E+02  0.21769815683E+02  0.00000000000E+00 0. -1.
</event>
<event>
 7    1  0.1345786E-013  0.7246152E+02  0.7816164E-02  0.1226708E+00
        -11   -1    0    0    0    0  0.00000000000E+00  0.00000000000E+00  0.45593999997E+02  0.45594000000E+02  0.51100000000E-03 0. -1.
         11   -1    0    0    0    0 -0.00000000000E+00 -0.00000000000E+00 -0.45593999997E+02  0.45594000000E+02  0.51100000000E-03 0.  1.
    9900012    2    1    2    0    0  0.18579560962E+02  0.96026277344E+00 -0.21351576288E+01  0.72461519065E+02  0.69999933264E+02 0.  0.
         12    1    1    2    0    0 -0.18579560962E+02 -0.96026277344E+00  0.21351576288E+01  0.18726480935E+02  0.00000000000E+00 0. -1.
         11    1    3    3    0    0  0.31666044102E+02  0.15178718191E+02 -0.46167089867E+01  0.35418156885E+02  0.51100000000E-03 0.  1.
        -11    1    3    3    0    0 -0.35275576047E+00 -0.17903718077E+02  0.11251560801E+02  0.21148644835E+02  0.51100000000E-03 0. -1.
         12    1    3    3    0    0 -0.12733727379E+02  0.36852626594E+01 -0.87700094433E+01  0.15894717345E+02  0.00000000000E+00 0. -1.
</event>
<event>
 7    1  0.1345786E-013  0.7246159E+02  0.7816164E-02  0.1226708E+00
        -11   -1    0    0    0    0  0.00000000000E+00  0.00000000000E+00  0.45593999997E+02  0.45594000000E+02  0.51100000000E-03 0. -1.
         11   -1    0    0    0    0 -0.00000000000E+00 -0.00000000000E+00 -0.45593999997E+02  0.45594000000E+02  0.51100000000E-03 0.  1.
    9900012    2    1    2    0    0  0.13149316209E+02 -0.76775189954E+01 -0.10900904007E+02  0.72461587561E+02  0.70000022493E+02 0.  0.
         12    1    1    2    0    0 -0.13149316209E+02  0.76775189954E+01  0.10900904007E+02  0.18726412439E+02  0.00000000000E+00 0. -1.
         11    1    3    3    0    0 -0.89607222774E+01 -0.13379095456E+02  0.95930461353E+01  0.18743566186E+02  0.51100000000E-03 0. -1.
        -11    1    3    3    0    0  0.31941312067E+02  0.14998487058E+02 -0.19074509220E+02  0.40112827535E+02  0.51100000000E-03 0.  1.
        -12    1    3    3    0    0 -0.98312735814E+01 -0.92969105977E+01 -0.14194409223E+01  0.13605193840E+02  0.00000000000E+00 0.  1.
</event>
<event>
 7    1  0.1345786E-013  0.7246141E+02  0.7816164E-02  0.1226708E+00
        -11   -1    0    0    0    0  0.00000000000E+00  0.00000000000E+00  0.45593999997E+02  0.45594000000E+02  0.51100000000E-03 0.  1.
         11   -1    0    0    0    0 -0.00000000000E+00 -0.00000000000E+00 -0.45593999997E+02  0.45594000000E+02  0.51100000000E-03 0. -1.
    9900012    2    1    2    0    0 -0.16937809312E+02 -0.28763363533E+01 -0.74513346720E+01  0.72461412390E+02  0.69999794300E+02 0.  0.
         12    1    1    2    0    0  0.16937809312E+02  0.28763363533E+01  0.74513346720E+01  0.18726587610E+02  0.00000000000E+00 0. -1.
         11    1    3    3    0    0 -0.68764253905E+01  0.61495153473E+01 -0.23608764695E+02  0.25347101133E+02  0.51100000000E-03 0. -1.
        -11    1    3    3    0    0  0.15065228464E+02 -0.21749480403E+00  0.13719246937E+02  0.20377098651E+02  0.51100000000E-03 0.  1.
        -12    1    3    3    0    0 -0.25126612386E+02 -0.88083568965E+01  0.24381830865E+01  0.26737212606E+02  0.00000000000E+00 0.  1.
</event>
<event>
 7    1  0.1345786E-013  0.7246154E+02  0.7816164E-02  0.1226708E+00
        -11   -1    0    0    0    0  0.00000000000E+00  0.00000000000E+00  0.45593999997E+02  0.45594000000E+02  0.51100000000E-03 0.  1.
         11   -1    0    0    0    0 -0.00000000000E+00 -0.00000000000E+00 -0.45593999997E+02  0.45594000000E+02  0.51100000000E-03 0. -1.
    9900012    2    1    2    0    0  0.14884131836E+02 -0.79551460167E+01 -0.81153195546E+01  0.72461544379E+02  0.69999966240E+02 0.  0.
         12    1    1    2    0    0 -0.14884131836E+02  0.79551460167E+01  0.81153195546E+01  0.18726455621E+02  0.00000000000E+00 0. -1.
         11    1    3    3    0    0 -0.15045778668E+02  0.15475790727E+02  0.59900280008E+01  0.22399910492E+02  0.51100000000E-03 0. -1.
        -11    1    3    3    0    0  0.19501708967E+02 -0.28878987139E+02 -0.15641038424E+02  0.38196264661E+02  0.51100000000E-03 0.  1.
        -12    1    3    3    0    0  0.10428201538E+02  0.54480503953E+01  0.15356908687E+01  0.11865369226E+02  0.00000000000E+00 0.  1.
</event>
<event>
 7    1  0.1345786E-013  0.7246166E+02  0.7816164E-02  0.1226708E+00
        -11   -1    0    0    0    0  0.00000000000E+00  0.00000000000E+00  0.45593999997E+02  0.45594000000E+02  0.51100000000E-03 0. -1.
         11   -1    0    0    0    0 -0.00000000000E+00 -0.00000000000E+00 -0.45593999997E+02  0.45594000000E+02  0.51100000000E-03 0.  1.
    9900012    2    1    2    0    0  0.63013399228E+01 -0.92511433069E+01 -0.15012837993E+02  0.72461659143E+02  0.70000115741E+02 0.  0.
         12    1    1    2    0    0 -0.63013399228E+01  0.92511433069E+01  0.15012837993E+02  0.18726340857E+02  0.00000000000E+00 0. -1.
         11    1    3    3    0    0  0.34616943118E+01  0.25916817301E+00  0.18046390900E+02  0.18377233753E+02  0.51100000000E-03 0. -1.
        -11    1    3    3    0    0 -0.14520806325E+02  0.60322798231E+01 -0.24795853918E+02  0.29361140781E+02  0.51100000000E-03 0.  1.
        -12    1    3    3    0    0  0.17360451936E+02 -0.15542591303E+02 -0.82633749745E+01  0.24723284608E+02  0.00000000000E+00 0.  1.
</event>
<event>
 7    1  0.1345786E-013  0.7246150E+02  0.7816164E-02  0.1226708E+00
        -11   -1    0    0    0    0  0.00000000000E+00  0.00000000000E+00  0.45593999997E+02  0.45594000000E+02  0.51100000000E-03 0. -1.
         11   -1    0    0    0    0 -0.00000000000E+00 -0.00000000000E+00 -0.45593999997E+02  0.45594000000E+02  0.51100000000E-03 0.  1.
    9900012    2    1    2    0    0  0.16872536173E+02  0.38617103631E+01 -0.71474726690E+01  0.72461504082E+02  0.69999913745E+02 0.  0.
         12    1    1    2    0    0 -0.16872536173E+02 -0.38617103631E+01  0.71474726690E+01  0.18726495918E+02  0.00000000000E+00 0. -1.
         11    1    3    3    0    0 -0.36861830715E+01  0.38948315882E+00  0.12875225408E+02  0.13398174217E+02  0.51100000000E-03 0. -1.
        -11    1    3    3    0    0 -0.69820242243E+01 -0.10907116025E+02 -0.24462584764E+02  0.27679087699E+02  0.51100000000E-03 0.  1.
        -12    1    3    3    0    0  0.27540743469E+02  0.14379343229E+02  0.44398866869E+01  0.31384242166E+02  0.00000000000E+00 0.  1.
</event>
<event>
 8    1  0.1345786E-013  0.7246156E+02  0.7816164E-02  0.1226708E+00
        -11   -1    0    0    0    0  0.00000000000E+00  0.00000000000E+00  0.45593999997E+02  0.45594000000E+02  0.51100000000E-03 0.  1.
         11   -1    0    0    0    0 -0.00000000000E+00 -0.00000000000E+00 -0.45593999997E+02  0.45594000000E+02  0.51100000000E-03 0. -1.
    9900012    2    1    2    0    0 -0.83106338881E+01 -0.14155384969E+02 -0.90132214430E+01  0.72461555596E+02  0.69999980852E+02 0.  0.
        -24    2    3    3    0    0 -0.34169368579E+01 -0.19844568805E+02 -0.19105422311E+02  0.59885085425E+02  0.53063395351E+02 0.  0.
         12    1    1    2    0    0  0.83106338881E+01  0.14155384969E+02  0.90132214430E+01  0.18726444404E+02  0.00000000000E+00 0. -1.
         11    1    4    4    0    0  0.22613894641E+01 -0.37149317184E+02 -0.66160460523E+01  0.37801557047E+02  0.51100000000E-03 0. -1.
        -11    1    3    3    0    0 -0.48936970303E+01  0.56891838362E+01  0.10092200868E+02  0.12576470171E+02  0.51100000000E-03 0.  1.
        -12    1    4    4    0    0 -0.56783263219E+01  0.17304748379E+02 -0.12489376258E+02  0.22083528378E+02  0.00000000000E+00 0.  1.
</event>
<event>
 7    1  0.1345786E-013  0.7246157E+02  0.7816164E-02  0.1226708E+00
        -11   -1    0    0    0    0  0.00000000000E+00  0.00000000000E+00  0.45593999997E+02  0.45594000000E+02  0.51100000000E-03 0.  1.
         11   -1    0    0    0    0 -0.00000000000E+00 -0.00000000000E+00 -0.45593999997E+02  0.45594000000E+02  0.51100000000E-03 0. -1.
    9900012    2    1    2    0    0 -0.18495586305E+02  0.13716994981E+01  0.25905132465E+01  0.72461573988E+02  0.70000004812E+02 0.  0.
         12    1    1    2    0    0  0.18495586305E+02 -0.13716994981E+01 -0.25905132465E+01  0.18726426012E+02  0.00000000000E+00 0. -1.
         11    1    3    3    0    0 -0.13116302093E+02 -0.23004304422E+02 -0.10249406381E+02  0.28395170962E+02  0.51100000000E-03 0. -1.
        -11    1    3    3    0    0  0.69259528165E+01  0.24030190988E+01  0.17025741641E+02  0.18536968520E+02  0.51100000000E-03 0.  1.
         12    1    3    3    0    0 -0.12305237029E+02  0.21972984821E+02 -0.41858220142E+01  0.25529434507E+02  0.00000000000E+00 0. -1.
</event>
<event>
 7    1  0.1345786E-013  0.7246165E+02  0.7816164E-02  0.1226708E+00
        -11   -1    0    0    0    0  0.00000000000E+00  0.00000000000E+00  0.45593999997E+02  0.45594000000E+02  0.51100000000E-03 0. -1.
         11   -1    0    0    0    0 -0.00000000000E+00 -0.00000000000E+00 -0.45593999997E+02  0.45594000000E+02  0.51100000000E-03 0.  1.
    9900012    2    1    2    0    0 -0.87156869874E+01 -0.14899224602E+02 -0.72612654426E+01  0.72461653073E+02  0.70000107835E+02 0.  0.
         12    1    1    2    0    0  0.87156869874E+01  0.14899224602E+02  0.72612654426E+01  0.18726346927E+02  0.00000000000E+00 0. -1.
         11    1    3    3    0    0  0.23201720589E+02  0.42923254195E+00 -0.25286645870E+01  0.23343055150E+02  0.51100000000E-03 0. -1.
        -11    1    3    3    0    0 -0.12186314926E+02 -0.39422420746E+01 -0.18499864252E+02  0.22500944905E+02  0.51100000000E-03 0.  1.
         12    1    3    3    0    0 -0.19731092651E+02 -0.11386215069E+02  0.13767263396E+02  0.26617653018E+02  0.00000000000E+00 0. -1.
</event>
<event>
 7    1  0.1345786E-013  0.7246157E+02  0.7816164E-02  0.1226708E+00
        -11   -1    0    0    0    0  0.00000000000E+00  0.00000000000E+00  0.45593999997E+02  0.45594000000E+02  0.51100000000E-03 0.  1.
         11   -1    0    0    0    0 -0.00000000000E+00 -0.00000000000E+00 -0.45593999997E+02  0.45594000000E+02  0.51100000000E-03 0. -1.
    9900012    2    1    2    0    0  0.11896248595E+02 -0.14187302478E+02  0.28069392403E+01  0.72461569744E+02  0.69999999283E+02 0.  0.
         12    1    1    2    0    0 -0.11896248595E+02  0.14187302478E+02 -0.28069392403E+01  0.18726430256E+02  0.00000000000E+00 0. -1.
         11    1    3    3    0    0 -0.59127120027E+01 -0.56407358010E+01  0.22034341958E+02  0.23500857205E+02  0.51100000000E-03 0. -1.
        -11    1    3    3    0    0  0.88894393347E+01 -0.19855627733E+02 -0.25267406489E+02  0.33342314186E+02  0.51100000000E-03 0.  1.
         12    1    3    3    0    0  0.89195212631E+01  0.11309061056E+02  0.60400037718E+01  0.15618398352E+02  0.00000000000E+00 0. -1.
</event>
<event>
 7    1  0.1345786E-013  0.7246156E+02  0.7816164E-02  0.1226708E+00
        -11   -1    0    0    0    0  0.00000000000E+00  0.00000000000E+00  0.45593999997E+02  0.45594000000E+02  0.51100000000E-03 0.  1.
         11   -1    0    0    0    0 -0.00000000000E+00 -0.00000000000E+00 -0.45593999997E+02  0.45594000000E+02  0.51100000000E-03 0. -1.
    9900012    2    1    2    0    0 -0.30193561716E+01 -0.56344198758E+01  0.17601603344E+02  0.72461557750E+02  0.69999983659E+02 0.  0.
         12    1    1    2    0    0  0.30193561716E+01  0.56344198758E+01 -0.17601603344E+02  0.18726442250E+02  0.00000000000E+00 0. -1.
         11    1    3    3    0    0 -0.13472586986E+02 -0.50460662918E+00 -0.24204336824E+02  0.27705868499E+02  0.51100000000E-03 0. -1.
        -11    1    3    3    0    0  0.15819984339E+01  0.25707001948E+01  0.17516864632E+02  0.17775032077E+02  0.51100000000E-03 0.  1.
         12    1    3    3    0    0  0.88712323801E+01 -0.77005134415E+01  0.24289075536E+02  0.26980657175E+02  0.00000000000E+00 0. -1.
</event>
<event>
 7    1  0.1345786E-013  0.7246156E+02  0.7816164E-02  0.1226708E+00
        -11   -1    0    0    0    0  0.00000000000E+00  0.00000000000E+00  0.45593999997E+02  0.45594000000E+02  0.51100000000E-03 0.  1.
         11   -1    0    0    0    0 -0.00000000000E+00 -0.00000000000E+00 -0.45593999997E+02  0.45594000000E+02  0.51100000000E-03 0. -1.
    9900012    2    1    2    0    0  0.14035426070E+02  0.16296992832E+01  0.12289448377E+02  0.72461557568E+02  0.69999983422E+02 0.  0.
         12    1    1    2    0    0 -0.14035426070E+02 -0.16296992832E+01 -0.12289448377E+02  0.18726442432E+02  0.00000000000E+00 0. -1.
         11    1    3    3    0    0 -0.12419638245E+02  0.14202742261E+02 -0.41034826716E+01  0.19308129691E+02  0.51100000000E-03 0. -1.
        -11    1    3    3    0    0  0.12401661865E+02 -0.24253570698E+02 -0.18874906847E+01  0.27305668458E+02  0.51100000000E-03 0.  1.
        -12    1    3    3    0    0  0.14053402450E+02  0.11680527720E+02  0.18280421734E+02  0.25847759419E+02  0.00000000000E+00 0.  1.
</event>
<event>
 7    1  0.1345786E-013  0.7246161E+02  0.7816164E-02  0.1226708E+00
        -11   -1    0    0    0    0  0.00000000000E+00  0.00000000000E+00  0.45593999997E+02  0.45594000000E+02  0.51100000000E-03 0.  1.
         11   -1    0    0    0    0 -0.00000000000E+00 -0.00000000000E+00 -0.45593999997E+02  0.45594000000E+02  0.51100000000E-03 0. -1.
    9900012    2    1    2    0    0  0.34484066611E+01  0.12015631165E+02  0.13943124224E+02  0.72461611829E+02  0.70000054107E+02 0.  0.
         12    1    1    2    0    0 -0.34484066611E+01 -0.12015631165E+02 -0.13943124224E+02  0.18726388171E+02  0.00000000000E+00 0. -1.
         11    1    3    3    0    0 -0.14133046767E+01  0.22199185547E+02  0.87765169178E+01  0.23912936217E+02  0.51100000000E-03 0. -1.
        -11    1    3    3    0    0 -0.92241295429E+01 -0.25461651908E+02 -0.21786240769E+00  0.27081871205E+02  0.51100000000E-03 0.  1.
        -12    1    3    3    0    0  0.14085840881E+02  0.15278097526E+02  0.53844697141E+01  0.21466804407E+02  0.00000000000E+00 0.  1.
</event>
<event>
 7    1  0.1345786E-013  0.7246155E+02  0.7816164E-02  0.1226708E+00
        -11   -1    0    0    0    0  0.00000000000E+00  0.00000000000E+00  0.45593999997E+02  0.45594000000E+02  0.51100000000E-03 0.  1.
         11   -1    0    0    0    0 -0.00000000000E+00 -0.00000000000E+00 -0.45593999997E+02  0.45594000000E+02  0.51100000000E-03 0. -1.
    9900012    2    1    2    0    0 -0.17321732649E+02  0.30331986687E+01 -0.64371676280E+01  0.72461552307E+02  0.69999976569E+02 0.  0.
         12    1    1    2    0    0  0.17321732649E+02 -0.30331986687E+01  0.64371676280E+01  0.18726447693E+02  0.00000000000E+00 0. -1.
         11    1    3    3    0    0 -0.91330545061E+01  0.38661275767E+01  0.25560068645E+02  0.27416723663E+02  0.51100000000E-03 0. -1.
        -11    1    3    3    0    0 -0.61804044807E+01 -0.14914814546E+02 -0.10469284947E+02  0.19242011851E+02  0.51100000000E-03 0.  1.
         12    1    3    3    0    0 -0.20082736618E+01  0.14081885638E+02 -0.21527951325E+02  0.25802816794E+02  0.00000000000E+00 0. -1.
</event>
<event>
 7    1  0.1345786E-013  0.7246158E+02  0.7816164E-02  0.1226708E+00
        -11   -1    0    0    0    0  0.00000000000E+00  0.00000000000E+00  0.45593999997E+02  0.45594000000E+02  0.51100000000E-03 0. -1.
         11   -1    0    0    0    0 -0.00000000000E+00 -0.00000000000E+00 -0.45593999997E+02  0.45594000000E+02  0.51100000000E-03 0.  1.
    9900012    2    1    2    0    0  0.15729105454E+02  0.38335650876E+01  0.94115746511E+01  0.72461582375E+02  0.70000015737E+02 0.  0.
         12    1    1    2    0    0 -0.15729105454E+02 -0.38335650876E+01 -0.94115746511E+01  0.18726417625E+02  0.00000000000E+00 0. -1.
         11    1    3    3    0    0 -0.99757919964E+01  0.72997694314E+01  0.18679069352E+02  0.22398899344E+02  0.51100000000E-03 0. -1.
        -11    1    3    3    0    0  0.24933917298E+02 -0.97808657749E+01  0.10899207037E+02  0.28916401599E+02  0.51100000000E-03 0.  1.
        -12    1    3    3    0    0  0.77098015208E+00  0.63146614311E+01 -0.20166701738E+02  0.21146281432E+02  0.00000000000E+00 0.  1.
</event>
<event>
 7    1  0.1345786E-013  0.7246157E+02  0.7816164E-02  0.1226708E+00
        -11   -1    0    0    0    0  0.00000000000E+00  0.00000000000E+00  0.45593999997E+02  0.45594000000E+02  0.51100000000E-03 0. -1.
         11   -1    0    0    0    0 -0.00000000000E+00 -0.00000000000E+00 -0.45593999997E+02  0.45594000000E+02  0.51100000000E-03 0.  1.
    9900012    2    1    2    0    0  0.42950043018E+01 -0.45821203362E+01 -0.17641892884E+02  0.72461567525E+02  0.69999996392E+02 0.  0.
         12    1    1    2    0    0 -0.42950043018E+01  0.45821203362E+01  0.17641892884E+02  0.18726432475E+02  0.00000000000E+00 0. -1.
         11    1    3    3    0    0  0.21169380160E+02 -0.49683439009E+01  0.17426130318E+02  0.27865697831E+02  0.51100000000E-03 0. -1.
        -11    1    3    3    0    0 -0.15470713689E+02 -0.62333756207E+01 -0.11977700934E+02  0.20534441157E+02  0.51100000000E-03 0.  1.
        -12    1    3    3    0    0 -0.14036621690E+01  0.66195991854E+01 -0.23090322267E+02  0.24061428538E+02  0.00000000000E+00 0.  1.
</event>
<event>
 7    1  0.1345786E-013  0.7246155E+02  0.7816164E-02  0.1226708E+00
        -11   -1    0    0    0    0  0.00000000000E+00  0.00000000000E+00  0.45593999997E+02  0.45594000000E+02  0.51100000000E-03 0.  1.
         11   -1    0    0    0    0 -0.00000000000E+00 -0.00000000000E+00 -0.45593999997E+02  0.45594000000E+02  0.51100000000E-03 0. -1.
    9900012    2    1    2    0    0  0.61296658419E+01  0.17555983845E+02 -0.22123893166E+01  0.72461547090E+02  0.69999969772E+02 0.  0.
         12    1    1    2    0    0 -0.61296658419E+01 -0.17555983845E+02  0.22123893166E+01  0.18726452910E+02  0.00000000000E+00 0. -1.
         11    1    3    3    0    0 -0.16954206449E+02 -0.18415720608E+02 -0.12247335603E+02  0.27867204946E+02  0.51100000000E-03 0. -1.
        -11    1    3    3    0    0  0.21720588553E+01  0.71130988577E+01  0.40111813419E+01  0.84500645589E+01  0.51100000000E-03 0.  1.
         12    1    3    3    0    0  0.20911813436E+02  0.28858605595E+02  0.60237649449E+01  0.36144277586E+02  0.00000000000E+00 0. -1.
</event>
<event>
 7    1  0.1345786E-013  0.7246169E+02  0.7816164E-02  0.1226708E+00
        -11   -1    0    0    0    0  0.00000000000E+00  0.00000000000E+00  0.45593999997E+02  0.45594000000E+02  0.51100000000E-03 0.  1.
         11   -1    0    0    0    0 -0.00000000000E+00 -0.00000000000E+00 -0.45593999997E+02  0.45594000000E+02  0.51100000000E-03 0. -1.
    9900012    2    1    2    0    0  0.10505498223E+01 -0.24497483374E+01  0.18535632838E+02  0.72461692128E+02  0.70000158710E+02 0.  0.
         12    1    1    2    0    0 -0.10505498223E+01  0.24497483374E+01 -0.18535632838E+02  0.18726307872E+02  0.00000000000E+00 0. -1.
         11    1    3    3    0    0  0.29825858869E+02  0.76692064679E+01 -0.55404021495E+00  0.30801064039E+02  0.51100000000E-03 0. -1.
        -11    1    3    3    0    0 -0.15490510754E+02  0.30244695030E+01  0.16433170675E+02  0.22784916894E+02  0.51100000000E-03 0.  1.
         12    1    3    3    0    0 -0.13284798293E+02 -0.13143424308E+02  0.26565023780E+01  0.18875711195E+02  0.00000000000E+00 0. -1.
</event>
<event>
 7    1  0.1345786E-013  0.7246155E+02  0.7816164E-02  0.1226708E+00
        -11   -1    0    0    0    0  0.00000000000E+00  0.00000000000E+00  0.45593999997E+02  0.45594000000E+02  0.51100000000E-03 0.  1.
         11   -1    0    0    0    0 -0.00000000000E+00 -0.00000000000E+00 -0.45593999997E+02  0.45594000000E+02  0.51100000000E-03 0. -1.
    9900012    2    1    2    0    0 -0.15434144416E+02 -0.10534982579E+02  0.12170346483E+01  0.72461552255E+02  0.69999976501E+02 0.  0.
         12    1    1    2    0    0  0.15434144416E+02  0.10534982579E+02 -0.12170346483E+01  0.18726447745E+02  0.00000000000E+00 0. -1.
         11    1    3    3    0    0 -0.35758065169E+02 -0.14720563429E+02  0.34426993177E+01  0.38822498517E+02  0.51100000000E-03 0.  1.
        -11    1    3    3    0    0  0.88282351730E+01  0.12262845386E+02  0.71824674336E+01  0.16730300413E+02  0.51100000000E-03 0. -1.
        -12    1    3    3    0    0  0.11495685580E+02 -0.80772645364E+01 -0.94081321030E+01  0.16908753325E+02  0.00000000000E+00 0.  1.
</event>
<event>
 7    1  0.1345786E-013  0.7246185E+02  0.7816164E-02  0.1226707E+00
        -11   -1    0    0    0    0  0.00000000000E+00  0.00000000000E+00  0.45593999997E+02  0.45594000000E+02  0.51100000000E-03 0.  1.
         11   -1    0    0    0    0 -0.00000000000E+00 -0.00000000000E+00 -0.45593999997E+02  0.45594000000E+02  0.51100000000E-03 0. -1.
    9900012    2    1    2    0    0 -0.61641606495E+01 -0.17651049776E+02 -0.10545931367E+01  0.72461852468E+02  0.70000367583E+02 0.  0.
         12    1    1    2    0    0  0.61641606495E+01  0.17651049776E+02  0.10545931367E+01  0.18726147532E+02  0.00000000000E+00 0. -1.
         11    1    3    3    0    0 -0.15612401009E+02  0.77850413540E+01  0.19439199336E+02  0.26119655534E+02  0.51100000000E-03 0. -1.
        -11    1    3    3    0    0  0.16722825273E+02 -0.98797799921E+01  0.23384863136E+00  0.19424665331E+02  0.51100000000E-03 0.  1.
         12    1    3    3    0    0 -0.72745849130E+01 -0.15556311138E+02 -0.20727641104E+02  0.26917531603E+02  0.00000000000E+00 0. -1.
</event>
<event>
 7    1  0.1345786E-013  0.7246158E+02  0.7816164E-02  0.1226708E+00
        -11   -1    0    0    0    0  0.00000000000E+00  0.00000000000E+00  0.45593999997E+02  0.45594000000E+02  0.51100000000E-03 0. -1.
         11   -1    0    0    0    0 -0.00000000000E+00 -0.00000000000E+00 -0.45593999997E+02  0.45594000000E+02  0.51100000000E-03 0.  1.
    9900012    2    1    2    0    0  0.12604224946E+02 -0.10380409066E+02 -0.91683923367E+01  0.72461580243E+02  0.70000012960E+02 0.  0.
         12    1    1    2    0    0 -0.12604224946E+02  0.10380409066E+02  0.91683923367E+01  0.18726419757E+02  0.00000000000E+00 0. -1.
         11    1    3    3    0    0 -0.55866438709E+01  0.16118961428E+02 -0.19023381505E+02  0.25552310099E+02  0.51100000000E-03 0. -1.
        -11    1    3    3    0    0  0.25734627228E+02 -0.10104419441E+02  0.39944043456E+01  0.27934308603E+02  0.51100000000E-03 0.  1.
        -12    1    3    3    0    0 -0.75437584106E+01 -0.16394951053E+02  0.58605848229E+01  0.18974961541E+02  0.00000000000E+00 0.  1.
</event>
<event>
 7    1  0.1345786E-013  0.7246156E+02  0.7816164E-02  0.1226708E+00
        -11   -1    0    0    0    0  0.00000000000E+00  0.00000000000E+00  0.45593999997E+02  0.45594000000E+02  0.51100000000E-03 0. -1.
         11   -1    0    0    0    0 -0.00000000000E+00 -0.00000000000E+00 -0.45593999997E+02  0.45594000000E+02  0.51100000000E-03 0.  1.
    9900012    2    1    2    0    0  0.12562406974E+00 -0.15332998016E+01 -0.18663138822E+02  0.72461560392E+02  0.69999987100E+02 0.  0.
         12    1    1    2    0    0 -0.12562406974E+00  0.15332998016E+01  0.18663138822E+02  0.18726439608E+02  0.00000000000E+00 0. -1.
         11    1    3    3    0    0  0.17720177432E+02 -0.25736289277E+02 -0.71459144285E+01  0.32053476679E+02  0.51100000000E-03 0. -1.
        -11    1    3    3    0    0 -0.14574441157E+02  0.38461846174E+01 -0.12819158758E+02  0.19787326820E+02  0.51100000000E-03 0.  1.
         12    1    3    3    0    0 -0.30201122049E+01  0.20356804858E+02  0.13019343643E+01  0.20620756893E+02  0.00000000000E+00 0. -1.
</event>
<event>
 7    1  0.1345786E-013  0.7246161E+02  0.7816164E-02  0.1226708E+00
        -11   -1    0    0    0    0  0.00000000000E+00  0.00000000000E+00  0.45593999997E+02  0.45594000000E+02  0.51100000000E-03 0.  1.
         11   -1    0    0    0    0 -0.00000000000E+00 -0.00000000000E+00 -0.45593999997E+02  0.45594000000E+02  0.51100000000E-03 0. -1.
    9900012    2    1    2    0    0  0.81843924172E+01 -0.99624764113E+01  0.13580958637E+02  0.72461610786E+02  0.70000052748E+02 0.  0.
         12    1    1    2    0    0 -0.81843924172E+01  0.99624764113E+01 -0.13580958637E+02  0.18726389214E+02  0.00000000000E+00 0. -1.
         11    1    3    3    0    0 -0.23331416945E+02  0.57796833912E+01  0.65637344251E+01  0.24916708583E+02  0.51100000000E-03 0. -1.
        -11    1    3    3    0    0  0.15676342889E+02 -0.75079417897E+01 -0.12260780283E+02  0.21270722830E+02  0.51100000000E-03 0.  1.
         12    1    3    3    0    0  0.15839466473E+02 -0.82342180128E+01  0.19278004495E+02  0.26274179373E+02  0.00000000000E+00 0. -1.
</event>
<event>
 7    1  0.1345786E-013  0.7246161E+02  0.7816164E-02  0.1226708E+00
        -11   -1    0    0    0    0  0.00000000000E+00  0.00000000000E+00  0.45593999997E+02  0.45594000000E+02  0.51100000000E-03 0.  1.
         11   -1    0    0    0    0 -0.00000000000E+00 -0.00000000000E+00 -0.45593999997E+02  0.45594000000E+02  0.51100000000E-03 0. -1.
    9900012    2    1    2    0    0  0.14913777030E+02  0.47965216865E+01  0.10259160485E+02  0.72461608478E+02  0.70000049742E+02 0.  0.
         12    1    1    2    0    0 -0.14913777030E+02 -0.47965216865E+01 -0.10259160485E+02  0.18726391522E+02  0.00000000000E+00 0. -1.
         11    1    3    3    0    0 -0.14446950970E+02 -0.49953767449E+01 -0.78557810488E+01  0.17186665683E+02  0.51100000000E-03 0. -1.
        -11    1    3    3    0    0  0.28904748548E+02  0.16695486742E+02 -0.25551983673E+01  0.33477646350E+02  0.51100000000E-03 0.  1.
         12    1    3    3    0    0  0.45597945162E+00 -0.69035883109E+01  0.20670139901E+02  0.21797296446E+02  0.00000000000E+00 0. -1.
</event>
<event>
 7    1  0.1345786E-013  0.7246163E+02  0.7816164E-02  0.1226708E+00
        -11   -1    0    0    0    0  0.00000000000E+00  0.00000000000E+00  0.45593999997E+02  0.45594000000E+02  0.51100000000E-03 0.  1.
         11   -1    0    0    0    0 -0.00000000000E+00 -0.00000000000E+00 -0.45593999997E+02  0.45594000000E+02  0.51100000000E-03 0. -1.
    9900012    2    1    2    0    0 -0.33550728001E+00  0.26558699593E+01  0.18534038102E+02  0.72461634129E+02  0.70000083156E+02 0.  0.
         12    1    1    2    0    0  0.33550728001E+00 -0.26558699593E+01 -0.18534038102E+02  0.18726365871E+02  0.00000000000E+00 0. -1.
         11    1    3    3    0    0 -0.12156687458E+02 -0.24369716027E+02  0.33378580740E+01  0.27437372432E+02  0.51100000000E-03 0. -1.
        -11    1    3    3    0    0 -0.42256767237E+00  0.28213886014E+02  0.42063026879E+01  0.28528843475E+02  0.51100000000E-03 0.  1.
        -12    1    3    3    0    0  0.12243747850E+02 -0.11883000279E+01  0.10989877340E+02  0.16495418222E+02  0.00000000000E+00 0.  1.
</event>
<event>
 7    1  0.1345786E-013  0.7246159E+02  0.7816164E-02  0.1226708E+00
        -11   -1    0    0    0    0  0.00000000000E+00  0.00000000000E+00  0.45593999997E+02  0.45594000000E+02  0.51100000000E-03 0.  1.
         11   -1    0    0    0    0 -0.00000000000E+00 -0.00000000000E+00 -0.45593999997E+02  0.45594000000E+02  0.51100000000E-03 0. -1.
    9900012    2    1    2    0    0 -0.94118968698E+01  0.14577592467E+02  0.70419038353E+01  0.72461590455E+02  0.70000026263E+02 0.  0.
         12    1    1    2    0    0  0.94118968698E+01 -0.14577592467E+02 -0.70419038353E+01  0.18726409545E+02  0.00000000000E+00 0. -1.
         11    1    3    3    0    0 -0.18720046484E+02  0.14353387083E+01  0.97084399914E+01  0.21136559438E+02  0.51100000000E-03 0. -1.
        -11    1    3    3    0    0 -0.83916002824E+01  0.17984075413E+02 -0.18467877026E+02  0.27109194120E+02  0.51100000000E-03 0.  1.
        -12    1    3    3    0    0  0.17699749896E+02 -0.48418216542E+01  0.15801340870E+02  0.24215836897E+02  0.00000000000E+00 0.  1.
</event>
<event>
 7    1  0.1345786E-013  0.7246158E+02  0.7816164E-02  0.1226708E+00
        -11   -1    0    0    0    0  0.00000000000E+00  0.00000000000E+00  0.45593999997E+02  0.45594000000E+02  0.51100000000E-03 0. -1.
         11   -1    0    0    0    0 -0.00000000000E+00 -0.00000000000E+00 -0.45593999997E+02  0.45594000000E+02  0.51100000000E-03 0.  1.
    9900012    2    1    2    0    0  0.14382761862E+01 -0.18363768300E+02  0.33737678597E+01  0.72461576579E+02  0.70000008187E+02 0.  0.
         12    1    1    2    0    0 -0.14382761862E+01  0.18363768300E+02 -0.33737678597E+01  0.18726423421E+02  0.00000000000E+00 0. -1.
         11    1    3    3    0    0  0.59884903174E+01 -0.39575864862E+02 -0.11401726207E+01  0.40042615920E+02  0.51100000000E-03 0.  1.
        -11    1    3    3    0    0 -0.12140284003E+02  0.53870549210E+01 -0.25057514878E+01  0.13516125450E+02  0.51100000000E-03 0. -1.
         12    1    3    3    0    0  0.75900698718E+01  0.15825041641E+02  0.70196919682E+01  0.18902835209E+02  0.00000000000E+00 0. -1.
</event>
<event>
 7    1  0.1345786E-013  0.7246159E+02  0.7816164E-02  0.1226708E+00
        -11   -1    0    0    0    0  0.00000000000E+00  0.00000000000E+00  0.45593999997E+02  0.45594000000E+02  0.51100000000E-03 0.  1.
         11   -1    0    0    0    0 -0.00000000000E+00 -0.00000000000E+00 -0.45593999997E+02  0.45594000000E+02  0.51100000000E-03 0. -1.
    9900012    2    1    2    0    0  0.17227335966E+02  0.70162248883E+01  0.21610272172E+01  0.72461586707E+02  0.70000021381E+02 0.  0.
         12    1    1    2    0    0 -0.17227335966E+02 -0.70162248883E+01 -0.21610272172E+01  0.18726413293E+02  0.00000000000E+00 0. -1.
         11    1    3    3    0    0 -0.31437956583E+01  0.23484992461E+02  0.26767282430E+01  0.23845192312E+02  0.51100000000E-03 0. -1.
        -11    1    3    3    0    0  0.32976503112E+02 -0.10385369872E+02  0.56912843229E+00  0.34577876920E+02  0.51100000000E-03 0.  1.
        -12    1    3    3    0    0 -0.12605371488E+02 -0.60833977013E+01 -0.10848294580E+01  0.14038517475E+02  0.00000000000E+00 0.  1.
</event>
<event>
 7    1  0.1345786E-013  0.7246165E+02  0.7816164E-02  0.1226708E+00
        -11   -1    0    0    0    0  0.00000000000E+00  0.00000000000E+00  0.45593999997E+02  0.45594000000E+02  0.51100000000E-03 0. -1.
         11   -1    0    0    0    0 -0.00000000000E+00 -0.00000000000E+00 -0.45593999997E+02  0.45594000000E+02  0.51100000000E-03 0.  1.
    9900012    2    1    2    0    0  0.66752983192E+01 -0.14787183927E+02 -0.93517788786E+01  0.72461650000E+02  0.70000103831E+02 0.  0.
         12    1    1    2    0    0 -0.66752983192E+01  0.14787183927E+02  0.93517788786E+01  0.18726350000E+02  0.00000000000E+00 0. -1.
         11    1    3    3    0    0  0.19286776221E+02 -0.12189316908E+02  0.17945111272E+02  0.29027335436E+02  0.51100000000E-03 0. -1.
        -11    1    3    3    0    0  0.59091569136E+01  0.58179176389E+01 -0.20288652479E+02  0.21917931489E+02  0.51100000000E-03 0.  1.
         12    1    3    3    0    0 -0.18520634815E+02 -0.84157846574E+01 -0.70082376719E+01  0.21516383075E+02  0.00000000000E+00 0. -1.
</event>
<event>
 7    1  0.1345786E-013  0.7246157E+02  0.7816164E-02  0.1226708E+00
        -11   -1    0    0    0    0  0.00000000000E+00  0.00000000000E+00  0.45593999997E+02  0.45594000000E+02  0.51100000000E-03 0. -1.
         11   -1    0    0    0    0 -0.00000000000E+00 -0.00000000000E+00 -0.45593999997E+02  0.45594000000E+02  0.51100000000E-03 0.  1.
    9900012    2    1    2    0    0  0.18378252145E+02 -0.19504620091E+01 -0.30190653216E+01  0.72461569230E+02  0.69999998614E+02 0.  0.
         12    1    1    2    0    0 -0.18378252145E+02  0.19504620091E+01  0.30190653216E+01  0.18726430770E+02  0.00000000000E+00 0. -1.
         11    1    3    3    0    0  0.21620164109E+02 -0.11429472057E+02  0.12003949228E+02  0.27242597617E+02  0.51100000000E-03 0. -1.
        -11    1    3    3    0    0 -0.11783000506E+02 -0.11917184237E+02 -0.14522322565E+02  0.22175577422E+02  0.51100000000E-03 0.  1.
        -12    1    3    3    0    0  0.85410885421E+01  0.21396194285E+02 -0.50069198386E+00  0.23043394191E+02  0.00000000000E+00 0.  1.
</event>
<event>
 7    1  0.1345786E-013  0.7246156E+02  0.7816164E-02  0.1226708E+00
        -11   -1    0    0    0    0  0.00000000000E+00  0.00000000000E+00  0.45593999997E+02  0.45594000000E+02  0.51100000000E-03 0.  1.
         11   -1    0    0    0    0 -0.00000000000E+00 -0.00000000000E+00 -0.45593999997E+02  0.45594000000E+02  0.51100000000E-03 0. -1.
    9900012    2    1    2    0    0  0.16135291673E+02 -0.17389365402E+01  0.93438790070E+01  0.72461558465E+02  0.69999984590E+02 0.  0.
         12    1    1    2    0    0 -0.16135291673E+02  0.17389365402E+01 -0.93438790070E+01  0.18726441535E+02  0.00000000000E+00 0. -1.
         11    1    3    3    0    0 -0.21077364850E+01 -0.30135417270E+02 -0.41416272435E+01  0.30491621859E+02  0.51100000000E-03 0.  1.
        -11    1    3    3    0    0  0.17613743773E+02  0.29643416712E+02  0.68070731968E+01  0.35147010823E+02  0.51100000000E-03 0. -1.
        -12    1    3    3    0    0  0.62928438498E+00 -0.12469359822E+01  0.66784330537E+01  0.68229257825E+01  0.00000000000E+00 0.  1.
</event>
<event>
 7    1  0.1345786E-013  0.7246156E+02  0.7816164E-02  0.1226708E+00
        -11   -1    0    0    0    0  0.00000000000E+00  0.00000000000E+00  0.45593999997E+02  0.45594000000E+02  0.51100000000E-03 0.  1.
         11   -1    0    0    0    0 -0.00000000000E+00 -0.00000000000E+00 -0.45593999997E+02  0.45594000000E+02  0.51100000000E-03 0. -1.
    9900012    2    1    2    0    0 -0.16983289026E+02  0.62298707812E+01  0.48410755637E+01  0.72461563908E+02  0.69999991681E+02 0.  0.
         12    1    1    2    0    0  0.16983289026E+02 -0.62298707812E+01 -0.48410755637E+01  0.18726436092E+02  0.00000000000E+00 0. -1.
         11    1    3    3    0    0 -0.10357407934E+01 -0.10385198538E+02 -0.13304341448E+02  0.16909482821E+02  0.51100000000E-03 0. -1.
        -11    1    3    3    0    0 -0.26475659736E+02  0.25746277860E+02  0.67321803471E+01  0.37538695164E+02  0.51100000000E-03 0.  1.
        -12    1    3    3    0    0  0.10528111503E+02 -0.91312085413E+01  0.11413236664E+02  0.18013385923E+02  0.00000000000E+00 0.  1.
</event>
<event>
 7    1  0.1345786E-013  0.7246159E+02  0.7816164E-02  0.1226708E+00
        -11   -1    0    0    0    0  0.00000000000E+00  0.00000000000E+00  0.45593999997E+02  0.45594000000E+02  0.51100000000E-03 0.  1.
         11   -1    0    0    0    0 -0.00000000000E+00 -0.00000000000E+00 -0.45593999997E+02  0.45594000000E+02  0.51100000000E-03 0. -1.
    9900012    2    1    2    0    0 -0.16936454744E+02  0.29431405061E+01  0.74278416426E+01  0.72461590659E+02  0.70000026529E+02 0.  0.
         12    1    1    2    0    0  0.16936454744E+02 -0.29431405061E+01 -0.74278416426E+01  0.18726409341E+02  0.00000000000E+00 0. -1.
         11    1    3    3    0    0  0.15658460947E+01  0.82602396711E+01 -0.53905777137E+01  0.99870797416E+01  0.51100000000E-03 0. -1.
        -11    1    3    3    0    0 -0.10189706950E+02 -0.15718075310E+02  0.33205504731E+02  0.38124710672E+02  0.51100000000E-03 0.  1.
        -12    1    3    3    0    0 -0.83125938887E+01  0.10400976145E+02 -0.20387085374E+02  0.24349800245E+02  0.00000000000E+00 0.  1.
</event>
<event>
 7    1  0.1345786E-013  0.7246157E+02  0.7816164E-02  0.1226708E+00
        -11   -1    0    0    0    0  0.00000000000E+00  0.00000000000E+00  0.45593999997E+02  0.45594000000E+02  0.51100000000E-03 0.  1.
         11   -1    0    0    0    0 -0.00000000000E+00 -0.00000000000E+00 -0.45593999997E+02  0.45594000000E+02  0.51100000000E-03 0. -1.
    9900012    2    1    2    0    0 -0.14333000536E+02  0.17291576881E+01  0.11927047311E+02  0.72461565522E+02  0.69999993783E+02 0.  0.
         12    1    1    2    0    0  0.14333000536E+02 -0.17291576881E+01 -0.11927047311E+02  0.18726434478E+02  0.00000000000E+00 0. -1.
         11    1    3    3    0    0 -0.15843732630E+02  0.10533037690E+02 -0.20576698186E+02  0.28024440317E+02  0.51100000000E-03 0. -1.
        -11    1    3    3    0    0  0.15128756261E+01 -0.19361549514E+02  0.17860776397E+02  0.26384952644E+02  0.51100000000E-03 0.  1.
         12    1    3    3    0    0 -0.21435328065E-02  0.10557669512E+02  0.14642969100E+02  0.18052172561E+02  0.00000000000E+00 0. -1.
</event>
<event>
 7    1  0.1345786E-013  0.7246158E+02  0.7816164E-02  0.1226708E+00
        -11   -1    0    0    0    0  0.00000000000E+00  0.00000000000E+00  0.45593999997E+02  0.45594000000E+02  0.51100000000E-03 0. -1.
         11   -1    0    0    0    0 -0.00000000000E+00 -0.00000000000E+00 -0.45593999997E+02  0.45594000000E+02  0.51100000000E-03 0.  1.
    9900012    2    1    2    0    0 -0.36860960476E+01 -0.40081385391E+01 -0.17917208052E+02  0.72461579547E+02  0.70000012053E+02 0.  0.
         12    1    1    2    0    0  0.36860960476E+01  0.40081385391E+01  0.17917208052E+02  0.18726420453E+02  0.00000000000E+00 0. -1.
         11    1    3    3    0    0  0.50993472521E+01  0.27021858954E+02 -0.12425713896E+02  0.30175860713E+02  0.51100000000E-03 0. -1.
        -11    1    3    3    0    0 -0.60830373980E+01 -0.31944620095E+02  0.36373581979E+01  0.32721437498E+02  0.51100000000E-03 0.  1.
         12    1    3    3    0    0 -0.27024059017E+01  0.91462260224E+00 -0.91288523539E+01  0.95642813353E+01  0.00000000000E+00 0. -1.
</event>
<event>
 7    1  0.1345786E-013  0.7246156E+02  0.7816164E-02  0.1226708E+00
        -11   -1    0    0    0    0  0.00000000000E+00  0.00000000000E+00  0.45593999997E+02  0.45594000000E+02  0.51100000000E-03 0. -1.
         11   -1    0    0    0    0 -0.00000000000E+00 -0.00000000000E+00 -0.45593999997E+02  0.45594000000E+02  0.51100000000E-03 0.  1.
    9900012    2    1    2    0    0  0.89138614708E+01 -0.93318961155E+01 -0.13569758782E+02  0.72461559739E+02  0.69999986250E+02 0.  0.
         12    1    1    2    0    0 -0.89138614708E+01  0.93318961155E+01  0.13569758782E+02  0.18726440261E+02  0.00000000000E+00 0. -1.
         11    1    3    3    0    0  0.10989512721E+02 -0.44040669464E+01  0.18271262580E+02  0.21771638249E+02  0.51100000000E-03 0. -1.
        -11    1    3    3    0    0 -0.13599348761E+02 -0.16385642612E+02 -0.10156617016E+02  0.23592126653E+02  0.51100000000E-03 0.  1.
         12    1    3    3    0    0  0.11523697511E+02  0.11457813443E+02 -0.21684404346E+02  0.27097794838E+02  0.00000000000E+00 0. -1.
</event>
<event>
 7    1  0.1578892E-013  0.7246160E+02  0.7816164E-02  0.1226708E+00
        -11   -1    0    0    0    0  0.00000000000E+00  0.00000000000E+00  0.45593999997E+02  0.45594000000E+02  0.51100000000E-03 0. -1.
         11   -1    0    0    0    0 -0.00000000000E+00 -0.00000000000E+00 -0.45593999997E+02  0.45594000000E+02  0.51100000000E-03 0.  1.
    9900012    2    1    2    0    0 -0.16257253804E+02 -0.89012373024E+01 -0.26735345767E+01  0.72461598480E+02  0.70000036717E+02 0.  0.
         12    1    1    2    0    0  0.16257253804E+02  0.89012373024E+01  0.26735345767E+01  0.18726401520E+02  0.00000000000E+00 0. -1.
         11    1    3    3    0    0  0.13957391879E+02 -0.15382874324E+02 -0.60031165282E+00  0.20779845641E+02  0.51100000000E-03 0. -1.
        -11    1    3    3    0    0 -0.14820319118E+02  0.22224635110E+02  0.73889691544E+01  0.27715936390E+02  0.51100000000E-03 0.  1.
         12    1    3    3    0    0 -0.15394326564E+02 -0.15742998088E+02 -0.94621920783E+01  0.23965816449E+02  0.00000000000E+00 0. -1.
</event>
<event>
 7    1  0.1345786E-013  0.7246159E+02  0.7816164E-02  0.1226708E+00
        -11   -1    0    0    0    0  0.00000000000E+00  0.00000000000E+00  0.45593999997E+02  0.45594000000E+02  0.51100000000E-03 0. -1.
         11   -1    0    0    0    0 -0.00000000000E+00 -0.00000000000E+00 -0.45593999997E+02  0.45594000000E+02  0.51100000000E-03 0.  1.
    9900012    2    1    2    0    0  0.10619686106E+02 -0.42560764515E+01 -0.14825194312E+02  0.72461593347E+02  0.70000030031E+02 0.  0.
         12    1    1    2    0    0 -0.10619686106E+02  0.42560764515E+01  0.14825194312E+02  0.18726406653E+02  0.00000000000E+00 0. -1.
         11    1    3    3    0    0  0.35188941319E+01 -0.29090517239E+02 -0.10789525389E+01  0.29322430799E+02  0.51100000000E-03 0. -1.
        -11    1    3    3    0    0  0.15741984700E+02  0.26844692662E+02 -0.14303708616E+02  0.34249725354E+02  0.51100000000E-03 0.  1.
        -12    1    3    3    0    0 -0.86411927265E+01 -0.20102518745E+01  0.55746684311E+00  0.88894371935E+01  0.00000000000E+00 0.  1.
</event>
<event>
 7    1  0.1345786E-013  0.7246141E+02  0.7816164E-02  0.1226708E+00
        -11   -1    0    0    0    0  0.00000000000E+00  0.00000000000E+00  0.45593999997E+02  0.45594000000E+02  0.51100000000E-03 0. -1.
         11   -1    0    0    0    0 -0.00000000000E+00 -0.00000000000E+00 -0.45593999997E+02  0.45594000000E+02  0.51100000000E-03 0.  1.
    9900012    2    1    2    0    0 -0.25976233578E+01 -0.18119726798E+02 -0.39513284082E+01  0.72461410814E+02  0.69999792247E+02 0.  0.
         12    1    1    2    0    0  0.25976233578E+01  0.18119726798E+02  0.39513284082E+01  0.18726589186E+02  0.00000000000E+00 0. -1.
         11    1    3    3    0    0 -0.14696984769E+02  0.58736743841E+01  0.14423349767E+02  0.21413417075E+02  0.51100000000E-03 0. -1.
        -11    1    3    3    0    0 -0.47577501166E+01 -0.14105681665E+02 -0.26089138762E+02  0.30037469984E+02  0.51100000000E-03 0.  1.
         12    1    3    3    0    0  0.16857111528E+02 -0.98877195174E+01  0.77144605864E+01  0.21010523755E+02  0.00000000000E+00 0. -1.
</event>
<event>
 7    1  0.1345786E-013  0.7246153E+02  0.7816164E-02  0.1226708E+00
        -11   -1    0    0    0    0  0.00000000000E+00  0.00000000000E+00  0.45593999997E+02  0.45594000000E+02  0.51100000000E-03 0. -1.
         11   -1    0    0    0    0 -0.00000000000E+00 -0.00000000000E+00 -0.45593999997E+02  0.45594000000E+02  0.51100000000E-03 0.  1.
    9900012    2    1    2    0    0 -0.11092218454E+02  0.10953510190E+02 -0.10376131331E+02  0.72461526838E+02  0.69999943389E+02 0.  0.
         12    1    1    2    0    0  0.11092218454E+02 -0.10953510190E+02  0.10376131331E+02  0.18726473162E+02  0.00000000000E+00 0. -1.
         11    1    3    3    0    0 -0.14268383786E+02  0.59974484778E+01  0.24911218413E+02  0.29327887193E+02  0.51100000000E-03 0. -1.
        -11    1    3    3    0    0  0.35754342267E+01 -0.93220907784E+01 -0.19049691785E+02  0.21507576892E+02  0.51100000000E-03 0.  1.
         12    1    3    3    0    0 -0.39926889473E+00  0.14278152490E+02 -0.16237657959E+02  0.21626062752E+02  0.00000000000E+00 0. -1.
</event>
<event>
 7    1  0.1345786E-013  0.7246160E+02  0.7816164E-02  0.1226708E+00
        -11   -1    0    0    0    0  0.00000000000E+00  0.00000000000E+00  0.45593999997E+02  0.45594000000E+02  0.51100000000E-03 0. -1.
         11   -1    0    0    0    0 -0.00000000000E+00 -0.00000000000E+00 -0.45593999997E+02  0.45594000000E+02  0.51100000000E-03 0.  1.
    9900012    2    1    2    0    0 -0.59354786640E+01 -0.13696414561E+02  0.11307355976E+02  0.72461602109E+02  0.70000041445E+02 0.  0.
         12    1    1    2    0    0  0.59354786640E+01  0.13696414561E+02 -0.11307355976E+02  0.18726397891E+02  0.00000000000E+00 0. -1.
         11    1    3    3    0    0 -0.12589514183E+02 -0.18216495643E+02  0.35241076759E+02  0.41620548678E+02  0.51100000000E-03 0. -1.
        -11    1    3    3    0    0 -0.61087059589E+01  0.98978281310E+00 -0.82961111308E+01  0.10349947761E+02  0.51100000000E-03 0.  1.
         12    1    3    3    0    0  0.12762741478E+02  0.35302982687E+01 -0.15637609652E+02  0.20491105669E+02  0.00000000000E+00 0. -1.
</event>
<event>
 7    1  0.1345786E-013  0.7246163E+02  0.7816164E-02  0.1226708E+00
        -11   -1    0    0    0    0  0.00000000000E+00  0.00000000000E+00  0.45593999997E+02  0.45594000000E+02  0.51100000000E-03 0. -1.
         11   -1    0    0    0    0 -0.00000000000E+00 -0.00000000000E+00 -0.45593999997E+02  0.45594000000E+02  0.51100000000E-03 0.  1.
    9900012    2    1    2    0    0  0.13807357392E+02 -0.22239580910E+01 -0.12453430099E+02  0.72461627448E+02  0.70000074453E+02 0.  0.
         12    1    1    2    0    0 -0.13807357392E+02  0.22239580910E+01  0.12453430099E+02  0.18726372552E+02  0.00000000000E+00 0. -1.
         11    1    3    3    0    0 -0.81358470099E+01  0.26826538180E+02 -0.35518584155E+01  0.28257226611E+02  0.51100000000E-03 0. -1.
        -11    1    3    3    0    0  0.21936708088E+01 -0.50196387182E+01 -0.11754942278E+02  0.12968717466E+02  0.51100000000E-03 0.  1.
         12    1    3    3    0    0  0.19749533593E+02 -0.24030857553E+02  0.28533705945E+01  0.31235683370E+02  0.00000000000E+00 0. -1.
</event>
<event>
 7    1  0.1345786E-013  0.7246151E+02  0.7816164E-02  0.1226708E+00
        -11   -1    0    0    0    0  0.00000000000E+00  0.00000000000E+00  0.45593999997E+02  0.45594000000E+02  0.51100000000E-03 0. -1.
         11   -1    0    0    0    0 -0.00000000000E+00 -0.00000000000E+00 -0.45593999997E+02  0.45594000000E+02  0.51100000000E-03 0.  1.
    9900012    2    1    2    0    0  0.16696469711E+02  0.84756567638E+01  0.26906806049E+00  0.72461514585E+02  0.69999927428E+02 0.  0.
         12    1    1    2    0    0 -0.16696469711E+02 -0.84756567638E+01 -0.26906806049E+00  0.18726485415E+02  0.00000000000E+00 0. -1.
         11    1    3    3    0    0 -0.14755856698E+02  0.10059531025E+02  0.15980554197E+02  0.23964715397E+02  0.51100000000E-03 0. -1.
        -11    1    3    3    0    0  0.18473941722E+01 -0.11857098760E+02 -0.11949594768E+02  0.16935066331E+02  0.51100000000E-03 0.  1.
         12    1    3    3    0    0  0.29604932236E+02  0.10273224499E+02 -0.37618913686E+01  0.31561732858E+02  0.00000000000E+00 0. -1.
</event>
<event>
 7    1  0.1345786E-013  0.7246157E+02  0.7816164E-02  0.1226708E+00
        -11   -1    0    0    0    0  0.00000000000E+00  0.00000000000E+00  0.45593999997E+02  0.45594000000E+02  0.51100000000E-03 0.  1.
         11   -1    0    0    0    0 -0.00000000000E+00 -0.00000000000E+00 -0.45593999997E+02  0.45594000000E+02  0.51100000000E-03 0. -1.
    9900012    2    1    2    0    0 -0.70042631587E+01  0.17013524662E+02  0.34870167669E+01  0.72461574560E+02  0.70000005557E+02 0.  0.
         12    1    1    2    0    0  0.70042631587E+01 -0.17013524662E+02 -0.34870167669E+01  0.18726425440E+02  0.00000000000E+00 0. -1.
         11    1    3    3    0    0 -0.33609068799E+02  0.38653099955E+01 -0.17288484819E+01  0.33874755265E+02  0.51100000000E-03 0. -1.
        -11    1    3    3    0    0  0.58437708454E+01  0.26600612005E+01  0.12634621430E+02  0.14172481865E+02  0.51100000000E-03 0.  1.
         12    1    3    3    0    0  0.20761034795E+02  0.10488153466E+02 -0.74187561811E+01  0.24414337430E+02  0.00000000000E+00 0. -1.
</event>
<event>
 7    1  0.1345786E-013  0.7246148E+02  0.7816164E-02  0.1226708E+00
        -11   -1    0    0    0    0  0.00000000000E+00  0.00000000000E+00  0.45593999997E+02  0.45594000000E+02  0.51100000000E-03 0.  1.
         11   -1    0    0    0    0 -0.00000000000E+00 -0.00000000000E+00 -0.45593999997E+02  0.45594000000E+02  0.51100000000E-03 0. -1.
    9900012    2    1    2    0    0  0.72580726558E+01 -0.17069346781E+02  0.25768543278E+01  0.72461484135E+02  0.69999887762E+02 0.  0.
         12    1    1    2    0    0 -0.72580726558E+01  0.17069346781E+02 -0.25768543278E+01  0.18726515865E+02  0.00000000000E+00 0. -1.
         11    1    3    3    0    0  0.17278680574E+02 -0.30312899678E+02 -0.14012726079E+02  0.37600281671E+02  0.51100000000E-03 0. -1.
        -11    1    3    3    0    0  0.72817822377E+00  0.16187558016E+02  0.17287876136E+02  0.23694681674E+02  0.51100000000E-03 0.  1.
        -12    1    3    3    0    0 -0.10748786142E+02 -0.29440051181E+01 -0.69829573002E+00  0.11166520791E+02  0.00000000000E+00 0.  1.
</event>
<event>
 7    1  0.1345786E-013  0.7246109E+02  0.7816164E-02  0.1226709E+00
        -11   -1    0    0    0    0  0.00000000000E+00  0.00000000000E+00  0.45593999997E+02  0.45594000000E+02  0.51100000000E-03 0.  1.
         11   -1    0    0    0    0 -0.00000000000E+00 -0.00000000000E+00 -0.45593999997E+02  0.45594000000E+02  0.51100000000E-03 0. -1.
    9900012    2    1    2    0    0 -0.86038289629E+01  0.27603720367E+01  0.16402795195E+02  0.72461088433E+02  0.69999372284E+02 0.  0.
         12    1    1    2    0    0  0.86038289629E+01 -0.27603720367E+01 -0.16402795195E+02  0.18726911567E+02  0.00000000000E+00 0. -1.
         11    1    3    3    0    0 -0.25231483757E+02  0.31745781381E+01  0.42006811918E+01  0.25775015842E+02  0.51100000000E-03 0. -1.
        -11    1    3    3    0    0  0.70187241947E+01 -0.16808498236E+02  0.19172123817E+02  0.26445385877E+02  0.51100000000E-03 0.  1.
         12    1    3    3    0    0  0.96089305994E+01  0.16394292134E+02 -0.69700098137E+01  0.20240686714E+02  0.00000000000E+00 0. -1.
</event>
<event>
 7    1  0.1345786E-013  0.7246158E+02  0.7816164E-02  0.1226708E+00
        -11   -1    0    0    0    0  0.00000000000E+00  0.00000000000E+00  0.45593999997E+02  0.45594000000E+02  0.51100000000E-03 0. -1.
         11   -1    0    0    0    0 -0.00000000000E+00 -0.00000000000E+00 -0.45593999997E+02  0.45594000000E+02  0.51100000000E-03 0.  1.
    9900012    2    1    2    0    0  0.93793231429E+01 -0.16110328714E+02  0.17788318408E+01  0.72461584523E+02  0.70000018535E+02 0.  0.
         12    1    1    2    0    0 -0.93793231429E+01  0.16110328714E+02 -0.17788318408E+01  0.18726415477E+02  0.00000000000E+00 0. -1.
         11    1    3    3    0    0  0.43283658689E+01  0.13764792111E+02 -0.18472089477E+02  0.23439759873E+02  0.51100000000E-03 0. -1.
        -11    1    3    3    0    0  0.11313817573E+02 -0.58400570528E+01  0.20559043078E+02  0.24182286637E+02  0.51100000000E-03 0.  1.
        -12    1    3    3    0    0 -0.62628602988E+01 -0.24035063773E+02 -0.30812176029E+00  0.24839538013E+02  0.00000000000E+00 0.  1.
</event>
<event>
 7    1  0.1345786E-013  0.7246161E+02  0.7816164E-02  0.1226708E+00
        -11   -1    0    0    0    0  0.00000000000E+00  0.00000000000E+00  0.45593999997E+02  0.45594000000E+02  0.51100000000E-03 0.  1.
         11   -1    0    0    0    0 -0.00000000000E+00 -0.00000000000E+00 -0.45593999997E+02  0.45594000000E+02  0.51100000000E-03 0. -1.
    9900012    2    1    2    0    0  0.14201998110E+01  0.18663364138E+02  0.58264784014E+00  0.72461612015E+02  0.70000054349E+02 0.  0.
         12    1    1    2    0    0 -0.14201998110E+01 -0.18663364138E+02 -0.58264784014E+00  0.18726387985E+02  0.00000000000E+00 0. -1.
         11    1    3    3    0    0 -0.99413572224E+01  0.34853334699E+01 -0.52932579772E+01  0.11789686726E+02  0.51100000000E-03 0. -1.
        -11    1    3    3    0    0  0.18997229184E+02  0.23950324351E+01  0.28050096944E+02  0.33962314937E+02  0.51100000000E-03 0.  1.
        -12    1    3    3    0    0 -0.76356721508E+01  0.12782998233E+02 -0.22174191127E+02  0.26709610352E+02  0.00000000000E+00 0.  1.
</event>
<event>
 7    1  0.1345786E-013  0.7246147E+02  0.7816164E-02  0.1226708E+00
        -11   -1    0    0    0    0  0.00000000000E+00  0.00000000000E+00  0.45593999997E+02  0.45594000000E+02  0.51100000000E-03 0. -1.
         11   -1    0    0    0    0 -0.00000000000E+00 -0.00000000000E+00 -0.45593999997E+02  0.45594000000E+02  0.51100000000E-03 0.  1.
    9900012    2    1    2    0    0 -0.21370268715E+01 -0.18603989399E+02  0.87807926010E-01  0.72461467603E+02  0.69999866225E+02 0.  0.
         12    1    1    2    0    0  0.21370268715E+01  0.18603989399E+02 -0.87807926010E-01  0.18726532397E+02  0.00000000000E+00 0. -1.
         11    1    3    3    0    0  0.17387362473E+01 -0.21799214187E+02  0.24240163107E+02  0.32646813790E+02  0.51100000000E-03 0. -1.
        -11    1    3    3    0    0 -0.67685039834E+01  0.13200620579E+02 -0.15343646387E+01  0.14913862845E+02  0.51100000000E-03 0.  1.
        -12    1    3    3    0    0  0.28927408646E+01 -0.10005395791E+02 -0.22617990542E+02  0.24900790968E+02  0.00000000000E+00 0.  1.
</event>
<event>
 7    1  0.1345786E-013  0.7246144E+02  0.7816164E-02  0.1226708E+00
        -11   -1    0    0    0    0  0.00000000000E+00  0.00000000000E+00  0.45593999997E+02  0.45594000000E+02  0.51100000000E-03 0. -1.
         11   -1    0    0    0    0 -0.00000000000E+00 -0.00000000000E+00 -0.45593999997E+02  0.45594000000E+02  0.51100000000E-03 0.  1.
    9900012    2    1    2    0    0  0.31662746076E+01 -0.12922930145E+02  0.13177878938E+02  0.72461443677E+02  0.69999835057E+02 0.  0.
         12    1    1    2    0    0 -0.31662746076E+01  0.12922930145E+02 -0.13177878938E+02  0.18726556323E+02  0.00000000000E+00 0. -1.
         11    1    3    3    0    0  0.27200496917E+01  0.11089696667E+02  0.19670821971E+02  0.22744697839E+02  0.51100000000E-03 0. -1.
        -11    1    3    3    0    0  0.18753517029E+02 -0.23707859720E+02  0.17971962615E+00  0.30228948260E+02  0.51100000000E-03 0.  1.
         12    1    3    3    0    0 -0.18307292113E+02 -0.30476709200E+00 -0.66726626594E+01  0.19487797579E+02  0.00000000000E+00 0. -1.
</event>
<event>
 7    1  0.1345786E-013  0.7246156E+02  0.7816164E-02  0.1226708E+00
        -11   -1    0    0    0    0  0.00000000000E+00  0.00000000000E+00  0.45593999997E+02  0.45594000000E+02  0.51100000000E-03 0.  1.
         11   -1    0    0    0    0 -0.00000000000E+00 -0.00000000000E+00 -0.45593999997E+02  0.45594000000E+02  0.51100000000E-03 0. -1.
    9900012    2    1    2    0    0 -0.46818283554E+00 -0.13093655049E+02  0.13379710220E+02  0.72461557645E+02  0.69999983522E+02 0.  0.
         12    1    1    2    0    0  0.46818283554E+00  0.13093655049E+02 -0.13379710220E+02  0.18726442355E+02  0.00000000000E+00 0. -1.
         11    1    3    3    0    0 -0.72913036499E+01 -0.35309934243E+02 -0.28084647196E+00  0.36055976484E+02  0.51100000000E-03 0. -1.
        -11    1    3    3    0    0  0.99627326836E+00  0.17322498450E+02 -0.34396639960E+01  0.17688776149E+02  0.51100000000E-03 0.  1.
        -12    1    3    3    0    0  0.58268475460E+01  0.48937807441E+01  0.17100220688E+02  0.18716805012E+02  0.00000000000E+00 0.  1.
</event>
<event>
 7    1  0.1345786E-013  0.7246158E+02  0.7816164E-02  0.1226708E+00
        -11   -1    0    0    0    0  0.00000000000E+00  0.00000000000E+00  0.45593999997E+02  0.45594000000E+02  0.51100000000E-03 0.  1.
         11   -1    0    0    0    0 -0.00000000000E+00 -0.00000000000E+00 -0.45593999997E+02  0.45594000000E+02  0.51100000000E-03 0. -1.
    9900012    2    1    2    0    0 -0.59256665596E+01  0.17532666594E+02 -0.28585019762E+01  0.72461576005E+02  0.70000007440E+02 0.  0.
         12    1    1    2    0    0  0.59256665596E+01 -0.17532666594E+02  0.28585019762E+01  0.18726423995E+02  0.00000000000E+00 0. -1.
         11    1    3    3    0    0  0.58487020948E+01  0.95339576915E+00 -0.19783705396E+02  0.20652149504E+02  0.51100000000E-03 0. -1.
        -11    1    3    3    0    0  0.41541762466E+01  0.28642596727E+02  0.89362258179E+01  0.30290454927E+02  0.51100000000E-03 0.  1.
        -12    1    3    3    0    0 -0.15928544901E+02 -0.12063325903E+02  0.79889776016E+01  0.21518971574E+02  0.00000000000E+00 0.  1.
</event>
<event>
 7    1  0.1345786E-013  0.7246158E+02  0.7816164E-02  0.1226708E+00
        -11   -1    0    0    0    0  0.00000000000E+00  0.00000000000E+00  0.45593999997E+02  0.45594000000E+02  0.51100000000E-03 0. -1.
         11   -1    0    0    0    0 -0.00000000000E+00 -0.00000000000E+00 -0.45593999997E+02  0.45594000000E+02  0.51100000000E-03 0.  1.
    9900012    2    1    2    0    0  0.10767646393E+02  0.15315259379E+02 -0.42343445907E+00  0.72461583487E+02  0.70000017185E+02 0.  0.
         12    1    1    2    0    0 -0.10767646393E+02 -0.15315259379E+02  0.42343445907E+00  0.18726416513E+02  0.00000000000E+00 0. -1.
         11    1    3    3    0    0  0.19262050488E+02  0.31519487023E+01  0.10819824660E+02  0.22316585213E+02  0.51100000000E-03 0. -1.
        -11    1    3    3    0    0 -0.21278677771E+02  0.21213507072E+02 -0.15643825126E+02  0.33875127672E+02  0.51100000000E-03 0.  1.
        -12    1    3    3    0    0  0.12784273676E+02 -0.90501963952E+01  0.44005660068E+01  0.16269870601E+02  0.00000000000E+00 0.  1.
</event>
<event>
 7    1  0.1345786E-013  0.7246164E+02  0.7816164E-02  0.1226708E+00
        -11   -1    0    0    0    0  0.00000000000E+00  0.00000000000E+00  0.45593999997E+02  0.45594000000E+02  0.51100000000E-03 0.  1.
         11   -1    0    0    0    0 -0.00000000000E+00 -0.00000000000E+00 -0.45593999997E+02  0.45594000000E+02  0.51100000000E-03 0. -1.
    9900012    2    1    2    0    0 -0.40992436051E+01  0.11175545912E+02  0.14456144020E+02  0.72461635577E+02  0.70000085043E+02 0.  0.
         12    1    1    2    0    0  0.40992436051E+01 -0.11175545912E+02 -0.14456144020E+02  0.18726364423E+02  0.00000000000E+00 0. -1.
         11    1    3    3    0    0 -0.21871417778E+01  0.79778725551E-01 -0.10665431979E+02  0.10887671623E+02  0.51100000000E-03 0. -1.
        -11    1    3    3    0    0  0.13851087878E+02 -0.21856428245E+01  0.35736264348E+02  0.38388934080E+02  0.51100000000E-03 0.  1.
        -12    1    3    3    0    0 -0.15763189705E+02  0.13281410011E+02 -0.10614688349E+02  0.23185029875E+02  0.00000000000E+00 0.  1.
</event>
<event>
 7    1  0.1345786E-013  0.7246158E+02  0.7816164E-02  0.1226708E+00
        -11   -1    0    0    0    0  0.00000000000E+00  0.00000000000E+00  0.45593999997E+02  0.45594000000E+02  0.51100000000E-03 0. -1.
         11   -1    0    0    0    0 -0.00000000000E+00 -0.00000000000E+00 -0.45593999997E+02  0.45594000000E+02  0.51100000000E-03 0.  1.
    9900012    2    1    2    0    0  0.94943441704E+01  0.39419713396E+01 -0.15652379707E+02  0.72461582837E+02  0.70000016340E+02 0.  0.
         12    1    1    2    0    0 -0.94943441704E+01 -0.39419713396E+01  0.15652379707E+02  0.18726417163E+02  0.00000000000E+00 0. -1.
         11    1    3    3    0    0 -0.16253542062E+02 -0.52899203883E+01  0.11307355735E+02  0.20494320707E+02  0.51100000000E-03 0. -1.
        -11    1    3    3    0    0  0.12061609072E+02 -0.70621352994E+01 -0.27316838791E+02  0.30684945009E+02  0.51100000000E-03 0.  1.
        -12    1    3    3    0    0  0.13686277160E+02  0.16294027027E+02  0.35710334955E+00  0.21282317122E+02  0.00000000000E+00 0.  1.
</event>
<event>
 7    1  0.1345786E-013  0.7246167E+02  0.7816164E-02  0.1226708E+00
        -11   -1    0    0    0    0  0.00000000000E+00  0.00000000000E+00  0.45593999997E+02  0.45594000000E+02  0.51100000000E-03 0. -1.
         11   -1    0    0    0    0 -0.00000000000E+00 -0.00000000000E+00 -0.45593999997E+02  0.45594000000E+02  0.51100000000E-03 0.  1.
    9900012    2    1    2    0    0 -0.16783769830E+02  0.57528768164E+01  0.59903904573E+01  0.72461673633E+02  0.70000134618E+02 0.  0.
         12    1    1    2    0    0  0.16783769830E+02 -0.57528768164E+01 -0.59903904573E+01  0.18726326367E+02  0.00000000000E+00 0. -1.
         11    1    3    3    0    0 -0.35757154993E+01 -0.13567266384E+02 -0.18249922638E+02  0.23019907364E+02  0.51100000000E-03 0. -1.
        -11    1    3    3    0    0  0.10572039021E+02  0.96339368994E+01  0.25606280146E+00  0.14305464608E+02  0.51100000000E-03 0.  1.
         12    1    3    3    0    0 -0.23780093351E+02  0.96862063008E+01  0.23984250294E+02  0.35136301662E+02  0.00000000000E+00 0. -1.
</event>
<event>
 7    1  0.1345786E-013  0.7246152E+02  0.7816164E-02  0.1226708E+00
        -11   -1    0    0    0    0  0.00000000000E+00  0.00000000000E+00  0.45593999997E+02  0.45594000000E+02  0.51100000000E-03 0. -1.
         11   -1    0    0    0    0 -0.00000000000E+00 -0.00000000000E+00 -0.45593999997E+02  0.45594000000E+02  0.51100000000E-03 0.  1.
    9900012    2    1    2    0    0  0.11632319469E+02 -0.50955569127E+00 -0.14666646782E+02  0.72461520591E+02  0.69999935252E+02 0.  0.
         12    1    1    2    0    0 -0.11632319469E+02  0.50955569127E+00  0.14666646782E+02  0.18726479409E+02  0.00000000000E+00 0. -1.
         11    1    3    3    0    0 -0.48721822414E+00 -0.13617373623E+02 -0.29570680123E+02  0.32559105780E+02  0.51100000000E-03 0. -1.
        -11    1    3    3    0    0 -0.99238095078E+01  0.91606654583E+01  0.10434263301E+02  0.17066740687E+02  0.51100000000E-03 0.  1.
         12    1    3    3    0    0  0.22043347201E+02  0.39471524729E+01  0.44697700411E+01  0.22835674124E+02  0.00000000000E+00 0. -1.
</event>
<event>
 7    1  0.1345786E-013  0.7246156E+02  0.7816164E-02  0.1226708E+00
        -11   -1    0    0    0    0  0.00000000000E+00  0.00000000000E+00  0.45593999997E+02  0.45594000000E+02  0.51100000000E-03 0. -1.
         11   -1    0    0    0    0 -0.00000000000E+00 -0.00000000000E+00 -0.45593999997E+02  0.45594000000E+02  0.51100000000E-03 0.  1.
    9900012    2    1    2    0    0 -0.10087500061E+02  0.96383602104E+01 -0.12490953903E+02  0.72461559484E+02  0.69999985917E+02 0.  0.
         12    1    1    2    0    0  0.10087500061E+02 -0.96383602104E+01  0.12490953903E+02  0.18726440516E+02  0.00000000000E+00 0. -1.
         11    1    3    3    0    0  0.14231494561E+02  0.12517166268E+02 -0.18759146127E+01  0.19045575463E+02  0.51100000000E-03 0. -1.
        -11    1    3    3    0    0 -0.36366010714E+02  0.65273773814E+01 -0.58585814915E+01  0.37408773945E+02  0.51100000000E-03 0.  1.
        -12    1    3    3    0    0  0.12047016092E+02 -0.94061834393E+01 -0.47564577984E+01  0.16007210076E+02  0.00000000000E+00 0.  1.
</event>
<event>
 7    1  0.1345786E-013  0.7246156E+02  0.7816164E-02  0.1226708E+00
        -11   -1    0    0    0    0  0.00000000000E+00  0.00000000000E+00  0.45593999997E+02  0.45594000000E+02  0.51100000000E-03 0.  1.
         11   -1    0    0    0    0 -0.00000000000E+00 -0.00000000000E+00 -0.45593999997E+02  0.45594000000E+02  0.51100000000E-03 0. -1.
    9900012    2    1    2    0    0  0.10506872959E+02  0.15497382471E+02 -0.34127787203E+00  0.72461555772E+02  0.69999981082E+02 0.  0.
         12    1    1    2    0    0 -0.10506872959E+02 -0.15497382471E+02  0.34127787203E+00  0.18726444228E+02  0.00000000000E+00 0. -1.
         11    1    3    3    0    0  0.16032924633E+02  0.10215655516E+02 -0.14105224177E+01  0.19063154609E+02  0.51100000000E-03 0. -1.
        -11    1    3    3    0    0 -0.24179001130E+02 -0.12536309005E+02  0.36275503890E+01  0.27476212643E+02  0.51100000000E-03 0.  1.
        -12    1    3    3    0    0  0.18652949456E+02  0.17818035960E+02 -0.25583058433E+01  0.25922188520E+02  0.00000000000E+00 0.  1.
</event>
<event>
 7    1  0.1345786E-013  0.7246158E+02  0.7816164E-02  0.1226708E+00
        -11   -1    0    0    0    0  0.00000000000E+00  0.00000000000E+00  0.45593999997E+02  0.45594000000E+02  0.51100000000E-03 0. -1.
         11   -1    0    0    0    0 -0.00000000000E+00 -0.00000000000E+00 -0.45593999997E+02  0.45594000000E+02  0.51100000000E-03 0.  1.
    9900012    2    1    2    0    0  0.83654912504E+01  0.13255636529E+02  0.10246245874E+02  0.72461577539E+02  0.70000009438E+02 0.  0.
         12    1    1    2    0    0 -0.83654912504E+01 -0.13255636529E+02 -0.10246245874E+02  0.18726422461E+02  0.00000000000E+00 0. -1.
         11    1    3    3    0    0  0.12969630012E+02  0.12912876354E+02 -0.12643739403E+01  0.18345362359E+02  0.51100000000E-03 0. -1.
        -11    1    3    3    0    0  0.69247411500E+01 -0.17566823260E+02 -0.12015073613E+02  0.22380958729E+02  0.51100000000E-03 0.  1.
        -12    1    3    3    0    0 -0.11528879911E+02  0.17909583435E+02  0.23525693427E+02  0.31735256451E+02  0.00000000000E+00 0.  1.
</event>
<event>
 7    1  0.1345786E-013  0.7246139E+02  0.7816164E-02  0.1226708E+00
        -11   -1    0    0    0    0  0.00000000000E+00  0.00000000000E+00  0.45593999997E+02  0.45594000000E+02  0.51100000000E-03 0. -1.
         11   -1    0    0    0    0 -0.00000000000E+00 -0.00000000000E+00 -0.45593999997E+02  0.45594000000E+02  0.51100000000E-03 0.  1.
    9900012    2    1    2    0    0  0.77848651723E+01 -0.13491783828E+02 -0.10394874412E+02  0.72461394043E+02  0.69999770400E+02 0.  0.
         12    1    1    2    0    0 -0.77848651723E+01  0.13491783828E+02  0.10394874412E+02  0.18726605957E+02  0.00000000000E+00 0. -1.
         11    1    3    3    0    0 -0.24666184320E+02  0.13488819559E+02 -0.75972049199E+01  0.29121923440E+02  0.51100000000E-03 0. -1.
        -11    1    3    3    0    0  0.38026944300E+01 -0.32372737162E+01  0.27792963415E+01  0.57153227780E+01  0.51100000000E-03 0.  1.
         12    1    3    3    0    0  0.28648355062E+02 -0.23743329671E+02 -0.55769658335E+01  0.37624147825E+02  0.00000000000E+00 0. -1.
</event>
<event>
 7    1  0.1345786E-013  0.7246157E+02  0.7816164E-02  0.1226708E+00
        -11   -1    0    0    0    0  0.00000000000E+00  0.00000000000E+00  0.45593999997E+02  0.45594000000E+02  0.51100000000E-03 0. -1.
         11   -1    0    0    0    0 -0.00000000000E+00 -0.00000000000E+00 -0.45593999997E+02  0.45594000000E+02  0.51100000000E-03 0.  1.
    9900012    2    1    2    0    0  0.81684614484E+01  0.44460682781E+01 -0.16253858930E+02  0.72461569061E+02  0.69999998394E+02 0.  0.
         12    1    1    2    0    0 -0.81684614484E+01 -0.44460682781E+01  0.16253858930E+02  0.18726430939E+02  0.00000000000E+00 0. -1.
         11    1    3    3    0    0  0.37979425609E+02 -0.50615737385E+01 -0.11445109594E+02  0.39988083627E+02  0.51100000000E-03 0.  1.
        -11    1    3    3    0    0 -0.16091553900E+02  0.71807802297E+01  0.37211813036E+00  0.17624987484E+02  0.51100000000E-03 0. -1.
        -12    1    3    3    0    0 -0.13719410261E+02  0.23268617869E+01 -0.51808674672E+01  0.14848497951E+02  0.00000000000E+00 0.  1.
</event>
<event>
 7    1  0.1345786E-013  0.7246190E+02  0.7816164E-02  0.1226707E+00
        -11   -1    0    0    0    0  0.00000000000E+00  0.00000000000E+00  0.45593999997E+02  0.45594000000E+02  0.51100000000E-03 0. -1.
         11   -1    0    0    0    0 -0.00000000000E+00 -0.00000000000E+00 -0.45593999997E+02  0.45594000000E+02  0.51100000000E-03 0.  1.
    9900012    2    1    2    0    0 -0.54745811957E+01 -0.17392066663E+02 -0.42675163750E+01  0.72461902754E+02  0.70000433088E+02 0.  0.
         12    1    1    2    0    0  0.54745811957E+01  0.17392066663E+02  0.42675163750E+01  0.18726097246E+02  0.00000000000E+00 0. -1.
         11    1    3    3    0    0  0.17065479618E+01  0.14498560450E+02  0.21626977908E+02  0.26093039968E+02  0.51100000000E-03 0. -1.
        -11    1    3    3    0    0  0.35246105362E-01 -0.30745104857E+02 -0.23438568378E+02  0.38660434592E+02  0.51100000000E-03 0.  1.
        -12    1    3    3    0    0 -0.72163752629E+01 -0.11455222559E+01 -0.24559259047E+01  0.77084281940E+01  0.00000000000E+00 0.  1.
</event>
<event>
 7    1  0.1345786E-013  0.7246158E+02  0.7816164E-02  0.1226708E+00
        -11   -1    0    0    0    0  0.00000000000E+00  0.00000000000E+00  0.45593999997E+02  0.45594000000E+02  0.51100000000E-03 0. -1.
         11   -1    0    0    0    0 -0.00000000000E+00 -0.00000000000E+00 -0.45593999997E+02  0.45594000000E+02  0.51100000000E-03 0.  1.
    9900012    2    1    2    0    0 -0.12683209319E+02 -0.78053906385E-01 -0.13777111228E+02  0.72461583236E+02  0.70000016858E+02 0.  0.
         12    1    1    2    0    0  0.12683209319E+02  0.78053906385E-01  0.13777111228E+02  0.18726416764E+02  0.00000000000E+00 0. -1.
         11    1    3    3    0    0  0.20602168964E+01 -0.16721432604E+02  0.21597697918E+01  0.16985741309E+02  0.51100000000E-03 0. -1.
        -11    1    3    3    0    0  0.92692285280E+00  0.31361436652E+02 -0.12155020904E+02  0.33647339097E+02  0.51100000000E-03 0.  1.
        -12    1    3    3    0    0 -0.15670349068E+02 -0.14718057954E+02 -0.37818601156E+01  0.21828502830E+02  0.00000000000E+00 0.  1.
</event>
<event>
 7    1  0.1345786E-013  0.7246161E+02  0.7816164E-02  0.1226708E+00
        -11   -1    0    0    0    0  0.00000000000E+00  0.00000000000E+00  0.45593999997E+02  0.45594000000E+02  0.51100000000E-03 0.  1.
         11   -1    0    0    0    0 -0.00000000000E+00 -0.00000000000E+00 -0.45593999997E+02  0.45594000000E+02  0.51100000000E-03 0. -1.
    9900012    2    1    2    0    0  0.15102009504E+02 -0.83976824546E+01  0.72170521418E+01  0.72461612113E+02  0.70000054477E+02 0.  0.
         12    1    1    2    0    0 -0.15102009504E+02  0.83976824546E+01 -0.72170521418E+01  0.18726387887E+02  0.00000000000E+00 0. -1.
         11    1    3    3    0    0 -0.89879086472E+01  0.18752313867E+02 -0.52253034452E+01  0.21441445231E+02  0.51100000000E-03 0. -1.
        -11    1    3    3    0    0  0.73266327406E+01 -0.31013663299E+02  0.11178282937E+02  0.33771006325E+02  0.51100000000E-03 0.  1.
         12    1    3    3    0    0  0.16763285411E+02  0.38636669772E+01  0.12640726499E+01  0.17249160557E+02  0.00000000000E+00 0. -1.
</event>
<event>
 7    1  0.1345786E-013  0.7246154E+02  0.7816164E-02  0.1226708E+00
        -11   -1    0    0    0    0  0.00000000000E+00  0.00000000000E+00  0.45593999997E+02  0.45594000000E+02  0.51100000000E-03 0.  1.
         11   -1    0    0    0    0 -0.00000000000E+00 -0.00000000000E+00 -0.45593999997E+02  0.45594000000E+02  0.51100000000E-03 0. -1.
    9900012    2    1    2    0    0  0.16180373004E+02 -0.51873216710E+01  0.78719399502E+01  0.72461542374E+02  0.69999963628E+02 0.  0.
         12    1    1    2    0    0 -0.16180373004E+02  0.51873216710E+01 -0.78719399502E+01  0.18726457626E+02  0.00000000000E+00 0. -1.
         11    1    3    3    0    0  0.24342449953E+02  0.68356804897E+01 -0.15011662551E+02  0.29404615459E+02  0.51100000000E-03 0. -1.
        -11    1    3    3    0    0 -0.17735144049E+02 -0.13873207438E+02  0.55838468008E+01  0.23198719026E+02  0.51100000000E-03 0.  1.
        -12    1    3    3    0    0  0.95730671003E+01  0.18502052774E+01  0.17299755701E+02  0.19858207889E+02  0.00000000000E+00 0.  1.
</event>
<event>
 7    1  0.1345786E-013  0.7246177E+02  0.7816164E-02  0.1226707E+00
        -11   -1    0    0    0    0  0.00000000000E+00  0.00000000000E+00  0.45593999997E+02  0.45594000000E+02  0.51100000000E-03 0.  1.
         11   -1    0    0    0    0 -0.00000000000E+00 -0.00000000000E+00 -0.45593999997E+02  0.45594000000E+02  0.51100000000E-03 0. -1.
    9900012    2    1    2    0    0 -0.10441360397E+02 -0.74165043235E+01  0.13661817141E+02  0.72461767305E+02  0.70000256643E+02 0.  0.
         12    1    1    2    0    0  0.10441360397E+02  0.74165043235E+01 -0.13661817141E+02  0.18726232695E+02  0.00000000000E+00 0. -1.
         11    1    3    3    0    0  0.12989217303E+02 -0.14533690368E+02  0.29603980186E+02  0.35444937086E+02  0.51100000000E-03 0. -1.
        -11    1    3    3    0    0 -0.85628968069E+01  0.59221060167E+01 -0.19115949452E+02  0.21767270502E+02  0.51100000000E-03 0.  1.
        -12    1    3    3    0    0 -0.14867680893E+02  0.11950800281E+01  0.31737864072E+01  0.15249559717E+02  0.00000000000E+00 0.  1.
</event>
<event>
 7    1  0.1345786E-013  0.7246155E+02  0.7816164E-02  0.1226708E+00
        -11   -1    0    0    0    0  0.00000000000E+00  0.00000000000E+00  0.45593999997E+02  0.45594000000E+02  0.51100000000E-03 0. -1.
         11   -1    0    0    0    0 -0.00000000000E+00 -0.00000000000E+00 -0.45593999997E+02  0.45594000000E+02  0.51100000000E-03 0.  1.
    9900012    2    1    2    0    0  0.15437193375E+02 -0.33477579999E+01 -0.10058109080E+02  0.72461548622E+02  0.69999971768E+02 0.  0.
         12    1    1    2    0    0 -0.15437193375E+02  0.33477579999E+01  0.10058109080E+02  0.18726451378E+02  0.00000000000E+00 0. -1.
         11    1    3    3    0    0  0.11578827279E+02 -0.31164549396E+01  0.18693457717E+01  0.12135731804E+02  0.51100000000E-03 0. -1.
        -11    1    3    3    0    0  0.11895688255E+02  0.14508896645E+02 -0.30173375513E+02  0.35530945259E+02  0.51100000000E-03 0.  1.
        -12    1    3    3    0    0 -0.80373221592E+01 -0.14740199705E+02  0.18245920661E+02  0.24794871559E+02  0.00000000000E+00 0.  1.
</event>
<event>
 7    1  0.1345786E-013  0.7246153E+02  0.7816164E-02  0.1226708E+00
        -11   -1    0    0    0    0  0.00000000000E+00  0.00000000000E+00  0.45593999997E+02  0.45594000000E+02  0.51100000000E-03 0.  1.
         11   -1    0    0    0    0 -0.00000000000E+00 -0.00000000000E+00 -0.45593999997E+02  0.45594000000E+02  0.51100000000E-03 0. -1.
    9900012    2    1    2    0    0 -0.81660884739E+01  0.29399933207E+01  0.16593733406E+02  0.72461533435E+02  0.69999951983E+02 0.  0.
         12    1    1    2    0    0  0.81660884739E+01 -0.29399933207E+01 -0.16593733406E+02  0.18726466565E+02  0.00000000000E+00 0. -1.
         11    1    3    3    0    0  0.12058922604E+02  0.19897999938E+02  0.62665803646E+01  0.24096017215E+02  0.51100000000E-03 0. -1.
        -11    1    3    3    0    0 -0.64567587093E+01 -0.18013437576E+02 -0.11655301911E+02  0.22405796777E+02  0.51100000000E-03 0.  1.
         12    1    3    3    0    0 -0.13768252368E+02  0.10554309578E+01  0.21982454952E+02  0.25959719442E+02  0.00000000000E+00 0. -1.
</event>
<event>
 7    1  0.1345786E-013  0.7246160E+02  0.7816164E-02  0.1226708E+00
        -11   -1    0    0    0    0  0.00000000000E+00  0.00000000000E+00  0.45593999997E+02  0.45594000000E+02  0.51100000000E-03 0. -1.
         11   -1    0    0    0    0 -0.00000000000E+00 -0.00000000000E+00 -0.45593999997E+02  0.45594000000E+02  0.51100000000E-03 0.  1.
    9900012    2    1    2    0    0 -0.85013725590E+00 -0.18148566427E+02 -0.45370506911E+01  0.72461600835E+02  0.70000039785E+02 0.  0.
         12    1    1    2    0    0  0.85013725590E+00  0.18148566427E+02  0.45370506911E+01  0.18726399165E+02  0.00000000000E+00 0. -1.
         11    1    3    3    0    0  0.89362525038E+01  0.91047593281E+01  0.14916294148E+02  0.19627763057E+02  0.51100000000E-03 0. -1.
        -11    1    3    3    0    0 -0.82248841864E+01 -0.33419120826E+02 -0.22471277726E+01  0.34489649754E+02  0.51100000000E-03 0.  1.
        -12    1    3    3    0    0 -0.15615055734E+01  0.61657950707E+01 -0.17206217067E+02  0.18344188024E+02  0.00000000000E+00 0.  1.
</event>
<event>
 7    1  0.1345786E-013  0.7246157E+02  0.7816164E-02  0.1226708E+00
        -11   -1    0    0    0    0  0.00000000000E+00  0.00000000000E+00  0.45593999997E+02  0.45594000000E+02  0.51100000000E-03 0. -1.
         11   -1    0    0    0    0 -0.00000000000E+00 -0.00000000000E+00 -0.45593999997E+02  0.45594000000E+02  0.51100000000E-03 0.  1.
    9900012    2    1    2    0    0 -0.15360169224E+02 -0.94284647772E+00 -0.10670305843E+02  0.72461569885E+02  0.69999999467E+02 0.  0.
         12    1    1    2    0    0  0.15360169224E+02  0.94284647772E+00  0.10670305843E+02  0.18726430115E+02  0.00000000000E+00 0. -1.
         11    1    3    3    0    0 -0.17014640117E+02 -0.17755695491E+02  0.21736042778E+02  0.32821003284E+02  0.51100000000E-03 0. -1.
        -11    1    3    3    0    0  0.85072146083E+01  0.94907116259E+01 -0.16751817034E+02  0.21049220455E+02  0.51100000000E-03 0.  1.
         12    1    3    3    0    0 -0.68527437152E+01  0.73221373874E+01 -0.15654531586E+02  0.18591346146E+02  0.00000000000E+00 0. -1.
</event>
<event>
 7    1  0.1345786E-013  0.7246166E+02  0.7816164E-02  0.1226708E+00
        -11   -1    0    0    0    0  0.00000000000E+00  0.00000000000E+00  0.45593999997E+02  0.45594000000E+02  0.51100000000E-03 0. -1.
         11   -1    0    0    0    0 -0.00000000000E+00 -0.00000000000E+00 -0.45593999997E+02  0.45594000000E+02  0.51100000000E-03 0.  1.
    9900012    2    1    2    0    0 -0.23321771367E+01  0.17397137113E+02 -0.65250674428E+01  0.72461656655E+02  0.70000112501E+02 0.  0.
         12    1    1    2    0    0  0.23321771367E+01 -0.17397137113E+02  0.65250674428E+01  0.18726343345E+02  0.00000000000E+00 0. -1.
         11    1    3    3    0    0 -0.14298715582E+02  0.68823604111E+01 -0.99662747759E+00  0.15900107506E+02  0.51100000000E-03 0. -1.
        -11    1    3    3    0    0  0.66320664432E+01  0.20338583049E+01  0.24208158191E+02  0.25182450400E+02  0.51100000000E-03 0.  1.
        -12    1    3    3    0    0  0.53344720019E+01  0.84809183970E+01 -0.29736598156E+02  0.31379098749E+02  0.00000000000E+00 0.  1.
</event>
<event>
 7    1  0.1345786E-013  0.7246160E+02  0.7816164E-02  0.1226708E+00
        -11   -1    0    0    0    0  0.00000000000E+00  0.00000000000E+00  0.45593999997E+02  0.45594000000E+02  0.51100000000E-03 0. -1.
         11   -1    0    0    0    0 -0.00000000000E+00 -0.00000000000E+00 -0.45593999997E+02  0.45594000000E+02  0.51100000000E-03 0.  1.
    9900012    2    1    2    0    0  0.17672231995E+02  0.27109488281E+01  0.55696484564E+01  0.72461601223E+02  0.70000040290E+02 0.  0.
         12    1    1    2    0    0 -0.17672231995E+02 -0.27109488281E+01 -0.55696484564E+01  0.18726398777E+02  0.00000000000E+00 0. -1.
         11    1    3    3    0    0  0.14871430277E+02  0.95833959505E+01 -0.97347688777E+01  0.20193232574E+02  0.51100000000E-03 0. -1.
        -11    1    3    3    0    0 -0.17321312633E+02 -0.19607233317E+02  0.82358677333E+01  0.27428105791E+02  0.51100000000E-03 0.  1.
        -12    1    3    3    0    0  0.20122114351E+02  0.12734786195E+02  0.70685496008E+01  0.24840262858E+02  0.00000000000E+00 0.  1.
</event>
<event>
 7    1  0.1345786E-013  0.7246157E+02  0.7816164E-02  0.1226708E+00
        -11   -1    0    0    0    0  0.00000000000E+00  0.00000000000E+00  0.45593999997E+02  0.45594000000E+02  0.51100000000E-03 0.  1.
         11   -1    0    0    0    0 -0.00000000000E+00 -0.00000000000E+00 -0.45593999997E+02  0.45594000000E+02  0.51100000000E-03 0. -1.
    9900012    2    1    2    0    0 -0.46344352363E+00 -0.14060651653E+02  0.12359712512E+02  0.72461569529E+02  0.69999999003E+02 0.  0.
         12    1    1    2    0    0  0.46344352363E+00  0.14060651653E+02 -0.12359712512E+02  0.18726430471E+02  0.00000000000E+00 0. -1.
         11    1    3    3    0    0 -0.14567002989E+02 -0.18945949100E+02  0.19062315111E+02  0.30569894031E+02  0.51100000000E-03 0. -1.
        -11    1    3    3    0    0  0.14638359492E+02 -0.14442062563E+02 -0.89500649711E+01  0.22426734112E+02  0.51100000000E-03 0.  1.
         12    1    3    3    0    0 -0.53480002626E+00  0.19327360011E+02  0.22474623718E+01  0.19464941386E+02  0.00000000000E+00 0. -1.
</event>
<event>
 7    1  0.1345786E-013  0.7246158E+02  0.7816164E-02  0.1226708E+00
        -11   -1    0    0    0    0  0.00000000000E+00  0.00000000000E+00  0.45593999997E+02  0.45594000000E+02  0.51100000000E-03 0. -1.
         11   -1    0    0    0    0 -0.00000000000E+00 -0.00000000000E+00 -0.45593999997E+02  0.45594000000E+02  0.51100000000E-03 0.  1.
    9900012    2    1    2    0    0 -0.10052789260E+02 -0.13847499136E+02 -0.76070415081E+01  0.72461577898E+02  0.70000009905E+02 0.  0.
         12    1    1    2    0    0  0.10052789260E+02  0.13847499136E+02  0.76070415081E+01  0.18726422102E+02  0.00000000000E+00 0. -1.
         11    1    3    3    0    0  0.93775930197E+01  0.76106483607E+01  0.16075968986E+02  0.20107162863E+02  0.51100000000E-03 0. -1.
        -11    1    3    3    0    0 -0.29402743425E+02 -0.94860131170E+01 -0.18078108259E+02  0.35795583027E+02  0.51100000000E-03 0.  1.
         12    1    3    3    0    0  0.99723611445E+01 -0.11972134380E+02 -0.56049022349E+01  0.16558832008E+02  0.00000000000E+00 0. -1.
</event>
<event>
 7    1  0.1345786E-013  0.7246155E+02  0.7816164E-02  0.1226708E+00
        -11   -1    0    0    0    0  0.00000000000E+00  0.00000000000E+00  0.45593999997E+02  0.45594000000E+02  0.51100000000E-03 0. -1.
         11   -1    0    0    0    0 -0.00000000000E+00 -0.00000000000E+00 -0.45593999997E+02  0.45594000000E+02  0.51100000000E-03 0.  1.
    9900012    2    1    2    0    0 -0.50190678411E+01  0.16503476978E+02 -0.72886225697E+01  0.72461553105E+02  0.69999977608E+02 0.  0.
         12    1    1    2    0    0  0.50190678411E+01 -0.16503476978E+02  0.72886225697E+01  0.18726446895E+02  0.00000000000E+00 0. -1.
         11    1    3    3    0    0 -0.11244348260E+02 -0.44841342416E+01  0.25162909214E+02  0.27923374224E+02  0.51100000000E-03 0. -1.
        -11    1    3    3    0    0 -0.41964594501E+00  0.17303827239E+02 -0.82546183624E+01  0.19176476850E+02  0.51100000000E-03 0.  1.
         12    1    3    3    0    0  0.66449263636E+01  0.36837839804E+01 -0.24196913421E+02  0.25361702031E+02  0.00000000000E+00 0. -1.
</event>
<event>
 7    1  0.1345786E-013  0.7246157E+02  0.7816164E-02  0.1226708E+00
        -11   -1    0    0    0    0  0.00000000000E+00  0.00000000000E+00  0.45593999997E+02  0.45594000000E+02  0.51100000000E-03 0. -1.
         11   -1    0    0    0    0 -0.00000000000E+00 -0.00000000000E+00 -0.45593999997E+02  0.45594000000E+02  0.51100000000E-03 0.  1.
    9900012    2    1    2    0    0  0.50123496743E+01 -0.17972880797E+02 -0.15909158255E+01  0.72461571975E+02  0.70000002190E+02 0.  0.
         12    1    1    2    0    0 -0.50123496743E+01  0.17972880797E+02  0.15909158255E+01  0.18726428025E+02  0.00000000000E+00 0. -1.
         11    1    3    3    0    0 -0.19973234208E+02 -0.12316463373E+02  0.23617530185E+02  0.33292838374E+02  0.51100000000E-03 0. -1.
        -11    1    3    3    0    0  0.56305781621E+01 -0.86058707851E+01 -0.70746349052E+01  0.12482583135E+02  0.51100000000E-03 0.  1.
         12    1    3    3    0    0  0.19355005720E+02  0.29494533605E+01 -0.18133811105E+02  0.26686150467E+02  0.00000000000E+00 0. -1.
</event>
<event>
 7    1  0.1345786E-013  0.7246161E+02  0.7816164E-02  0.1226708E+00
        -11   -1    0    0    0    0  0.00000000000E+00  0.00000000000E+00  0.45593999997E+02  0.45594000000E+02  0.51100000000E-03 0. -1.
         11   -1    0    0    0    0 -0.00000000000E+00 -0.00000000000E+00 -0.45593999997E+02  0.45594000000E+02  0.51100000000E-03 0.  1.
    9900012    2    1    2    0    0 -0.73967293827E+01 -0.16164892023E+02 -0.58874772431E+01  0.72461608785E+02  0.70000050141E+02 0.  0.
         12    1    1    2    0    0  0.73967293827E+01  0.16164892023E+02  0.58874772431E+01  0.18726391215E+02  0.00000000000E+00 0. -1.
         11    1    3    3    0    0  0.20627065088E+02 -0.12957065274E+02 -0.12377717881E+02  0.27323419531E+02  0.51100000000E-03 0. -1.
        -11    1    3    3    0    0 -0.28112593358E+02 -0.15640867472E+02  0.57694223332E+01  0.32683954395E+02  0.51100000000E-03 0.  1.
        -12    1    3    3    0    0  0.88798887204E-01  0.12433040724E+02  0.72081830442E+00  0.12454234859E+02  0.00000000000E+00 0.  1.
</event>
<event>
 7    1  0.1345786E-013  0.7246160E+02  0.7816164E-02  0.1226708E+00
        -11   -1    0    0    0    0  0.00000000000E+00  0.00000000000E+00  0.45593999997E+02  0.45594000000E+02  0.51100000000E-03 0. -1.
         11   -1    0    0    0    0 -0.00000000000E+00 -0.00000000000E+00 -0.45593999997E+02  0.45594000000E+02  0.51100000000E-03 0.  1.
    9900012    2    1    2    0    0 -0.16678196188E+02 -0.84744254068E+01 -0.83663720481E+00  0.72461599495E+02  0.70000038039E+02 0.  0.
         12    1    1    2    0    0  0.16678196188E+02  0.84744254068E+01  0.83663720481E+00  0.18726400505E+02  0.00000000000E+00 0. -1.
         11    1    3    3    0    0  0.11310345616E+02  0.13953105900E+02 -0.33836333602E+01  0.18277364612E+02  0.51100000000E-03 0. -1.
        -11    1    3    3    0    0 -0.15011481498E+02 -0.11149731800E+02  0.21567460022E+02  0.28544989543E+02  0.51100000000E-03 0.  1.
        -12    1    3    3    0    0 -0.12977060306E+02 -0.11277799507E+02 -0.19020463866E+02  0.25639245339E+02  0.00000000000E+00 0.  1.
</event>
<event>
 7    1  0.1345786E-013  0.7246161E+02  0.7816164E-02  0.1226708E+00
        -11   -1    0    0    0    0  0.00000000000E+00  0.00000000000E+00  0.45593999997E+02  0.45594000000E+02  0.51100000000E-03 0.  1.
         11   -1    0    0    0    0 -0.00000000000E+00 -0.00000000000E+00 -0.45593999997E+02  0.45594000000E+02  0.51100000000E-03 0. -1.
    9900012    2    1    2    0    0 -0.41228622222E+00  0.16797465576E+02  0.82675789823E+01  0.72461609746E+02  0.70000051393E+02 0.  0.
         12    1    1    2    0    0  0.41228622222E+00 -0.16797465576E+02 -0.82675789823E+01  0.18726390254E+02  0.00000000000E+00 0. -1.
         11    1    3    3    0    0  0.63800659875E+01  0.10552225078E+02 -0.17438907766E+02  0.21358141315E+02  0.51100000000E-03 0. -1.
        -11    1    3    3    0    0  0.67356465970E+01 -0.16219498853E+02  0.13639395449E+02  0.22236775544E+02  0.51100000000E-03 0.  1.
        -12    1    3    3    0    0 -0.13527998807E+02  0.22464739351E+02  0.12067091298E+02  0.28866692887E+02  0.00000000000E+00 0.  1.
</event>
<event>
 7    1  0.1345786E-013  0.7246159E+02  0.7816164E-02  0.1226708E+00
        -11   -1    0    0    0    0  0.00000000000E+00  0.00000000000E+00  0.45593999997E+02  0.45594000000E+02  0.51100000000E-03 0. -1.
         11   -1    0    0    0    0 -0.00000000000E+00 -0.00000000000E+00 -0.45593999997E+02  0.45594000000E+02  0.51100000000E-03 0.  1.
    9900012    2    1    2    0    0 -0.11932600964E+02 -0.14045589462E+02 -0.33185434107E+01  0.72461594059E+02  0.70000030958E+02 0.  0.
         12    1    1    2    0    0  0.11932600964E+02  0.14045589462E+02  0.33185434107E+01  0.18726405941E+02  0.00000000000E+00 0. -1.
         11    1    3    3    0    0 -0.30691688646E+02 -0.18359792310E+02 -0.11366930711E+02  0.37526908208E+02  0.51100000000E-03 0. -1.
        -11    1    3    3    0    0  0.30581881974E+01  0.11550512771E+02 -0.53213416106E+01  0.13079890563E+02  0.51100000000E-03 0.  1.
         12    1    3    3    0    0  0.15700899485E+02 -0.72363099232E+01  0.13369728911E+02  0.21854795288E+02  0.00000000000E+00 0. -1.
</event>
<event>
 7    1  0.1345786E-013  0.7246150E+02  0.7816164E-02  0.1226708E+00
        -11   -1    0    0    0    0  0.00000000000E+00  0.00000000000E+00  0.45593999997E+02  0.45594000000E+02  0.51100000000E-03 0.  1.
         11   -1    0    0    0    0 -0.00000000000E+00 -0.00000000000E+00 -0.45593999997E+02  0.45594000000E+02  0.51100000000E-03 0. -1.
    9900012    2    1    2    0    0  0.49949666265E+01  0.77265863933E+01  0.16310482345E+02  0.72461503712E+02  0.69999913264E+02 0.  0.
         12    1    1    2    0    0 -0.49949666265E+01 -0.77265863933E+01 -0.16310482345E+02  0.18726496288E+02  0.00000000000E+00 0. -1.
         11    1    3    3    0    0 -0.19433725214E+02  0.95119888791E+01 -0.14090947710E+02  0.25820581243E+02  0.51100000000E-03 0. -1.
        -11    1    3    3    0    0  0.73975901337E+01  0.52627374023E+01  0.26210941128E+02  0.27738676606E+02  0.51100000000E-03 0.  1.
         12    1    3    3    0    0  0.17031101707E+02 -0.70481398881E+01  0.41904889269E+01  0.18902245863E+02  0.00000000000E+00 0. -1.
</event>
<event>
 7    1  0.1345786E-013  0.7246161E+02  0.7816164E-02  0.1226708E+00
        -11   -1    0    0    0    0  0.00000000000E+00  0.00000000000E+00  0.45593999997E+02  0.45594000000E+02  0.51100000000E-03 0.  1.
         11   -1    0    0    0    0 -0.00000000000E+00 -0.00000000000E+00 -0.45593999997E+02  0.45594000000E+02  0.51100000000E-03 0. -1.
    9900012    2    1    2    0    0  0.15498573565E+02 -0.66880834584E+01  0.81080989818E+01  0.72461614551E+02  0.70000057653E+02 0.  0.
         12    1    1    2    0    0 -0.15498573565E+02  0.66880834584E+01 -0.81080989818E+01  0.18726385449E+02  0.00000000000E+00 0. -1.
         11    1    3    3    0    0  0.10998671576E+02 -0.58462811824E+01 -0.92601689643E+01  0.15520969996E+02  0.51100000000E-03 0. -1.
        -11    1    3    3    0    0  0.12472724745E+02  0.53931983463E+01  0.34479205166E+02  0.37060370210E+02  0.51100000000E-03 0.  1.
        -12    1    3    3    0    0 -0.79728227571E+01 -0.62350006222E+01 -0.17110937220E+02  0.19880274345E+02  0.00000000000E+00 0.  1.
</event>
<event>
 7    1  0.1345786E-013  0.7246165E+02  0.7816164E-02  0.1226708E+00
        -11   -1    0    0    0    0  0.00000000000E+00  0.00000000000E+00  0.45593999997E+02  0.45594000000E+02  0.51100000000E-03 0.  1.
         11   -1    0    0    0    0 -0.00000000000E+00 -0.00000000000E+00 -0.45593999997E+02  0.45594000000E+02  0.51100000000E-03 0. -1.
    9900012    2    1    2    0    0 -0.13159200457E+02  0.66707149806E+01  0.11533128802E+02  0.72461653454E+02  0.70000108331E+02 0.  0.
         12    1    1    2    0    0  0.13159200457E+02 -0.66707149806E+01 -0.11533128802E+02  0.18726346546E+02  0.00000000000E+00 0. -1.
         11    1    3    3    0    0  0.13156866527E+02 -0.13101531889E+02 -0.42854066776E+01  0.19055654942E+02  0.51100000000E-03 0. -1.
        -11    1    3    3    0    0 -0.31546754042E+02  0.14931517343E+01  0.65490081373E+01  0.32253940853E+02  0.51100000000E-03 0.  1.
         12    1    3    3    0    0  0.52306870585E+01  0.18279095135E+02  0.92695273422E+01  0.21152057659E+02  0.00000000000E+00 0. -1.
</event>
<event>
 7    1  0.1345786E-013  0.7246161E+02  0.7816164E-02  0.1226708E+00
        -11   -1    0    0    0    0  0.00000000000E+00  0.00000000000E+00  0.45593999997E+02  0.45594000000E+02  0.51100000000E-03 0. -1.
         11   -1    0    0    0    0 -0.00000000000E+00 -0.00000000000E+00 -0.45593999997E+02  0.45594000000E+02  0.51100000000E-03 0.  1.
    9900012    2    1    2    0    0  0.14410143223E+02 -0.10529176475E+02 -0.56711548192E+01  0.72461607343E+02  0.70000048263E+02 0.  0.
         12    1    1    2    0    0 -0.14410143223E+02  0.10529176475E+02  0.56711548192E+01  0.18726392657E+02  0.00000000000E+00 0. -1.
         11    1    3    3    0    0  0.18075900788E+01  0.10458135835E+02  0.17446503224E+02  0.20421078866E+02  0.51100000000E-03 0. -1.
        -11    1    3    3    0    0  0.20578880000E+02 -0.24329402677E+02 -0.27727807034E+02  0.42240281958E+02  0.51100000000E-03 0.  1.
        -12    1    3    3    0    0 -0.79763268553E+01  0.33420903666E+01  0.46101489907E+01  0.98002465192E+01  0.00000000000E+00 0.  1.
</event>
<event>
 7    1  0.1345786E-013  0.7246154E+02  0.7816164E-02  0.1226708E+00
        -11   -1    0    0    0    0  0.00000000000E+00  0.00000000000E+00  0.45593999997E+02  0.45594000000E+02  0.51100000000E-03 0.  1.
         11   -1    0    0    0    0 -0.00000000000E+00 -0.00000000000E+00 -0.45593999997E+02  0.45594000000E+02  0.51100000000E-03 0. -1.
    9900012    2    1    2    0    0 -0.34365565465E+01  0.63950737433E+01  0.17261910977E+02  0.72461535848E+02  0.69999955127E+02 0.  0.
         12    1    1    2    0    0  0.34365565465E+01 -0.63950737433E+01 -0.17261910977E+02  0.18726464152E+02  0.00000000000E+00 0. -1.
         11    1    3    3    0    0 -0.26899844144E+02 -0.48667829310E+01  0.33221820324E+00  0.27338572754E+02  0.51100000000E-03 0. -1.
        -11    1    3    3    0    0  0.18065758967E+02  0.11943416309E+02 -0.52514308493E+01  0.22284397376E+02  0.51100000000E-03 0.  1.
         12    1    3    3    0    0  0.53975286300E+01 -0.68155963484E+00  0.22181123623E+02  0.22838565717E+02  0.00000000000E+00 0. -1.
</event>
<event>
 7    1  0.1345786E-013  0.7246154E+02  0.7816164E-02  0.1226708E+00
        -11   -1    0    0    0    0  0.00000000000E+00  0.00000000000E+00  0.45593999997E+02  0.45594000000E+02  0.51100000000E-03 0.  1.
         11   -1    0    0    0    0 -0.00000000000E+00 -0.00000000000E+00 -0.45593999997E+02  0.45594000000E+02  0.51100000000E-03 0. -1.
    9900012    2    1    2    0    0 -0.15050674433E+02  0.86360438675E+01  0.70410457626E+01  0.72461537974E+02  0.69999957897E+02 0.  0.
         12    1    1    2    0    0  0.15050674433E+02 -0.86360438675E+01 -0.70410457626E+01  0.18726462026E+02  0.00000000000E+00 0. -1.
         11    1    3    3    0    0 -0.19620443801E+02  0.37526624903E+02  0.75848738043E+01  0.43020224342E+02  0.51100000000E-03 0. -1.
        -11    1    3    3    0    0  0.42038817500E+01 -0.16120984215E+02 -0.16762904994E+00  0.16660937956E+02  0.51100000000E-03 0.  1.
         12    1    3    3    0    0  0.36588761712E+00 -0.12769596821E+02 -0.37619899175E+00  0.12780375675E+02  0.00000000000E+00 0. -1.
</event>
<event>
 7    1  0.1345786E-013  0.7246156E+02  0.7816164E-02  0.1226708E+00
        -11   -1    0    0    0    0  0.00000000000E+00  0.00000000000E+00  0.45593999997E+02  0.45594000000E+02  0.51100000000E-03 0.  1.
         11   -1    0    0    0    0 -0.00000000000E+00 -0.00000000000E+00 -0.45593999997E+02  0.45594000000E+02  0.51100000000E-03 0. -1.
    9900012    2    1    2    0    0 -0.97345046393E+01 -0.15989904953E+02 -0.49182616300E+00  0.72461560564E+02  0.69999987325E+02 0.  0.
         12    1    1    2    0    0  0.97345046393E+01  0.15989904953E+02  0.49182616300E+00  0.18726439436E+02  0.00000000000E+00 0. -1.
         11    1    3    3    0    0 -0.49873677842E+01 -0.26698165677E+02  0.91986052216E+01  0.28675428963E+02  0.51100000000E-03 0. -1.
        -11    1    3    3    0    0  0.15542236313E+01  0.18006159721E+02  0.10860851570E+02  0.21085433268E+02  0.51100000000E-03 0.  1.
         12    1    3    3    0    0 -0.63013604863E+01 -0.72978989971E+01 -0.20551282955E+02  0.22700698333E+02  0.00000000000E+00 0. -1.
</event>
<event>
 7    1  0.1345786E-013  0.7246167E+02  0.7816164E-02  0.1226708E+00
        -11   -1    0    0    0    0  0.00000000000E+00  0.00000000000E+00  0.45593999997E+02  0.45594000000E+02  0.51100000000E-03 0.  1.
         11   -1    0    0    0    0 -0.00000000000E+00 -0.00000000000E+00 -0.45593999997E+02  0.45594000000E+02  0.51100000000E-03 0. -1.
    9900012    2    1    2    0    0 -0.72079925815E+01 -0.30383286655E+01  0.17014367482E+02  0.72461673640E+02  0.70000134626E+02 0.  0.
         12    1    1    2    0    0  0.72079925815E+01  0.30383286655E+01 -0.17014367482E+02  0.18726326360E+02  0.00000000000E+00 0. -1.
         11    1    3    3    0    0  0.54427389945E+01 -0.32271452616E+02  0.63622703000E+01  0.33339894201E+02  0.51100000000E-03 0. -1.
        -11    1    3    3    0    0 -0.19478217693E+01  0.26534240365E+02  0.74887520224E+01  0.27639488572E+02  0.51100000000E-03 0.  1.
         12    1    3    3    0    0 -0.10702909807E+02  0.26988835856E+01  0.31633451598E+01  0.11482290866E+02  0.00000000000E+00 0. -1.
</event>
<event>
 7    1  0.1345786E-013  0.7246161E+02  0.7816164E-02  0.1226708E+00
        -11   -1    0    0    0    0  0.00000000000E+00  0.00000000000E+00  0.45593999997E+02  0.45594000000E+02  0.51100000000E-03 0. -1.
         11   -1    0    0    0    0 -0.00000000000E+00 -0.00000000000E+00 -0.45593999997E+02  0.45594000000E+02  0.51100000000E-03 0.  1.
    9900012    2    1    2    0    0 -0.10410298020E+01 -0.14526347314E+01 -0.18640920651E+02  0.72461606503E+02  0.70000047168E+02 0.  0.
         12    1    1    2    0    0  0.10410298020E+01  0.14526347314E+01  0.18640920651E+02  0.18726393497E+02  0.00000000000E+00 0. -1.
         11    1    3    3    0    0  0.16617217448E+02  0.14001576766E+02  0.14558021809E+02  0.26155536066E+02  0.51100000000E-03 0.  1.
        -11    1    3    3    0    0 -0.21806276199E+01 -0.16493575599E+02 -0.19263579329E+02  0.25453460701E+02  0.51100000000E-03 0. -1.
        -12    1    3    3    0    0 -0.15477619631E+02  0.10393641018E+01 -0.13935363131E+02  0.20852609735E+02  0.00000000000E+00 0.  1.
</event>
<event>
 7    1  0.1345786E-013  0.7246157E+02  0.7816164E-02  0.1226708E+00
        -11   -1    0    0    0    0  0.00000000000E+00  0.00000000000E+00  0.45593999997E+02  0.45594000000E+02  0.51100000000E-03 0.  1.
         11   -1    0    0    0    0 -0.00000000000E+00 -0.00000000000E+00 -0.45593999997E+02  0.45594000000E+02  0.51100000000E-03 0. -1.
    9900012    2    1    2    0    0 -0.14411961440E+02 -0.11372507188E+02 -0.36933167772E+01  0.72461571054E+02  0.70000000989E+02 0.  0.
         12    1    1    2    0    0  0.14411961440E+02  0.11372507188E+02  0.36933167772E+01  0.18726428946E+02  0.00000000000E+00 0. -1.
         11    1    3    3    0    0 -0.33625804311E+02 -0.16046415989E+02 -0.66362379300E+01  0.37844706840E+02  0.51100000000E-03 0.  1.
        -11    1    3    3    0    0  0.14788398029E+02  0.16201167572E+02  0.53590324430E-01  0.21935756634E+02  0.51100000000E-03 0. -1.
         12    1    3    3    0    0  0.44254448426E+01 -0.11527258770E+02  0.28893308284E+01  0.12681107580E+02  0.00000000000E+00 0. -1.
</event>
<event>
 7    1  0.1345786E-013  0.7246172E+02  0.7816164E-02  0.1226708E+00
        -11   -1    0    0    0    0  0.00000000000E+00  0.00000000000E+00  0.45593999997E+02  0.45594000000E+02  0.51100000000E-03 0.  1.
         11   -1    0    0    0    0 -0.00000000000E+00 -0.00000000000E+00 -0.45593999997E+02  0.45594000000E+02  0.51100000000E-03 0. -1.
    9900012    2    1    2    0    0  0.66162008558E+01  0.13911721029E+02  0.10647224606E+02  0.72461722004E+02  0.70000197630E+02 0.  0.
         12    1    1    2    0    0 -0.66162008558E+01 -0.13911721029E+02 -0.10647224606E+02  0.18726277996E+02  0.00000000000E+00 0. -1.
         11    1    3    3    0    0 -0.45795612815E+01 -0.17088634978E+02 -0.11342241185E+02  0.21015238812E+02  0.51100000000E-03 0.  1.
        -11    1    3    3    0    0 -0.81025993998E+01  0.22851777026E+02  0.56909515473E+01  0.24904673458E+02  0.51100000000E-03 0. -1.
        -12    1    3    3    0    0  0.19298361537E+02  0.81485789816E+01  0.16298514244E+02  0.26541809735E+02  0.00000000000E+00 0.  1.
</event>
<event>
 7    1  0.1345786E-013  0.7246156E+02  0.7816164E-02  0.1226708E+00
        -11   -1    0    0    0    0  0.00000000000E+00  0.00000000000E+00  0.45593999997E+02  0.45594000000E+02  0.51100000000E-03 0. -1.
         11   -1    0    0    0    0 -0.00000000000E+00 -0.00000000000E+00 -0.45593999997E+02  0.45594000000E+02  0.51100000000E-03 0.  1.
    9900012    2    1    2    0    0 -0.17105911768E+02  0.45502003970E+01  0.61125196639E+01  0.72461563133E+02  0.69999990672E+02 0.  0.
         12    1    1    2    0    0  0.17105911768E+02 -0.45502003970E+01 -0.61125196639E+01  0.18726436867E+02  0.00000000000E+00 0. -1.
         11    1    3    3    0    0 -0.73975988238E+01 -0.30075099758E+02  0.16323320656E+02  0.35009811358E+02  0.51100000000E-03 0. -1.
        -11    1    3    3    0    0 -0.25467827479E+01  0.83657384752E+01 -0.34913241528E+01  0.94159984708E+01  0.51100000000E-03 0.  1.
         12    1    3    3    0    0 -0.71615301966E+01  0.26259561680E+02 -0.67194768394E+01  0.28035753305E+02  0.00000000000E+00 0. -1.
</event>
<event>
 7    1  0.1345786E-013  0.7246154E+02  0.7816164E-02  0.1226708E+00
        -11   -1    0    0    0    0  0.00000000000E+00  0.00000000000E+00  0.45593999997E+02  0.45594000000E+02  0.51100000000E-03 0.  1.
         11   -1    0    0    0    0 -0.00000000000E+00 -0.00000000000E+00 -0.45593999997E+02  0.45594000000E+02  0.51100000000E-03 0. -1.
    9900012    2    1    2    0    0  0.13622262825E+02 -0.10494878094E+02  0.74142945786E+01  0.72461540784E+02  0.69999961557E+02 0.  0.
         12    1    1    2    0    0 -0.13622262825E+02  0.10494878094E+02 -0.74142945786E+01  0.18726459216E+02  0.00000000000E+00 0. -1.
         11    1    3    3    0    0  0.31597145703E+02 -0.78820743672E+01  0.77094592029E+00  0.32574546364E+02  0.51100000000E-03 0. -1.
        -11    1    3    3    0    0 -0.26402280979E+02 -0.94817219171E+01  0.73241927119E+01  0.28993573263E+02  0.51100000000E-03 0.  1.
        -12    1    3    3    0    0  0.84273981014E+01  0.68689181909E+01 -0.68084405357E+00  0.10893421157E+02  0.00000000000E+00 0.  1.
</event>
<event>
 7    1  0.1345786E-013  0.7246159E+02  0.7816164E-02  0.1226708E+00
        -11   -1    0    0    0    0  0.00000000000E+00  0.00000000000E+00  0.45593999997E+02  0.45594000000E+02  0.51100000000E-03 0. -1.
         11   -1    0    0    0    0 -0.00000000000E+00 -0.00000000000E+00 -0.45593999997E+02  0.45594000000E+02  0.51100000000E-03 0.  1.
    9900012    2    1    2    0    0 -0.17342784106E+02  0.32703257167E+01  0.62618858801E+01  0.72461590691E+02  0.70000026570E+02 0.  0.
         12    1    1    2    0    0  0.17342784106E+02 -0.32703257167E+01 -0.62618858801E+01  0.18726409309E+02  0.00000000000E+00 0. -1.
         11    1    3    3    0    0  0.57052869132E+01 -0.14599349568E+02 -0.39488211205E+01  0.16164296924E+02  0.51100000000E-03 0. -1.
        -11    1    3    3    0    0 -0.25361821858E+02  0.19309831803E+02 -0.11895711389E+02  0.34023514838E+02  0.51100000000E-03 0.  1.
        -12    1    3    3    0    0  0.23137508382E+01 -0.14401565188E+01  0.22106418390E+02  0.22273778929E+02  0.00000000000E+00 0.  1.
</event>
<event>
 7    1  0.1345786E-013  0.7246148E+02  0.7816164E-02  0.1226708E+00
        -11   -1    0    0    0    0  0.00000000000E+00  0.00000000000E+00  0.45593999997E+02  0.45594000000E+02  0.51100000000E-03 0.  1.
         11   -1    0    0    0    0 -0.00000000000E+00 -0.00000000000E+00 -0.45593999997E+02  0.45594000000E+02  0.51100000000E-03 0. -1.
    9900012    2    1    2    0    0  0.67451899414E+01  0.94097701941E+01 -0.14718732863E+02  0.72461482450E+02  0.69999885567E+02 0.  0.
         12    1    1    2    0    0 -0.67451899414E+01 -0.94097701941E+01  0.14718732863E+02  0.18726517550E+02  0.00000000000E+00 0. -1.
         11    1    3    3    0    0 -0.13038918768E+02  0.64464276342E+01  0.97085703966E+01  0.17487886416E+02  0.51100000000E-03 0. -1.
        -11    1    3    3    0    0  0.58108082932E+01 -0.81183126628E+01 -0.33505906498E+02  0.34961668496E+02  0.51100000000E-03 0.  1.
        -12    1    3    3    0    0  0.13973300417E+02  0.11081655223E+02  0.90786032392E+01  0.20011927538E+02  0.00000000000E+00 0.  1.
</event>
<event>
 7    1  0.1345786E-013  0.7246157E+02  0.7816164E-02  0.1226708E+00
        -11   -1    0    0    0    0  0.00000000000E+00  0.00000000000E+00  0.45593999997E+02  0.45594000000E+02  0.51100000000E-03 0.  1.
         11   -1    0    0    0    0 -0.00000000000E+00 -0.00000000000E+00 -0.45593999997E+02  0.45594000000E+02  0.51100000000E-03 0. -1.
    9900012    2    1    2    0    0 -0.36326169197E+01 -0.76322039834E+01  0.16710255832E+02  0.72461572329E+02  0.70000002651E+02 0.  0.
         12    1    1    2    0    0  0.36326169197E+01  0.76322039834E+01 -0.16710255832E+02  0.18726427671E+02  0.00000000000E+00 0. -1.
         11    1    3    3    0    0 -0.72877463265E+00 -0.15180827238E+01 -0.13133880365E+02  0.13241393482E+02  0.51100000000E-03 0. -1.
        -11    1    3    3    0    0 -0.23960671141E+02 -0.13839120012E+02  0.22360040874E+02  0.35575362716E+02  0.51100000000E-03 0.  1.
        -12    1    3    3    0    0  0.21056828854E+02  0.77249987523E+01  0.74840953240E+01  0.23644816132E+02  0.00000000000E+00 0.  1.
</event>
<event>
 7    1  0.1345786E-013  0.7246157E+02  0.7816164E-02  0.1226708E+00
        -11   -1    0    0    0    0  0.00000000000E+00  0.00000000000E+00  0.45593999997E+02  0.45594000000E+02  0.51100000000E-03 0.  1.
         11   -1    0    0    0    0 -0.00000000000E+00 -0.00000000000E+00 -0.45593999997E+02  0.45594000000E+02  0.51100000000E-03 0. -1.
    9900012    2    1    2    0    0 -0.13814262558E+02 -0.65047215944E+00  0.12626254022E+02  0.72461568021E+02  0.69999997038E+02 0.  0.
         12    1    1    2    0    0  0.13814262558E+02  0.65047215944E+00 -0.12626254022E+02  0.18726431979E+02  0.00000000000E+00 0. -1.
         11    1    3    3    0    0  0.14586939775E+02 -0.95293806158E+01  0.16307794266E+00  0.17424537343E+02  0.51100000000E-03 0. -1.
        -11    1    3    3    0    0 -0.22777145439E+02 -0.75055183559E+01 -0.10577353951E+02  0.26210905688E+02  0.51100000000E-03 0.  1.
        -12    1    3    3    0    0 -0.56240568949E+01  0.16384426812E+02  0.23040530029E+02  0.28826124990E+02  0.00000000000E+00 0.  1.
</event>
<event>
 7    1  0.1345786E-013  0.7246210E+02  0.7816164E-02  0.1226707E+00
        -11   -1    0    0    0    0  0.00000000000E+00  0.00000000000E+00  0.45593999997E+02  0.45594000000E+02  0.51100000000E-03 0. -1.
         11   -1    0    0    0    0 -0.00000000000E+00 -0.00000000000E+00 -0.45593999997E+02  0.45594000000E+02  0.51100000000E-03 0.  1.
    9900012    2    1    2    0    0 -0.12905808963E+02 -0.13053700962E+02 -0.37013724227E+01  0.72462104251E+02  0.70000695574E+02 0.  0.
         12    1    1    2    0    0  0.12905808963E+02  0.13053700962E+02  0.37013724227E+01  0.18725895749E+02  0.00000000000E+00 0. -1.
         11    1    3    3    0    0 -0.17797759310E+02 -0.30742520438E+01 -0.57108893332E+01  0.18942690393E+02  0.51100000000E-03 0. -1.
        -11    1    3    3    0    0 -0.88341194819E+01  0.15510281740E+02  0.13491838778E+02  0.22374990962E+02  0.51100000000E-03 0.  1.
        -12    1    3    3    0    0  0.13726069829E+02 -0.25489730658E+02 -0.11482321868E+02  0.31144422895E+02  0.00000000000E+00 0.  1.
</event>
<event>
 7    1  0.1345786E-013  0.7246155E+02  0.7816164E-02  0.1226708E+00
        -11   -1    0    0    0    0  0.00000000000E+00  0.00000000000E+00  0.45593999997E+02  0.45594000000E+02  0.51100000000E-03 0. -1.
         11   -1    0    0    0    0 -0.00000000000E+00 -0.00000000000E+00 -0.45593999997E+02  0.45594000000E+02  0.51100000000E-03 0.  1.
    9900012    2    1    2    0    0 -0.39283272194E+01  0.11864389949E+02 -0.13945770366E+02  0.72461547728E+02  0.69999970603E+02 0.  0.
         12    1    1    2    0    0  0.39283272194E+01 -0.11864389949E+02  0.13945770366E+02  0.18726452272E+02  0.00000000000E+00 0. -1.
         11    1    3    3    0    0  0.92310531300E+00  0.33239913746E+00 -0.22175449056E+02  0.22197142917E+02  0.51100000000E-03 0.  1.
        -11    1    3    3    0    0 -0.95920907832E+01  0.11948375689E+02  0.26921424899E+02  0.30976362054E+02  0.51100000000E-03 0. -1.
         12    1    3    3    0    0  0.47406582509E+01 -0.41638487763E+00 -0.18691746210E+02  0.19288042757E+02  0.00000000000E+00 0. -1.
</event>
<event>
 7    1  0.1345786E-013  0.7246157E+02  0.7816164E-02  0.1226708E+00
        -11   -1    0    0    0    0  0.00000000000E+00  0.00000000000E+00  0.45593999997E+02  0.45594000000E+02  0.51100000000E-03 0. -1.
         11   -1    0    0    0    0 -0.00000000000E+00 -0.00000000000E+00 -0.45593999997E+02  0.45594000000E+02  0.51100000000E-03 0.  1.
    9900012    2    1    2    0    0  0.48186519698E+01 -0.54769133732E+01 -0.17247121543E+02  0.72461569789E+02  0.69999999342E+02 0.  0.
         12    1    1    2    0    0 -0.48186519698E+01  0.54769133732E+01  0.17247121543E+02  0.18726430211E+02  0.00000000000E+00 0. -1.
         11    1    3    3    0    0 -0.63044777649E+01 -0.21577131043E+02  0.56395425240E+01  0.23175924234E+02  0.51100000000E-03 0. -1.
        -11    1    3    3    0    0  0.13404856865E+02  0.29691236334E+01 -0.30844883019E+02  0.33762593079E+02  0.51100000000E-03 0.  1.
         12    1    3    3    0    0 -0.22817271306E+01  0.13131094037E+02  0.79582189517E+01  0.15523052476E+02  0.00000000000E+00 0. -1.
</event>
<event>
 7    1  0.1345786E-013  0.7246156E+02  0.7816164E-02  0.1226708E+00
        -11   -1    0    0    0    0  0.00000000000E+00  0.00000000000E+00  0.45593999997E+02  0.45594000000E+02  0.51100000000E-03 0.  1.
         11   -1    0    0    0    0 -0.00000000000E+00 -0.00000000000E+00 -0.45593999997E+02  0.45594000000E+02  0.51100000000E-03 0. -1.
    9900012    2    1    2    0    0  0.99438480112E+01 -0.12458904505E+02 -0.98272591702E+01  0.72461563138E+02  0.69999990678E+02 0.  0.
         12    1    1    2    0    0 -0.99438480112E+01  0.12458904505E+02  0.98272591702E+01  0.18726436862E+02  0.00000000000E+00 0. -1.
         11    1    3    3    0    0  0.11976106610E+02 -0.33911959751E+02 -0.87299761485E+01  0.37008926322E+02  0.51100000000E-03 0. -1.
        -11    1    3    3    0    0  0.70131131026E+01  0.64498347269E+01  0.10703350072E+02  0.14329892757E+02  0.51100000000E-03 0.  1.
         12    1    3    3    0    0 -0.90453717011E+01  0.15003220520E+02 -0.11800633094E+02  0.21122744059E+02  0.00000000000E+00 0. -1.
</event>
<event>
 7    1  0.1345786E-013  0.7246160E+02  0.7816164E-02  0.1226708E+00
        -11   -1    0    0    0    0  0.00000000000E+00  0.00000000000E+00  0.45593999997E+02  0.45594000000E+02  0.51100000000E-03 0.  1.
         11   -1    0    0    0    0 -0.00000000000E+00 -0.00000000000E+00 -0.45593999997E+02  0.45594000000E+02  0.51100000000E-03 0. -1.
    9900012    2    1    2    0    0  0.18739812417E+01  0.10359609885E+02  0.15486921354E+02  0.72461600034E+02  0.70000038741E+02 0.  0.
         12    1    1    2    0    0 -0.18739812417E+01 -0.10359609885E+02 -0.15486921354E+02  0.18726399966E+02  0.00000000000E+00 0. -1.
         11    1    3    3    0    0  0.47542982128E+01 -0.25406319388E+02  0.87520682906E+01  0.27288882644E+02  0.51100000000E-03 0. -1.
        -11    1    3    3    0    0 -0.18826465217E+01  0.32745060815E+02  0.15184879282E+02  0.36143656771E+02  0.51100000000E-03 0.  1.
         12    1    3    3    0    0 -0.99767044938E+00  0.30208684580E+01 -0.84500262186E+01  0.90290606189E+01  0.00000000000E+00 0. -1.
</event>
<event>
 7    1  0.1345786E-013  0.7246158E+02  0.7816164E-02  0.1226708E+00
        -11   -1    0    0    0    0  0.00000000000E+00  0.00000000000E+00  0.45593999997E+02  0.45594000000E+02  0.51100000000E-03 0.  1.
         11   -1    0    0    0    0 -0.00000000000E+00 -0.00000000000E+00 -0.45593999997E+02  0.45594000000E+02  0.51100000000E-03 0. -1.
    9900012    2    1    2    0    0  0.13141634173E+02 -0.63379814629E+01  0.11739096636E+02  0.72461576220E+02  0.70000007719E+02 0.  0.
         12    1    1    2    0    0 -0.13141634173E+02  0.63379814629E+01 -0.11739096636E+02  0.18726423780E+02  0.00000000000E+00 0. -1.
         11    1    3    3    0    0 -0.86925257010E+01 -0.51476400831E+01  0.26888496396E+01  0.10454095567E+02  0.51100000000E-03 0. -1.
        -11    1    3    3    0    0  0.34463255978E+02  0.16468832108E+02  0.12138751340E+02  0.40078519533E+02  0.51100000000E-03 0.  1.
        -12    1    3    3    0    0 -0.12629096105E+02 -0.17659173488E+02 -0.30885043434E+01  0.21928961119E+02  0.00000000000E+00 0.  1.
</event>
<event>
 7    1  0.1345786E-013  0.7246162E+02  0.7816164E-02  0.1226708E+00
        -11   -1    0    0    0    0  0.00000000000E+00  0.00000000000E+00  0.45593999997E+02  0.45594000000E+02  0.51100000000E-03 0.  1.
         11   -1    0    0    0    0 -0.00000000000E+00 -0.00000000000E+00 -0.45593999997E+02  0.45594000000E+02  0.51100000000E-03 0. -1.
    9900012    2    1    2    0    0 -0.12751727811E+02 -0.13179095738E+02 -0.37923982969E+01  0.72461617235E+02  0.70000061149E+02 0.  0.
         12    1    1    2    0    0  0.12751727811E+02  0.13179095738E+02  0.37923982969E+01  0.18726382765E+02  0.00000000000E+00 0. -1.
         11    1    3    3    0    0 -0.15988849119E+02 -0.15345860189E+02 -0.12205895412E+02  0.25300644343E+02  0.51100000000E-03 0. -1.
        -11    1    3    3    0    0  0.23738276966E+02 -0.44537255574E+01  0.34182044197E+00  0.24154881621E+02  0.51100000000E-03 0.  1.
        -12    1    3    3    0    0 -0.20501155657E+02  0.66204900089E+01  0.80716766730E+01  0.23006091271E+02  0.00000000000E+00 0.  1.
</event>
<event>
 7    1  0.1345786E-013  0.7246169E+02  0.7816164E-02  0.1226708E+00
        -11   -1    0    0    0    0  0.00000000000E+00  0.00000000000E+00  0.45593999997E+02  0.45594000000E+02  0.51100000000E-03 0.  1.
         11   -1    0    0    0    0 -0.00000000000E+00 -0.00000000000E+00 -0.45593999997E+02  0.45594000000E+02  0.51100000000E-03 0. -1.
    9900012    2    1    2    0    0  0.15013673178E+02  0.29082141237E+01 -0.10807716491E+02  0.72461686229E+02  0.70000151026E+02 0.  0.
         12    1    1    2    0    0 -0.15013673178E+02 -0.29082141237E+01  0.10807716491E+02  0.18726313771E+02  0.00000000000E+00 0. -1.
         11    1    3    3    0    0  0.24413582113E+02 -0.11262805267E+02 -0.83927664253E+01  0.28165800230E+02  0.51100000000E-03 0. -1.
        -11    1    3    3    0    0 -0.55803581953E+01  0.28488547393E+02 -0.43419726596E+01  0.29352861138E+02  0.51100000000E-03 0.  1.
        -12    1    3    3    0    0 -0.38195507396E+01 -0.14317528001E+02  0.19270225937E+01  0.14943024861E+02  0.00000000000E+00 0.  1.
</event>
<event>
 8    1  0.1345786E-013  0.7246175E+02  0.7816164E-02  0.1226708E+00
        -11   -1    0    0    0    0  0.00000000000E+00  0.00000000000E+00  0.45593999997E+02  0.45594000000E+02  0.51100000000E-03 0.  1.
         11   -1    0    0    0    0 -0.00000000000E+00 -0.00000000000E+00 -0.45593999997E+02  0.45594000000E+02  0.51100000000E-03 0. -1.
    9900012    2    1    2    0    0  0.12569649064E+02 -0.12205037560E+02  0.66116203015E+01  0.72461747240E+02  0.70000230504E+02 0.  0.
         24    2    3    3    0    0  0.26506461628E+02 -0.15384480464E+02  0.52014771270E+01  0.58097482355E+02  0.49081435844E+02 0.  0.
         12    1    1    2    0    0 -0.12569649064E+02  0.12205037560E+02 -0.66116203015E+01  0.18726252760E+02  0.00000000000E+00 0. -1.
         11    1    3    3    0    0 -0.13936812565E+02  0.31794429041E+01  0.14101431746E+01  0.14364264885E+02  0.51100000000E-03 0.  1.
        -11    1    4    4    0    0  0.37212409250E+02 -0.22428164110E+01 -0.60287920088E+01  0.37764268310E+02  0.51100000000E-03 0. -1.
         12    1    4    4    0    0 -0.10705947621E+02 -0.13141664053E+02  0.11230269136E+02  0.20333214045E+02  0.00000000000E+00 0. -1.
</event>
<event>
 7    1  0.1345786E-013  0.7246146E+02  0.7816164E-02  0.1226708E+00
        -11   -1    0    0    0    0  0.00000000000E+00  0.00000000000E+00  0.45593999997E+02  0.45594000000E+02  0.51100000000E-03 0.  1.
         11   -1    0    0    0    0 -0.00000000000E+00 -0.00000000000E+00 -0.45593999997E+02  0.45594000000E+02  0.51100000000E-03 0. -1.
    9900012    2    1    2    0    0 -0.12219395818E+02  0.96663388903E+01 -0.10389010276E+02  0.72461460645E+02  0.69999857161E+02 0.  0.
         12    1    1    2    0    0  0.12219395818E+02 -0.96663388903E+01  0.10389010276E+02  0.18726539355E+02  0.00000000000E+00 0. -1.
         11    1    3    3    0    0  0.30648860085E+01 -0.14912783746E+02 -0.44028309706E+01  0.15848330073E+02  0.51100000000E-03 0. -1.
        -11    1    3    3    0    0 -0.10971624939E+02  0.30840048525E+02  0.13719027006E+02  0.35492208286E+02  0.51100000000E-03 0.  1.
        -12    1    3    3    0    0 -0.43126568876E+01 -0.62609258885E+01 -0.19705206312E+02  0.21120922286E+02  0.00000000000E+00 0.  1.
</event>
<event>
 7    1  0.1345786E-013  0.7246164E+02  0.7816164E-02  0.1226708E+00
        -11   -1    0    0    0    0  0.00000000000E+00  0.00000000000E+00  0.45593999997E+02  0.45594000000E+02  0.51100000000E-03 0.  1.
         11   -1    0    0    0    0 -0.00000000000E+00 -0.00000000000E+00 -0.45593999997E+02  0.45594000000E+02  0.51100000000E-03 0. -1.
    9900012    2    1    2    0    0  0.63184354748E+01 -0.17624772729E+02 -0.34820764568E+00  0.72461641860E+02  0.70000093228E+02 0.  0.
         12    1    1    2    0    0 -0.63184354748E+01  0.17624772729E+02  0.34820764568E+00  0.18726358140E+02  0.00000000000E+00 0. -1.
         11    1    3    3    0    0 -0.54704127080E+01  0.23103397991E+02 -0.18921566300E+01  0.23817486662E+02  0.51100000000E-03 0. -1.
        -11    1    3    3    0    0  0.16039673514E+02 -0.29648828903E+02  0.86642527312E+01  0.34805078040E+02  0.51100000000E-03 0.  1.
        -12    1    3    3    0    0 -0.42508253314E+01 -0.11079341818E+02 -0.71203037469E+01  0.13839077157E+02  0.00000000000E+00 0.  1.
</event>
<event>
 7    1  0.1345786E-013  0.7246158E+02  0.7816164E-02  0.1226708E+00
        -11   -1    0    0    0    0  0.00000000000E+00  0.00000000000E+00  0.45593999997E+02  0.45594000000E+02  0.51100000000E-03 0.  1.
         11   -1    0    0    0    0 -0.00000000000E+00 -0.00000000000E+00 -0.45593999997E+02  0.45594000000E+02  0.51100000000E-03 0. -1.
    9900012    2    1    2    0    0 -0.98272369613E+01 -0.14343458641E+02 -0.69548051250E+01  0.72461582659E+02  0.70000016108E+02 0.  0.
         12    1    1    2    0    0  0.98272369613E+01  0.14343458641E+02  0.69548051250E+01  0.18726417341E+02  0.00000000000E+00 0. -1.
         11    1    3    3    0    0 -0.31143967907E+01  0.34377581983E+01 -0.18806684928E+02  0.19370313550E+02  0.51100000000E-03 0. -1.
        -11    1    3    3    0    0  0.80789039196E+01  0.77940332181E+01  0.19564683781E+02  0.22556429107E+02  0.51100000000E-03 0.  1.
        -12    1    3    3    0    0 -0.14791744090E+02 -0.25575250058E+02 -0.77128039782E+01  0.30534840002E+02  0.00000000000E+00 0.  1.
</event>
<event>
 7    1  0.1345786E-013  0.7246160E+02  0.7816164E-02  0.1226708E+00
        -11   -1    0    0    0    0  0.00000000000E+00  0.00000000000E+00  0.45593999997E+02  0.45594000000E+02  0.51100000000E-03 0.  1.
         11   -1    0    0    0    0 -0.00000000000E+00 -0.00000000000E+00 -0.45593999997E+02  0.45594000000E+02  0.51100000000E-03 0. -1.
    9900012    2    1    2    0    0 -0.17891335241E+02 -0.10726228198E+01  0.54247250324E+01  0.72461600503E+02  0.70000039353E+02 0.  0.
         12    1    1    2    0    0  0.17891335241E+02  0.10726228198E+01 -0.54247250324E+01  0.18726399497E+02  0.00000000000E+00 0. -1.
         11    1    3    3    0    0 -0.71952649522E+01  0.24403249614E+02  0.22913913511E+01  0.25544880193E+02  0.51100000000E-03 0. -1.
        -11    1    3    3    0    0 -0.18861157731E+02 -0.21966115031E+02  0.14586760013E+02  0.32419547321E+02  0.51100000000E-03 0.  1.
        -12    1    3    3    0    0  0.81650874425E+01 -0.35097574033E+01 -0.11453426332E+02  0.14497172990E+02  0.00000000000E+00 0.  1.
</event>
<event>
 7    1  0.1345786E-013  0.7246158E+02  0.7816164E-02  0.1226708E+00
        -11   -1    0    0    0    0  0.00000000000E+00  0.00000000000E+00  0.45593999997E+02  0.45594000000E+02  0.51100000000E-03 0.  1.
         11   -1    0    0    0    0 -0.00000000000E+00 -0.00000000000E+00 -0.45593999997E+02  0.45594000000E+02  0.51100000000E-03 0. -1.
    9900012    2    1    2    0    0  0.39871011541E+01  0.48303322925E+01  0.17647939156E+02  0.72461579036E+02  0.70000011388E+02 0.  0.
         12    1    1    2    0    0 -0.39871011541E+01 -0.48303322925E+01 -0.17647939156E+02  0.18726420964E+02  0.00000000000E+00 0. -1.
         11    1    3    3    0    0 -0.17350925672E+02  0.48764299418E+01 -0.64931145457E+01  0.19157106447E+02  0.51100000000E-03 0. -1.
        -11    1    3    3    0    0  0.18901815322E+02 -0.14310881221E+02  0.29523621124E+02  0.37864550022E+02  0.51100000000E-03 0.  1.
         12    1    3    3    0    0  0.24362115035E+01  0.14264783572E+02 -0.53825674227E+01  0.15439922568E+02  0.00000000000E+00 0. -1.
</event>
<event>
 7    1  0.1345786E-013  0.7246154E+02  0.7816164E-02  0.1226708E+00
        -11   -1    0    0    0    0  0.00000000000E+00  0.00000000000E+00  0.45593999997E+02  0.45594000000E+02  0.51100000000E-03 0.  1.
         11   -1    0    0    0    0 -0.00000000000E+00 -0.00000000000E+00 -0.45593999997E+02  0.45594000000E+02  0.51100000000E-03 0. -1.
    9900012    2    1    2    0    0 -0.10731087710E+02  0.10585615577E+02 -0.11111646535E+02  0.72461543066E+02  0.69999964529E+02 0.  0.
         12    1    1    2    0    0  0.10731087710E+02 -0.10585615577E+02  0.11111646535E+02  0.18726456934E+02  0.00000000000E+00 0. -1.
         11    1    3    3    0    0  0.21101276631E+01  0.31217995963E+02 -0.12462409723E+02  0.33679779796E+02  0.51100000000E-03 0. -1.
        -11    1    3    3    0    0 -0.14741888387E+02 -0.12203335358E+02  0.13823852122E+02  0.23608124763E+02  0.51100000000E-03 0.  1.
        -12    1    3    3    0    0  0.19006730132E+01 -0.84290450284E+01 -0.12473088934E+02  0.15173638507E+02  0.00000000000E+00 0.  1.
</event>
<event>
 7    1  0.1345786E-013  0.7246156E+02  0.7816164E-02  0.1226708E+00
        -11   -1    0    0    0    0  0.00000000000E+00  0.00000000000E+00  0.45593999997E+02  0.45594000000E+02  0.51100000000E-03 0.  1.
         11   -1    0    0    0    0 -0.00000000000E+00 -0.00000000000E+00 -0.45593999997E+02  0.45594000000E+02  0.51100000000E-03 0. -1.
    9900012    2    1    2    0    0 -0.73430332573E+01 -0.15238060624E+02  0.80349894312E+01  0.72461556553E+02  0.69999982100E+02 0.  0.
         12    1    1    2    0    0  0.73430332573E+01  0.15238060624E+02 -0.80349894312E+01  0.18726443447E+02  0.00000000000E+00 0. -1.
         11    1    3    3    0    0 -0.15736071622E+02  0.68526104840E+01 -0.27843574085E+01  0.17387779243E+02  0.51100000000E-03 0. -1.
        -11    1    3    3    0    0  0.12478976948E+02  0.29536895468E+01  0.23450949466E+02  0.26728190712E+02  0.51100000000E-03 0.  1.
        -12    1    3    3    0    0 -0.40859385830E+01 -0.25044360655E+02 -0.12631602627E+02  0.28345586599E+02  0.00000000000E+00 0.  1.
</event>
<event>
 7    1  0.1345786E-013  0.7246151E+02  0.7816164E-02  0.1226708E+00
        -11   -1    0    0    0    0  0.00000000000E+00  0.00000000000E+00  0.45593999997E+02  0.45594000000E+02  0.51100000000E-03 0. -1.
         11   -1    0    0    0    0 -0.00000000000E+00 -0.00000000000E+00 -0.45593999997E+02  0.45594000000E+02  0.51100000000E-03 0.  1.
    9900012    2    1    2    0    0  0.42346733572E+00 -0.17254512104E+02  0.72652505149E+01  0.72461511339E+02  0.69999923200E+02 0.  0.
         12    1    1    2    0    0 -0.42346733572E+00  0.17254512104E+02 -0.72652505149E+01  0.18726488661E+02  0.00000000000E+00 0. -1.
         11    1    3    3    0    0  0.84084196678E+01 -0.25981238712E+02 -0.88557372642E+01  0.28708019247E+02  0.51100000000E-03 0. -1.
        -11    1    3    3    0    0 -0.55802646495E+01  0.13530897765E+02 -0.95826973302E+01  0.17494360128E+02  0.51100000000E-03 0.  1.
         12    1    3    3    0    0 -0.24046876826E+01 -0.48041711573E+01  0.25703685109E+02  0.26259131965E+02  0.00000000000E+00 0. -1.
</event>
<event>
 7    1  0.1345786E-013  0.7246157E+02  0.7816164E-02  0.1226708E+00
        -11   -1    0    0    0    0  0.00000000000E+00  0.00000000000E+00  0.45593999997E+02  0.45594000000E+02  0.51100000000E-03 0. -1.
         11   -1    0    0    0    0 -0.00000000000E+00 -0.00000000000E+00 -0.45593999997E+02  0.45594000000E+02  0.51100000000E-03 0.  1.
    9900012    2    1    2    0    0 -0.19967313103E+01 -0.16418961038E+02 -0.87812288880E+01  0.72461569527E+02  0.69999999000E+02 0.  0.
         12    1    1    2    0    0  0.19967313103E+01  0.16418961038E+02  0.87812288880E+01  0.18726430473E+02  0.00000000000E+00 0. -1.
         11    1    3    3    0    0  0.53395226978E+01  0.87914784057E+01  0.23296350635E+02  0.25466066605E+02  0.51100000000E-03 0. -1.
        -11    1    3    3    0    0 -0.26738694101E+01 -0.10334794410E+02 -0.29269490416E+02  0.31155426856E+02  0.51100000000E-03 0.  1.
         12    1    3    3    0    0 -0.46623845980E+01 -0.14875645034E+02 -0.28080891066E+01  0.15840076065E+02  0.00000000000E+00 0. -1.
</event>
<event>
 7    1  0.1345786E-013  0.7246159E+02  0.7816164E-02  0.1226708E+00
        -11   -1    0    0    0    0  0.00000000000E+00  0.00000000000E+00  0.45593999997E+02  0.45594000000E+02  0.51100000000E-03 0.  1.
         11   -1    0    0    0    0 -0.00000000000E+00 -0.00000000000E+00 -0.45593999997E+02  0.45594000000E+02  0.51100000000E-03 0. -1.
    9900012    2    1    2    0    0  0.13216109103E+02 -0.68810165453E+01  0.11343042970E+02  0.72461586773E+02  0.70000021467E+02 0.  0.
         12    1    1    2    0    0 -0.13216109103E+02  0.68810165453E+01 -0.11343042970E+02  0.18726413227E+02  0.00000000000E+00 0. -1.
         11    1    3    3    0    0  0.80216658020E+01 -0.28879637551E+02 -0.13338131552E+02  0.32806803271E+02  0.51100000000E-03 0. -1.
        -11    1    3    3    0    0  0.13199814582E+02  0.12207303713E+02  0.17601127627E+02  0.25160545761E+02  0.51100000000E-03 0.  1.
        -12    1    3    3    0    0 -0.80053712812E+01  0.97913172927E+01  0.70800468944E+01  0.14494237741E+02  0.00000000000E+00 0.  1.
</event>
<event>
 7    1  0.1345786E-013  0.7246157E+02  0.7816164E-02  0.1226708E+00
        -11   -1    0    0    0    0  0.00000000000E+00  0.00000000000E+00  0.45593999997E+02  0.45594000000E+02  0.51100000000E-03 0.  1.
         11   -1    0    0    0    0 -0.00000000000E+00 -0.00000000000E+00 -0.45593999997E+02  0.45594000000E+02  0.51100000000E-03 0. -1.
    9900012    2    1    2    0    0 -0.17165307592E+02 -0.74627739160E+01 -0.58185886626E+00  0.72461565770E+02  0.69999994106E+02 0.  0.
         12    1    1    2    0    0  0.17165307592E+02  0.74627739160E+01  0.58185886626E+00  0.18726434230E+02  0.00000000000E+00 0. -1.
         11    1    3    3    0    0 -0.66061797604E+01 -0.70703235575E+01 -0.33817613967E+02  0.35174736686E+02  0.51100000000E-03 0. -1.
        -11    1    3    3    0    0 -0.98273284894E+01  0.52655853978E+01  0.20623610537E+02  0.23444318857E+02  0.51100000000E-03 0.  1.
         12    1    3    3    0    0 -0.73179934221E+00 -0.56580357563E+01  0.12612144563E+02  0.13842510227E+02  0.00000000000E+00 0. -1.
</event>
<event>
 8    1  0.1345786E-013  0.7246157E+02  0.7816164E-02  0.1226708E+00
        -11   -1    0    0    0    0  0.00000000000E+00  0.00000000000E+00  0.45593999997E+02  0.45594000000E+02  0.51100000000E-03 0.  1.
         11   -1    0    0    0    0 -0.00000000000E+00 -0.00000000000E+00 -0.45593999997E+02  0.45594000000E+02  0.51100000000E-03 0. -1.
    9900012    2    1    2    0    0 -0.87989873056E+01  0.16112318618E+02  0.36946078103E+01  0.72461571731E+02  0.70000001871E+02 0.  0.
         24    2    3    3    0    0 -0.26685609936E+01  0.49829030654E+01 -0.57338553724E+01  0.56639374173E+02  0.56064169204E+02 0.  0.
         12    1    1    2    0    0  0.87989873056E+01 -0.16112318618E+02 -0.36946078103E+01  0.18726428269E+02  0.00000000000E+00 0. -1.
         11    1    3    3    0    0 -0.61304263120E+01  0.11129415553E+02  0.94284631828E+01  0.15822197558E+02  0.51100000000E-03 0. -1.
        -11    1    4    4    0    0 -0.29698757961E+01 -0.24976832571E+02  0.32459805127E+01  0.25361362686E+02  0.51100000000E-03 0.  1.
         12    1    4    4    0    0  0.30131480249E+00  0.29959735637E+02 -0.89798358851E+01  0.31278011487E+02  0.00000000000E+00 0. -1.
</event>
<event>
 7    1  0.1345786E-013  0.7246152E+02  0.7816164E-02  0.1226708E+00
        -11   -1    0    0    0    0  0.00000000000E+00  0.00000000000E+00  0.45593999997E+02  0.45594000000E+02  0.51100000000E-03 0.  1.
         11   -1    0    0    0    0 -0.00000000000E+00 -0.00000000000E+00 -0.45593999997E+02  0.45594000000E+02  0.51100000000E-03 0. -1.
    9900012    2    1    2    0    0 -0.61328520212E+00 -0.64401634470E+01  0.17573532955E+02  0.72461524504E+02  0.69999940350E+02 0.  0.
         12    1    1    2    0    0  0.61328520212E+00  0.64401634470E+01 -0.17573532955E+02  0.18726475496E+02  0.00000000000E+00 0. -1.
         11    1    3    3    0    0  0.19502839477E+02 -0.18692077482E+02  0.20885678096E+02  0.34146245153E+02  0.51100000000E-03 0.  1.
        -11    1    3    3    0    0 -0.35194867682E+01  0.17470746640E+02 -0.90601516161E+01  0.19992501665E+02  0.51100000000E-03 0. -1.
        -12    1    3    3    0    0 -0.16596637911E+02 -0.52188326050E+01  0.57480064750E+01  0.18322777686E+02  0.00000000000E+00 0.  1.
</event>
<event>
 7    1  0.1345786E-013  0.7246157E+02  0.7816164E-02  0.1226708E+00
        -11   -1    0    0    0    0  0.00000000000E+00  0.00000000000E+00  0.45593999997E+02  0.45594000000E+02  0.51100000000E-03 0. -1.
         11   -1    0    0    0    0 -0.00000000000E+00 -0.00000000000E+00 -0.45593999997E+02  0.45594000000E+02  0.51100000000E-03 0.  1.
    9900012    2    1    2    0    0 -0.48201703633E+01  0.81535513331E+01 -0.16154403628E+02  0.72461569527E+02  0.69999999001E+02 0.  0.
         12    1    1    2    0    0  0.48201703633E+01 -0.81535513331E+01  0.16154403628E+02  0.18726430473E+02  0.00000000000E+00 0. -1.
         11    1    3    3    0    0  0.20859920035E+02  0.87302587584E+01 -0.23541105857E+02  0.32642569554E+02  0.51100000000E-03 0. -1.
        -11    1    3    3    0    0 -0.10247944411E+02 -0.97413608417E+01  0.14737959250E+02  0.20423562834E+02  0.51100000000E-03 0.  1.
        -12    1    3    3    0    0 -0.15432145988E+02  0.91646534165E+01 -0.73512570217E+01  0.19395437139E+02  0.00000000000E+00 0.  1.
</event>
<event>
 7    1  0.1345786E-013  0.7246156E+02  0.7816164E-02  0.1226708E+00
        -11   -1    0    0    0    0  0.00000000000E+00  0.00000000000E+00  0.45593999997E+02  0.45594000000E+02  0.51100000000E-03 0.  1.
         11   -1    0    0    0    0 -0.00000000000E+00 -0.00000000000E+00 -0.45593999997E+02  0.45594000000E+02  0.51100000000E-03 0. -1.
    9900012    2    1    2    0    0 -0.67407486919E+00  0.10983317440E+02 -0.15152296551E+02  0.72461555338E+02  0.69999980517E+02 0.  0.
         12    1    1    2    0    0  0.67407486919E+00 -0.10983317440E+02  0.15152296551E+02  0.18726444662E+02  0.00000000000E+00 0. -1.
         11    1    3    3    0    0  0.12161882920E+02  0.19133142506E+02 -0.29359066558E+02  0.37093710083E+02  0.51100000000E-03 0. -1.
        -11    1    3    3    0    0 -0.60796865869E+01 -0.18797634903E+02  0.93091974555E+01  0.21839753306E+02  0.51100000000E-03 0.  1.
         12    1    3    3    0    0 -0.67562712023E+01  0.10647809837E+02  0.48975725521E+01  0.13528091949E+02  0.00000000000E+00 0. -1.
</event>
<event>
 7    1  0.1345786E-013  0.7246151E+02  0.7816164E-02  0.1226708E+00
        -11   -1    0    0    0    0  0.00000000000E+00  0.00000000000E+00  0.45593999997E+02  0.45594000000E+02  0.51100000000E-03 0. -1.
         11   -1    0    0    0    0 -0.00000000000E+00 -0.00000000000E+00 -0.45593999997E+02  0.45594000000E+02  0.51100000000E-03 0.  1.
    9900012    2    1    2    0    0  0.40058469088E+01  0.11534522432E+02 -0.14198222342E+02  0.72461507139E+02  0.69999917729E+02 0.  0.
         12    1    1    2    0    0 -0.40058469088E+01 -0.11534522432E+02  0.14198222342E+02  0.18726492861E+02  0.00000000000E+00 0. -1.
         11    1    3    3    0    0  0.14875071447E+02  0.17908743721E+02 -0.61567053104E+01  0.24081027236E+02  0.51100000000E-03 0. -1.
        -11    1    3    3    0    0 -0.28534590468E+02 -0.13773999499E+01 -0.60836975546E+00  0.28574292604E+02  0.51100000000E-03 0.  1.
        -12    1    3    3    0    0  0.17665365930E+02 -0.49968213389E+01 -0.74331472761E+01  0.19806187300E+02  0.00000000000E+00 0.  1.
</event>
<event>
 7    1  0.1345786E-013  0.7246158E+02  0.7816164E-02  0.1226708E+00
        -11   -1    0    0    0    0  0.00000000000E+00  0.00000000000E+00  0.45593999997E+02  0.45594000000E+02  0.51100000000E-03 0. -1.
         11   -1    0    0    0    0 -0.00000000000E+00 -0.00000000000E+00 -0.45593999997E+02  0.45594000000E+02  0.51100000000E-03 0.  1.
    9900012    2    1    2    0    0  0.35583433832E+01  0.13224222470E+02 -0.12772512886E+02  0.72461576076E+02  0.70000007531E+02 0.  0.
         12    1    1    2    0    0 -0.35583433832E+01 -0.13224222470E+02  0.12772512886E+02  0.18726423924E+02  0.00000000000E+00 0. -1.
         11    1    3    3    0    0 -0.60718378845E+01  0.74718189231E+00  0.11277987800E+02  0.12830374318E+02  0.51100000000E-03 0. -1.
        -11    1    3    3    0    0  0.16400166738E+02  0.27698062317E+02 -0.23514696056E+01  0.32275029585E+02  0.51100000000E-03 0.  1.
        -12    1    3    3    0    0 -0.67699854706E+01 -0.15221021740E+02 -0.21699031080E+02  0.27356172172E+02  0.00000000000E+00 0.  1.
</event>
<event>
 7    1  0.1345786E-013  0.7246149E+02  0.7816164E-02  0.1226708E+00
        -11   -1    0    0    0    0  0.00000000000E+00  0.00000000000E+00  0.45593999997E+02  0.45594000000E+02  0.51100000000E-03 0.  1.
         11   -1    0    0    0    0 -0.00000000000E+00 -0.00000000000E+00 -0.45593999997E+02  0.45594000000E+02  0.51100000000E-03 0. -1.
    9900012    2    1    2    0    0 -0.67134831928E+00 -0.60509777222E+01  0.17709239122E+02  0.72461489640E+02  0.69999894933E+02 0.  0.
         12    1    1    2    0    0  0.67134831928E+00  0.60509777222E+01 -0.17709239122E+02  0.18726510360E+02  0.00000000000E+00 0. -1.
         11    1    3    3    0    0 -0.21113187568E+01 -0.22617698624E+02 -0.82692486351E+01  0.24174334142E+02  0.51100000000E-03 0. -1.
        -11    1    3    3    0    0  0.15573927879E+02 -0.11624394929E+01  0.18935481534E+02  0.24544876377E+02  0.51100000000E-03 0.  1.
         12    1    3    3    0    0 -0.14133957442E+02  0.17729160395E+02  0.70430062234E+01  0.23742279122E+02  0.00000000000E+00 0. -1.
</event>
<event>
 7    1  0.1345786E-013  0.7246152E+02  0.7816164E-02  0.1226708E+00
        -11   -1    0    0    0    0  0.00000000000E+00  0.00000000000E+00  0.45593999997E+02  0.45594000000E+02  0.51100000000E-03 0. -1.
         11   -1    0    0    0    0 -0.00000000000E+00 -0.00000000000E+00 -0.45593999997E+02  0.45594000000E+02  0.51100000000E-03 0.  1.
    9900012    2    1    2    0    0 -0.11263012128E+02 -0.85849456707E+01 -0.12252525446E+02  0.72461518372E+02  0.69999932362E+02 0.  0.
         12    1    1    2    0    0  0.11263012128E+02  0.85849456707E+01  0.12252525446E+02  0.18726481628E+02  0.00000000000E+00 0. -1.
         11    1    3    3    0    0 -0.16633804481E+02 -0.79308848076E+01  0.17938816188E+02  0.25717377624E+02  0.51100000000E-03 0. -1.
        -11    1    3    3    0    0 -0.22823820473E+01  0.85912328857E+01 -0.33201156451E+02  0.34370559208E+02  0.51100000000E-03 0.  1.
         12    1    3    3    0    0  0.76531744008E+01 -0.92452937488E+01  0.30098148166E+01  0.12373581541E+02  0.00000000000E+00 0. -1.
</event>
<event>
 7    1  0.1345786E-013  0.7246159E+02  0.7816164E-02  0.1226708E+00
        -11   -1    0    0    0    0  0.00000000000E+00  0.00000000000E+00  0.45593999997E+02  0.45594000000E+02  0.51100000000E-03 0. -1.
         11   -1    0    0    0    0 -0.00000000000E+00 -0.00000000000E+00 -0.45593999997E+02  0.45594000000E+02  0.51100000000E-03 0.  1.
    9900012    2    1    2    0    0  0.80063942685E+01 -0.16248992655E+02  0.47483041731E+01  0.72461588064E+02  0.70000023148E+02 0.  0.
         12    1    1    2    0    0 -0.80063942685E+01  0.16248992655E+02 -0.47483041731E+01  0.18726411936E+02  0.00000000000E+00 0. -1.
         11    1    3    3    0    0  0.90050018841E+01 -0.17987356434E+01 -0.65265745655E+01  0.11265952453E+02  0.51100000000E-03 0.  1.
        -11    1    3    3    0    0 -0.58865847022E+01 -0.10525863103E+02  0.34810047211E+02  0.36839992680E+02  0.51100000000E-03 0. -1.
        -12    1    3    3    0    0  0.48879770865E+01 -0.39243939085E+01 -0.23535168473E+02  0.24355642931E+02  0.00000000000E+00 0.  1.
</event>
<event>
 7    1  0.1345786E-013  0.7246160E+02  0.7816164E-02  0.1226708E+00
        -11   -1    0    0    0    0  0.00000000000E+00  0.00000000000E+00  0.45593999997E+02  0.45594000000E+02  0.51100000000E-03 0. -1.
         11   -1    0    0    0    0 -0.00000000000E+00 -0.00000000000E+00 -0.45593999997E+02  0.45594000000E+02  0.51100000000E-03 0.  1.
    9900012    2    1    2    0    0  0.11766595074E+02 -0.14053210980E+02  0.38382955845E+01  0.72461601214E+02  0.70000040279E+02 0.  0.
         12    1    1    2    0    0 -0.11766595074E+02  0.14053210980E+02 -0.38382955845E+01  0.18726398786E+02  0.00000000000E+00 0. -1.
         11    1    3    3    0    0  0.25312538105E+02 -0.90154073011E+01  0.24607578205E+01  0.26982540344E+02  0.51100000000E-03 0. -1.
        -11    1    3    3    0    0 -0.12443481159E+02  0.29405185275E+01 -0.19377642060E+02  0.23215940313E+02  0.51100000000E-03 0.  1.
         12    1    3    3    0    0 -0.11024618721E+01 -0.79783222068E+01  0.20755179824E+02  0.22263120557E+02  0.00000000000E+00 0. -1.
</event>
<event>
 7    1  0.1345786E-013  0.7246157E+02  0.7816164E-02  0.1226708E+00
        -11   -1    0    0    0    0  0.00000000000E+00  0.00000000000E+00  0.45593999997E+02  0.45594000000E+02  0.51100000000E-03 0.  1.
         11   -1    0    0    0    0 -0.00000000000E+00 -0.00000000000E+00 -0.45593999997E+02  0.45594000000E+02  0.51100000000E-03 0. -1.
    9900012    2    1    2    0    0  0.67592717295E+01  0.46852002565E+01  0.16823803824E+02  0.72461568656E+02  0.69999997866E+02 0.  0.
         12    1    1    2    0    0 -0.67592717295E+01 -0.46852002565E+01 -0.16823803824E+02  0.18726431344E+02  0.00000000000E+00 0. -1.
         11    1    3    3    0    0 -0.64656802757E+01  0.50948527085E+01 -0.17231583895E+01  0.84102212007E+01  0.51100000000E-03 0. -1.
        -11    1    3    3    0    0  0.22424785942E+02 -0.17355598347E+02 -0.95962645372E+01  0.29936200692E+02  0.51100000000E-03 0.  1.
        -12    1    3    3    0    0 -0.91998339368E+01  0.16945945895E+02  0.28143226751E+02  0.34115146764E+02  0.00000000000E+00 0.  1.
</event>
<event>
 7    1  0.1345786E-013  0.7246160E+02  0.7816164E-02  0.1226708E+00
        -11   -1    0    0    0    0  0.00000000000E+00  0.00000000000E+00  0.45593999997E+02  0.45594000000E+02  0.51100000000E-03 0.  1.
         11   -1    0    0    0    0 -0.00000000000E+00 -0.00000000000E+00 -0.45593999997E+02  0.45594000000E+02  0.51100000000E-03 0. -1.
    9900012    2    1    2    0    0  0.10043224908E+02  0.14039734628E+02  0.72593168216E+01  0.72461596296E+02  0.70000033872E+02 0.  0.
         12    1    1    2    0    0 -0.10043224908E+02 -0.14039734628E+02 -0.72593168216E+01  0.18726403704E+02  0.00000000000E+00 0. -1.
         11    1    3    3    0    0  0.97620107642E+01 -0.16567518871E+02 -0.28822941622E+01  0.19444463366E+02  0.51100000000E-03 0. -1.
        -11    1    3    3    0    0  0.18433622124E+01  0.53137526612E+01  0.23643298419E+02  0.24303076183E+02  0.51100000000E-03 0.  1.
         12    1    3    3    0    0 -0.15621480690E+01  0.25293500838E+02 -0.13501687435E+02  0.28714056746E+02  0.00000000000E+00 0. -1.
</event>
<event>
 7    1  0.1345786E-013  0.7246174E+02  0.7816164E-02  0.1226708E+00
        -11   -1    0    0    0    0  0.00000000000E+00  0.00000000000E+00  0.45593999997E+02  0.45594000000E+02  0.51100000000E-03 0. -1.
         11   -1    0    0    0    0 -0.00000000000E+00 -0.00000000000E+00 -0.45593999997E+02  0.45594000000E+02  0.51100000000E-03 0.  1.
    9900012    2    1    2    0    0  0.16638865618E+02 -0.85912740161E+01  0.10512063045E+00  0.72461737996E+02  0.70000218463E+02 0.  0.
         12    1    1    2    0    0 -0.16638865618E+02  0.85912740161E+01 -0.10512063045E+00  0.18726262004E+02  0.00000000000E+00 0. -1.
         11    1    3    3    0    0  0.15882394111E+02  0.14317781556E+02  0.23788953127E+01  0.21515307448E+02  0.51100000000E-03 0. -1.
        -11    1    3    3    0    0 -0.39633262811E+01 -0.26774574602E+02 -0.19048155881E+02  0.33097100221E+02  0.51100000000E-03 0.  1.
         12    1    3    3    0    0  0.47197977878E+01  0.38655190298E+01  0.16774381199E+02  0.17849330328E+02  0.00000000000E+00 0. -1.
</event>
<event>
 7    1  0.1345786E-013  0.7246157E+02  0.7816164E-02  0.1226708E+00
        -11   -1    0    0    0    0  0.00000000000E+00  0.00000000000E+00  0.45593999997E+02  0.45594000000E+02  0.51100000000E-03 0.  1.
         11   -1    0    0    0    0 -0.00000000000E+00 -0.00000000000E+00 -0.45593999997E+02  0.45594000000E+02  0.51100000000E-03 0. -1.
    9900012    2    1    2    0    0  0.13966760241E+02  0.22026312520E+00  0.12472375164E+02  0.72461573494E+02  0.70000004168E+02 0.  0.
         12    1    1    2    0    0 -0.13966760241E+02 -0.22026312520E+00 -0.12472375164E+02  0.18726426506E+02  0.00000000000E+00 0. -1.
         11    1    3    3    0    0  0.20585646939E+02  0.16803504340E+01  0.21620882105E+02  0.29900752177E+02  0.51100000000E-03 0. -1.
        -11    1    3    3    0    0 -0.10749836347E+02  0.15779048355E+02 -0.14576704044E+02  0.24021191676E+02  0.51100000000E-03 0.  1.
         12    1    3    3    0    0  0.41309496485E+01 -0.17239135664E+02  0.54281971029E+01  0.18539629641E+02  0.00000000000E+00 0. -1.
</event>
<event>
 7    1  0.1345786E-013  0.7246153E+02  0.7816164E-02  0.1226708E+00
        -11   -1    0    0    0    0  0.00000000000E+00  0.00000000000E+00  0.45593999997E+02  0.45594000000E+02  0.51100000000E-03 0. -1.
         11   -1    0    0    0    0 -0.00000000000E+00 -0.00000000000E+00 -0.45593999997E+02  0.45594000000E+02  0.51100000000E-03 0.  1.
    9900012    2    1    2    0    0  0.73390929173E+01  0.48496910424E+00 -0.17221593044E+02  0.72461528179E+02  0.69999945137E+02 0.  0.
         12    1    1    2    0    0 -0.73390929173E+01 -0.48496910424E+00  0.17221593044E+02  0.18726471821E+02  0.00000000000E+00 0. -1.
         11    1    3    3    0    0  0.45325377969E+01 -0.30405656943E+02 -0.13306364632E+02  0.33497868783E+02  0.51100000000E-03 0. -1.
        -11    1    3    3    0    0  0.92454843726E+01  0.19849510953E+02  0.60941842795E+01  0.22729301543E+02  0.51100000000E-03 0.  1.
         12    1    3    3    0    0 -0.64389292522E+01  0.11041115094E+02 -0.10009412692E+02  0.16234357853E+02  0.00000000000E+00 0. -1.
</event>
<event>
 7    1  0.1345786E-013  0.7246172E+02  0.7816164E-02  0.1226708E+00
        -11   -1    0    0    0    0  0.00000000000E+00  0.00000000000E+00  0.45593999997E+02  0.45594000000E+02  0.51100000000E-03 0.  1.
         11   -1    0    0    0    0 -0.00000000000E+00 -0.00000000000E+00 -0.45593999997E+02  0.45594000000E+02  0.51100000000E-03 0. -1.
    9900012    2    1    2    0    0  0.14956937642E+02 -0.30076759520E+01  0.10858981947E+02  0.72461719344E+02  0.70000194165E+02 0.  0.
         12    1    1    2    0    0 -0.14956937642E+02  0.30076759520E+01 -0.10858981947E+02  0.18726280656E+02  0.00000000000E+00 0. -1.
         11    1    3    3    0    0 -0.38776182524E+01  0.16261526083E+02 -0.20390468962E+02  0.26367487150E+02  0.51100000000E-03 0. -1.
        -11    1    3    3    0    0  0.12786771005E+02 -0.72588876631E+01  0.32869420718E+01  0.15066417998E+02  0.51100000000E-03 0.  1.
         12    1    3    3    0    0  0.60477848898E+01 -0.12010314372E+02  0.27962508837E+02  0.31027814197E+02  0.00000000000E+00 0. -1.
</event>
<event>
 7    1  0.1345786E-013  0.7246157E+02  0.7816164E-02  0.1226708E+00
        -11   -1    0    0    0    0  0.00000000000E+00  0.00000000000E+00  0.45593999997E+02  0.45594000000E+02  0.51100000000E-03 0.  1.
         11   -1    0    0    0    0 -0.00000000000E+00 -0.00000000000E+00 -0.45593999997E+02  0.45594000000E+02  0.51100000000E-03 0. -1.
    9900012    2    1    2    0    0  0.15172670511E+01 -0.12651250391E+02  0.13723078865E+02  0.72461571368E+02  0.70000001399E+02 0.  0.
         12    1    1    2    0    0 -0.15172670511E+01  0.12651250391E+02 -0.13723078865E+02  0.18726428632E+02  0.00000000000E+00 0. -1.
         11    1    3    3    0    0  0.31963371023E+02 -0.13989344218E+01  0.13081891782E+02  0.34565155830E+02  0.51100000000E-03 0. -1.
        -11    1    3    3    0    0 -0.13995290401E+02 -0.41219461888E+01 -0.93911661751E+01  0.17350867303E+02  0.51100000000E-03 0.  1.
        -12    1    3    3    0    0 -0.16450813572E+02 -0.71303697806E+01  0.10032353258E+02  0.20545548235E+02  0.00000000000E+00 0.  1.
</event>
<event>
 7    1  0.1345786E-013  0.7246163E+02  0.7816164E-02  0.1226708E+00
        -11   -1    0    0    0    0  0.00000000000E+00  0.00000000000E+00  0.45593999997E+02  0.45594000000E+02  0.51100000000E-03 0. -1.
         11   -1    0    0    0    0 -0.00000000000E+00 -0.00000000000E+00 -0.45593999997E+02  0.45594000000E+02  0.51100000000E-03 0.  1.
    9900012    2    1    2    0    0  0.17110846795E+01 -0.13262839184E+02 -0.13109012187E+02  0.72461630503E+02  0.70000078433E+02 0.  0.
         12    1    1    2    0    0 -0.17110846795E+01  0.13262839184E+02  0.13109012187E+02  0.18726369497E+02  0.00000000000E+00 0. -1.
         11    1    3    3    0    0  0.11747150888E+02  0.76263122734E+01  0.71490465593E+00  0.14023811244E+02  0.51100000000E-03 0. -1.
        -11    1    3    3    0    0 -0.17409146952E+02 -0.10108977495E+02 -0.30937048793E+02  0.36910307664E+02  0.51100000000E-03 0.  1.
        -12    1    3    3    0    0  0.73730807440E+01 -0.10780173963E+02  0.17113131950E+02  0.21527511595E+02  0.00000000000E+00 0.  1.
</event>
<event>
 7    1  0.1345786E-013  0.7246158E+02  0.7816164E-02  0.1226708E+00
        -11   -1    0    0    0    0  0.00000000000E+00  0.00000000000E+00  0.45593999997E+02  0.45594000000E+02  0.51100000000E-03 0.  1.
         11   -1    0    0    0    0 -0.00000000000E+00 -0.00000000000E+00 -0.45593999997E+02  0.45594000000E+02  0.51100000000E-03 0. -1.
    9900012    2    1    2    0    0 -0.15064831489E+02 -0.94254645925E+01  0.59067934831E+01  0.72461581767E+02  0.70000014945E+02 0.  0.
         12    1    1    2    0    0  0.15064831489E+02  0.94254645925E+01 -0.59067934831E+01  0.18726418233E+02  0.00000000000E+00 0. -1.
         11    1    3    3    0    0 -0.52750897229E+01 -0.30375167852E+01  0.33277895020E+02  0.33830036610E+02  0.51100000000E-03 0.  1.
        -11    1    3    3    0    0  0.76334542415E+01  0.20487972694E+01 -0.79712044351E+01  0.11225297070E+02  0.51100000000E-03 0. -1.
         12    1    3    3    0    0 -0.17423196008E+02 -0.84367450766E+01 -0.19399897102E+02  0.27406248087E+02  0.00000000000E+00 0. -1.
</event>
<event>
 7    1  0.1345786E-013  0.7246152E+02  0.7816164E-02  0.1226708E+00
        -11   -1    0    0    0    0  0.00000000000E+00  0.00000000000E+00  0.45593999997E+02  0.45594000000E+02  0.51100000000E-03 0. -1.
         11   -1    0    0    0    0 -0.00000000000E+00 -0.00000000000E+00 -0.45593999997E+02  0.45594000000E+02  0.51100000000E-03 0.  1.
    9900012    2    1    2    0    0 -0.45643167921E+01 -0.18041655391E+02 -0.20848400052E+01  0.72461524762E+02  0.69999940685E+02 0.  0.
         12    1    1    2    0    0  0.45643167921E+01  0.18041655391E+02  0.20848400052E+01  0.18726475238E+02  0.00000000000E+00 0. -1.
         11    1    3    3    0    0  0.11205902634E+01 -0.17724934273E+02 -0.30109497259E+02  0.34957271675E+02  0.51100000000E-03 0.  1.
        -11    1    3    3    0    0 -0.95882781201E+01 -0.98575884366E+01  0.20727487806E+02  0.24874402065E+02  0.51100000000E-03 0. -1.
        -12    1    3    3    0    0  0.39033710646E+01  0.95408673187E+01  0.72971694481E+01  0.12629851021E+02  0.00000000000E+00 0.  1.
</event>
<event>
 7    1  0.1345786E-013  0.7246163E+02  0.7816164E-02  0.1226708E+00
        -11   -1    0    0    0    0  0.00000000000E+00  0.00000000000E+00  0.45593999997E+02  0.45594000000E+02  0.51100000000E-03 0.  1.
         11   -1    0    0    0    0 -0.00000000000E+00 -0.00000000000E+00 -0.45593999997E+02  0.45594000000E+02  0.51100000000E-03 0. -1.
    9900012    2    1    2    0    0  0.10259597232E+02 -0.15611274297E+02 -0.13060297576E+01  0.72461629977E+02  0.70000077747E+02 0.  0.
         12    1    1    2    0    0 -0.10259597232E+02  0.15611274297E+02  0.13060297576E+01  0.18726370023E+02  0.00000000000E+00 0. -1.
         11    1    3    3    0    0 -0.23166317796E+02  0.92378742783E+01  0.89110773247E+01  0.26484408635E+02  0.51100000000E-03 0. -1.
        -11    1    3    3    0    0  0.22851144180E+02 -0.14912389826E+02  0.14979759321E+01  0.27327606789E+02  0.51100000000E-03 0.  1.
         12    1    3    3    0    0  0.10574770848E+02 -0.99367587494E+01 -0.11715083014E+02  0.18649614553E+02  0.00000000000E+00 0. -1.
</event>
<event>
 7    1  0.1345786E-013  0.7246157E+02  0.7816164E-02  0.1226708E+00
        -11   -1    0    0    0    0  0.00000000000E+00  0.00000000000E+00  0.45593999997E+02  0.45594000000E+02  0.51100000000E-03 0. -1.
         11   -1    0    0    0    0 -0.00000000000E+00 -0.00000000000E+00 -0.45593999997E+02  0.45594000000E+02  0.51100000000E-03 0.  1.
    9900012    2    1    2    0    0  0.83193172182E+01  0.16046485782E+02 -0.48967817062E+01  0.72461569053E+02  0.69999998383E+02 0.  0.
         12    1    1    2    0    0 -0.83193172182E+01 -0.16046485782E+02  0.48967817062E+01  0.18726430947E+02  0.00000000000E+00 0. -1.
         11    1    3    3    0    0  0.30135367914E+02  0.92049066991E+00  0.86477347782E+01  0.31365124253E+02  0.51100000000E-03 0. -1.
        -11    1    3    3    0    0 -0.68864116864E+01 -0.10849610093E+01 -0.17380717473E+02  0.18726696090E+02  0.51100000000E-03 0.  1.
         12    1    3    3    0    0 -0.14929639009E+02  0.16210956122E+02  0.38362009883E+01  0.22369748710E+02  0.00000000000E+00 0. -1.
</event>
<event>
 7    1  0.1462453E-013  0.7246156E+02  0.7816164E-02  0.1226708E+00
        -11   -1    0    0    0    0  0.00000000000E+00  0.00000000000E+00  0.45593999997E+02  0.45594000000E+02  0.51100000000E-03 0. -1.
         11   -1    0    0    0    0 -0.00000000000E+00 -0.00000000000E+00 -0.45593999997E+02  0.45594000000E+02  0.51100000000E-03 0.  1.
    9900012    2    1    2    0    0 -0.63472599384E+01  0.25457843335E+01 -0.17433041119E+02  0.72461557485E+02  0.69999983314E+02 0.  0.
         12    1    1    2    0    0  0.63472599384E+01 -0.25457843335E+01  0.17433041119E+02  0.18726442515E+02  0.00000000000E+00 0. -1.
         11    1    3    3    0    0 -0.10791436412E+01 -0.13088691806E+02  0.96800808633E+01  0.16315096382E+02  0.51100000000E-03 0. -1.
        -11    1    3    3    0    0 -0.54490623653E+01  0.29424510523E+02 -0.53765646033E+01  0.30403972559E+02  0.51100000000E-03 0.  1.
        -12    1    3    3    0    0  0.18094606814E+00 -0.13790034383E+02 -0.21736557379E+02  0.25742488544E+02  0.00000000000E+00 0.  1.
</event>
<event>
 7    1  0.1345786E-013  0.7246151E+02  0.7816164E-02  0.1226708E+00
        -11   -1    0    0    0    0  0.00000000000E+00  0.00000000000E+00  0.45593999997E+02  0.45594000000E+02  0.51100000000E-03 0.  1.
         11   -1    0    0    0    0 -0.00000000000E+00 -0.00000000000E+00 -0.45593999997E+02  0.45594000000E+02  0.51100000000E-03 0. -1.
    9900012    2    1    2    0    0 -0.86333060429E+01 -0.10089222745E+02  0.13204360188E+02  0.72461507622E+02  0.69999918357E+02 0.  0.
         12    1    1    2    0    0  0.86333060429E+01  0.10089222745E+02 -0.13204360188E+02  0.18726492378E+02  0.00000000000E+00 0. -1.
         11    1    3    3    0    0 -0.17153943481E+02 -0.11228328144E+02 -0.10304053018E+02  0.22945732473E+02  0.51100000000E-03 0. -1.
        -11    1    3    3    0    0  0.20343135324E+02  0.13645655196E+02  0.20715030938E+02  0.32080516946E+02  0.51100000000E-03 0.  1.
         12    1    3    3    0    0 -0.11822497886E+02 -0.12506549797E+02  0.27933822678E+01  0.17435258203E+02  0.00000000000E+00 0. -1.
</event>
<event>
 7    1  0.1345786E-013  0.7246152E+02  0.7816164E-02  0.1226708E+00
        -11   -1    0    0    0    0  0.00000000000E+00  0.00000000000E+00  0.45593999997E+02  0.45594000000E+02  0.51100000000E-03 0. -1.
         11   -1    0    0    0    0 -0.00000000000E+00 -0.00000000000E+00 -0.45593999997E+02  0.45594000000E+02  0.51100000000E-03 0.  1.
    9900012    2    1    2    0    0  0.17858349805E+02 -0.35428631536E+01 -0.43827325820E+01  0.72461524572E+02  0.69999940438E+02 0.  0.
         12    1    1    2    0    0 -0.17858349805E+02  0.35428631536E+01  0.43827325820E+01  0.18726475428E+02  0.00000000000E+00 0. -1.
         11    1    3    3    0    0 -0.13798651764E+02 -0.19767718707E+02  0.86276491526E+01  0.25604722680E+02  0.51100000000E-03 0. -1.
        -11    1    3    3    0    0  0.25050564580E+02 -0.16958903166E+01 -0.11734027595E+02  0.27714513050E+02  0.51100000000E-03 0.  1.
         12    1    3    3    0    0  0.66064369883E+01  0.17920745870E+02 -0.12763541395E+01  0.19142288842E+02  0.00000000000E+00 0. -1.
</event>
<event>
 7    1  0.1345786E-013  0.7246155E+02  0.7816164E-02  0.1226708E+00
        -11   -1    0    0    0    0  0.00000000000E+00  0.00000000000E+00  0.45593999997E+02  0.45594000000E+02  0.51100000000E-03 0. -1.
         11   -1    0    0    0    0 -0.00000000000E+00 -0.00000000000E+00 -0.45593999997E+02  0.45594000000E+02  0.51100000000E-03 0.  1.
    9900012    2    1    2    0    0 -0.86297614741E+01 -0.12458707309E+02 -0.10999448783E+02  0.72461546934E+02  0.69999969568E+02 0.  0.
         12    1    1    2    0    0  0.86297614741E+01  0.12458707309E+02  0.10999448783E+02  0.18726453066E+02  0.00000000000E+00 0. -1.
         11    1    3    3    0    0 -0.83360388281E+01  0.14644275047E+02 -0.47051218753E+01  0.17495213835E+02  0.51100000000E-03 0. -1.
        -11    1    3    3    0    0  0.80414787459E+01 -0.71758454351E+01 -0.24468840113E+02  0.26737282488E+02  0.51100000000E-03 0.  1.
         12    1    3    3    0    0 -0.83352013919E+01 -0.19927136922E+02  0.18174513205E+02  0.28229050611E+02  0.00000000000E+00 0. -1.
</event>
<event>
 7    1  0.1345786E-013  0.7246159E+02  0.7816164E-02  0.1226708E+00
        -11   -1    0    0    0    0  0.00000000000E+00  0.00000000000E+00  0.45593999997E+02  0.45594000000E+02  0.51100000000E-03 0. -1.
         11   -1    0    0    0    0 -0.00000000000E+00 -0.00000000000E+00 -0.45593999997E+02  0.45594000000E+02  0.51100000000E-03 0.  1.
    9900012    2    1    2    0    0  0.49145492512E+01  0.92263791972E+01  0.15537033424E+02  0.72461594177E+02  0.70000031111E+02 0.  0.
         12    1    1    2    0    0 -0.49145492512E+01 -0.92263791972E+01 -0.15537033424E+02  0.18726405823E+02  0.00000000000E+00 0. -1.
         11    1    3    3    0    0 -0.25892011201E+02  0.94578200330E+01  0.76095954690E+00  0.27575816643E+02  0.51100000000E-03 0. -1.
        -11    1    3    3    0    0  0.16673255742E+02 -0.33733387800E+01 -0.72790503217E+01  0.18503011793E+02  0.51100000000E-03 0.  1.
         12    1    3    3    0    0  0.14133304711E+02  0.31418979443E+01  0.22055124199E+02  0.26382765742E+02  0.00000000000E+00 0. -1.
</event>
<event>
 7    1  0.1345786E-013  0.7246155E+02  0.7816164E-02  0.1226708E+00
        -11   -1    0    0    0    0  0.00000000000E+00  0.00000000000E+00  0.45593999997E+02  0.45594000000E+02  0.51100000000E-03 0. -1.
         11   -1    0    0    0    0 -0.00000000000E+00 -0.00000000000E+00 -0.45593999997E+02  0.45594000000E+02  0.51100000000E-03 0.  1.
    9900012    2    1    2    0    0  0.17745239292E+02 -0.37162762357E+01 -0.46878387086E+01  0.72461546562E+02  0.69999969085E+02 0.  0.
         12    1    1    2    0    0 -0.17745239292E+02  0.37162762357E+01  0.46878387086E+01  0.18726453438E+02  0.00000000000E+00 0. -1.
         11    1    3    3    0    0 -0.13930849615E+02 -0.24532673975E+02 -0.15602678699E+02  0.32239172542E+02  0.51100000000E-03 0.  1.
        -11    1    3    3    0    0  0.20576195343E+02  0.94093599422E+01  0.45379493080E+01  0.23076153352E+02  0.51100000000E-03 0. -1.
        -12    1    3    3    0    0  0.11099893564E+02  0.11407037797E+02  0.63768906825E+01  0.17146220668E+02  0.00000000000E+00 0.  1.
</event>
<event>
 7    1  0.1345786E-013  0.7246172E+02  0.7816164E-02  0.1226708E+00
        -11   -1    0    0    0    0  0.00000000000E+00  0.00000000000E+00  0.45593999997E+02  0.45594000000E+02  0.51100000000E-03 0. -1.
         11   -1    0    0    0    0 -0.00000000000E+00 -0.00000000000E+00 -0.45593999997E+02  0.45594000000E+02  0.51100000000E-03 0.  1.
    9900012    2    1    2    0    0 -0.13586056876E+02  0.15945459968E+01 -0.12788670697E+02  0.72461718560E+02  0.70000193143E+02 0.  0.
         12    1    1    2    0    0  0.13586056876E+02 -0.15945459968E+01  0.12788670697E+02  0.18726281440E+02  0.00000000000E+00 0. -1.
         11    1    3    3    0    0 -0.28838613853E+02  0.11968893030E+02  0.16005628578E+02  0.35087037433E+02  0.51100000000E-03 0. -1.
        -11    1    3    3    0    0 -0.16515869839E+01  0.48872268900E-01 -0.96495540546E+01  0.97899960050E+01  0.51100000000E-03 0.  1.
         12    1    3    3    0    0  0.16904143961E+02 -0.10423219303E+02 -0.19144745221E+02  0.27584685122E+02  0.00000000000E+00 0. -1.
</event>
<event>
 7    1  0.1345786E-013  0.7246154E+02  0.7816164E-02  0.1226708E+00
        -11   -1    0    0    0    0  0.00000000000E+00  0.00000000000E+00  0.45593999997E+02  0.45594000000E+02  0.51100000000E-03 0.  1.
         11   -1    0    0    0    0 -0.00000000000E+00 -0.00000000000E+00 -0.45593999997E+02  0.45594000000E+02  0.51100000000E-03 0. -1.
    9900012    2    1    2    0    0 -0.13559225587E+02 -0.12836753026E+02  0.14301824370E+01  0.72461541483E+02  0.69999962468E+02 0.  0.
         12    1    1    2    0    0  0.13559225587E+02  0.12836753026E+02 -0.14301824370E+01  0.18726458517E+02  0.00000000000E+00 0. -1.
         11    1    3    3    0    0 -0.82207228234E+00  0.70981704340E+01 -0.89895707229E+01  0.11483562530E+02  0.51100000000E-03 0. -1.
        -11    1    3    3    0    0  0.21775237980E+02 -0.75428133854E+01  0.73116867918E+01  0.24176761298E+02  0.51100000000E-03 0.  1.
        -12    1    3    3    0    0 -0.34512391285E+02 -0.12392110075E+02  0.31080663681E+01  0.36801217655E+02  0.00000000000E+00 0.  1.
</event>
<event>
 7    1  0.1345786E-013  0.7246162E+02  0.7816164E-02  0.1226708E+00
        -11   -1    0    0    0    0  0.00000000000E+00  0.00000000000E+00  0.45593999997E+02  0.45594000000E+02  0.51100000000E-03 0.  1.
         11   -1    0    0    0    0 -0.00000000000E+00 -0.00000000000E+00 -0.45593999997E+02  0.45594000000E+02  0.51100000000E-03 0. -1.
    9900012    2    1    2    0    0  0.10076396364E+02  0.14646616427E+01  0.15716182974E+02  0.72461617416E+02  0.70000061384E+02 0.  0.
         12    1    1    2    0    0 -0.10076396364E+02 -0.14646616427E+01 -0.15716182974E+02  0.18726382584E+02  0.00000000000E+00 0. -1.
         11    1    3    3    0    0  0.16309079303E+02  0.44530900529E+01  0.22486597218E+02  0.28132954581E+02  0.51100000000E-03 0. -1.
        -11    1    3    3    0    0 -0.13061234331E+02  0.17177094090E+02 -0.79722390035E+01  0.23004456060E+02  0.51100000000E-03 0.  1.
         12    1    3    3    0    0  0.68285513916E+01 -0.20165522501E+02  0.12018247595E+01  0.21324206775E+02  0.00000000000E+00 0. -1.
</event>
<event>
 7    1  0.1345786E-013  0.7246151E+02  0.7816164E-02  0.1226708E+00
        -11   -1    0    0    0    0  0.00000000000E+00  0.00000000000E+00  0.45593999997E+02  0.45594000000E+02  0.51100000000E-03 0.  1.
         11   -1    0    0    0    0 -0.00000000000E+00 -0.00000000000E+00 -0.45593999997E+02  0.45594000000E+02  0.51100000000E-03 0. -1.
    9900012    2    1    2    0    0  0.78490976248E+01  0.73289473270E+01  0.15341430443E+02  0.72461513664E+02  0.69999926229E+02 0.  0.
         12    1    1    2    0    0 -0.78490976248E+01 -0.73289473270E+01 -0.15341430443E+02  0.18726486336E+02  0.00000000000E+00 0. -1.
         11    1    3    3    0    0 -0.18912788563E+02 -0.55676960574E+01 -0.86270525750E+01  0.21520196258E+02  0.51100000000E-03 0. -1.
        -11    1    3    3    0    0  0.33512615321E+02  0.51977012341E+01  0.22244596535E+02  0.40557780500E+02  0.51100000000E-03 0.  1.
         12    1    3    3    0    0 -0.67507291338E+01  0.76989421504E+01  0.17238864832E+01  0.10383536906E+02  0.00000000000E+00 0. -1.
</event>
<event>
 7    1  0.1345786E-013  0.7246159E+02  0.7816164E-02  0.1226708E+00
        -11   -1    0    0    0    0  0.00000000000E+00  0.00000000000E+00  0.45593999997E+02  0.45594000000E+02  0.51100000000E-03 0. -1.
         11   -1    0    0    0    0 -0.00000000000E+00 -0.00000000000E+00 -0.45593999997E+02  0.45594000000E+02  0.51100000000E-03 0.  1.
    9900012    2    1    2    0    0 -0.54243183237E+01 -0.58370943908E+01 -0.16946492069E+02  0.72461588340E+02  0.70000023508E+02 0.  0.
         12    1    1    2    0    0  0.54243183237E+01  0.58370943908E+01  0.16946492069E+02  0.18726411660E+02  0.00000000000E+00 0. -1.
         11    1    3    3    0    0 -0.25239001431E+01 -0.84212245344E+01  0.16471556988E+02  0.18670813707E+02  0.51100000000E-03 0. -1.
        -11    1    3    3    0    0 -0.15476621643E+01  0.17777670849E+02 -0.34137417595E+02  0.38520178080E+02  0.51100000000E-03 0.  1.
        -12    1    3    3    0    0 -0.13527560163E+01 -0.15193540705E+02  0.71936853730E+00  0.15270596554E+02  0.00000000000E+00 0.  1.
</event>
<event>
 8    1  0.1345786E-013  0.7246158E+02  0.7816164E-02  0.1226708E+00
        -11   -1    0    0    0    0  0.00000000000E+00  0.00000000000E+00  0.45593999997E+02  0.45594000000E+02  0.51100000000E-03 0.  1.
         11   -1    0    0    0    0 -0.00000000000E+00 -0.00000000000E+00 -0.45593999997E+02  0.45594000000E+02  0.51100000000E-03 0. -1.
    9900012    2    1    2    0    0  0.46550068766E+01  0.32231935135E+01  0.17849954713E+02  0.72461576190E+02  0.70000007680E+02 0.  0.
         24    2    3    3    0    0  0.16690195943E+02 -0.88564488501E+00  0.14118145415E+02  0.59208096279E+02  0.55017539273E+02 0.  0.
         12    1    1    2    0    0 -0.46550068766E+01 -0.32231935135E+01 -0.17849954713E+02  0.18726423810E+02  0.00000000000E+00 0. -1.
         11    1    3    3    0    0 -0.12035189066E+02  0.41088383985E+01  0.37318092985E+01  0.13253479911E+02  0.51100000000E-03 0. -1.
        -11    1    4    4    0    0  0.19943663365E+02  0.37698381690E+01  0.33413022067E+02  0.39094647103E+02  0.51100000000E-03 0.  1.
         12    1    4    4    0    0 -0.32534674229E+01 -0.46554830541E+01 -0.19294876652E+02  0.20113449176E+02  0.00000000000E+00 0. -1.
</event>
<event>
 7    1  0.1345786E-013  0.7246160E+02  0.7816164E-02  0.1226708E+00
        -11   -1    0    0    0    0  0.00000000000E+00  0.00000000000E+00  0.45593999997E+02  0.45594000000E+02  0.51100000000E-03 0. -1.
         11   -1    0    0    0    0 -0.00000000000E+00 -0.00000000000E+00 -0.45593999997E+02  0.45594000000E+02  0.51100000000E-03 0.  1.
    9900012    2    1    2    0    0 -0.18258217967E+02  0.32553012955E+01 -0.25920424752E+01  0.72461596340E+02  0.70000033929E+02 0.  0.
         12    1    1    2    0    0  0.18258217967E+02 -0.32553012955E+01  0.25920424752E+01  0.18726403660E+02  0.00000000000E+00 0. -1.
         11    1    3    3    0    0 -0.99447597032E+01 -0.23305899597E+02  0.82690101144E+01  0.26654075300E+02  0.51100000000E-03 0. -1.
        -11    1    3    3    0    0  0.12637481772E+02  0.12664015950E+02 -0.10333945128E+02  0.20660921269E+02  0.51100000000E-03 0.  1.
         12    1    3    3    0    0 -0.20950940036E+02  0.13897184942E+02 -0.52710746151E+00  0.25146599770E+02  0.00000000000E+00 0. -1.
</event>
<event>
 7    1  0.1345786E-013  0.7246158E+02  0.7816164E-02  0.1226708E+00
        -11   -1    0    0    0    0  0.00000000000E+00  0.00000000000E+00  0.45593999997E+02  0.45594000000E+02  0.51100000000E-03 0.  1.
         11   -1    0    0    0    0 -0.00000000000E+00 -0.00000000000E+00 -0.45593999997E+02  0.45594000000E+02  0.51100000000E-03 0. -1.
    9900012    2    1    2    0    0  0.25568270228E+01 -0.33114954061E+01  0.18253096251E+02  0.72461577784E+02  0.70000009757E+02 0.  0.
         12    1    1    2    0    0 -0.25568270228E+01  0.33114954061E+01 -0.18253096251E+02  0.18726422216E+02  0.00000000000E+00 0. -1.
         11    1    3    3    0    0 -0.64940730323E+01 -0.62028526644E+01 -0.21356721760E+02  0.23168036825E+02  0.51100000000E-03 0. -1.
        -11    1    3    3    0    0  0.14630488714E+02 -0.67525314897E+01  0.31917625446E+02  0.35754477984E+02  0.51100000000E-03 0.  1.
        -12    1    3    3    0    0 -0.55795886591E+01  0.96438887481E+01  0.76921925648E+01  0.13539062975E+02  0.00000000000E+00 0.  1.
</event>
<event>
 7    1  0.1345786E-013  0.7246149E+02  0.7816164E-02  0.1226708E+00
        -11   -1    0    0    0    0  0.00000000000E+00  0.00000000000E+00  0.45593999997E+02  0.45594000000E+02  0.51100000000E-03 0. -1.
         11   -1    0    0    0    0 -0.00000000000E+00 -0.00000000000E+00 -0.45593999997E+02  0.45594000000E+02  0.51100000000E-03 0.  1.
    9900012    2    1    2    0    0 -0.15802406539E+02  0.11568948035E+01 -0.99813672725E+01  0.72461490698E+02  0.69999896311E+02 0.  0.
         12    1    1    2    0    0  0.15802406539E+02 -0.11568948035E+01  0.99813672725E+01  0.18726509302E+02  0.00000000000E+00 0. -1.
         11    1    3    3    0    0  0.93396242335E+00 -0.66173076119E+01 -0.26061724345E+02  0.26904916316E+02  0.51100000000E-03 0.  1.
        -11    1    3    3    0    0 -0.21642770354E+02 -0.94691221975E+01  0.14120405544E+02  0.27521984608E+02  0.51100000000E-03 0. -1.
        -12    1    3    3    0    0  0.49064013910E+01  0.17243324613E+02  0.19599515287E+01  0.18034589774E+02  0.00000000000E+00 0.  1.
</event>
<event>
 7    1  0.1345786E-013  0.7246157E+02  0.7816164E-02  0.1226708E+00
        -11   -1    0    0    0    0  0.00000000000E+00  0.00000000000E+00  0.45593999997E+02  0.45594000000E+02  0.51100000000E-03 0. -1.
         11   -1    0    0    0    0 -0.00000000000E+00 -0.00000000000E+00 -0.45593999997E+02  0.45594000000E+02  0.51100000000E-03 0.  1.
    9900012    2    1    2    0    0 -0.17134654036E+02  0.68867711054E+01  0.31073032202E+01  0.72461566316E+02  0.69999994818E+02 0.  0.
         12    1    1    2    0    0  0.17134654036E+02 -0.68867711054E+01 -0.31073032202E+01  0.18726433684E+02  0.00000000000E+00 0. -1.
         11    1    3    3    0    0  0.69764817087E+01 -0.16075930151E+02  0.98534368168E+01  0.20104652313E+02  0.51100000000E-03 0. -1.
        -11    1    3    3    0    0 -0.30248970303E+02  0.19782685644E+02  0.71430100539E+01  0.36842603716E+02  0.51100000000E-03 0.  1.
         12    1    3    3    0    0  0.61378345583E+01  0.31800156120E+01 -0.13889143650E+02  0.15514310288E+02  0.00000000000E+00 0. -1.
</event>
<event>
 7    1  0.1345786E-013  0.7246159E+02  0.7816164E-02  0.1226708E+00
        -11   -1    0    0    0    0  0.00000000000E+00  0.00000000000E+00  0.45593999997E+02  0.45594000000E+02  0.51100000000E-03 0. -1.
         11   -1    0    0    0    0 -0.00000000000E+00 -0.00000000000E+00 -0.45593999997E+02  0.45594000000E+02  0.51100000000E-03 0.  1.
    9900012    2    1    2    0    0  0.42353753642E+01  0.17953531771E+02  0.32265822971E+01  0.72461587080E+02  0.70000021867E+02 0.  0.
         12    1    1    2    0    0 -0.42353753642E+01 -0.17953531771E+02 -0.32265822971E+01  0.18726412920E+02  0.00000000000E+00 0. -1.
         11    1    3    3    0    0  0.90901140431E+01  0.38089378001E+01  0.24830654346E+02  0.26715156297E+02  0.51100000000E-03 0. -1.
        -11    1    3    3    0    0  0.96996608447E+01  0.84658985289E+01 -0.26426711072E+02  0.29396018722E+02  0.51100000000E-03 0.  1.
        -12    1    3    3    0    0 -0.14554399524E+02  0.56786954417E+01  0.48226390231E+01  0.16350412061E+02  0.00000000000E+00 0.  1.
</event>
<event>
 7    1  0.1345786E-013  0.7246166E+02  0.7816164E-02  0.1226708E+00
        -11   -1    0    0    0    0  0.00000000000E+00  0.00000000000E+00  0.45593999997E+02  0.45594000000E+02  0.51100000000E-03 0.  1.
         11   -1    0    0    0    0 -0.00000000000E+00 -0.00000000000E+00 -0.45593999997E+02  0.45594000000E+02  0.51100000000E-03 0. -1.
    9900012    2    1    2    0    0 -0.60138080460E+01 -0.15890221364E+02  0.78746938930E+01  0.72461659564E+02  0.70000116290E+02 0.  0.
         12    1    1    2    0    0  0.60138080460E+01  0.15890221364E+02 -0.78746938930E+01  0.18726340436E+02  0.00000000000E+00 0. -1.
         11    1    3    3    0    0  0.70462754748E+01  0.79230954351E+00  0.44091361672E+01  0.83497445758E+01  0.51100000000E-03 0. -1.
        -11    1    3    3    0    0 -0.36818640113E+02 -0.88116222274E+01  0.79522361255E+01  0.38684557716E+02  0.51100000000E-03 0.  1.
        -12    1    3    3    0    0  0.23758556592E+02 -0.78709086802E+01 -0.44866783996E+01  0.25427357272E+02  0.00000000000E+00 0.  1.
</event>
<event>
 8    1  0.1345786E-013  0.7246143E+02  0.7816164E-02  0.1226708E+00
        -11   -1    0    0    0    0  0.00000000000E+00  0.00000000000E+00  0.45593999997E+02  0.45594000000E+02  0.51100000000E-03 0. -1.
         11   -1    0    0    0    0 -0.00000000000E+00 -0.00000000000E+00 -0.45593999997E+02  0.45594000000E+02  0.51100000000E-03 0.  1.
    9900012    2    1    2    0    0 -0.81082433674E+01 -0.11051831492E+02 -0.12759220167E+02  0.72461433601E+02  0.69999821931E+02 0.  0.
        -24    2    3    3    0    0 -0.19332658568E+02 -0.28854232968E+01 -0.47802414929E+01  0.56450755278E+02  0.52742390046E+02 0.  0.
         12    1    1    2    0    0  0.81082433674E+01  0.11051831492E+02  0.12759220167E+02  0.18726566399E+02  0.00000000000E+00 0. -1.
         11    1    4    4    0    0 -0.24518281846E+02  0.20095713531E+02  0.24803959914E+01  0.31798368064E+02  0.51100000000E-03 0. -1.
        -11    1    3    3    0    0  0.11224415201E+02 -0.81664081948E+01 -0.79789786746E+01  0.16010678323E+02  0.51100000000E-03 0.  1.
        -12    1    4    4    0    0  0.51856232776E+01 -0.22981136828E+02 -0.72606374843E+01  0.24652387214E+02  0.00000000000E+00 0.  1.
</event>
<event>
 7    1  0.1345786E-013  0.7246160E+02  0.7816164E-02  0.1226708E+00
        -11   -1    0    0    0    0  0.00000000000E+00  0.00000000000E+00  0.45593999997E+02  0.45594000000E+02  0.51100000000E-03 0.  1.
         11   -1    0    0    0    0 -0.00000000000E+00 -0.00000000000E+00 -0.45593999997E+02  0.45594000000E+02  0.51100000000E-03 0. -1.
    9900012    2    1    2    0    0 -0.30690777227E+01 -0.12845515056E+02 -0.13275981847E+02  0.72461596471E+02  0.70000034100E+02 0.  0.
         12    1    1    2    0    0  0.30690777227E+01  0.12845515056E+02  0.13275981847E+02  0.18726403529E+02  0.00000000000E+00 0. -1.
         11    1    3    3    0    0  0.12361017285E+02 -0.28610675626E+02 -0.23739648393E+02  0.39178264563E+02  0.51100000000E-03 0.  1.
        -11    1    3    3    0    0 -0.90660191352E+01  0.21123539383E+02  0.56478805692E+01  0.23670555004E+02  0.51100000000E-03 0. -1.
         12    1    3    3    0    0 -0.63640758728E+01 -0.53583788129E+01  0.48157859763E+01  0.96127769029E+01  0.00000000000E+00 0. -1.
</event>
<event>
 7    1  0.1345786E-013  0.7246165E+02  0.7816164E-02  0.1226708E+00
        -11   -1    0    0    0    0  0.00000000000E+00  0.00000000000E+00  0.45593999997E+02  0.45594000000E+02  0.51100000000E-03 0. -1.
         11   -1    0    0    0    0 -0.00000000000E+00 -0.00000000000E+00 -0.45593999997E+02  0.45594000000E+02  0.51100000000E-03 0.  1.
    9900012    2    1    2    0    0 -0.74752325686E+01 -0.16284727680E+02  0.54410367543E+01  0.72461645883E+02  0.70000098468E+02 0.  0.
         12    1    1    2    0    0  0.74752325686E+01  0.16284727680E+02 -0.54410367543E+01  0.18726354117E+02  0.00000000000E+00 0. -1.
         11    1    3    3    0    0  0.21933452992E+02 -0.22428846308E+02 -0.37978844172E+01  0.31599896094E+02  0.51100000000E-03 0. -1.
        -11    1    3    3    0    0 -0.27430650131E+02 -0.48807685071E+01  0.10081052880E+02  0.29629210169E+02  0.51100000000E-03 0.  1.
        -12    1    3    3    0    0 -0.19780354297E+01  0.11024887135E+02 -0.84213170850E+00  0.11232539620E+02  0.00000000000E+00 0.  1.
</event>
<event>
 7    1  0.1345786E-013  0.7246161E+02  0.7816164E-02  0.1226708E+00
        -11   -1    0    0    0    0  0.00000000000E+00  0.00000000000E+00  0.45593999997E+02  0.45594000000E+02  0.51100000000E-03 0. -1.
         11   -1    0    0    0    0 -0.00000000000E+00 -0.00000000000E+00 -0.45593999997E+02  0.45594000000E+02  0.51100000000E-03 0.  1.
    9900012    2    1    2    0    0  0.86912225822E+01 -0.49940062688E+01 -0.15817724391E+02  0.72461605432E+02  0.70000045774E+02 0.  0.
         12    1    1    2    0    0 -0.86912225822E+01  0.49940062688E+01  0.15817724391E+02  0.18726394568E+02  0.00000000000E+00 0. -1.
         11    1    3    3    0    0 -0.15866514951E+01  0.18843862354E+01 -0.21277696611E+02  0.21419821376E+02  0.51100000000E-03 0.  1.
        -11    1    3    3    0    0  0.14518647739E+02  0.83982278016E+01  0.22306075621E+02  0.27908464168E+02  0.51100000000E-03 0. -1.
        -12    1    3    3    0    0 -0.42407736614E+01 -0.15276620306E+02 -0.16846103402E+02  0.23133319888E+02  0.00000000000E+00 0.  1.
</event>
<event>
 8    1  0.1345786E-013  0.7246158E+02  0.7816164E-02  0.1226708E+00
        -11   -1    0    0    0    0  0.00000000000E+00  0.00000000000E+00  0.45593999997E+02  0.45594000000E+02  0.51100000000E-03 0.  1.
         11   -1    0    0    0    0 -0.00000000000E+00 -0.00000000000E+00 -0.45593999997E+02  0.45594000000E+02  0.51100000000E-03 0. -1.
    9900012    2    1    2    0    0  0.57263674228E+01  0.12906398290E+02  0.12300909051E+02  0.72461581117E+02  0.70000014098E+02 0.  0.
         24    2    3    3    0    0  0.10505806213E+02  0.21691062684E+02  0.20490575896E+02  0.59535483216E+02  0.50435462690E+02 0.  0.
         12    1    1    2    0    0 -0.57263674228E+01 -0.12906398290E+02 -0.12300909051E+02  0.18726418883E+02  0.00000000000E+00 0. -1.
         11    1    3    3    0    0 -0.47794387907E+01 -0.87846643932E+01 -0.81896668441E+01  0.12926097901E+02  0.51100000000E-03 0. -1.
        -11    1    4    4    0    0 -0.54476516208E+01  0.16504205725E+02  0.33875974214E+02  0.38074234648E+02  0.51100000000E-03 0.  1.
         12    1    4    4    0    0  0.15953457834E+02  0.51868569588E+01 -0.13385398319E+02  0.21461248569E+02  0.00000000000E+00 0. -1.
</event>
<event>
 7    1  0.1345786E-013  0.7246162E+02  0.7816164E-02  0.1226708E+00
        -11   -1    0    0    0    0  0.00000000000E+00  0.00000000000E+00  0.45593999997E+02  0.45594000000E+02  0.51100000000E-03 0. -1.
         11   -1    0    0    0    0 -0.00000000000E+00 -0.00000000000E+00 -0.45593999997E+02  0.45594000000E+02  0.51100000000E-03 0.  1.
    9900012    2    1    2    0    0  0.18271198755E+02 -0.39366755653E+01 -0.11590248143E+01  0.72461616020E+02  0.70000059566E+02 0.  0.
         12    1    1    2    0    0 -0.18271198755E+02  0.39366755653E+01  0.11590248143E+01  0.18726383980E+02  0.00000000000E+00 0. -1.
         11    1    3    3    0    0  0.65660075342E+01 -0.65022780384E+01  0.14580351870E+02  0.17262060582E+02  0.51100000000E-03 0. -1.
        -11    1    3    3    0    0  0.21279963198E+02 -0.85077243978E+01 -0.27944492073E+02  0.36140183254E+02  0.51100000000E-03 0.  1.
        -12    1    3    3    0    0 -0.95747719766E+01  0.11073326871E+02  0.12205115389E+02  0.19059372184E+02  0.00000000000E+00 0.  1.
</event>
<event>
 7    1  0.1345786E-013  0.7246153E+02  0.7816164E-02  0.1226708E+00
        -11   -1    0    0    0    0  0.00000000000E+00  0.00000000000E+00  0.45593999997E+02  0.45594000000E+02  0.51100000000E-03 0.  1.
         11   -1    0    0    0    0 -0.00000000000E+00 -0.00000000000E+00 -0.45593999997E+02  0.45594000000E+02  0.51100000000E-03 0. -1.
    9900012    2    1    2    0    0  0.15190988814E+02 -0.94025402796E+01  0.56130901011E+01  0.72461529822E+02  0.69999947277E+02 0.  0.
         12    1    1    2    0    0 -0.15190988814E+02  0.94025402796E+01 -0.56130901011E+01  0.18726470178E+02  0.00000000000E+00 0. -1.
         11    1    3    3    0    0  0.28054024332E+02 -0.21872263842E+02 -0.57181639194E+01  0.36029454696E+02  0.51100000000E-03 0. -1.
        -11    1    3    3    0    0  0.13176688075E+01  0.11984736092E+02  0.17260069750E+02  0.21054219490E+02  0.51100000000E-03 0.  1.
         12    1    3    3    0    0 -0.14180704325E+02  0.48498747065E+00 -0.59288157298E+01  0.15377855636E+02  0.00000000000E+00 0. -1.
</event>
<event>
 7    1  0.1345786E-013  0.7246157E+02  0.7816164E-02  0.1226708E+00
        -11   -1    0    0    0    0  0.00000000000E+00  0.00000000000E+00  0.45593999997E+02  0.45594000000E+02  0.51100000000E-03 0.  1.
         11   -1    0    0    0    0 -0.00000000000E+00 -0.00000000000E+00 -0.45593999997E+02  0.45594000000E+02  0.51100000000E-03 0. -1.
    9900012    2    1    2    0    0  0.11268203368E+02  0.66156643542E+01  0.13414161782E+02  0.72461570593E+02  0.70000000390E+02 0.  0.
         12    1    1    2    0    0 -0.11268203368E+02 -0.66156643542E+01 -0.13414161782E+02  0.18726429407E+02  0.00000000000E+00 0. -1.
         11    1    3    3    0    0 -0.23711310337E+02  0.18984942685E+02  0.13571746762E+02  0.33269304127E+02  0.51100000000E-03 0. -1.
        -11    1    3    3    0    0  0.26213156221E+02 -0.56321923106E+01  0.45157773463E+01  0.27189030777E+02  0.51100000000E-03 0.  1.
         12    1    3    3    0    0  0.87663574846E+01 -0.67370860200E+01 -0.46733623262E+01  0.12003235690E+02  0.00000000000E+00 0. -1.
</event>
<event>
 7    1  0.1345786E-013  0.7246156E+02  0.7816164E-02  0.1226708E+00
        -11   -1    0    0    0    0  0.00000000000E+00  0.00000000000E+00  0.45593999997E+02  0.45594000000E+02  0.51100000000E-03 0.  1.
         11   -1    0    0    0    0 -0.00000000000E+00 -0.00000000000E+00 -0.45593999997E+02  0.45594000000E+02  0.51100000000E-03 0. -1.
    9900012    2    1    2    0    0 -0.67853901663E+01 -0.15421518453E+02  0.81740264815E+01  0.72461562538E+02  0.69999989895E+02 0.  0.
         12    1    1    2    0    0  0.67853901663E+01  0.15421518453E+02 -0.81740264815E+01  0.18726437462E+02  0.00000000000E+00 0. -1.
         11    1    3    3    0    0  0.77763071485E+01 -0.32753315049E+02  0.70391191030E+01  0.34391856559E+02  0.51100000000E-03 0. -1.
        -11    1    3    3    0    0  0.22118395520E+01  0.20265336657E+02 -0.28433837757E+01  0.20583025424E+02  0.51100000000E-03 0.  1.
         12    1    3    3    0    0 -0.16773536867E+02 -0.29335400615E+01  0.39782911543E+01  0.17486680555E+02  0.00000000000E+00 0. -1.
</event>
<event>
 7    1  0.1345786E-013  0.7246160E+02  0.7816164E-02  0.1226708E+00
        -11   -1    0    0    0    0  0.00000000000E+00  0.00000000000E+00  0.45593999997E+02  0.45594000000E+02  0.51100000000E-03 0.  1.
         11   -1    0    0    0    0 -0.00000000000E+00 -0.00000000000E+00 -0.45593999997E+02  0.45594000000E+02  0.51100000000E-03 0. -1.
    9900012    2    1    2    0    0  0.89664528091E+01  0.18362460298E+01  0.16337354715E+02  0.72461595258E+02  0.70000032520E+02 0.  0.
         12    1    1    2    0    0 -0.89664528091E+01 -0.18362460298E+01 -0.16337354715E+02  0.18726404742E+02  0.00000000000E+00 0. -1.
         11    1    3    3    0    0 -0.29928488232E+01  0.52147094331E+01 -0.27237450321E+01  0.66006913132E+01  0.51100000000E-03 0. -1.
        -11    1    3    3    0    0  0.23150881597E+02  0.11259489849E+02  0.33643252389E+02  0.42362812253E+02  0.51100000000E-03 0.  1.
        -12    1    3    3    0    0 -0.11191579965E+02 -0.14637953253E+02 -0.14582152641E+02  0.23498091692E+02  0.00000000000E+00 0.  1.
</event>
<event>
 7    1  0.1345786E-013  0.7246158E+02  0.7816164E-02  0.1226708E+00
        -11   -1    0    0    0    0  0.00000000000E+00  0.00000000000E+00  0.45593999997E+02  0.45594000000E+02  0.51100000000E-03 0.  1.
         11   -1    0    0    0    0 -0.00000000000E+00 -0.00000000000E+00 -0.45593999997E+02  0.45594000000E+02  0.51100000000E-03 0. -1.
    9900012    2    1    2    0    0  0.13423473285E+02  0.11585344981E+02 -0.60223656855E+01  0.72461581714E+02  0.70000014876E+02 0.  0.
         12    1    1    2    0    0 -0.13423473285E+02 -0.11585344981E+02  0.60223656855E+01  0.18726418286E+02  0.00000000000E+00 0. -1.
         11    1    3    3    0    0 -0.99745168840E+01  0.28799994933E+02  0.66074408857E+01  0.31186358725E+02  0.51100000000E-03 0. -1.
        -11    1    3    3    0    0 -0.24746193685E+01 -0.12329907764E+02 -0.14097290118E+01  0.12654552644E+02  0.51100000000E-03 0.  1.
         12    1    3    3    0    0  0.25872609538E+02 -0.48847421882E+01 -0.11220077559E+02  0.28620670345E+02  0.00000000000E+00 0. -1.
</event>
<event>
 7    1  0.1345786E-013  0.7246160E+02  0.7816164E-02  0.1226708E+00
        -11   -1    0    0    0    0  0.00000000000E+00  0.00000000000E+00  0.45593999997E+02  0.45594000000E+02  0.51100000000E-03 0. -1.
         11   -1    0    0    0    0 -0.00000000000E+00 -0.00000000000E+00 -0.45593999997E+02  0.45594000000E+02  0.51100000000E-03 0.  1.
    9900012    2    1    2    0    0  0.17761558674E+02  0.58829157352E+01 -0.77219106153E+00  0.72461603040E+02  0.70000042658E+02 0.  0.
         12    1    1    2    0    0 -0.17761558674E+02 -0.58829157352E+01  0.77219106153E+00  0.18726396960E+02  0.00000000000E+00 0. -1.
         11    1    3    3    0    0  0.11504406633E+02  0.25460889190E+02  0.17093823306E+01  0.27991610146E+02  0.51100000000E-03 0. -1.
        -11    1    3    3    0    0 -0.56098996584E+01 -0.18376667915E+02  0.14250471746E+02  0.23921723246E+02  0.51100000000E-03 0.  1.
        -12    1    3    3    0    0  0.11867051699E+02 -0.12013055402E+01 -0.16732045138E+02  0.20548269648E+02  0.00000000000E+00 0.  1.
</event>
<event>
 7    1  0.1345786E-013  0.7246156E+02  0.7816164E-02  0.1226708E+00
        -11   -1    0    0    0    0  0.00000000000E+00  0.00000000000E+00  0.45593999997E+02  0.45594000000E+02  0.51100000000E-03 0. -1.
         11   -1    0    0    0    0 -0.00000000000E+00 -0.00000000000E+00 -0.45593999997E+02  0.45594000000E+02  0.51100000000E-03 0.  1.
    9900012    2    1    2    0    0  0.69751088200E+01 -0.13356918149E+02 -0.11118465280E+02  0.72461556780E+02  0.69999982395E+02 0.  0.
         12    1    1    2    0    0 -0.69751088200E+01  0.13356918149E+02  0.11118465280E+02  0.18726443220E+02  0.00000000000E+00 0. -1.
         11    1    3    3    0    0  0.21689420736E+02  0.71402861149E+00  0.12339705823E+02  0.24964157281E+02  0.51100000000E-03 0. -1.
        -11    1    3    3    0    0 -0.25329866544E+02 -0.25641535088E+01 -0.16684624979E+02  0.30439345152E+02  0.51100000000E-03 0.  1.
        -12    1    3    3    0    0  0.10615554628E+02 -0.11506793252E+02 -0.67735461234E+01  0.17058054346E+02  0.00000000000E+00 0.  1.
</event>
<event>
 7    1  0.1345786E-013  0.7246182E+02  0.7816164E-02  0.1226707E+00
        -11   -1    0    0    0    0  0.00000000000E+00  0.00000000000E+00  0.45593999997E+02  0.45594000000E+02  0.51100000000E-03 0.  1.
         11   -1    0    0    0    0 -0.00000000000E+00 -0.00000000000E+00 -0.45593999997E+02  0.45594000000E+02  0.51100000000E-03 0. -1.
    9900012    2    1    2    0    0  0.62674835468E+01  0.15594914442E+02  0.82575451794E+01  0.72461821563E+02  0.70000327324E+02 0.  0.
         12    1    1    2    0    0 -0.62674835468E+01 -0.15594914442E+02 -0.82575451794E+01  0.18726178437E+02  0.00000000000E+00 0. -1.
         11    1    3    3    0    0  0.47693186037E+01 -0.14247570911E+02  0.93829026673E+01  0.17713795176E+02  0.51100000000E-03 0. -1.
        -11    1    3    3    0    0  0.46865191391E+01  0.18949429588E+02 -0.22961891617E+02  0.30137896580E+02  0.51100000000E-03 0.  1.
        -12    1    3    3    0    0 -0.31883541960E+01  0.10893055764E+02  0.21836534130E+02  0.24610129808E+02  0.00000000000E+00 0.  1.
</event>
<event>
 7    1  0.1345786E-013  0.7246154E+02  0.7816164E-02  0.1226708E+00
        -11   -1    0    0    0    0  0.00000000000E+00  0.00000000000E+00  0.45593999997E+02  0.45594000000E+02  0.51100000000E-03 0. -1.
         11   -1    0    0    0    0 -0.00000000000E+00 -0.00000000000E+00 -0.45593999997E+02  0.45594000000E+02  0.51100000000E-03 0.  1.
    9900012    2    1    2    0    0  0.24429953237E+01 -0.15296205175E+02 -0.10523213137E+02  0.72461544553E+02  0.69999966467E+02 0.  0.
         12    1    1    2    0    0 -0.24429953237E+01  0.15296205175E+02  0.10523213137E+02  0.18726455447E+02  0.00000000000E+00 0. -1.
         11    1    3    3    0    0  0.57577001762E+01  0.10718829978E+02 -0.18678803787E+02  0.22292199053E+02  0.51100000000E-03 0. -1.
        -11    1    3    3    0    0 -0.72963709801E+01 -0.36950281456E+02  0.42937656669E+01  0.37907740015E+02  0.51100000000E-03 0.  1.
        -12    1    3    3    0    0  0.39816661276E+01  0.10935246304E+02  0.38618249837E+01  0.12261605485E+02  0.00000000000E+00 0.  1.
</event>
<event>
 7    1  0.1345786E-013  0.7246158E+02  0.7816164E-02  0.1226708E+00
        -11   -1    0    0    0    0  0.00000000000E+00  0.00000000000E+00  0.45593999997E+02  0.45594000000E+02  0.51100000000E-03 0.  1.
         11   -1    0    0    0    0 -0.00000000000E+00 -0.00000000000E+00 -0.45593999997E+02  0.45594000000E+02  0.51100000000E-03 0. -1.
    9900012    2    1    2    0    0  0.50951952767E+01  0.33433663352E+01  0.17707051005E+02  0.72461580997E+02  0.70000013943E+02 0.  0.
         12    1    1    2    0    0 -0.50951952767E+01 -0.33433663352E+01 -0.17707051005E+02  0.18726419003E+02  0.00000000000E+00 0. -1.
         11    1    3    3    0    0 -0.75207415066E+01 -0.23913962246E+02  0.29012367889E+02  0.38342621636E+02  0.51100000000E-03 0. -1.
        -11    1    3    3    0    0  0.87849016271E+01  0.11207438897E+02 -0.22276451358E+00  0.14241868119E+02  0.51100000000E-03 0.  1.
         12    1    3    3    0    0  0.38310351561E+01  0.16049889684E+02 -0.11082552370E+02  0.19877091243E+02  0.00000000000E+00 0. -1.
</event>
<event>
 7    1  0.1345786E-013  0.7246150E+02  0.7816164E-02  0.1226708E+00
        -11   -1    0    0    0    0  0.00000000000E+00  0.00000000000E+00  0.45593999997E+02  0.45594000000E+02  0.51100000000E-03 0.  1.
         11   -1    0    0    0    0 -0.00000000000E+00 -0.00000000000E+00 -0.45593999997E+02  0.45594000000E+02  0.51100000000E-03 0. -1.
    9900012    2    1    2    0    0 -0.12743796494E+02 -0.13253360453E+02  0.35532945699E+01  0.72461499668E+02  0.69999907996E+02 0.  0.
         12    1    1    2    0    0  0.12743796494E+02  0.13253360453E+02 -0.35532945699E+01  0.18726500332E+02  0.00000000000E+00 0. -1.
         11    1    3    3    0    0 -0.13327385111E+02 -0.68789680688E+01 -0.19565469566E+02  0.24652525128E+02  0.51100000000E-03 0. -1.
        -11    1    3    3    0    0  0.20672329816E+02 -0.41930333246E+01  0.79478612535E+01  0.22540968197E+02  0.51100000000E-03 0.  1.
        -12    1    3    3    0    0 -0.20088741199E+02 -0.21813590598E+01  0.15170902882E+02  0.25268006343E+02  0.00000000000E+00 0.  1.
</event>
<event>
 7    1  0.1345786E-013  0.7246176E+02  0.7816164E-02  0.1226708E+00
        -11   -1    0    0    0    0  0.00000000000E+00  0.00000000000E+00  0.45593999997E+02  0.45594000000E+02  0.51100000000E-03 0.  1.
         11   -1    0    0    0    0 -0.00000000000E+00 -0.00000000000E+00 -0.45593999997E+02  0.45594000000E+02  0.51100000000E-03 0. -1.
    9900012    2    1    2    0    0  0.15382948063E+02 -0.19562317882E+01  0.10498100947E+02  0.72461760190E+02  0.70000247374E+02 0.  0.
         12    1    1    2    0    0 -0.15382948063E+02  0.19562317882E+01 -0.10498100947E+02  0.18726239810E+02  0.00000000000E+00 0. -1.
         11    1    3    3    0    0  0.16666656559E+02 -0.85786183239E+01 -0.26259499592E+02  0.32263469316E+02  0.51100000000E-03 0. -1.
        -11    1    3    3    0    0  0.55560174327E+01  0.13579075231E+00  0.67426119963E+01  0.87378822168E+01  0.51100000000E-03 0.  1.
         12    1    3    3    0    0 -0.68397259281E+01  0.64865957834E+01  0.30014988543E+02  0.31460408657E+02  0.00000000000E+00 0. -1.
</event>
<event>
 7    1  0.1345786E-013  0.7246155E+02  0.7816164E-02  0.1226708E+00
        -11   -1    0    0    0    0  0.00000000000E+00  0.00000000000E+00  0.45593999997E+02  0.45594000000E+02  0.51100000000E-03 0. -1.
         11   -1    0    0    0    0 -0.00000000000E+00 -0.00000000000E+00 -0.45593999997E+02  0.45594000000E+02  0.51100000000E-03 0.  1.
    9900012    2    1    2    0    0  0.53424284235E+01  0.35465714018E+01 -0.17594318237E+02  0.72461554945E+02  0.69999980005E+02 0.  0.
         12    1    1    2    0    0 -0.53424284235E+01 -0.35465714018E+01  0.17594318237E+02  0.18726445055E+02  0.00000000000E+00 0. -1.
         11    1    3    3    0    0  0.54310660620E+01  0.24616078755E+02  0.17684548056E+02  0.30792711022E+02  0.51100000000E-03 0. -1.
        -11    1    3    3    0    0 -0.26179677300E+01 -0.17173516680E+02 -0.29719986476E+02  0.34424715345E+02  0.51100000000E-03 0.  1.
         12    1    3    3    0    0  0.25293300915E+01 -0.38959906734E+01 -0.55588798169E+01  0.72441285782E+01  0.00000000000E+00 0. -1.
</event>
<event>
 7    1  0.1345786E-013  0.7246162E+02  0.7816164E-02  0.1226708E+00
        -11   -1    0    0    0    0  0.00000000000E+00  0.00000000000E+00  0.45593999997E+02  0.45594000000E+02  0.51100000000E-03 0. -1.
         11   -1    0    0    0    0 -0.00000000000E+00 -0.00000000000E+00 -0.45593999997E+02  0.45594000000E+02  0.51100000000E-03 0.  1.
    9900012    2    1    2    0    0 -0.93708864665E+01  0.16210482863E+02  0.28986046100E+00  0.72461620560E+02  0.70000065481E+02 0.  0.
         12    1    1    2    0    0  0.93708864665E+01 -0.16210482863E+02 -0.28986046100E+00  0.18726379440E+02  0.00000000000E+00 0. -1.
         11    1    3    3    0    0 -0.65888271956E+00 -0.12608836727E+01  0.51596640199E+01  0.53522039510E+01  0.51100000000E-03 0. -1.
        -11    1    3    3    0    0  0.14990766373E+02  0.31643513318E+02 -0.14448829551E+02  0.37878802611E+02  0.51100000000E-03 0.  1.
        -12    1    3    3    0    0 -0.23702770120E+02 -0.14172146782E+02  0.95790259918E+01  0.29230613999E+02  0.00000000000E+00 0.  1.
</event>
<event>
 7    1  0.1345786E-013  0.7246158E+02  0.7816164E-02  0.1226708E+00
        -11   -1    0    0    0    0  0.00000000000E+00  0.00000000000E+00  0.45593999997E+02  0.45594000000E+02  0.51100000000E-03 0. -1.
         11   -1    0    0    0    0 -0.00000000000E+00 -0.00000000000E+00 -0.45593999997E+02  0.45594000000E+02  0.51100000000E-03 0.  1.
    9900012    2    1    2    0    0 -0.82954349290E+01  0.14848929978E+02 -0.78341554803E+01  0.72461576043E+02  0.70000007488E+02 0.  0.
         12    1    1    2    0    0  0.82954349290E+01 -0.14848929978E+02  0.78341554803E+01  0.18726423957E+02  0.00000000000E+00 0. -1.
         11    1    3    3    0    0  0.13601687449E+02 -0.87150323405E+01  0.19747787814E+02  0.25513384996E+02  0.51100000000E-03 0. -1.
        -11    1    3    3    0    0 -0.69007659556E+01  0.18624645394E+02 -0.23244146164E+02  0.30574308136E+02  0.51100000000E-03 0.  1.
         12    1    3    3    0    0 -0.14996356423E+02  0.49393169238E+01 -0.43377971300E+01  0.16373882911E+02  0.00000000000E+00 0. -1.
</event>
<event>
 7    1  0.1345786E-013  0.7246153E+02  0.7816164E-02  0.1226708E+00
        -11   -1    0    0    0    0  0.00000000000E+00  0.00000000000E+00  0.45593999997E+02  0.45594000000E+02  0.51100000000E-03 0.  1.
         11   -1    0    0    0    0 -0.00000000000E+00 -0.00000000000E+00 -0.45593999997E+02  0.45594000000E+02  0.51100000000E-03 0. -1.
    9900012    2    1    2    0    0 -0.63995864472E+01 -0.17594800248E+02  0.38574856240E+00  0.72461534652E+02  0.69999953570E+02 0.  0.
         12    1    1    2    0    0  0.63995864472E+01  0.17594800248E+02 -0.38574856240E+00  0.18726465348E+02  0.00000000000E+00 0. -1.
         11    1    3    3    0    0  0.11337681561E-01  0.67151963329E+01  0.25159698943E+02  0.26040438581E+02  0.51100000000E-03 0.  1.
        -11    1    3    3    0    0 -0.13874795285E+02 -0.27708397054E+02 -0.20680107120E+02  0.37254959969E+02  0.51100000000E-03 0. -1.
        -12    1    3    3    0    0  0.74638711562E+01  0.33984004734E+01 -0.40938432604E+01  0.91661361028E+01  0.00000000000E+00 0.  1.
</event>
<event>
 7    1  0.1345786E-013  0.7246168E+02  0.7816164E-02  0.1226708E+00
        -11   -1    0    0    0    0  0.00000000000E+00  0.00000000000E+00  0.45593999997E+02  0.45594000000E+02  0.51100000000E-03 0.  1.
         11   -1    0    0    0    0 -0.00000000000E+00 -0.00000000000E+00 -0.45593999997E+02  0.45594000000E+02  0.51100000000E-03 0. -1.
    9900012    2    1    2    0    0 -0.85371492197E+01  0.15843779871E+02  0.51736652010E+01  0.72461679245E+02  0.70000141929E+02 0.  0.
         12    1    1    2    0    0  0.85371492197E+01 -0.15843779871E+02 -0.51736652010E+01  0.18726320755E+02  0.00000000000E+00 0. -1.
         11    1    3    3    0    0 -0.47958522318E+01 -0.27923732351E-01 -0.70229516486E+01  0.85042829495E+01  0.51100000000E-03 0. -1.
        -11    1    3    3    0    0  0.22568624853E+02 -0.19886578499E+01  0.21074000230E+02  0.30942059947E+02  0.51100000000E-03 0.  1.
        -12    1    3    3    0    0 -0.26309921841E+02  0.17860361453E+02 -0.88773833806E+01  0.33015336349E+02  0.00000000000E+00 0.  1.
</event>
<event>
 7    1  0.1345786E-013  0.7246148E+02  0.7816164E-02  0.1226708E+00
        -11   -1    0    0    0    0  0.00000000000E+00  0.00000000000E+00  0.45593999997E+02  0.45594000000E+02  0.51100000000E-03 0.  1.
         11   -1    0    0    0    0 -0.00000000000E+00 -0.00000000000E+00 -0.45593999997E+02  0.45594000000E+02  0.51100000000E-03 0. -1.
    9900012    2    1    2    0    0 -0.92673190443E+01 -0.14849100101E+02  0.66560929030E+01  0.72461480066E+02  0.69999882461E+02 0.  0.
         12    1    1    2    0    0  0.92673190443E+01  0.14849100101E+02 -0.66560929030E+01  0.18726519934E+02  0.00000000000E+00 0. -1.
         11    1    3    3    0    0 -0.49528791995E+01 -0.19705619497E+01 -0.23510173963E+02  0.24106895420E+02  0.51100000000E-03 0. -1.
        -11    1    3    3    0    0  0.39567466149E+00  0.85273503589E+01  0.24167039982E+02  0.25630413269E+02  0.51100000000E-03 0.  1.
         12    1    3    3    0    0 -0.47101145063E+01 -0.21405888510E+02  0.59992268844E+01  0.22724171378E+02  0.00000000000E+00 0. -1.
</event>
<event>
 7    1  0.1345786E-013  0.7246156E+02  0.7816164E-02  0.1226708E+00
        -11   -1    0    0    0    0  0.00000000000E+00  0.00000000000E+00  0.45593999997E+02  0.45594000000E+02  0.51100000000E-03 0.  1.
         11   -1    0    0    0    0 -0.00000000000E+00 -0.00000000000E+00 -0.45593999997E+02  0.45594000000E+02  0.51100000000E-03 0. -1.
    9900012    2    1    2    0    0 -0.46026354219E+01  0.10496562693E+02  0.14809371425E+02  0.72461559783E+02  0.69999986308E+02 0.  0.
         12    1    1    2    0    0  0.46026354219E+01 -0.10496562693E+02 -0.14809371425E+02  0.18726440217E+02  0.00000000000E+00 0. -1.
         11    1    3    3    0    0  0.13236621944E+02 -0.14427556639E+02  0.88209715067E+01  0.21474917686E+02  0.51100000000E-03 0. -1.
        -11    1    3    3    0    0 -0.72307531440E+01  0.12183840236E+02  0.23139638198E+02  0.27132500993E+02  0.51100000000E-03 0.  1.
        -12    1    3    3    0    0 -0.10608504221E+02  0.12740279096E+02 -0.17151238280E+02  0.23854141104E+02  0.00000000000E+00 0.  1.
</event>
<event>
 7    1  0.1345786E-013  0.7246155E+02  0.7816164E-02  0.1226708E+00
        -11   -1    0    0    0    0  0.00000000000E+00  0.00000000000E+00  0.45593999997E+02  0.45594000000E+02  0.51100000000E-03 0. -1.
         11   -1    0    0    0    0 -0.00000000000E+00 -0.00000000000E+00 -0.45593999997E+02  0.45594000000E+02  0.51100000000E-03 0.  1.
    9900012    2    1    2    0    0  0.93646369399E+01  0.62852820386E+01 -0.14949202992E+02  0.72461551714E+02  0.69999975796E+02 0.  0.
         12    1    1    2    0    0 -0.93646369399E+01 -0.62852820386E+01  0.14949202992E+02  0.18726448286E+02  0.00000000000E+00 0. -1.
         11    1    3    3    0    0  0.14250808804E+02 -0.98848856366E+01 -0.38805966751E+02  0.42505288746E+02  0.51100000000E-03 0.  1.
        -11    1    3    3    0    0 -0.31757989550E+01  0.12314501155E+02  0.21858502945E+02  0.25288866898E+02  0.51100000000E-03 0. -1.
        -12    1    3    3    0    0 -0.17103729087E+01  0.38556665202E+01  0.19982608140E+01  0.46673960709E+01  0.00000000000E+00 0.  1.
</event>
<event>
 7    1  0.1345786E-013  0.7246157E+02  0.7816164E-02  0.1226708E+00
        -11   -1    0    0    0    0  0.00000000000E+00  0.00000000000E+00  0.45593999997E+02  0.45594000000E+02  0.51100000000E-03 0. -1.
         11   -1    0    0    0    0 -0.00000000000E+00 -0.00000000000E+00 -0.45593999997E+02  0.45594000000E+02  0.51100000000E-03 0.  1.
    9900012    2    1    2    0    0  0.53123653857E+01  0.11299590827E+02 -0.13956258511E+02  0.72461571337E+02  0.70000001358E+02 0.  0.
         12    1    1    2    0    0 -0.53123653857E+01 -0.11299590827E+02  0.13956258511E+02  0.18726428663E+02  0.00000000000E+00 0. -1.
         11    1    3    3    0    0 -0.92857029770E+01 -0.11604324489E+02  0.30934861142E+01  0.15180720774E+02  0.51100000000E-03 0. -1.
        -11    1    3    3    0    0  0.63159926793E+01  0.36710884389E+02 -0.17539380047E+02  0.41172935879E+02  0.51100000000E-03 0.  1.
        -12    1    3    3    0    0  0.82820756834E+01 -0.13806969074E+02  0.48963542135E+00  0.16107914684E+02  0.00000000000E+00 0.  1.
</event>
<event>
 7    1  0.1345786E-013  0.7246153E+02  0.7816164E-02  0.1226708E+00
        -11   -1    0    0    0    0  0.00000000000E+00  0.00000000000E+00  0.45593999997E+02  0.45594000000E+02  0.51100000000E-03 0. -1.
         11   -1    0    0    0    0 -0.00000000000E+00 -0.00000000000E+00 -0.45593999997E+02  0.45594000000E+02  0.51100000000E-03 0.  1.
    9900012    2    1    2    0    0 -0.11863049514E+02 -0.91552383955E+01 -0.11230774596E+02  0.72461531249E+02  0.69999949137E+02 0.  0.
         12    1    1    2    0    0  0.11863049514E+02  0.91552383955E+01  0.11230774596E+02  0.18726468751E+02  0.00000000000E+00 0. -1.
         11    1    3    3    0    0  0.10822371183E+02  0.24990508611E+02  0.52952824477E+01  0.27743274052E+02  0.51100000000E-03 0. -1.
        -11    1    3    3    0    0 -0.18128328500E+02 -0.31074039956E+02 -0.13361516872E+02  0.38376586440E+02  0.51100000000E-03 0.  1.
         12    1    3    3    0    0 -0.45570921969E+01 -0.30717070509E+01 -0.31645401718E+01  0.63416707575E+01  0.00000000000E+00 0. -1.
</event>
<event>
 7    1  0.1345786E-013  0.7246166E+02  0.7816164E-02  0.1226708E+00
        -11   -1    0    0    0    0  0.00000000000E+00  0.00000000000E+00  0.45593999997E+02  0.45594000000E+02  0.51100000000E-03 0. -1.
         11   -1    0    0    0    0 -0.00000000000E+00 -0.00000000000E+00 -0.45593999997E+02  0.45594000000E+02  0.51100000000E-03 0.  1.
    9900012    2    1    2    0    0 -0.60881181469E+01  0.84527684062E+01 -0.15561533635E+02  0.72461660118E+02  0.70000117012E+02 0.  0.
         12    1    1    2    0    0  0.60881181469E+01 -0.84527684062E+01  0.15561533635E+02  0.18726339882E+02  0.00000000000E+00 0. -1.
         11    1    3    3    0    0 -0.63344705829E+01  0.42824615248E+01  0.13589305493E+02  0.15592761728E+02  0.51100000000E-03 0. -1.
        -11    1    3    3    0    0 -0.81936199611E+01  0.12915990047E+02 -0.38570041925E+02  0.41492244351E+02  0.51100000000E-03 0.  1.
        -12    1    3    3    0    0  0.84399723971E+01 -0.87456831655E+01  0.94192027968E+01  0.15376654039E+02  0.00000000000E+00 0.  1.
</event>
<event>
 7    1  0.1345786E-013  0.7246157E+02  0.7816164E-02  0.1226708E+00
        -11   -1    0    0    0    0  0.00000000000E+00  0.00000000000E+00  0.45593999997E+02  0.45594000000E+02  0.51100000000E-03 0.  1.
         11   -1    0    0    0    0 -0.00000000000E+00 -0.00000000000E+00 -0.45593999997E+02  0.45594000000E+02  0.51100000000E-03 0. -1.
    9900012    2    1    2    0    0  0.16224030808E+02  0.16741983490E+01  0.92009322442E+01  0.72461567613E+02  0.69999996507E+02 0.  0.
         12    1    1    2    0    0 -0.16224030808E+02 -0.16741983490E+01 -0.92009322442E+01  0.18726432387E+02  0.00000000000E+00 0. -1.
         11    1    3    3    0    0 -0.47016613790E+01 -0.87090324225E+01  0.24802600194E+02  0.26704341260E+02  0.51100000000E-03 0. -1.
        -11    1    3    3    0    0  0.30532367460E+02  0.26678474865E+01 -0.10172279709E+02  0.32292694958E+02  0.51100000000E-03 0.  1.
         12    1    3    3    0    0 -0.96066752722E+01  0.77153832849E+01 -0.54293882415E+01  0.13464531395E+02  0.00000000000E+00 0. -1.
</event>
<event>
 7    1  0.1345786E-013  0.7246137E+02  0.7816164E-02  0.1226709E+00
        -11   -1    0    0    0    0  0.00000000000E+00  0.00000000000E+00  0.45593999997E+02  0.45594000000E+02  0.51100000000E-03 0.  1.
         11   -1    0    0    0    0 -0.00000000000E+00 -0.00000000000E+00 -0.45593999997E+02  0.45594000000E+02  0.51100000000E-03 0. -1.
    9900012    2    1    2    0    0 -0.92413900634E+01  0.16203370035E+02 -0.16535786280E+01  0.72461366211E+02  0.69999734143E+02 0.  0.
         12    1    1    2    0    0  0.92413900634E+01 -0.16203370035E+02  0.16535786280E+01  0.18726633789E+02  0.00000000000E+00 0. -1.
         11    1    3    3    0    0  0.18947029365E+01  0.15450287042E+02  0.29851023261E+02  0.33665781720E+02  0.51100000000E-03 0. -1.
        -11    1    3    3    0    0 -0.40392331012E+01 -0.88029501958E+01 -0.20095113437E+02  0.22307418508E+02  0.51100000000E-03 0.  1.
         12    1    3    3    0    0 -0.70968598987E+01  0.95560331889E+01 -0.11409488451E+02  0.16488165982E+02  0.00000000000E+00 0. -1.
</event>
<event>
 7    1  0.1345786E-013  0.7246163E+02  0.7816164E-02  0.1226708E+00
        -11   -1    0    0    0    0  0.00000000000E+00  0.00000000000E+00  0.45593999997E+02  0.45594000000E+02  0.51100000000E-03 0. -1.
         11   -1    0    0    0    0 -0.00000000000E+00 -0.00000000000E+00 -0.45593999997E+02  0.45594000000E+02  0.51100000000E-03 0.  1.
    9900012    2    1    2    0    0  0.11082743367E+02  0.80811402840E+01 -0.12749315485E+02  0.72461626241E+02  0.70000072881E+02 0.  0.
         12    1    1    2    0    0 -0.11082743367E+02 -0.80811402840E+01  0.12749315485E+02  0.18726373759E+02  0.00000000000E+00 0. -1.
         11    1    3    3    0    0  0.54265855567E+01  0.68570884428E+01  0.22161150197E+02  0.23824022982E+02  0.51100000000E-03 0. -1.
        -11    1    3    3    0    0 -0.63889606065E+01 -0.74935348326E+01 -0.32007476364E+02  0.33488063924E+02  0.51100000000E-03 0.  1.
         12    1    3    3    0    0  0.12045118416E+02  0.87175866738E+01 -0.29029893178E+01  0.15149539335E+02  0.00000000000E+00 0. -1.
</event>
<event>
 7    1  0.1345786E-013  0.7246159E+02  0.7816164E-02  0.1226708E+00
        -11   -1    0    0    0    0  0.00000000000E+00  0.00000000000E+00  0.45593999997E+02  0.45594000000E+02  0.51100000000E-03 0.  1.
         11   -1    0    0    0    0 -0.00000000000E+00 -0.00000000000E+00 -0.45593999997E+02  0.45594000000E+02  0.51100000000E-03 0. -1.
    9900012    2    1    2    0    0 -0.12754483995E+02  0.73662685294E+01 -0.11564582559E+02  0.72461592342E+02  0.70000028721E+02 0.  0.
         12    1    1    2    0    0  0.12754483995E+02 -0.73662685294E+01  0.11564582559E+02  0.18726407658E+02  0.00000000000E+00 0. -1.
         11    1    3    3    0    0 -0.11570939511E+02 -0.88148341817E+01 -0.82518759158E+01  0.16723677802E+02  0.51100000000E-03 0. -1.
        -11    1    3    3    0    0  0.10700955566E+02  0.30442934842E+02 -0.13010478608E+02  0.34793035017E+02  0.51100000000E-03 0.  1.
        -12    1    3    3    0    0 -0.11884500049E+02 -0.14261832131E+02  0.96977719641E+01  0.20944879523E+02  0.00000000000E+00 0.  1.
</event>
<event>
 7    1  0.1345786E-013  0.7246181E+02  0.7816164E-02  0.1226707E+00
        -11   -1    0    0    0    0  0.00000000000E+00  0.00000000000E+00  0.45593999997E+02  0.45594000000E+02  0.51100000000E-03 0. -1.
         11   -1    0    0    0    0 -0.00000000000E+00 -0.00000000000E+00 -0.45593999997E+02  0.45594000000E+02  0.51100000000E-03 0.  1.
    9900012    2    1    2    0    0 -0.75646483105E+01  0.27780742660E+01 -0.16903510618E+02  0.72461807864E+02  0.70000309478E+02 0.  0.
         12    1    1    2    0    0  0.75646483105E+01 -0.27780742660E+01  0.16903510618E+02  0.18726192136E+02  0.00000000000E+00 0. -1.
         11    1    3    3    0    0 -0.11484621305E+02  0.12152659931E+02  0.15670885000E+02  0.22916376390E+02  0.51100000000E-03 0. -1.
        -11    1    3    3    0    0  0.19170333931E+02 -0.10113028689E+02 -0.22567857026E+02  0.31290305580E+02  0.51100000000E-03 0.  1.
        -12    1    3    3    0    0 -0.15250360936E+02  0.73844302354E+00 -0.10006538592E+02  0.18255125894E+02  0.00000000000E+00 0.  1.
</event>
<event>
 7    1  0.1345786E-013  0.7246175E+02  0.7816164E-02  0.1226708E+00
        -11   -1    0    0    0    0  0.00000000000E+00  0.00000000000E+00  0.45593999997E+02  0.45594000000E+02  0.51100000000E-03 0. -1.
         11   -1    0    0    0    0 -0.00000000000E+00 -0.00000000000E+00 -0.45593999997E+02  0.45594000000E+02  0.51100000000E-03 0.  1.
    9900012    2    1    2    0    0 -0.15664340514E+02 -0.55036702743E+01  0.86608504470E+01  0.72461754228E+02  0.70000239608E+02 0.  0.
         12    1    1    2    0    0  0.15664340514E+02  0.55036702743E+01 -0.86608504470E+01  0.18726245772E+02  0.00000000000E+00 0. -1.
         11    1    3    3    0    0 -0.14293300016E+02 -0.14796831219E+02 -0.89147764553E+01  0.22421371032E+02  0.51100000000E-03 0. -1.
        -11    1    3    3    0    0 -0.97610049065E+01 -0.73262043464E+01  0.26663272549E+02  0.29323720606E+02  0.51100000000E-03 0.  1.
        -12    1    3    3    0    0  0.83899644080E+01  0.16619365291E+02 -0.90876456469E+01  0.20716662590E+02  0.00000000000E+00 0.  1.
</event>
<event>
 7    1  0.1345786E-013  0.7246157E+02  0.7816164E-02  0.1226708E+00
        -11   -1    0    0    0    0  0.00000000000E+00  0.00000000000E+00  0.45593999997E+02  0.45594000000E+02  0.51100000000E-03 0. -1.
         11   -1    0    0    0    0 -0.00000000000E+00 -0.00000000000E+00 -0.45593999997E+02  0.45594000000E+02  0.51100000000E-03 0.  1.
    9900012    2    1    2    0    0 -0.13581031434E+02  0.19014646360E+01 -0.12752217832E+02  0.72461573693E+02  0.70000004428E+02 0.  0.
         12    1    1    2    0    0  0.13581031434E+02 -0.19014646360E+01  0.12752217832E+02  0.18726426307E+02  0.00000000000E+00 0. -1.
         11    1    3    3    0    0  0.12747265387E+02  0.18957981187E+02 -0.13262941237E+02  0.26415969338E+02  0.51100000000E-03 0. -1.
        -11    1    3    3    0    0 -0.20163226931E+02 -0.10775607530E+02 -0.15607246723E+02  0.27681322014E+02  0.51100000000E-03 0.  1.
         12    1    3    3    0    0 -0.61650698899E+01 -0.62809090210E+01  0.16117970128E+02  0.18364282341E+02  0.00000000000E+00 0. -1.
</event>
<event>
 7    1  0.1345786E-013  0.7246153E+02  0.7816164E-02  0.1226708E+00
        -11   -1    0    0    0    0  0.00000000000E+00  0.00000000000E+00  0.45593999997E+02  0.45594000000E+02  0.51100000000E-03 0.  1.
         11   -1    0    0    0    0 -0.00000000000E+00 -0.00000000000E+00 -0.45593999997E+02  0.45594000000E+02  0.51100000000E-03 0. -1.
    9900012    2    1    2    0    0  0.31930916831E+01 -0.17691626512E+02  0.52432219112E+01  0.72461525181E+02  0.69999941231E+02 0.  0.
         12    1    1    2    0    0 -0.31930916831E+01  0.17691626512E+02 -0.52432219112E+01  0.18726474819E+02  0.00000000000E+00 0. -1.
         11    1    3    3    0    0 -0.10492207716E+02  0.12576372537E+02 -0.62027713263E+01  0.17513593045E+02  0.51100000000E-03 0. -1.
        -11    1    3    3    0    0 -0.27563819254E+01 -0.15762551667E+02  0.24624114467E+02  0.29366693548E+02  0.51100000000E-03 0.  1.
        -12    1    3    3    0    0  0.16441681325E+02 -0.14505447382E+02 -0.13178121230E+02  0.25581238588E+02  0.00000000000E+00 0.  1.
</event>
<event>
 7    1  0.1345786E-013  0.7246160E+02  0.7816164E-02  0.1226708E+00
        -11   -1    0    0    0    0  0.00000000000E+00  0.00000000000E+00  0.45593999997E+02  0.45594000000E+02  0.51100000000E-03 0. -1.
         11   -1    0    0    0    0 -0.00000000000E+00 -0.00000000000E+00 -0.45593999997E+02  0.45594000000E+02  0.51100000000E-03 0.  1.
    9900012    2    1    2    0    0 -0.15133707698E+02  0.81122511747E+00 -0.10999576754E+02  0.72461604627E+02  0.70000044725E+02 0.  0.
         12    1    1    2    0    0  0.15133707698E+02 -0.81122511747E+00  0.10999576754E+02  0.18726395373E+02  0.00000000000E+00 0. -1.
         11    1    3    3    0    0  0.11027156977E+02  0.19142060157E+02  0.30501027512E+01  0.22300667818E+02  0.51100000000E-03 0. -1.
        -11    1    3    3    0    0 -0.14195261524E+02 -0.24367323742E+02  0.31281088382E+01  0.28373526063E+02  0.51100000000E-03 0.  1.
        -12    1    3    3    0    0 -0.11965603151E+02  0.60364887024E+01 -0.17177788343E+02  0.21787410746E+02  0.00000000000E+00 0.  1.
</event>
<event>
 7    1  0.1345786E-013  0.7246160E+02  0.7816164E-02  0.1226708E+00
        -11   -1    0    0    0    0  0.00000000000E+00  0.00000000000E+00  0.45593999997E+02  0.45594000000E+02  0.51100000000E-03 0.  1.
         11   -1    0    0    0    0 -0.00000000000E+00 -0.00000000000E+00 -0.45593999997E+02  0.45594000000E+02  0.51100000000E-03 0. -1.
    9900012    2    1    2    0    0 -0.12166735232E+02  0.10915582904E+02 -0.91377649261E+01  0.72461597671E+02  0.70000035663E+02 0.  0.
         12    1    1    2    0    0  0.12166735232E+02 -0.10915582904E+02  0.91377649261E+01  0.18726402329E+02  0.00000000000E+00 0. -1.
         11    1    3    3    0    0  0.35906618189E+01 -0.21808766918E+02 -0.91055613033E+01  0.23904527054E+02  0.51100000000E-03 0. -1.
        -11    1    3    3    0    0  0.82568010997E+00  0.14880114372E+02 -0.14024592782E+02  0.20464328826E+02  0.51100000000E-03 0.  1.
         12    1    3    3    0    0 -0.16583077161E+02  0.17844235450E+02  0.13992389159E+02  0.28092741790E+02  0.00000000000E+00 0. -1.
</event>
<event>
 7    1  0.1345786E-013  0.7246222E+02  0.7816164E-02  0.1226706E+00
        -11   -1    0    0    0    0  0.00000000000E+00  0.00000000000E+00  0.45593999997E+02  0.45594000000E+02  0.51100000000E-03 0. -1.
         11   -1    0    0    0    0 -0.00000000000E+00 -0.00000000000E+00 -0.45593999997E+02  0.45594000000E+02  0.51100000000E-03 0.  1.
    9900012    2    1    2    0    0 -0.71552762911E+01  0.11849642533E+02 -0.12611211467E+02  0.72462224673E+02  0.70000852444E+02 0.  0.
         12    1    1    2    0    0  0.71552762911E+01 -0.11849642533E+02  0.12611211467E+02  0.18725775327E+02  0.00000000000E+00 0. -1.
         11    1    3    3    0    0  0.11371305264E+02 -0.80627319932E+01  0.18249613545E+02  0.22964377314E+02  0.51100000000E-03 0.  1.
        -11    1    3    3    0    0 -0.23285489789E+02  0.18352018086E+02 -0.15735841886E+02  0.33565269590E+02  0.51100000000E-03 0. -1.
        -12    1    3    3    0    0  0.47589082343E+01  0.15603564400E+01 -0.15124983126E+02  0.15932577769E+02  0.00000000000E+00 0.  1.
</event>
<event>
 7    1  0.1345786E-013  0.7246158E+02  0.7816164E-02  0.1226708E+00
        -11   -1    0    0    0    0  0.00000000000E+00  0.00000000000E+00  0.45593999997E+02  0.45594000000E+02  0.51100000000E-03 0.  1.
         11   -1    0    0    0    0 -0.00000000000E+00 -0.00000000000E+00 -0.45593999997E+02  0.45594000000E+02  0.51100000000E-03 0. -1.
    9900012    2    1    2    0    0 -0.12392456801E+02  0.55386107353E+01  0.12900755913E+02  0.72461582896E+02  0.70000016416E+02 0.  0.
         12    1    1    2    0    0  0.12392456801E+02 -0.55386107353E+01 -0.12900755913E+02  0.18726417104E+02  0.00000000000E+00 0. -1.
         11    1    3    3    0    0 -0.10463303690E+02  0.67047001829E+01 -0.77702342981E+01  0.14656407130E+02  0.51100000000E-03 0. -1.
        -11    1    3    3    0    0  0.13279708804E+02 -0.23416218554E+02  0.12188308384E+02  0.29550377642E+02  0.51100000000E-03 0.  1.
        -12    1    3    3    0    0 -0.15208861915E+02  0.22250129106E+02  0.84826818274E+01  0.28254798123E+02  0.00000000000E+00 0.  1.
</event>
<event>
 7    1  0.1345786E-013  0.7246157E+02  0.7816164E-02  0.1226708E+00
        -11   -1    0    0    0    0  0.00000000000E+00  0.00000000000E+00  0.45593999997E+02  0.45594000000E+02  0.51100000000E-03 0. -1.
         11   -1    0    0    0    0 -0.00000000000E+00 -0.00000000000E+00 -0.45593999997E+02  0.45594000000E+02  0.51100000000E-03 0.  1.
    9900012    2    1    2    0    0  0.16219737009E+02 -0.60059085630E+01 -0.71783273795E+01  0.72461569740E+02  0.69999999278E+02 0.  0.
         12    1    1    2    0    0 -0.16219737009E+02  0.60059085630E+01  0.71783273795E+01  0.18726430260E+02  0.00000000000E+00 0. -1.
         11    1    3    3    0    0  0.11858162930E+02 -0.12202168610E+02  0.23445332169E+02  0.28968820266E+02  0.51100000000E-03 0. -1.
        -11    1    3    3    0    0 -0.11196973671E+02  0.73252996644E+01 -0.21777590370E+02  0.25559649394E+02  0.51100000000E-03 0.  1.
         12    1    3    3    0    0  0.15558547750E+02 -0.11290396172E+01 -0.88460691787E+01  0.17933100080E+02  0.00000000000E+00 0. -1.
</event>
<event>
 7    1  0.1345786E-013  0.7246161E+02  0.7816164E-02  0.1226708E+00
        -11   -1    0    0    0    0  0.00000000000E+00  0.00000000000E+00  0.45593999997E+02  0.45594000000E+02  0.51100000000E-03 0. -1.
         11   -1    0    0    0    0 -0.00000000000E+00 -0.00000000000E+00 -0.45593999997E+02  0.45594000000E+02  0.51100000000E-03 0.  1.
    9900012    2    1    2    0    0 -0.10466076465E+02  0.13131558249E+02 -0.82886053707E+01  0.72461613333E+02  0.70000056065E+02 0.  0.
         12    1    1    2    0    0  0.10466076465E+02 -0.13131558249E+02  0.82886053707E+01  0.18726386667E+02  0.00000000000E+00 0. -1.
         11    1    3    3    0    0 -0.12913769771E+02 -0.35208607882E+01 -0.14129929538E+02  0.19463217088E+02  0.51100000000E-03 0. -1.
        -11    1    3    3    0    0 -0.22724484385E+01  0.31942242085E+02 -0.66404564543E+01  0.32704227762E+02  0.51100000000E-03 0.  1.
        -12    1    3    3    0    0  0.47201417446E+01 -0.15289823047E+02  0.12481780622E+02  0.20294168483E+02  0.00000000000E+00 0.  1.
</event>
<event>
 7    1  0.1345786E-013  0.7246148E+02  0.7816164E-02  0.1226708E+00
        -11   -1    0    0    0    0  0.00000000000E+00  0.00000000000E+00  0.45593999997E+02  0.45594000000E+02  0.51100000000E-03 0.  1.
         11   -1    0    0    0    0 -0.00000000000E+00 -0.00000000000E+00 -0.45593999997E+02  0.45594000000E+02  0.51100000000E-03 0. -1.
    9900012    2    1    2    0    0  0.14762040276E+01 -0.17407301763E+02  0.67445687863E+01  0.72461480272E+02  0.69999882729E+02 0.  0.
         12    1    1    2    0    0 -0.14762040276E+01  0.17407301763E+02 -0.67445687863E+01  0.18726519728E+02  0.00000000000E+00 0. -1.
         11    1    3    3    0    0 -0.15620644727E+02 -0.16914295034E+02  0.19568653271E+02  0.30216388092E+02  0.51100000000E-03 0. -1.
        -11    1    3    3    0    0  0.18800575855E+02  0.12845289556E+02  0.12189183645E+01  0.22802387562E+02  0.51100000000E-03 0.  1.
         12    1    3    3    0    0 -0.17037271005E+01 -0.13338296285E+02 -0.14043002850E+02  0.19442704618E+02  0.00000000000E+00 0. -1.
</event>
<event>
 7    1  0.1345786E-013  0.7246135E+02  0.7816164E-02  0.1226709E+00
        -11   -1    0    0    0    0  0.00000000000E+00  0.00000000000E+00  0.45593999997E+02  0.45594000000E+02  0.51100000000E-03 0. -1.
         11   -1    0    0    0    0 -0.00000000000E+00 -0.00000000000E+00 -0.45593999997E+02  0.45594000000E+02  0.51100000000E-03 0.  1.
    9900012    2    1    2    0    0 -0.60435533307E+01 -0.15399592610E+02 -0.87758497707E+01  0.72461347106E+02  0.69999709255E+02 0.  0.
         12    1    1    2    0    0  0.60435533307E+01  0.15399592610E+02  0.87758497707E+01  0.18726652894E+02  0.00000000000E+00 0. -1.
         11    1    3    3    0    0  0.20138005242E+02 -0.12624778094E+02  0.10952735936E+02  0.26170340116E+02  0.51100000000E-03 0. -1.
        -11    1    3    3    0    0 -0.18029187054E+02  0.13821194813E+02 -0.67447049410E+01  0.23697427221E+02  0.51100000000E-03 0.  1.
        -12    1    3    3    0    0 -0.81523715183E+01 -0.16596009329E+02 -0.12983880766E+02  0.22593579768E+02  0.00000000000E+00 0.  1.
</event>
<event>
 7    1  0.1345786E-013  0.7246152E+02  0.7816164E-02  0.1226708E+00
        -11   -1    0    0    0    0  0.00000000000E+00  0.00000000000E+00  0.45593999997E+02  0.45594000000E+02  0.51100000000E-03 0.  1.
         11   -1    0    0    0    0 -0.00000000000E+00 -0.00000000000E+00 -0.45593999997E+02  0.45594000000E+02  0.51100000000E-03 0. -1.
    9900012    2    1    2    0    0  0.15692038996E+02 -0.59542189806E+01  0.83059193279E+01  0.72461518552E+02  0.69999932596E+02 0.  0.
         12    1    1    2    0    0 -0.15692038996E+02  0.59542189806E+01 -0.83059193279E+01  0.18726481448E+02  0.00000000000E+00 0. -1.
         11    1    3    3    0    0  0.86409701748E+00  0.21834386978E+02 -0.16918259237E+02  0.27635386993E+02  0.51100000000E-03 0. -1.
        -11    1    3    3    0    0  0.13811064869E+02 -0.56966024770E+01  0.10054894773E+02  0.18008267594E+02  0.51100000000E-03 0.  1.
         12    1    3    3    0    0  0.10168771100E+01 -0.22092003482E+02  0.15169283792E+02  0.26817863965E+02  0.00000000000E+00 0. -1.
</event>
<event>
 7    1  0.1345786E-013  0.7246158E+02  0.7816164E-02  0.1226708E+00
        -11   -1    0    0    0    0  0.00000000000E+00  0.00000000000E+00  0.45593999997E+02  0.45594000000E+02  0.51100000000E-03 0.  1.
         11   -1    0    0    0    0 -0.00000000000E+00 -0.00000000000E+00 -0.45593999997E+02  0.45594000000E+02  0.51100000000E-03 0. -1.
    9900012    2    1    2    0    0  0.81763490823E+01  0.14449892326E+02 -0.86618073682E+01  0.72461575370E+02  0.70000006612E+02 0.  0.
         12    1    1    2    0    0 -0.81763490823E+01 -0.14449892326E+02  0.86618073682E+01  0.18726424630E+02  0.00000000000E+00 0. -1.
         11    1    3    3    0    0 -0.48610248636E+01  0.35689220294E+02 -0.12553204752E+02  0.38143583441E+02  0.51100000000E-03 0. -1.
        -11    1    3    3    0    0  0.14490133783E+02 -0.32706732746E+01  0.62906338736E+01  0.16131749921E+02  0.51100000000E-03 0.  1.
         12    1    3    3    0    0 -0.14527598372E+01 -0.17968654694E+02 -0.23992364898E+01  0.18186242008E+02  0.00000000000E+00 0. -1.
</event>
<event>
 7    1  0.1345786E-013  0.7246160E+02  0.7816164E-02  0.1226708E+00
        -11   -1    0    0    0    0  0.00000000000E+00  0.00000000000E+00  0.45593999997E+02  0.45594000000E+02  0.51100000000E-03 0.  1.
         11   -1    0    0    0    0 -0.00000000000E+00 -0.00000000000E+00 -0.45593999997E+02  0.45594000000E+02  0.51100000000E-03 0. -1.
    9900012    2    1    2    0    0  0.67035337826E+01 -0.14827877161E+02  0.92668716833E+01  0.72461595725E+02  0.70000033128E+02 0.  0.
         12    1    1    2    0    0 -0.67035337826E+01  0.14827877161E+02 -0.92668716833E+01  0.18726404275E+02  0.00000000000E+00 0. -1.
         11    1    3    3    0    0  0.46945400557E+01 -0.27041485709E+02  0.30021268799E+02  0.40676249043E+02  0.51100000000E-03 0.  1.
        -11    1    3    3    0    0  0.50871557582E+01 -0.15406891570E+01 -0.16080268128E+02  0.16935994217E+02  0.51100000000E-03 0. -1.
        -12    1    3    3    0    0 -0.30781620313E+01  0.13754297705E+02 -0.46741289880E+01  0.14849352465E+02  0.00000000000E+00 0.  1.
</event>
<event>
 7    1  0.1345786E-013  0.7246154E+02  0.7816164E-02  0.1226708E+00
        -11   -1    0    0    0    0  0.00000000000E+00  0.00000000000E+00  0.45593999997E+02  0.45594000000E+02  0.51100000000E-03 0. -1.
         11   -1    0    0    0    0 -0.00000000000E+00 -0.00000000000E+00 -0.45593999997E+02  0.45594000000E+02  0.51100000000E-03 0.  1.
    9900012    2    1    2    0    0 -0.17204668867E+02 -0.59493146672E+01 -0.43915072467E+01  0.72461539797E+02  0.69999960272E+02 0.  0.
         12    1    1    2    0    0  0.17204668867E+02  0.59493146672E+01  0.43915072467E+01  0.18726460203E+02  0.00000000000E+00 0. -1.
         11    1    3    3    0    0 -0.22257262090E+02 -0.63561887512E+01  0.12361274077E+02  0.26240959363E+02  0.51100000000E-03 0. -1.
        -11    1    3    3    0    0  0.54390781699E+01  0.16286873897E+02 -0.23380621276E+02  0.29008607070E+02  0.51100000000E-03 0.  1.
        -12    1    3    3    0    0 -0.38648494621E+00 -0.15879999813E+02  0.66278399519E+01  0.17211973364E+02  0.00000000000E+00 0.  1.
</event>
<event>
 7    1  0.1345786E-013  0.7246156E+02  0.7816164E-02  0.1226708E+00
        -11   -1    0    0    0    0  0.00000000000E+00  0.00000000000E+00  0.45593999997E+02  0.45594000000E+02  0.51100000000E-03 0.  1.
         11   -1    0    0    0    0 -0.00000000000E+00 -0.00000000000E+00 -0.45593999997E+02  0.45594000000E+02  0.51100000000E-03 0. -1.
    9900012    2    1    2    0    0 -0.38379636163E+00  0.24463485337E+01  0.18561990954E+02  0.72461563367E+02  0.69999990976E+02 0.  0.
         12    1    1    2    0    0  0.38379636163E+00 -0.24463485337E+01 -0.18561990954E+02  0.18726436633E+02  0.00000000000E+00 0. -1.
         11    1    3    3    0    0  0.24756630813E+02  0.20162180244E+02  0.19315303742E+02  0.37316018549E+02  0.51100000000E-03 0. -1.
        -11    1    3    3    0    0 -0.94864490249E+01  0.22518089502E+01 -0.67105219088E+00  0.97731095336E+01  0.51100000000E-03 0.  1.
         12    1    3    3    0    0 -0.15653978150E+02 -0.19967640661E+02 -0.82260597260E-01  0.25372435285E+02  0.00000000000E+00 0. -1.
</event>
<event>
 7    1  0.1345786E-013  0.7246150E+02  0.7816164E-02  0.1226708E+00
        -11   -1    0    0    0    0  0.00000000000E+00  0.00000000000E+00  0.45593999997E+02  0.45594000000E+02  0.51100000000E-03 0. -1.
         11   -1    0    0    0    0 -0.00000000000E+00 -0.00000000000E+00 -0.45593999997E+02  0.45594000000E+02  0.51100000000E-03 0.  1.
    9900012    2    1    2    0    0 -0.11297933669E+02 -0.13983510118E+02  0.52440403386E+01  0.72461499540E+02  0.69999907830E+02 0.  0.
         12    1    1    2    0    0  0.11297933669E+02  0.13983510118E+02 -0.52440403386E+01  0.18726500460E+02  0.00000000000E+00 0. -1.
         11    1    3    3    0    0  0.21326595749E+02  0.21231859091E+01 -0.18725352309E+02  0.28459979340E+02  0.51100000000E-03 0. -1.
        -11    1    3    3    0    0 -0.14514821212E+02 -0.68290870707E+01  0.69816837935E+01  0.17494581272E+02  0.51100000000E-03 0.  1.
         12    1    3    3    0    0 -0.18109708206E+02 -0.92776089562E+01  0.16987708855E+02  0.26506938929E+02  0.00000000000E+00 0. -1.
</event>
<event>
 7    1  0.1345786E-013  0.7246162E+02  0.7816164E-02  0.1226708E+00
        -11   -1    0    0    0    0  0.00000000000E+00  0.00000000000E+00  0.45593999997E+02  0.45594000000E+02  0.51100000000E-03 0. -1.
         11   -1    0    0    0    0 -0.00000000000E+00 -0.00000000000E+00 -0.45593999997E+02  0.45594000000E+02  0.51100000000E-03 0.  1.
    9900012    2    1    2    0    0 -0.13740671927E+02 -0.91554089100E+01 -0.88345690959E+01  0.72461623190E+02  0.70000068906E+02 0.  0.
         12    1    1    2    0    0  0.13740671927E+02  0.91554089100E+01  0.88345690959E+01  0.18726376810E+02  0.00000000000E+00 0. -1.
         11    1    3    3    0    0 -0.16860962701E+02  0.10080640186E+02 -0.31605798404E+02  0.37213409717E+02  0.51100000000E-03 0.  1.
        -11    1    3    3    0    0  0.50360224515E+01 -0.21251224829E+02  0.13748833127E+02  0.25807101571E+02  0.51100000000E-03 0. -1.
        -12    1    3    3    0    0 -0.19157316779E+01  0.20151757335E+01  0.90223961810E+01  0.94411119020E+01  0.00000000000E+00 0.  1.
</event>
<event>
 8    1  0.1345786E-013  0.7246158E+02  0.7816164E-02  0.1226708E+00
        -11   -1    0    0    0    0  0.00000000000E+00  0.00000000000E+00  0.45593999997E+02  0.45594000000E+02  0.51100000000E-03 0.  1.
         11   -1    0    0    0    0 -0.00000000000E+00 -0.00000000000E+00 -0.45593999997E+02  0.45594000000E+02  0.51100000000E-03 0. -1.
    9900012    2    1    2    0    0 -0.15226310474E+02 -0.10617051420E+02  0.24731845931E+01  0.72461576062E+02  0.70000007513E+02 0.  0.
        -24    2    3    3    0    0 -0.21834111950E+01  0.23996963524E+01 -0.83141554544E+01  0.51109301014E+02  0.50324046362E+02 0.  0.
         12    1    1    2    0    0  0.15226310474E+02  0.10617051420E+02 -0.24731845931E+01  0.18726423938E+02  0.00000000000E+00 0. -1.
         11    1    4    4    0    0 -0.64781584803E+01  0.20485466350E+02 -0.19833934041E+02  0.29240482360E+02  0.51100000000E-03 0. -1.
        -11    1    3    3    0    0 -0.13042899279E+02 -0.13016747772E+02  0.10787340047E+02  0.21352275048E+02  0.51100000000E-03 0.  1.
        -12    1    4    4    0    0  0.42947472853E+01 -0.18085769997E+02  0.11519778587E+02  0.21868818654E+02  0.00000000000E+00 0.  1.
</event>
<event>
 7    1  0.1345786E-013  0.7246156E+02  0.7816164E-02  0.1226708E+00
        -11   -1    0    0    0    0  0.00000000000E+00  0.00000000000E+00  0.45593999997E+02  0.45594000000E+02  0.51100000000E-03 0. -1.
         11   -1    0    0    0    0 -0.00000000000E+00 -0.00000000000E+00 -0.45593999997E+02  0.45594000000E+02  0.51100000000E-03 0.  1.
    9900012    2    1    2    0    0 -0.99187886901E+01  0.13342131057E+01 -0.15827733516E+02  0.72461557681E+02  0.69999983568E+02 0.  0.
         12    1    1    2    0    0  0.99187886901E+01 -0.13342131057E+01  0.15827733516E+02  0.18726442319E+02  0.00000000000E+00 0. -1.
         11    1    3    3    0    0 -0.12094462951E+02  0.68450468030E+00  0.13626566122E+02  0.18232605005E+02  0.51100000000E-03 0. -1.
        -11    1    3    3    0    0  0.36810059345E+01 -0.16337257227E+02 -0.32820671006E+02  0.36846332571E+02  0.51100000000E-03 0.  1.
        -12    1    3    3    0    0 -0.15053316738E+01  0.16986965652E+02  0.33663713680E+01  0.17382620105E+02  0.00000000000E+00 0.  1.
</event>
<event>
 7    1  0.1345786E-013  0.7246149E+02  0.7816164E-02  0.1226708E+00
        -11   -1    0    0    0    0  0.00000000000E+00  0.00000000000E+00  0.45593999997E+02  0.45594000000E+02  0.51100000000E-03 0. -1.
         11   -1    0    0    0    0 -0.00000000000E+00 -0.00000000000E+00 -0.45593999997E+02  0.45594000000E+02  0.51100000000E-03 0.  1.
    9900012    2    1    2    0    0  0.31253651146E+01 -0.17143235855E+02  0.68573806533E+01  0.72461491727E+02  0.69999897651E+02 0.  0.
         12    1    1    2    0    0 -0.31253651146E+01  0.17143235855E+02 -0.68573806533E+01  0.18726508273E+02  0.00000000000E+00 0. -1.
         11    1    3    3    0    0  0.74782681290E+01 -0.28513290247E+02  0.12972450369E+02  0.32205848595E+02  0.51100000000E-03 0. -1.
        -11    1    3    3    0    0 -0.91407834747E+01  0.91759488898E+01 -0.20884838411E+02  0.24574955469E+02  0.51100000000E-03 0.  1.
         12    1    3    3    0    0  0.47878804603E+01  0.21941055015E+01  0.14769768695E+02  0.15680687663E+02  0.00000000000E+00 0. -1.
</event>
<event>
 7    1  0.1345786E-013  0.7246148E+02  0.7816164E-02  0.1226708E+00
        -11   -1    0    0    0    0  0.00000000000E+00  0.00000000000E+00  0.45593999997E+02  0.45594000000E+02  0.51100000000E-03 0.  1.
         11   -1    0    0    0    0 -0.00000000000E+00 -0.00000000000E+00 -0.45593999997E+02  0.45594000000E+02  0.51100000000E-03 0. -1.
    9900012    2    1    2    0    0  0.15241690485E+02 -0.95531823081E+01  0.52067534962E+01  0.72461475949E+02  0.69999877098E+02 0.  0.
         12    1    1    2    0    0 -0.15241690485E+02  0.95531823081E+01 -0.52067534962E+01  0.18726524051E+02  0.00000000000E+00 0. -1.
         11    1    3    3    0    0  0.21302552541E+01 -0.26854496198E+02  0.23339701993E+02  0.35643283278E+02  0.51100000000E-03 0. -1.
        -11    1    3    3    0    0  0.13081299075E+02  0.11894932981E+02  0.22343587541E+00  0.17682187081E+02  0.51100000000E-03 0.  1.
         12    1    3    3    0    0  0.30136155802E-01  0.54063809084E+01 -0.18356384372E+02  0.19136005590E+02  0.00000000000E+00 0. -1.
</event>
<event>
 7    1  0.1345786E-013  0.7246233E+02  0.7816164E-02  0.1226706E+00
        -11   -1    0    0    0    0  0.00000000000E+00  0.00000000000E+00  0.45593999997E+02  0.45594000000E+02  0.51100000000E-03 0.  1.
         11   -1    0    0    0    0 -0.00000000000E+00 -0.00000000000E+00 -0.45593999997E+02  0.45594000000E+02  0.51100000000E-03 0. -1.
    9900012    2    1    2    0    0  0.44689563638E+00 -0.74526896565E+01  0.17172896784E+02  0.72462330912E+02  0.70000990839E+02 0.  0.
         12    1    1    2    0    0 -0.44689563638E+00  0.74526896565E+01 -0.17172896784E+02  0.18725669088E+02  0.00000000000E+00 0. -1.
         11    1    3    3    0    0 -0.10788881486E+01 -0.18962913884E+02  0.46082081766E+01  0.19544607580E+02  0.51100000000E-03 0. -1.
        -11    1    3    3    0    0 -0.19556260716E+02  0.16447217275E+02  0.17163668030E+02  0.30782296695E+02  0.51100000000E-03 0.  1.
        -12    1    3    3    0    0  0.21082044501E+02 -0.49369930475E+01 -0.45989794228E+01  0.22135426638E+02  0.00000000000E+00 0.  1.
</event>
<event>
 8    1  0.1345786E-013  0.7246170E+02  0.7816164E-02  0.1226708E+00
        -11   -1    0    0    0    0  0.00000000000E+00  0.00000000000E+00  0.45593999997E+02  0.45594000000E+02  0.51100000000E-03 0. -1.
         11   -1    0    0    0    0 -0.00000000000E+00 -0.00000000000E+00 -0.45593999997E+02  0.45594000000E+02  0.51100000000E-03 0.  1.
    9900012    2    1    2    0    0  0.87552364185E+01  0.46407576492E+01 -0.15889724564E+02  0.72461704504E+02  0.70000174832E+02 0.  0.
         24    2    3    3    0    0  0.39342822396E+01  0.10027026038E+02 -0.26343586212E+02  0.59751995224E+02  0.52538524635E+02 0.  0.
         12    1    1    2    0    0 -0.87552364185E+01 -0.46407576492E+01  0.15889724564E+02  0.18726295496E+02  0.00000000000E+00 0. -1.
         11    1    3    3    0    0  0.48209541789E+01 -0.53862683888E+01  0.10453861648E+02  0.12709709279E+02  0.51100000000E-03 0. -1.
        -11    1    4    4    0    0  0.23028389369E+02  0.16217945374E+02 -0.27866550727E+02  0.39621624383E+02  0.51100000000E-03 0.  1.
         12    1    4    4    0    0 -0.19094107129E+02 -0.61909193363E+01  0.15229645153E+01  0.20130370841E+02  0.00000000000E+00 0. -1.
</event>
<event>
 7    1  0.1345786E-013  0.7246157E+02  0.7816164E-02  0.1226708E+00
        -11   -1    0    0    0    0  0.00000000000E+00  0.00000000000E+00  0.45593999997E+02  0.45594000000E+02  0.51100000000E-03 0. -1.
         11   -1    0    0    0    0 -0.00000000000E+00 -0.00000000000E+00 -0.45593999997E+02  0.45594000000E+02  0.51100000000E-03 0.  1.
    9900012    2    1    2    0    0  0.19580304826E+01  0.12661054505E+02 -0.13658070315E+02  0.72461572971E+02  0.70000003487E+02 0.  0.
         12    1    1    2    0    0 -0.19580304826E+01 -0.12661054505E+02  0.13658070315E+02  0.18726427029E+02  0.00000000000E+00 0. -1.
         11    1    3    3    0    0 -0.79196778622E+00  0.20069869934E+02 -0.98853382297E+01  0.22386308412E+02  0.51100000000E-03 0. -1.
        -11    1    3    3    0    0 -0.76803462907E+01 -0.25784390676E+02 -0.88905161790E+01  0.28334851330E+02  0.51100000000E-03 0.  1.
        -12    1    3    3    0    0  0.10430344560E+02  0.18375575248E+02  0.51177840940E+01  0.21740413228E+02  0.00000000000E+00 0.  1.
</event>
<event>
 7    1  0.1345786E-013  0.7246156E+02  0.7816164E-02  0.1226708E+00
        -11   -1    0    0    0    0  0.00000000000E+00  0.00000000000E+00  0.45593999997E+02  0.45594000000E+02  0.51100000000E-03 0. -1.
         11   -1    0    0    0    0 -0.00000000000E+00 -0.00000000000E+00 -0.45593999997E+02  0.45594000000E+02  0.51100000000E-03 0.  1.
    9900012    2    1    2    0    0 -0.96089699558E+01 -0.15039056663E+02  0.56722239377E+01  0.72461557377E+02  0.69999983172E+02 0.  0.
         12    1    1    2    0    0  0.96089699558E+01  0.15039056663E+02 -0.56722239377E+01  0.18726442623E+02  0.00000000000E+00 0. -1.
         11    1    3    3    0    0 -0.24891145128E+02 -0.18265105460E+02  0.21255150686E+02  0.37482857605E+02  0.51100000000E-03 0. -1.
        -11    1    3    3    0    0  0.21714719302E+02 -0.29266494773E+01 -0.81350666313E+01  0.23372497105E+02  0.51100000000E-03 0.  1.
         12    1    3    3    0    0 -0.64325441299E+01  0.61526982737E+01 -0.74478601173E+01  0.11606202667E+02  0.00000000000E+00 0. -1.
</event>
<event>
 7    1  0.1345786E-013  0.7246158E+02  0.7816164E-02  0.1226708E+00
        -11   -1    0    0    0    0  0.00000000000E+00  0.00000000000E+00  0.45593999997E+02  0.45594000000E+02  0.51100000000E-03 0. -1.
         11   -1    0    0    0    0 -0.00000000000E+00 -0.00000000000E+00 -0.45593999997E+02  0.45594000000E+02  0.51100000000E-03 0.  1.
    9900012    2    1    2    0    0  0.44351663120E+01 -0.18066552983E+02 -0.21465440106E+01  0.72461583148E+02  0.70000016745E+02 0.  0.
         12    1    1    2    0    0 -0.44351663120E+01  0.18066552983E+02  0.21465440106E+01  0.18726416852E+02  0.00000000000E+00 0. -1.
         11    1    3    3    0    0 -0.65678452651E+01 -0.11745247131E+02  0.31550525553E+02  0.34300482278E+02  0.51100000000E-03 0. -1.
        -11    1    3    3    0    0 -0.18743077110E+01 -0.29382480083E+01 -0.13705405866E+02  0.14141586932E+02  0.51100000000E-03 0.  1.
         12    1    3    3    0    0  0.12877319288E+02 -0.33830578439E+01 -0.19991663697E+02  0.24019513938E+02  0.00000000000E+00 0. -1.
</event>
<event>
 7    1  0.1345786E-013  0.7246131E+02  0.7816164E-02  0.1226709E+00
        -11   -1    0    0    0    0  0.00000000000E+00  0.00000000000E+00  0.45593999997E+02  0.45594000000E+02  0.51100000000E-03 0. -1.
         11   -1    0    0    0    0 -0.00000000000E+00 -0.00000000000E+00 -0.45593999997E+02  0.45594000000E+02  0.51100000000E-03 0.  1.
    9900012    2    1    2    0    0 -0.17853703578E+02 -0.11228700661E+01 -0.55383689492E+01  0.72461305170E+02  0.69999654626E+02 0.  0.
         12    1    1    2    0    0  0.17853703578E+02  0.11228700661E+01  0.55383689492E+01  0.18726694830E+02  0.00000000000E+00 0. -1.
         11    1    3    3    0    0 -0.21918236403E+02 -0.13557149376E+02 -0.90113812267E+01  0.27302204638E+02  0.51100000000E-03 0. -1.
        -11    1    3    3    0    0  0.13709986632E+02  0.26319058561E+01 -0.16054389991E+02  0.21275199180E+02  0.51100000000E-03 0.  1.
        -12    1    3    3    0    0 -0.96454538067E+01  0.98023734541E+01  0.19527402269E+02  0.23883901353E+02  0.00000000000E+00 0.  1.
</event>
<event>
 7    1  0.1345786E-013  0.7246157E+02  0.7816164E-02  0.1226708E+00
        -11   -1    0    0    0    0  0.00000000000E+00  0.00000000000E+00  0.45593999997E+02  0.45594000000E+02  0.51100000000E-03 0.  1.
         11   -1    0    0    0    0 -0.00000000000E+00 -0.00000000000E+00 -0.45593999997E+02  0.45594000000E+02  0.51100000000E-03 0. -1.
    9900012    2    1    2    0    0  0.18389753240E+02 -0.23922310637E+01  0.26025546743E+01  0.72461572564E+02  0.70000002957E+02 0.  0.
         12    1    1    2    0    0 -0.18389753240E+02  0.23922310637E+01 -0.26025546743E+01  0.18726427436E+02  0.00000000000E+00 0. -1.
         11    1    3    3    0    0 -0.58347417345E+01 -0.21006654514E+02  0.10298758879E+02  0.24111992446E+02  0.51100000000E-03 0.  1.
        -11    1    3    3    0    0  0.33459380328E+02  0.18755263475E+02 -0.47242235417E+01  0.38647229244E+02  0.51100000000E-03 0. -1.
         12    1    3    3    0    0 -0.92348853538E+01 -0.14084002384E+00 -0.29719806634E+01  0.97023508736E+01  0.00000000000E+00 0. -1.
</event>
<event>
 7    1  0.1345786E-013  0.7246156E+02  0.7816164E-02  0.1226708E+00
        -11   -1    0    0    0    0  0.00000000000E+00  0.00000000000E+00  0.45593999997E+02  0.45594000000E+02  0.51100000000E-03 0.  1.
         11   -1    0    0    0    0 -0.00000000000E+00 -0.00000000000E+00 -0.45593999997E+02  0.45594000000E+02  0.51100000000E-03 0. -1.
    9900012    2    1    2    0    0  0.12273401236E+02  0.32991007257E+00  0.14139814196E+02  0.72461559760E+02  0.69999986277E+02 0.  0.
         12    1    1    2    0    0 -0.12273401236E+02 -0.32991007257E+00 -0.14139814196E+02  0.18726440240E+02  0.00000000000E+00 0. -1.
         11    1    3    3    0    0 -0.20146974815E+02  0.49982178138E+01  0.46262087057E+01  0.21266983396E+02  0.51100000000E-03 0. -1.
        -11    1    3    3    0    0  0.61072161193E+01 -0.95250240153E+01  0.19573355322E+02  0.22608414585E+02  0.51100000000E-03 0.  1.
         12    1    3    3    0    0  0.26313159932E+02  0.48567162741E+01 -0.10059749832E+02  0.28586161779E+02  0.00000000000E+00 0. -1.
</event>
<event>
 7    1  0.1345786E-013  0.7246147E+02  0.7816164E-02  0.1226708E+00
        -11   -1    0    0    0    0  0.00000000000E+00  0.00000000000E+00  0.45593999997E+02  0.45594000000E+02  0.51100000000E-03 0.  1.
         11   -1    0    0    0    0 -0.00000000000E+00 -0.00000000000E+00 -0.45593999997E+02  0.45594000000E+02  0.51100000000E-03 0. -1.
    9900012    2    1    2    0    0  0.17390130098E+02 -0.68279863201E+01 -0.12825598707E+01  0.72461468505E+02  0.69999867400E+02 0.  0.
         12    1    1    2    0    0 -0.17390130098E+02  0.68279863201E+01  0.12825598707E+01  0.18726531495E+02  0.00000000000E+00 0. -1.
         11    1    3    3    0    0  0.83998163228E+01  0.11913020166E+02  0.73416948949E+01  0.16321073737E+02  0.51100000000E-03 0. -1.
        -11    1    3    3    0    0 -0.13542966291E+02 -0.26239023780E+02 -0.12524331423E+02  0.32074244851E+02  0.51100000000E-03 0.  1.
        -12    1    3    3    0    0  0.22533280066E+02  0.74980172938E+01  0.39000766570E+01  0.24066149917E+02  0.00000000000E+00 0.  1.
</event>
<event>
 7    1  0.1345786E-013  0.7246157E+02  0.7816164E-02  0.1226708E+00
        -11   -1    0    0    0    0  0.00000000000E+00  0.00000000000E+00  0.45593999997E+02  0.45594000000E+02  0.51100000000E-03 0.  1.
         11   -1    0    0    0    0 -0.00000000000E+00 -0.00000000000E+00 -0.45593999997E+02  0.45594000000E+02  0.51100000000E-03 0. -1.
    9900012    2    1    2    0    0 -0.14123056387E+02 -0.64992441229E+01  0.10439265503E+02  0.72461570545E+02  0.70000000327E+02 0.  0.
         12    1    1    2    0    0  0.14123056387E+02  0.64992441229E+01 -0.10439265503E+02  0.18726429455E+02  0.00000000000E+00 0. -1.
         11    1    3    3    0    0  0.84414001127E+01  0.12719745298E+02 -0.72284001573E+01  0.16890794102E+02  0.51100000000E-03 0. -1.
        -11    1    3    3    0    0 -0.32812818720E+02 -0.20034437419E+02  0.42682057486E+01  0.38681744216E+02  0.51100000000E-03 0.  1.
        -12    1    3    3    0    0  0.10248362220E+02  0.81544799836E+00  0.13399459912E+02  0.16889032227E+02  0.00000000000E+00 0.  1.
</event>
<event>
 7    1  0.1345786E-013  0.7246162E+02  0.7816164E-02  0.1226708E+00
        -11   -1    0    0    0    0  0.00000000000E+00  0.00000000000E+00  0.45593999997E+02  0.45594000000E+02  0.51100000000E-03 0. -1.
         11   -1    0    0    0    0 -0.00000000000E+00 -0.00000000000E+00 -0.45593999997E+02  0.45594000000E+02  0.51100000000E-03 0.  1.
    9900012    2    1    2    0    0 -0.50640860488E+01 -0.66787961333E+01 -0.16745921271E+02  0.72461623829E+02  0.70000069739E+02 0.  0.
         12    1    1    2    0    0  0.50640860488E+01  0.66787961333E+01  0.16745921271E+02  0.18726376171E+02  0.00000000000E+00 0. -1.
         11    1    3    3    0    0  0.78699346813E+01 -0.29814422538E+02 -0.10651930931E+01  0.30854015942E+02  0.51100000000E-03 0. -1.
        -11    1    3    3    0    0 -0.16152649670E+02  0.15432309083E+02 -0.21833014535E+02  0.31236913723E+02  0.51100000000E-03 0.  1.
        -12    1    3    3    0    0  0.32186289397E+01  0.77033173218E+01  0.61522863572E+01  0.10370694164E+02  0.00000000000E+00 0.  1.
</event>
<event>
 7    1  0.1345786E-013  0.7246155E+02  0.7816164E-02  0.1226708E+00
        -11   -1    0    0    0    0  0.00000000000E+00  0.00000000000E+00  0.45593999997E+02  0.45594000000E+02  0.51100000000E-03 0. -1.
         11   -1    0    0    0    0 -0.00000000000E+00 -0.00000000000E+00 -0.45593999997E+02  0.45594000000E+02  0.51100000000E-03 0.  1.
    9900012    2    1    2    0    0  0.11845159396E+02  0.12194325072E+02 -0.78530498003E+01  0.72461554629E+02  0.69999979593E+02 0.  0.
         12    1    1    2    0    0 -0.11845159396E+02 -0.12194325072E+02  0.78530498003E+01  0.18726445371E+02  0.00000000000E+00 0. -1.
         11    1    3    3    0    0 -0.89773542725E+00  0.38174897472E+02 -0.15045490847E+02  0.41042606167E+02  0.51100000000E-03 0. -1.
        -11    1    3    3    0    0  0.98478515408E+01 -0.18731792174E+02  0.55032748776E+00  0.21169862508E+02  0.51100000000E-03 0.  1.
         12    1    3    3    0    0  0.28950432824E+01 -0.72487802256E+01  0.66421135586E+01  0.10249085954E+02  0.00000000000E+00 0. -1.
</event>
<event>
 7    1  0.1345786E-013  0.7246154E+02  0.7816164E-02  0.1226708E+00
        -11   -1    0    0    0    0  0.00000000000E+00  0.00000000000E+00  0.45593999997E+02  0.45594000000E+02  0.51100000000E-03 0. -1.
         11   -1    0    0    0    0 -0.00000000000E+00 -0.00000000000E+00 -0.45593999997E+02  0.45594000000E+02  0.51100000000E-03 0.  1.
    9900012    2    1    2    0    0 -0.15452778708E+02 -0.93210570386E+01 -0.50009750182E+01  0.72461542106E+02  0.69999963280E+02 0.  0.
         12    1    1    2    0    0  0.15452778708E+02  0.93210570386E+01  0.50009750182E+01  0.18726457894E+02  0.00000000000E+00 0. -1.
         11    1    3    3    0    0  0.19003987840E+02  0.11119279907E+02 -0.15703225911E+01  0.22073872628E+02  0.51100000000E-03 0. -1.
        -11    1    3    3    0    0 -0.18712098926E+02 -0.23018886110E+02 -0.12322737564E+02  0.32122603028E+02  0.51100000000E-03 0.  1.
         12    1    3    3    0    0 -0.15744667623E+02  0.25785491649E+01  0.88920851371E+01  0.18265066450E+02  0.00000000000E+00 0. -1.
</event>
<event>
 7    1  0.1345786E-013  0.7246182E+02  0.7816164E-02  0.1226707E+00
        -11   -1    0    0    0    0  0.00000000000E+00  0.00000000000E+00  0.45593999997E+02  0.45594000000E+02  0.51100000000E-03 0.  1.
         11   -1    0    0    0    0 -0.00000000000E+00 -0.00000000000E+00 -0.45593999997E+02  0.45594000000E+02  0.51100000000E-03 0. -1.
    9900012    2    1    2    0    0 -0.24869251913E+01 -0.72886265510E+01  0.17069299579E+02  0.72461818808E+02  0.70000323735E+02 0.  0.
         12    1    1    2    0    0  0.24869251913E+01  0.72886265510E+01 -0.17069299579E+02  0.18726181192E+02  0.00000000000E+00 0. -1.
         11    1    3    3    0    0  0.16806625484E+02  0.46486118917E+01  0.13023999767E+02  0.21764577250E+02  0.51100000000E-03 0.  1.
        -11    1    3    3    0    0 -0.14971051211E+02 -0.27114532689E+02  0.11761458648E+02  0.33130985000E+02  0.51100000000E-03 0. -1.
        -12    1    3    3    0    0 -0.43224994651E+01  0.15177294247E+02 -0.77161588357E+01  0.17566256558E+02  0.00000000000E+00 0.  1.
</event>
<event>
 7    1  0.1345786E-013  0.7246157E+02  0.7816164E-02  0.1226708E+00
        -11   -1    0    0    0    0  0.00000000000E+00  0.00000000000E+00  0.45593999997E+02  0.45594000000E+02  0.51100000000E-03 0. -1.
         11   -1    0    0    0    0 -0.00000000000E+00 -0.00000000000E+00 -0.45593999997E+02  0.45594000000E+02  0.51100000000E-03 0.  1.
    9900012    2    1    2    0    0 -0.10614235245E+02 -0.11357437212E+02  0.10441534301E+02  0.72461574596E+02  0.70000005604E+02 0.  0.
         12    1    1    2    0    0  0.10614235245E+02  0.11357437212E+02 -0.10441534301E+02  0.18726425404E+02  0.00000000000E+00 0. -1.
         11    1    3    3    0    0 -0.92925797733E+01  0.91836982905E+01  0.36266199651E+02  0.38547757269E+02  0.51100000000E-03 0. -1.
        -11    1    3    3    0    0 -0.10504658390E+01 -0.16304540816E+02 -0.14592729539E+02  0.21906375450E+02  0.51100000000E-03 0.  1.
         12    1    3    3    0    0 -0.27118963221E+00 -0.42365946863E+01 -0.11231935811E+02  0.12007441877E+02  0.00000000000E+00 0. -1.
</event>
<event>
 7    1  0.1345786E-013  0.7246159E+02  0.7816164E-02  0.1226708E+00
        -11   -1    0    0    0    0  0.00000000000E+00  0.00000000000E+00  0.45593999997E+02  0.45594000000E+02  0.51100000000E-03 0. -1.
         11   -1    0    0    0    0 -0.00000000000E+00 -0.00000000000E+00 -0.45593999997E+02  0.45594000000E+02  0.51100000000E-03 0.  1.
    9900012    2    1    2    0    0  0.99718608847E+01  0.15563520481E+02  0.30028811073E+01  0.72461588859E+02  0.70000024184E+02 0.  0.
         12    1    1    2    0    0 -0.99718608847E+01 -0.15563520481E+02 -0.30028811073E+01  0.18726411141E+02  0.00000000000E+00 0. -1.
         11    1    3    3    0    0 -0.13334117442E+02  0.14207306432E+02 -0.22719227833E+02  0.29930077808E+02  0.51100000000E-03 0. -1.
        -11    1    3    3    0    0  0.46082115870E+01  0.11234451683E+02  0.57162707628E+01  0.13421038348E+02  0.51100000000E-03 0.  1.
         12    1    3    3    0    0  0.18697766740E+02 -0.98782376333E+01  0.20005838178E+02  0.29110472703E+02  0.00000000000E+00 0. -1.
</event>
<event>
 7    1  0.1345786E-013  0.7246164E+02  0.7816164E-02  0.1226708E+00
        -11   -1    0    0    0    0  0.00000000000E+00  0.00000000000E+00  0.45593999997E+02  0.45594000000E+02  0.51100000000E-03 0.  1.
         11   -1    0    0    0    0 -0.00000000000E+00 -0.00000000000E+00 -0.45593999997E+02  0.45594000000E+02  0.51100000000E-03 0. -1.
    9900012    2    1    2    0    0 -0.17234234759E+01  0.12983370857E+01  0.18601635221E+02  0.72461636216E+02  0.70000085875E+02 0.  0.
         12    1    1    2    0    0  0.17234234759E+01 -0.12983370857E+01 -0.18601635221E+02  0.18726363784E+02  0.00000000000E+00 0. -1.
         11    1    3    3    0    0  0.19304275785E+02  0.81246700792E+01 -0.44024559518E+01  0.21402031356E+02  0.51100000000E-03 0. -1.
        -11    1    3    3    0    0 -0.22349593222E+02  0.11902505716E+02  0.66991621035E+01  0.26192608359E+02  0.51100000000E-03 0.  1.
        -12    1    3    3    0    0  0.13218939611E+01 -0.18728838710E+02  0.16304929069E+02  0.24866996502E+02  0.00000000000E+00 0.  1.
</event>
<event>
 7    1  0.1345786E-013  0.7246160E+02  0.7816164E-02  0.1226708E+00
        -11   -1    0    0    0    0  0.00000000000E+00  0.00000000000E+00  0.45593999997E+02  0.45594000000E+02  0.51100000000E-03 0. -1.
         11   -1    0    0    0    0 -0.00000000000E+00 -0.00000000000E+00 -0.45593999997E+02  0.45594000000E+02  0.51100000000E-03 0.  1.
    9900012    2    1    2    0    0 -0.16754420971E+02  0.50925639182E+01 -0.66357593361E+01  0.72461598015E+02  0.70000036111E+02 0.  0.
         12    1    1    2    0    0  0.16754420971E+02 -0.50925639182E+01  0.66357593361E+01  0.18726401985E+02  0.00000000000E+00 0. -1.
         11    1    3    3    0    0 -0.40267552442E+01  0.19575456170E+02  0.77078721759E+01  0.21420189911E+02  0.51100000000E-03 0. -1.
        -11    1    3    3    0    0 -0.29450222876E+02 -0.71756367903E+01 -0.56776494665E+01  0.30838954174E+02  0.51100000000E-03 0.  1.
        -12    1    3    3    0    0  0.16722557149E+02 -0.73072554615E+01 -0.86659820455E+01  0.20202453930E+02  0.00000000000E+00 0.  1.
</event>
<event>
 7    1  0.1345786E-013  0.7246152E+02  0.7816164E-02  0.1226708E+00
        -11   -1    0    0    0    0  0.00000000000E+00  0.00000000000E+00  0.45593999997E+02  0.45594000000E+02  0.51100000000E-03 0.  1.
         11   -1    0    0    0    0 -0.00000000000E+00 -0.00000000000E+00 -0.45593999997E+02  0.45594000000E+02  0.51100000000E-03 0. -1.
    9900012    2    1    2    0    0  0.17486723736E+02 -0.65733324895E+01 -0.12988059749E+01  0.72461518644E+02  0.69999932715E+02 0.  0.
         12    1    1    2    0    0 -0.17486723736E+02  0.65733324895E+01  0.12988059749E+01  0.18726481356E+02  0.00000000000E+00 0. -1.
         11    1    3    3    0    0  0.93923680977E+01  0.16500726546E+02  0.28222641914E+01  0.19195200715E+02  0.51100000000E-03 0. -1.
        -11    1    3    3    0    0  0.15161066595E+02 -0.18006656510E+02 -0.22732226635E+02  0.32723871210E+02  0.51100000000E-03 0.  1.
        -12    1    3    3    0    0 -0.70667109567E+01 -0.50674025255E+01  0.18611156468E+02  0.20542446719E+02  0.00000000000E+00 0.  1.
</event>
<event>
 8    1  0.1345786E-013  0.7246174E+02  0.7816164E-02  0.1226708E+00
        -11   -1    0    0    0    0  0.00000000000E+00  0.00000000000E+00  0.45593999997E+02  0.45594000000E+02  0.51100000000E-03 0.  1.
         11   -1    0    0    0    0 -0.00000000000E+00 -0.00000000000E+00 -0.45593999997E+02  0.45594000000E+02  0.51100000000E-03 0. -1.
    9900012    2    1    2    0    0  0.91787257308E+01 -0.15521011532E+02 -0.50519377832E+01  0.72461738217E+02  0.70000218750E+02 0.  0.
        -24    2    3    3    0    0  0.19056898652E+02 -0.22651818679E+02 -0.55197611502E+01  0.60269709272E+02  0.52208235144E+02 0.  0.
         12    1    1    2    0    0 -0.91787257308E+01  0.15521011532E+02  0.50519377832E+01  0.18726261783E+02  0.00000000000E+00 0. -1.
         11    1    4    4    0    0  0.97741835740E+01 -0.36107985971E+02 -0.16176662503E+02  0.40755437985E+02  0.51100000000E-03 0. -1.
        -11    1    3    3    0    0 -0.98781729212E+01  0.71308071472E+01  0.46782336697E+00  0.12192028945E+02  0.51100000000E-03 0.  1.
        -12    1    4    4    0    0  0.92827150779E+01  0.13456167292E+02  0.10656901352E+02  0.19514271286E+02  0.00000000000E+00 0.  1.
</event>
<event>
 7    1  0.1345786E-013  0.7246163E+02  0.7816164E-02  0.1226708E+00
        -11   -1    0    0    0    0  0.00000000000E+00  0.00000000000E+00  0.45593999997E+02  0.45594000000E+02  0.51100000000E-03 0.  1.
         11   -1    0    0    0    0 -0.00000000000E+00 -0.00000000000E+00 -0.45593999997E+02  0.45594000000E+02  0.51100000000E-03 0. -1.
    9900012    2    1    2    0    0 -0.80559155590E+01 -0.10511748332E+02  0.13239419073E+02  0.72461632336E+02  0.70000080821E+02 0.  0.
         12    1    1    2    0    0  0.80559155590E+01  0.10511748332E+02 -0.13239419073E+02  0.18726367664E+02  0.00000000000E+00 0. -1.
         11    1    3    3    0    0 -0.10281070700E+02  0.63826164765E+01  0.32208989734E+02  0.34407226389E+02  0.51100000000E-03 0. -1.
        -11    1    3    3    0    0 -0.84350931584E+01 -0.18608080074E+02 -0.62396310073E+01  0.21362219828E+02  0.51100000000E-03 0.  1.
         12    1    3    3    0    0  0.10660248300E+02  0.17137152647E+01 -0.12729939654E+02  0.16692186119E+02  0.00000000000E+00 0. -1.
</event>
<event>
 7    1  0.1345786E-013  0.7246155E+02  0.7816164E-02  0.1226708E+00
        -11   -1    0    0    0    0  0.00000000000E+00  0.00000000000E+00  0.45593999997E+02  0.45594000000E+02  0.51100000000E-03 0.  1.
         11   -1    0    0    0    0 -0.00000000000E+00 -0.00000000000E+00 -0.45593999997E+02  0.45594000000E+02  0.51100000000E-03 0. -1.
    9900012    2    1    2    0    0 -0.14831313896E+02 -0.60827867425E+01  0.96804908950E+01  0.72461546241E+02  0.69999968666E+02 0.  0.
         12    1    1    2    0    0  0.14831313896E+02  0.60827867425E+01 -0.96804908950E+01  0.18726453759E+02  0.00000000000E+00 0. -1.
         11    1    3    3    0    0  0.12927429967E+02  0.21980163848E+02 -0.34469212311E+01  0.25731834652E+02  0.51100000000E-03 0. -1.
        -11    1    3    3    0    0 -0.23035715706E+02 -0.87210015478E+01  0.99613053242E+01  0.26569299391E+02  0.51100000000E-03 0.  1.
         12    1    3    3    0    0 -0.47230281562E+01 -0.19341949042E+02  0.31661068019E+01  0.20160412198E+02  0.00000000000E+00 0. -1.
</event>
<event>
 7    1  0.1345786E-013  0.7246156E+02  0.7816164E-02  0.1226708E+00
        -11   -1    0    0    0    0  0.00000000000E+00  0.00000000000E+00  0.45593999997E+02  0.45594000000E+02  0.51100000000E-03 0.  1.
         11   -1    0    0    0    0 -0.00000000000E+00 -0.00000000000E+00 -0.45593999997E+02  0.45594000000E+02  0.51100000000E-03 0. -1.
    9900012    2    1    2    0    0  0.87816097729E+00  0.16520661656E+02  0.87735969804E+01  0.72461563280E+02  0.69999990862E+02 0.  0.
         12    1    1    2    0    0 -0.87816097729E+00 -0.16520661656E+02 -0.87735969804E+01  0.18726436720E+02  0.00000000000E+00 0. -1.
         11    1    3    3    0    0  0.28217439810E+02 -0.37395411066E+01  0.80978319577E+01  0.29593630392E+02  0.51100000000E-03 0.  1.
        -11    1    3    3    0    0 -0.66399244312E+01  0.11632662884E+01 -0.10574962217E+02  0.12540797864E+02  0.51100000000E-03 0. -1.
         12    1    3    3    0    0 -0.20699354401E+02  0.19096936475E+02  0.11250727239E+02  0.30327135024E+02  0.00000000000E+00 0. -1.
</event>
<event>
 7    1  0.1345786E-013  0.7246154E+02  0.7816164E-02  0.1226708E+00
        -11   -1    0    0    0    0  0.00000000000E+00  0.00000000000E+00  0.45593999997E+02  0.45594000000E+02  0.51100000000E-03 0. -1.
         11   -1    0    0    0    0 -0.00000000000E+00 -0.00000000000E+00 -0.45593999997E+02  0.45594000000E+02  0.51100000000E-03 0.  1.
    9900012    2    1    2    0    0  0.81315778446E+00 -0.16944784868E+02 -0.79305242895E+01  0.72461543439E+02  0.69999965016E+02 0.  0.
         12    1    1    2    0    0 -0.81315778446E+00  0.16944784868E+02  0.79305242895E+01  0.18726456561E+02  0.00000000000E+00 0. -1.
         11    1    3    3    0    0 -0.18321675981E+02 -0.14703384321E+02 -0.51540949406E+01  0.24050738370E+02  0.51100000000E-03 0.  1.
        -11    1    3    3    0    0  0.16458274847E+02 -0.74524640725E+00 -0.22813498442E+02  0.28140467561E+02  0.51100000000E-03 0. -1.
        -12    1    3    3    0    0  0.26765589181E+01 -0.14961541403E+01  0.20037069093E+02  0.20270337508E+02  0.00000000000E+00 0.  1.
</event>
<event>
 7    1  0.1345786E-013  0.7246163E+02  0.7816164E-02  0.1226708E+00
        -11   -1    0    0    0    0  0.00000000000E+00  0.00000000000E+00  0.45593999997E+02  0.45594000000E+02  0.51100000000E-03 0.  1.
         11   -1    0    0    0    0 -0.00000000000E+00 -0.00000000000E+00 -0.45593999997E+02  0.45594000000E+02  0.51100000000E-03 0. -1.
    9900012    2    1    2    0    0  0.16700183458E+02  0.51131722437E+01  0.67554740757E+01  0.72461625873E+02  0.70000072402E+02 0.  0.
         12    1    1    2    0    0 -0.16700183458E+02 -0.51131722437E+01 -0.67554740757E+01  0.18726374127E+02  0.00000000000E+00 0. -1.
         11    1    3    3    0    0 -0.94708577195E+01 -0.49136080623E+01 -0.18366404509E+00  0.10671195944E+02  0.51100000000E-03 0. -1.
        -11    1    3    3    0    0  0.17115723862E+02  0.25497213052E+02  0.22486426269E+02  0.38061729379E+02  0.51100000000E-03 0.  1.
        -12    1    3    3    0    0  0.90553173155E+01 -0.15470432746E+02 -0.15547288148E+02  0.23728700550E+02  0.00000000000E+00 0.  1.
</event>
<event>
 7    1  0.1345786E-013  0.7246153E+02  0.7816164E-02  0.1226708E+00
        -11   -1    0    0    0    0  0.00000000000E+00  0.00000000000E+00  0.45593999997E+02  0.45594000000E+02  0.51100000000E-03 0. -1.
         11   -1    0    0    0    0 -0.00000000000E+00 -0.00000000000E+00 -0.45593999997E+02  0.45594000000E+02  0.51100000000E-03 0.  1.
    9900012    2    1    2    0    0  0.69094580102E+01  0.16990894667E+02 -0.37748532481E+01  0.72461531336E+02  0.69999949249E+02 0.  0.
         12    1    1    2    0    0 -0.69094580102E+01 -0.16990894667E+02  0.37748532481E+01  0.18726468664E+02  0.00000000000E+00 0. -1.
         11    1    3    3    0    0 -0.17509474401E+02  0.90728697181E+01  0.49814151191E+01  0.20339939910E+02  0.51100000000E-03 0. -1.
        -11    1    3    3    0    0  0.32705178864E+02  0.18484611689E+02 -0.92316595031E+01  0.38685050488E+02  0.51100000000E-03 0.  1.
        -12    1    3    3    0    0 -0.82862464531E+01 -0.10566586740E+02  0.47539113594E+00  0.13436540937E+02  0.00000000000E+00 0.  1.
</event>
<event>
 7    1  0.1345786E-013  0.7246157E+02  0.7816164E-02  0.1226708E+00
        -11   -1    0    0    0    0  0.00000000000E+00  0.00000000000E+00  0.45593999997E+02  0.45594000000E+02  0.51100000000E-03 0.  1.
         11   -1    0    0    0    0 -0.00000000000E+00 -0.00000000000E+00 -0.45593999997E+02  0.45594000000E+02  0.51100000000E-03 0. -1.
    9900012    2    1    2    0    0  0.17353024674E+02 -0.66617803530E+01  0.22742514158E+01  0.72461574759E+02  0.70000005816E+02 0.  0.
         12    1    1    2    0    0 -0.17353024674E+02  0.66617803530E+01 -0.22742514158E+01  0.18726425241E+02  0.00000000000E+00 0. -1.
         11    1    3    3    0    0 -0.13063212197E+02 -0.24643113789E+02 -0.20516988800E+01  0.27966766683E+02  0.51100000000E-03 0. -1.
        -11    1    3    3    0    0  0.25643274657E+02  0.61757221064E+01 -0.71761360265E+01  0.27335215514E+02  0.51100000000E-03 0.  1.
        -12    1    3    3    0    0  0.47729622135E+01  0.11805611330E+02  0.11502086322E+02  0.17159592563E+02  0.00000000000E+00 0.  1.
</event>
<event>
 7    1  0.1345786E-013  0.7246153E+02  0.7816164E-02  0.1226708E+00
        -11   -1    0    0    0    0  0.00000000000E+00  0.00000000000E+00  0.45593999997E+02  0.45594000000E+02  0.51100000000E-03 0. -1.
         11   -1    0    0    0    0 -0.00000000000E+00 -0.00000000000E+00 -0.45593999997E+02  0.45594000000E+02  0.51100000000E-03 0.  1.
    9900012    2    1    2    0    0 -0.11543880075E+02 -0.63198029089E+01 -0.13322141122E+02  0.72461534235E+02  0.69999953026E+02 0.  0.
         12    1    1    2    0    0  0.11543880075E+02  0.63198029089E+01  0.13322141122E+02  0.18726465765E+02  0.00000000000E+00 0. -1.
         11    1    3    3    0    0 -0.30840966798E+02 -0.27482950211E+01 -0.10509332483E+02  0.32698079884E+02  0.51100000000E-03 0. -1.
        -11    1    3    3    0    0  0.24147353252E+02 -0.11149052771E+02 -0.98281756907E+01  0.28354701276E+02  0.51100000000E-03 0.  1.
         12    1    3    3    0    0 -0.48502665286E+01  0.75775448833E+01  0.70153670521E+01  0.11408753075E+02  0.00000000000E+00 0. -1.
</event>
<event>
 7    1  0.1345786E-013  0.7246158E+02  0.7816164E-02  0.1226708E+00
        -11   -1    0    0    0    0  0.00000000000E+00  0.00000000000E+00  0.45593999997E+02  0.45594000000E+02  0.51100000000E-03 0. -1.
         11   -1    0    0    0    0 -0.00000000000E+00 -0.00000000000E+00 -0.45593999997E+02  0.45594000000E+02  0.51100000000E-03 0.  1.
    9900012    2    1    2    0    0 -0.87849511645E+01  0.92034340678E+01 -0.13740465637E+02  0.72461575848E+02  0.70000007234E+02 0.  0.
         12    1    1    2    0    0  0.87849511645E+01 -0.92034340678E+01  0.13740465637E+02  0.18726424152E+02  0.00000000000E+00 0. -1.
         11    1    3    3    0    0 -0.27806924787E+02 -0.55853995116E+01  0.15020870483E+02  0.32094365613E+02  0.51100000000E-03 0. -1.
        -11    1    3    3    0    0  0.14198689657E+02  0.15477047643E+02 -0.28611083380E+02  0.35492758194E+02  0.51100000000E-03 0.  1.
         12    1    3    3    0    0  0.48232839657E+01 -0.68821406399E+00 -0.15025273951E+00  0.48744520407E+01  0.00000000000E+00 0. -1.
</event>
<event>
 7    1  0.1345786E-013  0.7246155E+02  0.7816164E-02  0.1226708E+00
        -11   -1    0    0    0    0  0.00000000000E+00  0.00000000000E+00  0.45593999997E+02  0.45594000000E+02  0.51100000000E-03 0. -1.
         11   -1    0    0    0    0 -0.00000000000E+00 -0.00000000000E+00 -0.45593999997E+02  0.45594000000E+02  0.51100000000E-03 0.  1.
    9900012    2    1    2    0    0  0.79617520041E+01  0.88890552004E+01 -0.14431736056E+02  0.72461553383E+02  0.69999977970E+02 0.  0.
         12    1    1    2    0    0 -0.79617520041E+01 -0.88890552004E+01  0.14431736056E+02  0.18726446617E+02  0.00000000000E+00 0. -1.
         11    1    3    3    0    0  0.22203066363E+01 -0.29617776615E+00  0.47201177156E+01  0.52246525567E+01  0.51100000000E-03 0. -1.
        -11    1    3    3    0    0 -0.31717791487E+01 -0.15216242398E+02 -0.33950299383E+02  0.37339215902E+02  0.51100000000E-03 0.  1.
        -12    1    3    3    0    0  0.89132245165E+01  0.24401475365E+02  0.14798445612E+02  0.29897684924E+02  0.00000000000E+00 0.  1.
</event>
<event>
 7    1  0.1345786E-013  0.7246111E+02  0.7816164E-02  0.1226709E+00
        -11   -1    0    0    0    0  0.00000000000E+00  0.00000000000E+00  0.45593999997E+02  0.45594000000E+02  0.51100000000E-03 0. -1.
         11   -1    0    0    0    0 -0.00000000000E+00 -0.00000000000E+00 -0.45593999997E+02  0.45594000000E+02  0.51100000000E-03 0.  1.
    9900012    2    1    2    0    0 -0.63774131822E+01  0.10243613101E+02  0.14321083644E+02  0.72461109040E+02  0.69999399129E+02 0.  0.
         12    1    1    2    0    0  0.63774131822E+01 -0.10243613101E+02 -0.14321083644E+02  0.18726890960E+02  0.00000000000E+00 0. -1.
         11    1    3    3    0    0  0.21955461270E+02  0.98356675311E+01  0.16532577739E+02  0.29190902047E+02  0.51100000000E-03 0.  1.
        -11    1    3    3    0    0 -0.26266914280E+02  0.13161329418E+02 -0.56110580343E+01  0.29910789866E+02  0.51100000000E-03 0. -1.
        -12    1    3    3    0    0 -0.20659601717E+01 -0.12753383848E+02  0.33995639394E+01  0.13359417128E+02  0.00000000000E+00 0.  1.
</event>
<event>
 7    1  0.1345786E-013  0.7246156E+02  0.7816164E-02  0.1226708E+00
        -11   -1    0    0    0    0  0.00000000000E+00  0.00000000000E+00  0.45593999997E+02  0.45594000000E+02  0.51100000000E-03 0.  1.
         11   -1    0    0    0    0 -0.00000000000E+00 -0.00000000000E+00 -0.45593999997E+02  0.45594000000E+02  0.51100000000E-03 0. -1.
    9900012    2    1    2    0    0  0.99363242550E+01  0.13519223453E+02  0.83174357582E+01  0.72461556662E+02  0.69999982242E+02 0.  0.
         12    1    1    2    0    0 -0.99363242550E+01 -0.13519223453E+02 -0.83174357582E+01  0.18726443338E+02  0.00000000000E+00 0. -1.
         11    1    3    3    0    0 -0.25326332608E+01  0.27699693347E+02 -0.14679630793E+02  0.31451213064E+02  0.51100000000E-03 0. -1.
        -11    1    3    3    0    0  0.20632678727E+02 -0.13854556150E+02  0.21149823165E+02  0.32633896147E+02  0.51100000000E-03 0.  1.
        -12    1    3    3    0    0 -0.81637212108E+01 -0.32591374354E+00  0.18472433857E+01  0.83764474511E+01  0.00000000000E+00 0.  1.
</event>
<event>
 7    1  0.1345786E-013  0.7246156E+02  0.7816164E-02  0.1226708E+00
        -11   -1    0    0    0    0  0.00000000000E+00  0.00000000000E+00  0.45593999997E+02  0.45594000000E+02  0.51100000000E-03 0.  1.
         11   -1    0    0    0    0 -0.00000000000E+00 -0.00000000000E+00 -0.45593999997E+02  0.45594000000E+02  0.51100000000E-03 0. -1.
    9900012    2    1    2    0    0 -0.71475055762E+01  0.69982052096E+01  0.15830916112E+02  0.72461558345E+02  0.69999984434E+02 0.  0.
         12    1    1    2    0    0  0.71475055762E+01 -0.69982052096E+01 -0.15830916112E+02  0.18726441655E+02  0.00000000000E+00 0. -1.
         11    1    3    3    0    0  0.13509468363E+02 -0.48395025354E+01 -0.11661396838E+02  0.18490935529E+02  0.51100000000E-03 0. -1.
        -11    1    3    3    0    0 -0.51946396492E+01  0.24514287657E+02  0.86856653897E+01  0.26521224782E+02  0.51100000000E-03 0.  1.
         12    1    3    3    0    0 -0.15462334290E+02 -0.12676579912E+02  0.18806647560E+02  0.27449398034E+02  0.00000000000E+00 0. -1.
</event>
<event>
 7    1  0.1345786E-013  0.7246158E+02  0.7816164E-02  0.1226708E+00
        -11   -1    0    0    0    0  0.00000000000E+00  0.00000000000E+00  0.45593999997E+02  0.45594000000E+02  0.51100000000E-03 0.  1.
         11   -1    0    0    0    0 -0.00000000000E+00 -0.00000000000E+00 -0.45593999997E+02  0.45594000000E+02  0.51100000000E-03 0. -1.
    9900012    2    1    2    0    0 -0.16330245137E+02 -0.64846144936E+00  0.91422773811E+01  0.72461584321E+02  0.70000018272E+02 0.  0.
         12    1    1    2    0    0  0.16330245137E+02  0.64846144936E+00 -0.91422773811E+01  0.18726415679E+02  0.00000000000E+00 0. -1.
         11    1    3    3    0    0  0.26370012713E+02 -0.29164652884E+01  0.53285804666E+01  0.27060619178E+02  0.51100000000E-03 0. -1.
        -11    1    3    3    0    0 -0.38565233074E+02  0.51665495772E+01  0.68507740274E+01  0.39508271813E+02  0.51100000000E-03 0.  1.
        -12    1    3    3    0    0 -0.41350247754E+01 -0.28985457382E+01 -0.30370771128E+01  0.58926933298E+01  0.00000000000E+00 0.  1.
</event>
<event>
 7    1  0.1345786E-013  0.7246157E+02  0.7816164E-02  0.1226708E+00
        -11   -1    0    0    0    0  0.00000000000E+00  0.00000000000E+00  0.45593999997E+02  0.45594000000E+02  0.51100000000E-03 0.  1.
         11   -1    0    0    0    0 -0.00000000000E+00 -0.00000000000E+00 -0.45593999997E+02  0.45594000000E+02  0.51100000000E-03 0. -1.
    9900012    2    1    2    0    0  0.69070923351E+01 -0.39547228753E+01  0.16950849111E+02  0.72461573669E+02  0.70000004396E+02 0.  0.
         12    1    1    2    0    0 -0.69070923351E+01  0.39547228753E+01 -0.16950849111E+02  0.18726426331E+02  0.00000000000E+00 0. -1.
         11    1    3    3    0    0  0.20375450223E+01 -0.23764461362E+02  0.14619545711E+01  0.23896412387E+02  0.51100000000E-03 0. -1.
        -11    1    3    3    0    0  0.21949276971E+02  0.63044490404E+01  0.19381030290E+01  0.22918836813E+02  0.51100000000E-03 0.  1.
        -12    1    3    3    0    0 -0.17079729658E+02  0.13505289446E+02  0.13550791511E+02  0.25646324469E+02  0.00000000000E+00 0.  1.
</event>
<event>
 7    1  0.1345786E-013  0.7246154E+02  0.7816164E-02  0.1226708E+00
        -11   -1    0    0    0    0  0.00000000000E+00  0.00000000000E+00  0.45593999997E+02  0.45594000000E+02  0.51100000000E-03 0. -1.
         11   -1    0    0    0    0 -0.00000000000E+00 -0.00000000000E+00 -0.45593999997E+02  0.45594000000E+02  0.51100000000E-03 0.  1.
    9900012    2    1    2    0    0 -0.10069290343E+02 -0.11887506112E+02 -0.10391195744E+02  0.72461538546E+02  0.69999958642E+02 0.  0.
         12    1    1    2    0    0  0.10069290343E+02  0.11887506112E+02  0.10391195744E+02  0.18726461454E+02  0.00000000000E+00 0. -1.
         11    1    3    3    0    0  0.24749174371E+01  0.24538847949E+02 -0.48950973249E+01  0.25144427873E+02  0.51100000000E-03 0. -1.
        -11    1    3    3    0    0 -0.17606777983E+00 -0.77627157784E+01 -0.13061613578E+02  0.15195279058E+02  0.51100000000E-03 0.  1.
         12    1    3    3    0    0 -0.12368140001E+02 -0.28663638283E+02  0.75655151591E+01  0.32121831615E+02  0.00000000000E+00 0. -1.
</event>
<event>
 7    1  0.1345786E-013  0.7246155E+02  0.7816164E-02  0.1226708E+00
        -11   -1    0    0    0    0  0.00000000000E+00  0.00000000000E+00  0.45593999997E+02  0.45594000000E+02  0.51100000000E-03 0.  1.
         11   -1    0    0    0    0 -0.00000000000E+00 -0.00000000000E+00 -0.45593999997E+02  0.45594000000E+02  0.51100000000E-03 0. -1.
    9900012    2    1    2    0    0 -0.11283807168E+02 -0.13588743380E+02  0.62210584021E+01  0.72461552967E+02  0.69999977428E+02 0.  0.
         12    1    1    2    0    0  0.11283807168E+02  0.13588743380E+02 -0.62210584021E+01  0.18726447033E+02  0.00000000000E+00 0. -1.
         11    1    3    3    0    0  0.19127404109E+02  0.18658367211E+02  0.10818718355E+01  0.26742526094E+02  0.51100000000E-03 0. -1.
        -11    1    3    3    0    0 -0.84984820686E+01 -0.16066630079E+02  0.26172362518E+01  0.18363298327E+02  0.51100000000E-03 0.  1.
         12    1    3    3    0    0 -0.21912729208E+02 -0.16180480512E+02  0.25219503148E+01  0.27355728547E+02  0.00000000000E+00 0. -1.
</event>
<event>
 7    1  0.1345786E-013  0.7246159E+02  0.7816164E-02  0.1226708E+00
        -11   -1    0    0    0    0  0.00000000000E+00  0.00000000000E+00  0.45593999997E+02  0.45594000000E+02  0.51100000000E-03 0.  1.
         11   -1    0    0    0    0 -0.00000000000E+00 -0.00000000000E+00 -0.45593999997E+02  0.45594000000E+02  0.51100000000E-03 0. -1.
    9900012    2    1    2    0    0  0.18422193617E+02 -0.30280420937E+00 -0.33480801784E+01  0.72461586864E+02  0.70000021585E+02 0.  0.
         12    1    1    2    0    0 -0.18422193617E+02  0.30280420937E+00  0.33480801784E+01  0.18726413136E+02  0.00000000000E+00 0. -1.
         11    1    3    3    0    0  0.35295463928E+01  0.55371458113E+01 -0.12066455684E+02  0.13737431874E+02  0.51100000000E-03 0. -1.
        -11    1    3    3    0    0  0.18746169797E+02 -0.41461527851E+01  0.30773220908E+02  0.36271208835E+02  0.51100000000E-03 0.  1.
        -12    1    3    3    0    0 -0.38535225733E+01 -0.16937972355E+01 -0.22054845403E+02  0.22452946155E+02  0.00000000000E+00 0.  1.
</event>
<event>
 7    1  0.1345786E-013  0.7246157E+02  0.7816164E-02  0.1226708E+00
        -11   -1    0    0    0    0  0.00000000000E+00  0.00000000000E+00  0.45593999997E+02  0.45594000000E+02  0.51100000000E-03 0.  1.
         11   -1    0    0    0    0 -0.00000000000E+00 -0.00000000000E+00 -0.45593999997E+02  0.45594000000E+02  0.51100000000E-03 0. -1.
    9900012    2    1    2    0    0 -0.19024170395E+01 -0.15770226028E+02 -0.99176616727E+01  0.72461568609E+02  0.69999997805E+02 0.  0.
         12    1    1    2    0    0  0.19024170395E+01  0.15770226028E+02  0.99176616727E+01  0.18726431391E+02  0.00000000000E+00 0. -1.
         11    1    3    3    0    0  0.15717088767E+02  0.17987080163E+02  0.17643192084E+01  0.23951508400E+02  0.51100000000E-03 0. -1.
        -11    1    3    3    0    0 -0.18556441476E+01 -0.27247195308E+02  0.88544811088E+00  0.27324660766E+02  0.51100000000E-03 0.  1.
        -12    1    3    3    0    0 -0.15763861659E+02 -0.65101108827E+01 -0.12567428992E+02  0.21185399443E+02  0.00000000000E+00 0.  1.
</event>
<event>
 7    1  0.1345786E-013  0.7246157E+02  0.7816164E-02  0.1226708E+00
        -11   -1    0    0    0    0  0.00000000000E+00  0.00000000000E+00  0.45593999997E+02  0.45594000000E+02  0.51100000000E-03 0. -1.
         11   -1    0    0    0    0 -0.00000000000E+00 -0.00000000000E+00 -0.45593999997E+02  0.45594000000E+02  0.51100000000E-03 0.  1.
    9900012    2    1    2    0    0 -0.91721065661E+01 -0.14121831160E+02 -0.81930083233E+01  0.72461573764E+02  0.70000004520E+02 0.  0.
         12    1    1    2    0    0  0.91721065661E+01  0.14121831160E+02  0.81930083233E+01  0.18726426236E+02  0.00000000000E+00 0. -1.
         11    1    3    3    0    0  0.22480826331E+02 -0.39159595269E+01 -0.25562544418E+02  0.34266105249E+02  0.51100000000E-03 0. -1.
        -11    1    3    3    0    0 -0.27241971868E+02 -0.10670949624E+02  0.16761506857E+02  0.33718575141E+02  0.51100000000E-03 0.  1.
         12    1    3    3    0    0 -0.44109610287E+01  0.46507799032E+00  0.60802923819E+00  0.44768933747E+01  0.00000000000E+00 0. -1.
</event>
<event>
 7    1  0.1345786E-013  0.7246159E+02  0.7816164E-02  0.1226708E+00
        -11   -1    0    0    0    0  0.00000000000E+00  0.00000000000E+00  0.45593999997E+02  0.45594000000E+02  0.51100000000E-03 0.  1.
         11   -1    0    0    0    0 -0.00000000000E+00 -0.00000000000E+00 -0.45593999997E+02  0.45594000000E+02  0.51100000000E-03 0. -1.
    9900012    2    1    2    0    0 -0.15048189581E+02 -0.93012158925E+01  0.61414730300E+01  0.72461593038E+02  0.70000029627E+02 0.  0.
         12    1    1    2    0    0  0.15048189581E+02  0.93012158925E+01 -0.61414730300E+01  0.18726406962E+02  0.00000000000E+00 0. -1.
         11    1    3    3    0    0 -0.25877846804E+02  0.94429924491E+01  0.74322681778E+01  0.28531941262E+02  0.51100000000E-03 0. -1.
        -11    1    3    3    0    0  0.21384118912E+02 -0.59938105337E+01 -0.10954585659E+02  0.24763062282E+02  0.51100000000E-03 0.  1.
        -12    1    3    3    0    0 -0.10554461688E+02 -0.12750397808E+02  0.96637905113E+01  0.19166589494E+02  0.00000000000E+00 0.  1.
</event>
<event>
 7    1  0.1345786E-013  0.7246157E+02  0.7816164E-02  0.1226708E+00
        -11   -1    0    0    0    0  0.00000000000E+00  0.00000000000E+00  0.45593999997E+02  0.45594000000E+02  0.51100000000E-03 0. -1.
         11   -1    0    0    0    0 -0.00000000000E+00 -0.00000000000E+00 -0.45593999997E+02  0.45594000000E+02  0.51100000000E-03 0.  1.
    9900012    2    1    2    0    0 -0.79817961749E+01 -0.92226650087E+01 -0.14209587819E+02  0.72461574660E+02  0.70000005687E+02 0.  0.
         12    1    1    2    0    0  0.79817961749E+01  0.92226650087E+01  0.14209587819E+02  0.18726425340E+02  0.00000000000E+00 0. -1.
         11    1    3    3    0    0  0.14560073076E+02 -0.38340263503E+00 -0.89821272804E+00  0.14592789723E+02  0.51100000000E-03 0. -1.
        -11    1    3    3    0    0 -0.37225093144E+02 -0.13422160285E+01 -0.17046504440E+02  0.40964526329E+02  0.51100000000E-03 0.  1.
        -12    1    3    3    0    0  0.14683223894E+02 -0.74970463451E+01  0.37351293488E+01  0.16904258607E+02  0.00000000000E+00 0.  1.
</event>
<event>
 7    1  0.1345786E-013  0.7246162E+02  0.7816164E-02  0.1226708E+00
        -11   -1    0    0    0    0  0.00000000000E+00  0.00000000000E+00  0.45593999997E+02  0.45594000000E+02  0.51100000000E-03 0. -1.
         11   -1    0    0    0    0 -0.00000000000E+00 -0.00000000000E+00 -0.45593999997E+02  0.45594000000E+02  0.51100000000E-03 0.  1.
    9900012    2    1    2    0    0 -0.17546186341E+02  0.48107698933E+01  0.44345411237E+01  0.72461619756E+02  0.70000064433E+02 0.  0.
         12    1    1    2    0    0  0.17546186341E+02 -0.48107698933E+01 -0.44345411237E+01  0.18726380244E+02  0.00000000000E+00 0. -1.
         11    1    3    3    0    0  0.11187879637E+02  0.77839390425E+01 -0.12268409565E+02  0.18337726994E+02  0.51100000000E-03 0. -1.
        -11    1    3    3    0    0 -0.22390138124E+02 -0.25531973980E+01 -0.11439300122E+02  0.25272409654E+02  0.51100000000E-03 0.  1.
         12    1    3    3    0    0 -0.63439278536E+01 -0.41997175116E+00  0.28142250810E+02  0.28851483109E+02  0.00000000000E+00 0. -1.
</event>
<event>
 7    1  0.1345786E-013  0.7246152E+02  0.7816164E-02  0.1226708E+00
        -11   -1    0    0    0    0  0.00000000000E+00  0.00000000000E+00  0.45593999997E+02  0.45594000000E+02  0.51100000000E-03 0. -1.
         11   -1    0    0    0    0 -0.00000000000E+00 -0.00000000000E+00 -0.45593999997E+02  0.45594000000E+02  0.51100000000E-03 0.  1.
    9900012    2    1    2    0    0  0.13689677108E+02 -0.99939675208E+01  0.79620635950E+01  0.72461518675E+02  0.69999932756E+02 0.  0.
         12    1    1    2    0    0 -0.13689677108E+02  0.99939675208E+01 -0.79620635950E+01  0.18726481325E+02  0.00000000000E+00 0. -1.
         11    1    3    3    0    0  0.34086079315E+02 -0.10576621484E+02  0.24759453729E+02  0.43436807828E+02  0.51100000000E-03 0. -1.
        -11    1    3    3    0    0 -0.12803624385E+02  0.39934851639E+01 -0.15668496915E+02  0.20624803441E+02  0.51100000000E-03 0.  1.
        -12    1    3    3    0    0 -0.75927778209E+01 -0.34108312009E+01 -0.11288932196E+01  0.83999074054E+01  0.00000000000E+00 0.  1.
</event>
<event>
 7    1  0.1345786E-013  0.7246158E+02  0.7816164E-02  0.1226708E+00
        -11   -1    0    0    0    0  0.00000000000E+00  0.00000000000E+00  0.45593999997E+02  0.45594000000E+02  0.51100000000E-03 0. -1.
         11   -1    0    0    0    0 -0.00000000000E+00 -0.00000000000E+00 -0.45593999997E+02  0.45594000000E+02  0.51100000000E-03 0.  1.
    9900012    2    1    2    0    0  0.11087728903E+02  0.14169808003E+02 -0.51920575066E+01  0.72461584107E+02  0.70000017993E+02 0.  0.
         12    1    1    2    0    0 -0.11087728903E+02 -0.14169808003E+02  0.51920575066E+01  0.18726415893E+02  0.00000000000E+00 0. -1.
         11    1    3    3    0    0  0.12091640938E+02  0.38640883734E+01  0.57357168068E+01  0.13929731048E+02  0.51100000000E-03 0. -1.
        -11    1    3    3    0    0 -0.15597389353E+02  0.17451778892E+02 -0.26961517453E+02  0.35703873246E+02  0.51100000000E-03 0.  1.
        -12    1    3    3    0    0  0.14593477319E+02 -0.71460592629E+01  0.16033743140E+02  0.22827979812E+02  0.00000000000E+00 0.  1.
</event>
<event>
 7    1  0.1345786E-013  0.7246159E+02  0.7816164E-02  0.1226708E+00
        -11   -1    0    0    0    0  0.00000000000E+00  0.00000000000E+00  0.45593999997E+02  0.45594000000E+02  0.51100000000E-03 0. -1.
         11   -1    0    0    0    0 -0.00000000000E+00 -0.00000000000E+00 -0.45593999997E+02  0.45594000000E+02  0.51100000000E-03 0.  1.
    9900012    2    1    2    0    0 -0.72116789991E+01 -0.15202183033E+02 -0.82197165379E+01  0.72461590229E+02  0.70000025968E+02 0.  0.
         12    1    1    2    0    0  0.72116789991E+01  0.15202183033E+02  0.82197165379E+01  0.18726409771E+02  0.00000000000E+00 0. -1.
         11    1    3    3    0    0 -0.24002855512E+01 -0.35354473847E+02 -0.13698575766E+02  0.37991461804E+02  0.51100000000E-03 0. -1.
        -11    1    3    3    0    0  0.34047863306E+01  0.21944202716E+02  0.10618133918E+02  0.24614738896E+02  0.51100000000E-03 0.  1.
        -12    1    3    3    0    0 -0.82161797784E+01 -0.17919119012E+01 -0.51392746899E+01  0.98553895281E+01  0.00000000000E+00 0.  1.
</event>
<event>
 7    1  0.1345786E-013  0.7246159E+02  0.7816164E-02  0.1226708E+00
        -11   -1    0    0    0    0  0.00000000000E+00  0.00000000000E+00  0.45593999997E+02  0.45594000000E+02  0.51100000000E-03 0. -1.
         11   -1    0    0    0    0 -0.00000000000E+00 -0.00000000000E+00 -0.45593999997E+02  0.45594000000E+02  0.51100000000E-03 0.  1.
    9900012    2    1    2    0    0 -0.17205532942E+01  0.17758274794E+02 -0.56887491960E+01  0.72461588312E+02  0.70000023472E+02 0.  0.
         12    1    1    2    0    0  0.17205532942E+01 -0.17758274794E+02  0.56887491960E+01  0.18726411688E+02  0.00000000000E+00 0. -1.
         11    1    3    3    0    0 -0.10353029671E+02  0.27022336381E+02 -0.13393424720E+02  0.31886920717E+02  0.51100000000E-03 0. -1.
        -11    1    3    3    0    0 -0.16872126660E+01 -0.18739443623E+02 -0.71754387320E+01  0.20137039383E+02  0.51100000000E-03 0.  1.
        -12    1    3    3    0    0  0.10319689043E+02  0.94753820358E+01  0.14880114256E+02  0.20437628212E+02  0.00000000000E+00 0.  1.
</event>
<event>
 7    1  0.1345786E-013  0.7246155E+02  0.7816164E-02  0.1226708E+00
        -11   -1    0    0    0    0  0.00000000000E+00  0.00000000000E+00  0.45593999997E+02  0.45594000000E+02  0.51100000000E-03 0. -1.
         11   -1    0    0    0    0 -0.00000000000E+00 -0.00000000000E+00 -0.45593999997E+02  0.45594000000E+02  0.51100000000E-03 0.  1.
    9900012    2    1    2    0    0 -0.84142074672E+01  0.13862079384E+02 -0.93661051045E+01  0.72461546599E+02  0.69999969133E+02 0.  0.
         12    1    1    2    0    0  0.84142074672E+01 -0.13862079384E+02  0.93661051045E+01  0.18726453401E+02  0.00000000000E+00 0. -1.
         11    1    3    3    0    0 -0.32793808803E+02 -0.77075734465E+01  0.78603606256E+00  0.33696564174E+02  0.51100000000E-03 0. -1.
        -11    1    3    3    0    0  0.23550442415E+02  0.11776501586E+02 -0.27759034820E+01  0.26476687254E+02  0.51100000000E-03 0.  1.
         12    1    3    3    0    0  0.82915892014E+00  0.97931512446E+01 -0.73762376850E+01  0.12288295171E+02  0.00000000000E+00 0. -1.
</event>
<event>
 7    1  0.1345786E-013  0.7246157E+02  0.7816164E-02  0.1226708E+00
        -11   -1    0    0    0    0  0.00000000000E+00  0.00000000000E+00  0.45593999997E+02  0.45594000000E+02  0.51100000000E-03 0. -1.
         11   -1    0    0    0    0 -0.00000000000E+00 -0.00000000000E+00 -0.45593999997E+02  0.45594000000E+02  0.51100000000E-03 0.  1.
    9900012    2    1    2    0    0  0.28112524679E+01  0.10420356471E+02 -0.15303344654E+02  0.72461566089E+02  0.69999994522E+02 0.  0.
         12    1    1    2    0    0 -0.28112524679E+01 -0.10420356471E+02  0.15303344654E+02  0.18726433911E+02  0.00000000000E+00 0. -1.
         11    1    3    3    0    0  0.14699482152E+02 -0.11679447670E+02  0.15545272476E+02  0.24374982462E+02  0.51100000000E-03 0. -1.
        -11    1    3    3    0    0 -0.19497480107E+02  0.89004529758E+01 -0.15421955105E+02  0.26404668020E+02  0.51100000000E-03 0.  1.
        -12    1    3    3    0    0  0.76092504229E+01  0.13199351165E+02 -0.15426662025E+02  0.21681915607E+02  0.00000000000E+00 0.  1.
</event>
<event>
 7    1  0.1345786E-013  0.7246157E+02  0.7816164E-02  0.1226708E+00
        -11   -1    0    0    0    0  0.00000000000E+00  0.00000000000E+00  0.45593999997E+02  0.45594000000E+02  0.51100000000E-03 0. -1.
         11   -1    0    0    0    0 -0.00000000000E+00 -0.00000000000E+00 -0.45593999997E+02  0.45594000000E+02  0.51100000000E-03 0.  1.
    9900012    2    1    2    0    0  0.13255455654E+02  0.11524232741E+02  0.64933848354E+01  0.72461572378E+02  0.70000002714E+02 0.  0.
         12    1    1    2    0    0 -0.13255455654E+02 -0.11524232741E+02 -0.64933848354E+01  0.18726427622E+02  0.00000000000E+00 0. -1.
         11    1    3    3    0    0 -0.36699345334E+01  0.32974771124E+02 -0.13825273077E+02  0.35943596454E+02  0.51100000000E-03 0.  1.
        -11    1    3    3    0    0  0.93431012986E+01 -0.19864874357E+02  0.18122585869E+02  0.28466381820E+02  0.51100000000E-03 0. -1.
        -12    1    3    3    0    0  0.75822888885E+01 -0.15856640259E+01  0.21960720438E+01  0.80515941038E+01  0.00000000000E+00 0.  1.
</event>
<event>
 7    1  0.1345786E-013  0.7246123E+02  0.7816164E-02  0.1226709E+00
        -11   -1    0    0    0    0  0.00000000000E+00  0.00000000000E+00  0.45593999997E+02  0.45594000000E+02  0.51100000000E-03 0.  1.
         11   -1    0    0    0    0 -0.00000000000E+00 -0.00000000000E+00 -0.45593999997E+02  0.45594000000E+02  0.51100000000E-03 0. -1.
    9900012    2    1    2    0    0  0.99058657247E+00  0.16476493445E+02  0.88451009950E+01  0.72461230134E+02  0.69999556877E+02 0.  0.
         12    1    1    2    0    0 -0.99058657247E+00 -0.16476493445E+02 -0.88451009950E+01  0.18726769866E+02  0.00000000000E+00 0. -1.
         11    1    3    3    0    0 -0.49866085155E+01  0.61241942959E+01 -0.19630921426E+02  0.21159988104E+02  0.51100000000E-03 0. -1.
        -11    1    3    3    0    0 -0.13081668732E+02  0.32764776418E+01  0.27871082570E+02  0.30962277152E+02  0.51100000000E-03 0.  1.
        -12    1    3    3    0    0  0.19058863820E+02  0.70758215072E+01  0.60493985183E+00  0.20338964878E+02  0.00000000000E+00 0.  1.
</event>
<event>
 7    1  0.1345786E-013  0.7246156E+02  0.7816164E-02  0.1226708E+00
        -11   -1    0    0    0    0  0.00000000000E+00  0.00000000000E+00  0.45593999997E+02  0.45594000000E+02  0.51100000000E-03 0. -1.
         11   -1    0    0    0    0 -0.00000000000E+00 -0.00000000000E+00 -0.45593999997E+02  0.45594000000E+02  0.51100000000E-03 0.  1.
    9900012    2    1    2    0    0 -0.97444334090E+01  0.14859383248E+02 -0.59096786205E+01  0.72461560019E+02  0.69999986614E+02 0.  0.
         12    1    1    2    0    0  0.97444334090E+01 -0.14859383248E+02  0.59096786205E+01  0.18726439981E+02  0.00000000000E+00 0. -1.
         11    1    3    3    0    0  0.15883355282E+02  0.28474766766E+02 -0.16248508261E+02  0.36429484465E+02  0.51100000000E-03 0. -1.
        -11    1    3    3    0    0 -0.24765589904E+02 -0.10115644079E+02  0.14579359645E+02  0.30466677310E+02  0.51100000000E-03 0.  1.
         12    1    3    3    0    0 -0.86219878772E+00 -0.34997394390E+01 -0.42405300049E+01  0.55653982439E+01  0.00000000000E+00 0. -1.
</event>
<event>
 8    1  0.1345786E-013  0.7246161E+02  0.7816164E-02  0.1226708E+00
        -11   -1    0    0    0    0  0.00000000000E+00  0.00000000000E+00  0.45593999997E+02  0.45594000000E+02  0.51100000000E-03 0. -1.
         11   -1    0    0    0    0 -0.00000000000E+00 -0.00000000000E+00 -0.45593999997E+02  0.45594000000E+02  0.51100000000E-03 0.  1.
    9900012    2    1    2    0    0  0.13399767563E+02  0.11926979316E+02 -0.53731775732E+01  0.72461611037E+02  0.70000053075E+02 0.  0.
         24    2    3    3    0    0 -0.10368401331E+01  0.48326367523E+01 -0.11714474894E+02  0.55171226710E+02  0.53686179964E+02 0.  0.
         12    1    1    2    0    0 -0.13399767563E+02 -0.11926979316E+02  0.53731775732E+01  0.18726388963E+02  0.00000000000E+00 0. -1.
         11    1    3    3    0    0  0.14436607696E+02  0.70943425641E+01  0.63412973212E+01  0.17290384327E+02  0.51100000000E-03 0. -1.
        -11    1    4    4    0    0 -0.99785245354E+01  0.26269678944E+02  0.20435683033E+01  0.28175222366E+02  0.51100000000E-03 0.  1.
         12    1    4    4    0    0  0.89416844024E+01 -0.21437042192E+02 -0.13758043198E+02  0.26996004343E+02  0.00000000000E+00 0. -1.
</event>
<event>
 7    1  0.1345786E-013  0.7246158E+02  0.7816164E-02  0.1226708E+00
        -11   -1    0    0    0    0  0.00000000000E+00  0.00000000000E+00  0.45593999997E+02  0.45594000000E+02  0.51100000000E-03 0. -1.
         11   -1    0    0    0    0 -0.00000000000E+00 -0.00000000000E+00 -0.45593999997E+02  0.45594000000E+02  0.51100000000E-03 0.  1.
    9900012    2    1    2    0    0 -0.68321038387E+00 -0.11016513230E+02 -0.15127739751E+02  0.72461578822E+02  0.70000011109E+02 0.  0.
         12    1    1    2    0    0  0.68321038387E+00  0.11016513230E+02  0.15127739751E+02  0.18726421178E+02  0.00000000000E+00 0. -1.
         11    1    3    3    0    0  0.54552114573E+01 -0.20425813114E+02  0.95514913135E+01  0.23199227573E+02  0.51100000000E-03 0. -1.
        -11    1    3    3    0    0  0.11197230028E+02  0.62057807070E+01 -0.28482793500E+02  0.31227539133E+02  0.51100000000E-03 0.  1.
         12    1    3    3    0    0 -0.17335651869E+02  0.32035191775E+01  0.38035624355E+01  0.18034812116E+02  0.00000000000E+00 0. -1.
</event>
<event>
 7    1  0.1345786E-013  0.7246156E+02  0.7816164E-02  0.1226708E+00
        -11   -1    0    0    0    0  0.00000000000E+00  0.00000000000E+00  0.45593999997E+02  0.45594000000E+02  0.51100000000E-03 0.  1.
         11   -1    0    0    0    0 -0.00000000000E+00 -0.00000000000E+00 -0.45593999997E+02  0.45594000000E+02  0.51100000000E-03 0. -1.
    9900012    2    1    2    0    0 -0.16448120695E+02  0.78096102580E+01  0.43759535087E+01  0.72461557308E+02  0.69999983083E+02 0.  0.
         12    1    1    2    0    0  0.16448120695E+02 -0.78096102580E+01 -0.43759535087E+01  0.18726442692E+02  0.00000000000E+00 0. -1.
         11    1    3    3    0    0  0.17891161411E+01  0.30219476014E+02  0.75695417967E+01  0.31204416841E+02  0.51100000000E-03 0. -1.
        -11    1    3    3    0    0 -0.24553276640E+02 -0.90453571558E+01 -0.15833906176E+00  0.26166905651E+02  0.51100000000E-03 0.  1.
        -12    1    3    3    0    0  0.63160398037E+01 -0.13364508600E+02 -0.30352492262E+01  0.15090234816E+02  0.00000000000E+00 0.  1.
</event>
<event>
 7    1  0.1345786E-013  0.7246191E+02  0.7816164E-02  0.1226707E+00
        -11   -1    0    0    0    0  0.00000000000E+00  0.00000000000E+00  0.45593999997E+02  0.45594000000E+02  0.51100000000E-03 0.  1.
         11   -1    0    0    0    0 -0.00000000000E+00 -0.00000000000E+00 -0.45593999997E+02  0.45594000000E+02  0.51100000000E-03 0. -1.
    9900012    2    1    2    0    0  0.13306868075E+02  0.29142235128E+01  0.12849162142E+02  0.72461911129E+02  0.70000443999E+02 0.  0.
         12    1    1    2    0    0 -0.13306868075E+02 -0.29142235128E+01 -0.12849162142E+02  0.18726088871E+02  0.00000000000E+00 0. -1.
         11    1    3    3    0    0 -0.10397736700E+02  0.13182181122E+02 -0.12475457648E+02  0.20916975676E+02  0.51100000000E-03 0. -1.
        -11    1    3    3    0    0  0.28140404057E+02 -0.37120592230E-02  0.53367758127E+01  0.28641988943E+02  0.51100000000E-03 0.  1.
        -12    1    3    3    0    0 -0.44357992818E+01 -0.10264245550E+02  0.19987843978E+02  0.22902946511E+02  0.00000000000E+00 0.  1.
</event>
<event>
 7    1  0.1345786E-013  0.7246161E+02  0.7816164E-02  0.1226708E+00
        -11   -1    0    0    0    0  0.00000000000E+00  0.00000000000E+00  0.45593999997E+02  0.45594000000E+02  0.51100000000E-03 0.  1.
         11   -1    0    0    0    0 -0.00000000000E+00 -0.00000000000E+00 -0.45593999997E+02  0.45594000000E+02  0.51100000000E-03 0. -1.
    9900012    2    1    2    0    0  0.11590718838E+02  0.31520998433E+01  0.14366528686E+02  0.72461611050E+02  0.70000053092E+02 0.  0.
         12    1    1    2    0    0 -0.11590718838E+02 -0.31520998433E+01 -0.14366528686E+02  0.18726388950E+02  0.00000000000E+00 0. -1.
         11    1    3    3    0    0  0.12921488239E+02 -0.10703018928E+02  0.22934976296E+02  0.28417118264E+02  0.51100000000E-03 0.  1.
        -11    1    3    3    0    0 -0.19220550901E+02 -0.19164719247E+01 -0.47519108091E+01  0.19891784690E+02  0.51100000000E-03 0. -1.
        -12    1    3    3    0    0  0.17889781500E+02  0.15771590696E+02 -0.38165368005E+01  0.24152708096E+02  0.00000000000E+00 0.  1.
</event>
<event>
 7    1  0.1345786E-013  0.7246160E+02  0.7816164E-02  0.1226708E+00
        -11   -1    0    0    0    0  0.00000000000E+00  0.00000000000E+00  0.45593999997E+02  0.45594000000E+02  0.51100000000E-03 0.  1.
         11   -1    0    0    0    0 -0.00000000000E+00 -0.00000000000E+00 -0.45593999997E+02  0.45594000000E+02  0.51100000000E-03 0. -1.
    9900012    2    1    2    0    0  0.14187136432E+02 -0.37957452352E+01  0.11618760191E+02  0.72461598573E+02  0.70000036839E+02 0.  0.
         12    1    1    2    0    0 -0.14187136432E+02  0.37957452352E+01 -0.11618760191E+02  0.18726401427E+02  0.00000000000E+00 0. -1.
         11    1    3    3    0    0  0.97283570897E+01  0.19261519463E+02 -0.12641555984E+02  0.25009118370E+02  0.51100000000E-03 0. -1.
        -11    1    3    3    0    0 -0.13522901368E+02 -0.15618633471E+02  0.16740529563E+02  0.26590522808E+02  0.51100000000E-03 0.  1.
        -12    1    3    3    0    0  0.17981680710E+02 -0.74386312264E+01  0.75197866118E+01  0.20861957395E+02  0.00000000000E+00 0.  1.
</event>
<event>
 7    1  0.1345786E-013  0.7246164E+02  0.7816164E-02  0.1226708E+00
        -11   -1    0    0    0    0  0.00000000000E+00  0.00000000000E+00  0.45593999997E+02  0.45594000000E+02  0.51100000000E-03 0.  1.
         11   -1    0    0    0    0 -0.00000000000E+00 -0.00000000000E+00 -0.45593999997E+02  0.45594000000E+02  0.51100000000E-03 0. -1.
    9900012    2    1    2    0    0 -0.14776333892E+02 -0.11476399577E+02  0.79292686591E+00  0.72461640942E+02  0.70000092032E+02 0.  0.
         12    1    1    2    0    0  0.14776333892E+02  0.11476399577E+02 -0.79292686591E+00  0.18726359058E+02  0.00000000000E+00 0. -1.
         11    1    3    3    0    0 -0.27556356568E+02 -0.16717978539E+02  0.30526991764E+01  0.32375338859E+02  0.51100000000E-03 0.  1.
        -11    1    3    3    0    0  0.22280629592E+02 -0.62585797965E+01 -0.74179221632E+01  0.24302712721E+02  0.51100000000E-03 0. -1.
         12    1    3    3    0    0 -0.95006069168E+01  0.11500158759E+02  0.51581498527E+01  0.15783589363E+02  0.00000000000E+00 0. -1.
</event>
<event>
 7    1  0.1345786E-013  0.7246168E+02  0.7816164E-02  0.1226708E+00
        -11   -1    0    0    0    0  0.00000000000E+00  0.00000000000E+00  0.45593999997E+02  0.45594000000E+02  0.51100000000E-03 0. -1.
         11   -1    0    0    0    0 -0.00000000000E+00 -0.00000000000E+00 -0.45593999997E+02  0.45594000000E+02  0.51100000000E-03 0.  1.
    9900012    2    1    2    0    0  0.39562695144E+01  0.12315353292E+02 -0.13540867857E+02  0.72461679019E+02  0.70000141634E+02 0.  0.
         12    1    1    2    0    0 -0.39562695144E+01 -0.12315353292E+02  0.13540867857E+02  0.18726320981E+02  0.00000000000E+00 0. -1.
         11    1    3    3    0    0 -0.15818703469E+02  0.47290969241E+01 -0.25344278112E+02  0.30247779595E+02  0.51100000000E-03 0.  1.
        -11    1    3    3    0    0  0.76256385111E+01 -0.13621103610E+02  0.77881829745E+01  0.17445361004E+02  0.51100000000E-03 0. -1.
         12    1    3    3    0    0  0.12149334472E+02  0.21207359977E+02  0.40152272811E+01  0.24768538420E+02  0.00000000000E+00 0. -1.
</event>
<event>
 7    1  0.1345786E-013  0.7246155E+02  0.7816164E-02  0.1226708E+00
        -11   -1    0    0    0    0  0.00000000000E+00  0.00000000000E+00  0.45593999997E+02  0.45594000000E+02  0.51100000000E-03 0. -1.
         11   -1    0    0    0    0 -0.00000000000E+00 -0.00000000000E+00 -0.45593999997E+02  0.45594000000E+02  0.51100000000E-03 0.  1.
    9900012    2    1    2    0    0 -0.55641495488E+00 -0.11530523042E+02 -0.14745079419E+02  0.72461550089E+02  0.69999973678E+02 0.  0.
         12    1    1    2    0    0  0.55641495488E+00  0.11530523042E+02  0.14745079419E+02  0.18726449911E+02  0.00000000000E+00 0. -1.
         11    1    3    3    0    0  0.58632672374E+01  0.41945123452E+01  0.11630531877E+02  0.13683607292E+02  0.51100000000E-03 0. -1.
        -11    1    3    3    0    0 -0.16644977723E+02 -0.30389653192E+02 -0.17246320345E+02  0.38704287491E+02  0.51100000000E-03 0.  1.
        -12    1    3    3    0    0  0.10225295531E+02  0.14664617805E+02 -0.91292909513E+01  0.20073655306E+02  0.00000000000E+00 0.  1.
</event>
<event>
 7    1  0.1345786E-013  0.7246159E+02  0.7816164E-02  0.1226708E+00
        -11   -1    0    0    0    0  0.00000000000E+00  0.00000000000E+00  0.45593999997E+02  0.45594000000E+02  0.51100000000E-03 0.  1.
         11   -1    0    0    0    0 -0.00000000000E+00 -0.00000000000E+00 -0.45593999997E+02  0.45594000000E+02  0.51100000000E-03 0. -1.
    9900012    2    1    2    0    0 -0.13968707963E+02 -0.85626140215E+01  0.90683711137E+01  0.72461587751E+02  0.70000022741E+02 0.  0.
         12    1    1    2    0    0  0.13968707963E+02  0.85626140215E+01 -0.90683711137E+01  0.18726412249E+02  0.00000000000E+00 0. -1.
         11    1    3    3    0    0  0.57139442190E+01  0.13905525462E+02 -0.12004788669E+02  0.19238704430E+02  0.51100000000E-03 0. -1.
        -11    1    3    3    0    0 -0.22497566955E+02 -0.76330560509E+00  0.21783414033E+02  0.31324755092E+02  0.51100000000E-03 0.  1.
        -12    1    3    3    0    0  0.28149147726E+01 -0.21704833878E+02 -0.71025425077E+00  0.21898128230E+02  0.00000000000E+00 0.  1.
</event>
<event>
 7    1  0.1345786E-013  0.7246155E+02  0.7816164E-02  0.1226708E+00
        -11   -1    0    0    0    0  0.00000000000E+00  0.00000000000E+00  0.45593999997E+02  0.45594000000E+02  0.51100000000E-03 0.  1.
         11   -1    0    0    0    0 -0.00000000000E+00 -0.00000000000E+00 -0.45593999997E+02  0.45594000000E+02  0.51100000000E-03 0. -1.
    9900012    2    1    2    0    0  0.52640628561E+01  0.12272049143E+02  0.13128831324E+02  0.72461554533E+02  0.69999979468E+02 0.  0.
         12    1    1    2    0    0 -0.52640628561E+01 -0.12272049143E+02 -0.13128831324E+02  0.18726445467E+02  0.00000000000E+00 0. -1.
         11    1    3    3    0    0  0.12086044107E+02 -0.14977148706E+02 -0.12751524581E+02  0.23086550737E+02  0.51100000000E-03 0. -1.
        -11    1    3    3    0    0  0.99993815365E+01  0.14617981478E+02  0.21557151080E+02  0.27899530041E+02  0.51100000000E-03 0.  1.
        -12    1    3    3    0    0 -0.16821362787E+02  0.12631216371E+02  0.43232048252E+01  0.21475473755E+02  0.00000000000E+00 0.  1.
</event>
<event>
 7    1  0.1345786E-013  0.7246157E+02  0.7816164E-02  0.1226708E+00
        -11   -1    0    0    0    0  0.00000000000E+00  0.00000000000E+00  0.45593999997E+02  0.45594000000E+02  0.51100000000E-03 0.  1.
         11   -1    0    0    0    0 -0.00000000000E+00 -0.00000000000E+00 -0.45593999997E+02  0.45594000000E+02  0.51100000000E-03 0. -1.
    9900012    2    1    2    0    0 -0.29639620494E+01  0.68059939088E+01  0.17192226393E+02  0.72461567546E+02  0.69999996420E+02 0.  0.
         12    1    1    2    0    0  0.29639620494E+01 -0.68059939088E+01 -0.17192226393E+02  0.18726432454E+02  0.00000000000E+00 0. -1.
         11    1    3    3    0    0  0.21221515921E+02 -0.19019233622E+02  0.41713122051E+01  0.28800760951E+02  0.51100000000E-03 0. -1.
        -11    1    3    3    0    0 -0.18949807392E+02  0.13136992049E+02 -0.22025647749E+01  0.23163053601E+02  0.51100000000E-03 0.  1.
        -12    1    3    3    0    0 -0.52356705792E+01  0.12688235482E+02  0.15223478963E+02  0.20497752994E+02  0.00000000000E+00 0.  1.
</event>
<event>
 7    1  0.1345786E-013  0.7246173E+02  0.7816164E-02  0.1226708E+00
        -11   -1    0    0    0    0  0.00000000000E+00  0.00000000000E+00  0.45593999997E+02  0.45594000000E+02  0.51100000000E-03 0. -1.
         11   -1    0    0    0    0 -0.00000000000E+00 -0.00000000000E+00 -0.45593999997E+02  0.45594000000E+02  0.51100000000E-03 0.  1.
    9900012    2    1    2    0    0 -0.11897275875E+02  0.12072757508E+02 -0.79609379162E+01  0.72461730227E+02  0.70000208342E+02 0.  0.
         12    1    1    2    0    0  0.11897275875E+02 -0.12072757508E+02  0.79609379162E+01  0.18726269773E+02  0.00000000000E+00 0. -1.
         11    1    3    3    0    0  0.35702932743E+01 -0.51765503285E+01 -0.23431091922E+02  0.24260250128E+02  0.51100000000E-03 0. -1.
        -11    1    3    3    0    0  0.64717993527E+01  0.70604013039E+01  0.21269202731E+02  0.23326217835E+02  0.51100000000E-03 0.  1.
        -12    1    3    3    0    0 -0.21939368502E+02  0.10188906532E+02 -0.57990487251E+01  0.24875262264E+02  0.00000000000E+00 0.  1.
</event>
<event>
 7    1  0.1345786E-013  0.7246142E+02  0.7816164E-02  0.1226708E+00
        -11   -1    0    0    0    0  0.00000000000E+00  0.00000000000E+00  0.45593999997E+02  0.45594000000E+02  0.51100000000E-03 0.  1.
         11   -1    0    0    0    0 -0.00000000000E+00 -0.00000000000E+00 -0.45593999997E+02  0.45594000000E+02  0.51100000000E-03 0. -1.
    9900012    2    1    2    0    0  0.18534613510E+02  0.26725719499E+01 -0.10183067376E+00  0.72461417069E+02  0.69999800395E+02 0.  0.
         12    1    1    2    0    0 -0.18534613510E+02 -0.26725719499E+01  0.10183067376E+00  0.18726582931E+02  0.00000000000E+00 0. -1.
         11    1    3    3    0    0  0.14813879367E+02 -0.25077791549E+02 -0.62901945533E+01  0.29797872385E+02  0.51100000000E-03 0. -1.
        -11    1    3    3    0    0  0.92469082240E+01  0.85990493876E+01  0.16052381288E+02  0.20423709442E+02  0.51100000000E-03 0.  1.
         12    1    3    3    0    0 -0.55261740810E+01  0.19151314111E+02 -0.98640174087E+01  0.22239835242E+02  0.00000000000E+00 0. -1.
</event>
<event>
 7    1  0.1345786E-013  0.7246158E+02  0.7816164E-02  0.1226708E+00
        -11   -1    0    0    0    0  0.00000000000E+00  0.00000000000E+00  0.45593999997E+02  0.45594000000E+02  0.51100000000E-03 0. -1.
         11   -1    0    0    0    0 -0.00000000000E+00 -0.00000000000E+00 -0.45593999997E+02  0.45594000000E+02  0.51100000000E-03 0.  1.
    9900012    2    1    2    0    0 -0.13475118463E+02  0.11432965826E+02 -0.61957390611E+01  0.72461582626E+02  0.70000016064E+02 0.  0.
         12    1    1    2    0    0  0.13475118463E+02 -0.11432965826E+02  0.61957390611E+01  0.18726417374E+02  0.00000000000E+00 0. -1.
         11    1    3    3    0    0  0.15480559241E+02 -0.12591180783E+01  0.87685365676E+00  0.15556412354E+02  0.51100000000E-03 0. -1.
        -11    1    3    3    0    0 -0.33651109821E+02  0.99990107515E+01  0.11984267496E+02  0.37094475004E+02  0.51100000000E-03 0.  1.
        -12    1    3    3    0    0  0.46954321174E+01  0.26930731524E+01 -0.19056860214E+02  0.19810695267E+02  0.00000000000E+00 0.  1.
</event>
<event>
 7    1  0.1345786E-013  0.7246154E+02  0.7816164E-02  0.1226708E+00
        -11   -1    0    0    0    0  0.00000000000E+00  0.00000000000E+00  0.45593999997E+02  0.45594000000E+02  0.51100000000E-03 0. -1.
         11   -1    0    0    0    0 -0.00000000000E+00 -0.00000000000E+00 -0.45593999997E+02  0.45594000000E+02  0.51100000000E-03 0.  1.
    9900012    2    1    2    0    0  0.12805625268E+02  0.10935702202E+02 -0.81918729445E+01  0.72461537347E+02  0.69999957080E+02 0.  0.
         12    1    1    2    0    0 -0.12805625268E+02 -0.10935702202E+02  0.81918729445E+01  0.18726462653E+02  0.00000000000E+00 0. -1.
         11    1    3    3    0    0 -0.19474127715E+00 -0.13987068169E+02  0.12193521917E+02  0.18556884898E+02  0.51100000000E-03 0. -1.
        -11    1    3    3    0    0  0.14557043335E+02  0.34219097605E+02 -0.23485616807E+02  0.43982136700E+02  0.51100000000E-03 0.  1.
        -12    1    3    3    0    0 -0.15566767898E+01 -0.92963272342E+01  0.31002219455E+01  0.99225157487E+01  0.00000000000E+00 0.  1.
</event>
<event>
 7    1  0.1345786E-013  0.7246156E+02  0.7816164E-02  0.1226708E+00
        -11   -1    0    0    0    0  0.00000000000E+00  0.00000000000E+00  0.45593999997E+02  0.45594000000E+02  0.51100000000E-03 0.  1.
         11   -1    0    0    0    0 -0.00000000000E+00 -0.00000000000E+00 -0.45593999997E+02  0.45594000000E+02  0.51100000000E-03 0. -1.
    9900012    2    1    2    0    0 -0.17413012845E+02  0.61266339356E+00  0.68623007987E+01  0.72461560268E+02  0.69999986939E+02 0.  0.
         12    1    1    2    0    0  0.17413012845E+02 -0.61266339356E+00 -0.68623007987E+01  0.18726439732E+02  0.00000000000E+00 0. -1.
         11    1    3    3    0    0  0.15739259938E+02 -0.89550294977E+01 -0.11424931461E+02  0.21411350164E+02  0.51100000000E-03 0. -1.
        -11    1    3    3    0    0 -0.28443148118E+02  0.15527966501E+02  0.12883346574E+01  0.32431315499E+02  0.51100000000E-03 0.  1.
        -12    1    3    3    0    0 -0.47091246649E+01 -0.59602736097E+01  0.16998897603E+02  0.18618894605E+02  0.00000000000E+00 0.  1.
</event>
<event>
 7    1  0.1345786E-013  0.7246163E+02  0.7816164E-02  0.1226708E+00
        -11   -1    0    0    0    0  0.00000000000E+00  0.00000000000E+00  0.45593999997E+02  0.45594000000E+02  0.51100000000E-03 0.  1.
         11   -1    0    0    0    0 -0.00000000000E+00 -0.00000000000E+00 -0.45593999997E+02  0.45594000000E+02  0.51100000000E-03 0. -1.
    9900012    2    1    2    0    0 -0.13841658065E+01  0.97615271620E+01  0.15920856080E+02  0.72461628599E+02  0.70000075953E+02 0.  0.
         12    1    1    2    0    0  0.13841658065E+01 -0.97615271620E+01 -0.15920856080E+02  0.18726371401E+02  0.00000000000E+00 0. -1.
         11    1    3    3    0    0  0.12749008105E+02  0.76708593939E+01  0.34615144802E+02  0.37677414209E+02  0.51100000000E-03 0.  1.
        -11    1    3    3    0    0 -0.14712820910E+02 -0.95302616771E+01 -0.93908916681E+01  0.19886725053E+02  0.51100000000E-03 0. -1.
        -12    1    3    3    0    0  0.57964699856E+00  0.11620929445E+02 -0.93033970542E+01  0.14897489337E+02  0.00000000000E+00 0.  1.
</event>
<event>
 7    1  0.1345786E-013  0.7246158E+02  0.7816164E-02  0.1226708E+00
        -11   -1    0    0    0    0  0.00000000000E+00  0.00000000000E+00  0.45593999997E+02  0.45594000000E+02  0.51100000000E-03 0.  1.
         11   -1    0    0    0    0 -0.00000000000E+00 -0.00000000000E+00 -0.45593999997E+02  0.45594000000E+02  0.51100000000E-03 0. -1.
    9900012    2    1    2    0    0 -0.36636998930E+01 -0.55817507736E+01  0.17495722453E+02  0.72461576349E+02  0.70000007887E+02 0.  0.
         12    1    1    2    0    0  0.36636998930E+01  0.55817507736E+01 -0.17495722453E+02  0.18726423651E+02  0.00000000000E+00 0. -1.
         11    1    3    3    0    0  0.13101029271E+02  0.54731264336E+01 -0.14122516682E+02  0.20025922166E+02  0.51100000000E-03 0. -1.
        -11    1    3    3    0    0 -0.71483086017E+01  0.12281837453E+02  0.20285588629E+02  0.24767861300E+02  0.51100000000E-03 0.  1.
         12    1    3    3    0    0 -0.96164205618E+01 -0.23336714660E+02  0.11332650505E+02  0.27667792883E+02  0.00000000000E+00 0. -1.
</event>
<event>
 7    1  0.1345786E-013  0.7246155E+02  0.7816164E-02  0.1226708E+00
        -11   -1    0    0    0    0  0.00000000000E+00  0.00000000000E+00  0.45593999997E+02  0.45594000000E+02  0.51100000000E-03 0. -1.
         11   -1    0    0    0    0 -0.00000000000E+00 -0.00000000000E+00 -0.45593999997E+02  0.45594000000E+02  0.51100000000E-03 0.  1.
    9900012    2    1    2    0    0  0.15466814735E+02  0.10447266264E+02 -0.15205617721E+01  0.72461552431E+02  0.69999976730E+02 0.  0.
         12    1    1    2    0    0 -0.15466814735E+02 -0.10447266264E+02  0.15205617721E+01  0.18726447569E+02  0.00000000000E+00 0. -1.
         11    1    3    3    0    0 -0.14857160707E+02  0.71891491227E+01 -0.23949683282E+02  0.29086189489E+02  0.51100000000E-03 0. -1.
        -11    1    3    3    0    0  0.11709397609E+02  0.11257378724E+02  0.60896043264E+01  0.17347099159E+02  0.51100000000E-03 0.  1.
         12    1    3    3    0    0  0.18614577834E+02 -0.79992615835E+01  0.16339517184E+02  0.26028263784E+02  0.00000000000E+00 0. -1.
</event>
<event>
 7    1  0.1345786E-013  0.7246151E+02  0.7816164E-02  0.1226708E+00
        -11   -1    0    0    0    0  0.00000000000E+00  0.00000000000E+00  0.45593999997E+02  0.45594000000E+02  0.51100000000E-03 0. -1.
         11   -1    0    0    0    0 -0.00000000000E+00 -0.00000000000E+00 -0.45593999997E+02  0.45594000000E+02  0.51100000000E-03 0.  1.
    9900012    2    1    2    0    0  0.79516305602E+01  0.24383675775E+01  0.16778184487E+02  0.72461507010E+02  0.69999917561E+02 0.  0.
         12    1    1    2    0    0 -0.79516305602E+01 -0.24383675775E+01 -0.16778184487E+02  0.18726492990E+02  0.00000000000E+00 0. -1.
         11    1    3    3    0    0  0.23689541327E+02  0.26754436498E+02  0.28138274544E+01  0.35845667323E+02  0.51100000000E-03 0.  1.
        -11    1    3    3    0    0 -0.18387864723E+02 -0.20868057838E+02  0.74685308940E+01  0.28798756240E+02  0.51100000000E-03 0. -1.
        -12    1    3    3    0    0  0.26499539566E+01 -0.34480110832E+01  0.64958261387E+01  0.78170834475E+01  0.00000000000E+00 0.  1.
</event>
<event>
 7    1  0.1345786E-013  0.7246153E+02  0.7816164E-02  0.1226708E+00
        -11   -1    0    0    0    0  0.00000000000E+00  0.00000000000E+00  0.45593999997E+02  0.45594000000E+02  0.51100000000E-03 0.  1.
         11   -1    0    0    0    0 -0.00000000000E+00 -0.00000000000E+00 -0.45593999997E+02  0.45594000000E+02  0.51100000000E-03 0. -1.
    9900012    2    1    2    0    0 -0.26382810625E+01 -0.16840867853E+02 -0.77527645542E+01  0.72461529024E+02  0.69999946237E+02 0.  0.
         12    1    1    2    0    0  0.26382810625E+01  0.16840867853E+02  0.77527645542E+01  0.18726470976E+02  0.00000000000E+00 0. -1.
         11    1    3    3    0    0 -0.41761835346E+01 -0.13914182206E+02 -0.22160783530E+02  0.26498024498E+02  0.51100000000E-03 0. -1.
        -11    1    3    3    0    0  0.20600919431E+02  0.12446178774E+01  0.16381956019E+02  0.26349866002E+02  0.51100000000E-03 0.  1.
        -12    1    3    3    0    0 -0.19063016959E+02 -0.41713035236E+01 -0.19739370436E+01  0.19613638523E+02  0.00000000000E+00 0.  1.
</event>
<event>
 7    1  0.1345786E-013  0.7246152E+02  0.7816164E-02  0.1226708E+00
        -11   -1    0    0    0    0  0.00000000000E+00  0.00000000000E+00  0.45593999997E+02  0.45594000000E+02  0.51100000000E-03 0. -1.
         11   -1    0    0    0    0 -0.00000000000E+00 -0.00000000000E+00 -0.45593999997E+02  0.45594000000E+02  0.51100000000E-03 0.  1.
    9900012    2    1    2    0    0  0.75968527328E+01 -0.15010465717E+02 -0.82252572579E+01  0.72461518498E+02  0.69999932525E+02 0.  0.
         12    1    1    2    0    0 -0.75968527328E+01  0.15010465717E+02  0.82252572579E+01  0.18726481502E+02  0.00000000000E+00 0. -1.
         11    1    3    3    0    0  0.80472628413E+00  0.12403572520E+02  0.47364323875E+01  0.13301503211E+02  0.51100000000E-03 0. -1.
        -11    1    3    3    0    0 -0.38394983672E+01 -0.40414746263E+02 -0.62536646856E+01  0.41075561901E+02  0.51100000000E-03 0.  1.
        -12    1    3    3    0    0  0.10631624816E+02  0.13000708026E+02 -0.67080249597E+01  0.18084453386E+02  0.00000000000E+00 0.  1.
</event>
<event>
 7    1  0.1345786E-013  0.7246154E+02  0.7816164E-02  0.1226708E+00
        -11   -1    0    0    0    0  0.00000000000E+00  0.00000000000E+00  0.45593999997E+02  0.45594000000E+02  0.51100000000E-03 0.  1.
         11   -1    0    0    0    0 -0.00000000000E+00 -0.00000000000E+00 -0.45593999997E+02  0.45594000000E+02  0.51100000000E-03 0. -1.
    9900012    2    1    2    0    0  0.15357465337E+02  0.66652251684E+01  0.83906658552E+01  0.72461541669E+02  0.69999962710E+02 0.  0.
         12    1    1    2    0    0 -0.15357465337E+02 -0.66652251684E+01 -0.83906658552E+01  0.18726458331E+02  0.00000000000E+00 0. -1.
         11    1    3    3    0    0  0.23455875343E+02 -0.85475287119E+01 -0.16963226190E+02  0.30182600587E+02  0.51100000000E-03 0. -1.
        -11    1    3    3    0    0  0.24921872150E+00 -0.24411105757E+01  0.22393864731E+02  0.22527900671E+02  0.51100000000E-03 0.  1.
        -12    1    3    3    0    0 -0.83476287272E+01  0.17653864456E+02  0.29600273139E+01  0.19751040411E+02  0.00000000000E+00 0.  1.
</event>
<event>
 7    1  0.1345786E-013  0.7246161E+02  0.7816164E-02  0.1226708E+00
        -11   -1    0    0    0    0  0.00000000000E+00  0.00000000000E+00  0.45593999997E+02  0.45594000000E+02  0.51100000000E-03 0.  1.
         11   -1    0    0    0    0 -0.00000000000E+00 -0.00000000000E+00 -0.45593999997E+02  0.45594000000E+02  0.51100000000E-03 0. -1.
    9900012    2    1    2    0    0  0.12127039620E+02  0.98296890699E+01  0.10343592211E+02  0.72461607476E+02  0.70000048436E+02 0.  0.
         12    1    1    2    0    0 -0.12127039620E+02 -0.98296890699E+01 -0.10343592211E+02  0.18726392524E+02  0.00000000000E+00 0. -1.
         11    1    3    3    0    0 -0.11162255998E+02 -0.26983229075E+01 -0.23860856556E+02  0.26480509462E+02  0.51100000000E-03 0.  1.
        -11    1    3    3    0    0  0.15625716693E+02  0.67284965631E+01  0.95280245637E+01  0.19499203587E+02  0.51100000000E-03 0. -1.
         12    1    3    3    0    0  0.76635789249E+01  0.57995154143E+01  0.24676424204E+02  0.26481894427E+02  0.00000000000E+00 0. -1.
</event>
<event>
 7    1  0.1345786E-013  0.7246154E+02  0.7816164E-02  0.1226708E+00
        -11   -1    0    0    0    0  0.00000000000E+00  0.00000000000E+00  0.45593999997E+02  0.45594000000E+02  0.51100000000E-03 0.  1.
         11   -1    0    0    0    0 -0.00000000000E+00 -0.00000000000E+00 -0.45593999997E+02  0.45594000000E+02  0.51100000000E-03 0. -1.
    9900012    2    1    2    0    0 -0.16438532687E+02 -0.21455670706E+01  0.87092706125E+01  0.72461542526E+02  0.69999963826E+02 0.  0.
         12    1    1    2    0    0  0.16438532687E+02  0.21455670706E+01 -0.87092706125E+01  0.18726457474E+02  0.00000000000E+00 0. -1.
         11    1    3    3    0    0 -0.59229001218E+01 -0.10017957267E+02 -0.14768329975E+02  0.18802760015E+02  0.51100000000E-03 0. -1.
        -11    1    3    3    0    0 -0.15812336523E+02  0.10569703012E+02  0.35484939556E+02  0.40260769287E+02  0.51100000000E-03 0.  1.
        -12    1    3    3    0    0  0.52967039582E+01 -0.26973128164E+01 -0.12007338968E+02  0.13398013224E+02  0.00000000000E+00 0.  1.
</event>
<event>
 7    1  0.1345786E-013  0.7246161E+02  0.7816164E-02  0.1226708E+00
        -11   -1    0    0    0    0  0.00000000000E+00  0.00000000000E+00  0.45593999997E+02  0.45594000000E+02  0.51100000000E-03 0.  1.
         11   -1    0    0    0    0 -0.00000000000E+00 -0.00000000000E+00 -0.45593999997E+02  0.45594000000E+02  0.51100000000E-03 0. -1.
    9900012    2    1    2    0    0 -0.22878163469E+01 -0.15104576431E+01  0.18524630681E+02  0.72461614129E+02  0.70000057103E+02 0.  0.
         12    1    1    2    0    0  0.22878163469E+01  0.15104576431E+01 -0.18524630681E+02  0.18726385871E+02  0.00000000000E+00 0. -1.
         11    1    3    3    0    0 -0.21914537914E+02  0.12791572784E+02  0.13562839818E+02  0.28771894802E+02  0.51100000000E-03 0. -1.
        -11    1    3    3    0    0  0.18059086197E+02 -0.14188822347E+02  0.18850807889E+02  0.29712055334E+02  0.51100000000E-03 0.  1.
         12    1    3    3    0    0  0.15676353707E+01 -0.11320808066E+00 -0.13889017027E+02  0.13977663993E+02  0.00000000000E+00 0. -1.
</event>
<event>
 7    1  0.1345786E-013  0.7246154E+02  0.7816164E-02  0.1226708E+00
        -11   -1    0    0    0    0  0.00000000000E+00  0.00000000000E+00  0.45593999997E+02  0.45594000000E+02  0.51100000000E-03 0.  1.
         11   -1    0    0    0    0 -0.00000000000E+00 -0.00000000000E+00 -0.45593999997E+02  0.45594000000E+02  0.51100000000E-03 0. -1.
    9900012    2    1    2    0    0  0.38408910478E+01 -0.13735327269E+02 -0.12135425266E+02  0.72461542631E+02  0.69999963963E+02 0.  0.
         12    1    1    2    0    0 -0.38408910478E+01  0.13735327269E+02  0.12135425266E+02  0.18726457369E+02  0.00000000000E+00 0. -1.
         11    1    3    3    0    0  0.13478372748E+02 -0.37002902429E+02 -0.54002296097E+01  0.39749764782E+02  0.51100000000E-03 0. -1.
        -11    1    3    3    0    0  0.48040833719E+00  0.96457324211E+01  0.61113757344E+01  0.11428904573E+02  0.51100000000E-03 0.  1.
         12    1    3    3    0    0 -0.10117890037E+02  0.13621842739E+02 -0.12846571390E+02  0.21282873276E+02  0.00000000000E+00 0. -1.
</event>
<event>
 7    1  0.1345786E-013  0.7246131E+02  0.7816164E-02  0.1226709E+00
        -11   -1    0    0    0    0  0.00000000000E+00  0.00000000000E+00  0.45593999997E+02  0.45594000000E+02  0.51100000000E-03 0. -1.
         11   -1    0    0    0    0 -0.00000000000E+00 -0.00000000000E+00 -0.45593999997E+02  0.45594000000E+02  0.51100000000E-03 0.  1.
    9900012    2    1    2    0    0 -0.17610112746E+02  0.37602439050E+01 -0.51413414036E+01  0.72461310581E+02  0.69999661675E+02 0.  0.
         12    1    1    2    0    0  0.17610112746E+02 -0.37602439050E+01  0.51413414036E+01  0.18726689419E+02  0.00000000000E+00 0. -1.
         11    1    3    3    0    0 -0.25636772602E+02 -0.19537558919E+02 -0.19781681456E+02  0.37818979884E+02  0.51100000000E-03 0. -1.
        -11    1    3    3    0    0  0.58456569774E+01  0.92325282952E+01 -0.36004858092E+01  0.11505424049E+02  0.51100000000E-03 0.  1.
         12    1    3    3    0    0  0.21810028785E+01  0.14065274529E+02  0.18240825862E+02  0.23136906648E+02  0.00000000000E+00 0. -1.
</event>
<event>
 7    1  0.1345786E-013  0.7246158E+02  0.7816164E-02  0.1226708E+00
        -11   -1    0    0    0    0  0.00000000000E+00  0.00000000000E+00  0.45593999997E+02  0.45594000000E+02  0.51100000000E-03 0.  1.
         11   -1    0    0    0    0 -0.00000000000E+00 -0.00000000000E+00 -0.45593999997E+02  0.45594000000E+02  0.51100000000E-03 0. -1.
    9900012    2    1    2    0    0  0.95044228448E+01  0.14366404903E+01 -0.16071117961E+02  0.72461579572E+02  0.70000012086E+02 0.  0.
         12    1    1    2    0    0 -0.95044228448E+01 -0.14366404903E+01  0.16071117961E+02  0.18726420428E+02  0.00000000000E+00 0. -1.
         11    1    3    3    0    0  0.23505591614E+02  0.25223102719E+02 -0.13325552788E+02  0.36963334607E+02  0.51100000000E-03 0. -1.
        -11    1    3    3    0    0 -0.77376446627E+01 -0.10413447085E+02 -0.12326233236E+02  0.17895447778E+02  0.51100000000E-03 0.  1.
         12    1    3    3    0    0 -0.62635241066E+01 -0.13373015144E+02  0.95806680630E+01  0.17602797187E+02  0.00000000000E+00 0. -1.
</event>
<event>
 7    1  0.1345786E-013  0.7246157E+02  0.7816164E-02  0.1226708E+00
        -11   -1    0    0    0    0  0.00000000000E+00  0.00000000000E+00  0.45593999997E+02  0.45594000000E+02  0.51100000000E-03 0.  1.
         11   -1    0    0    0    0 -0.00000000000E+00 -0.00000000000E+00 -0.45593999997E+02  0.45594000000E+02  0.51100000000E-03 0. -1.
    9900012    2    1    2    0    0  0.18410068093E+02  0.31599929628E+01  0.13278347014E+01  0.72461566604E+02  0.69999995193E+02 0.  0.
         12    1    1    2    0    0 -0.18410068093E+02 -0.31599929628E+01 -0.13278347014E+01  0.18726433396E+02  0.00000000000E+00 0. -1.
         11    1    3    3    0    0 -0.18153808656E+02  0.17433022226E+00 -0.18575739871E+01  0.18249431255E+02  0.51100000000E-03 0. -1.
        -11    1    3    3    0    0  0.43509170236E+02 -0.26656663784E+01  0.75684315637E+01  0.44242907097E+02  0.51100000000E-03 0.  1.
        -12    1    3    3    0    0 -0.69452934863E+01  0.56513291189E+01 -0.43830228752E+01  0.99692282523E+01  0.00000000000E+00 0.  1.
</event>
<event>
 7    1  0.1345786E-013  0.7246158E+02  0.7816164E-02  0.1226708E+00
        -11   -1    0    0    0    0  0.00000000000E+00  0.00000000000E+00  0.45593999997E+02  0.45594000000E+02  0.51100000000E-03 0. -1.
         11   -1    0    0    0    0 -0.00000000000E+00 -0.00000000000E+00 -0.45593999997E+02  0.45594000000E+02  0.51100000000E-03 0.  1.
    9900012    2    1    2    0    0  0.15601210956E+02 -0.92972004430E+01 -0.45654309455E+01  0.72461578049E+02  0.70000010102E+02 0.  0.
         12    1    1    2    0    0 -0.15601210956E+02  0.92972004430E+01  0.45654309455E+01  0.18726421951E+02  0.00000000000E+00 0. -1.
         11    1    3    3    0    0 -0.92427981753E+01 -0.34031980888E+00  0.13004400930E+02  0.15958056883E+02  0.51100000000E-03 0. -1.
        -11    1    3    3    0    0  0.28772134508E+02  0.46410559988E+01 -0.26810435515E+02  0.39600184061E+02  0.51100000000E-03 0.  1.
        -12    1    3    3    0    0 -0.39281253760E+01 -0.13597936633E+02  0.92406036396E+01  0.16903337104E+02  0.00000000000E+00 0.  1.
</event>
<event>
 7    1  0.1345786E-013  0.7246158E+02  0.7816164E-02  0.1226708E+00
        -11   -1    0    0    0    0  0.00000000000E+00  0.00000000000E+00  0.45593999997E+02  0.45594000000E+02  0.51100000000E-03 0. -1.
         11   -1    0    0    0    0 -0.00000000000E+00 -0.00000000000E+00 -0.45593999997E+02  0.45594000000E+02  0.51100000000E-03 0.  1.
    9900012    2    1    2    0    0 -0.12833837489E+02  0.11164325331E+02 -0.78313072632E+01  0.72461577004E+02  0.70000008740E+02 0.  0.
         12    1    1    2    0    0  0.12833837489E+02 -0.11164325331E+02  0.78313072632E+01  0.18726422996E+02  0.00000000000E+00 0. -1.
         11    1    3    3    0    0 -0.29610326492E+02  0.18065030247E+01  0.18082467688E+02  0.34742057022E+02  0.51100000000E-03 0. -1.
        -11    1    3    3    0    0  0.50833552019E+00  0.77470071518E+01 -0.17904430910E+02  0.19515203593E+02  0.51100000000E-03 0.  1.
         12    1    3    3    0    0  0.16268153483E+02  0.16108151548E+01 -0.80093440413E+01  0.18204316389E+02  0.00000000000E+00 0. -1.
</event>
<event>
 7    1  0.1345786E-013  0.7246153E+02  0.7816164E-02  0.1226708E+00
        -11   -1    0    0    0    0  0.00000000000E+00  0.00000000000E+00  0.45593999997E+02  0.45594000000E+02  0.51100000000E-03 0. -1.
         11   -1    0    0    0    0 -0.00000000000E+00 -0.00000000000E+00 -0.45593999997E+02  0.45594000000E+02  0.51100000000E-03 0.  1.
    9900012    2    1    2    0    0 -0.14085284022E+02 -0.71509348271E+01  0.10057308220E+02  0.72461533608E+02  0.69999952210E+02 0.  0.
         12    1    1    2    0    0  0.14085284022E+02  0.71509348271E+01 -0.10057308220E+02  0.18726466392E+02  0.00000000000E+00 0. -1.
         11    1    3    3    0    0 -0.27577730784E+02  0.22146118777E+02  0.75414316999E+01  0.36164278016E+02  0.51100000000E-03 0. -1.
        -11    1    3    3    0    0  0.82198845482E+01 -0.10414377946E+02 -0.64349179991E+01  0.14745641387E+02  0.51100000000E-03 0.  1.
         12    1    3    3    0    0  0.52725622141E+01 -0.18882675659E+02  0.89507945195E+01  0.21551614205E+02  0.00000000000E+00 0. -1.
</event>
<event>
 7    1  0.1345786E-013  0.7246155E+02  0.7816164E-02  0.1226708E+00
        -11   -1    0    0    0    0  0.00000000000E+00  0.00000000000E+00  0.45593999997E+02  0.45594000000E+02  0.51100000000E-03 0.  1.
         11   -1    0    0    0    0 -0.00000000000E+00 -0.00000000000E+00 -0.45593999997E+02  0.45594000000E+02  0.51100000000E-03 0. -1.
    9900012    2    1    2    0    0 -0.28454866330E+01  0.18369501937E+02 -0.22681593058E+01  0.72461549663E+02  0.69999973124E+02 0.  0.
         12    1    1    2    0    0  0.28454866330E+01 -0.18369501937E+02  0.22681593058E+01  0.18726450337E+02  0.00000000000E+00 0. -1.
         11    1    3    3    0    0 -0.14405787872E+02 -0.88145820340E+01 -0.15227516178E+02  0.22739851140E+02  0.51100000000E-03 0. -1.
        -11    1    3    3    0    0  0.22353133495E+02  0.15674912939E+02  0.18522498827E+02  0.32991641908E+02  0.51100000000E-03 0.  1.
        -12    1    3    3    0    0 -0.10792832256E+02  0.11509171032E+02 -0.55631419558E+01  0.16730056616E+02  0.00000000000E+00 0.  1.
</event>
<event>
 7    1  0.1345786E-013  0.7246152E+02  0.7816164E-02  0.1226708E+00
        -11   -1    0    0    0    0  0.00000000000E+00  0.00000000000E+00  0.45593999997E+02  0.45594000000E+02  0.51100000000E-03 0. -1.
         11   -1    0    0    0    0 -0.00000000000E+00 -0.00000000000E+00 -0.45593999997E+02  0.45594000000E+02  0.51100000000E-03 0.  1.
    9900012    2    1    2    0    0  0.15106748731E+02 -0.35056627625E+01 -0.10496546566E+02  0.72461520928E+02  0.69999935691E+02 0.  0.
         12    1    1    2    0    0 -0.15106748731E+02  0.35056627625E+01  0.10496546566E+02  0.18726479072E+02  0.00000000000E+00 0. -1.
         11    1    3    3    0    0  0.12564376788E+02 -0.31372852966E+02  0.32848354469E+01  0.33954522696E+02  0.51100000000E-03 0.  1.
        -11    1    3    3    0    0 -0.10204358776E+01  0.26123332881E+02 -0.21658363465E+01  0.26232816423E+02  0.51100000000E-03 0. -1.
         12    1    3    3    0    0  0.35628078211E+01  0.17438573235E+01 -0.11615545667E+02  0.12274181809E+02  0.00000000000E+00 0. -1.
</event>
<event>
 7    1  0.1345786E-013  0.7246156E+02  0.7816164E-02  0.1226708E+00
        -11   -1    0    0    0    0  0.00000000000E+00  0.00000000000E+00  0.45593999997E+02  0.45594000000E+02  0.51100000000E-03 0. -1.
         11   -1    0    0    0    0 -0.00000000000E+00 -0.00000000000E+00 -0.45593999997E+02  0.45594000000E+02  0.51100000000E-03 0.  1.
    9900012    2    1    2    0    0  0.11067394796E+02  0.14492416444E+02  0.42617342207E+01  0.72461555049E+02  0.69999980140E+02 0.  0.
         12    1    1    2    0    0 -0.11067394796E+02 -0.14492416444E+02 -0.42617342207E+01  0.18726444951E+02  0.00000000000E+00 0. -1.
         11    1    3    3    0    0 -0.15928475823E+01  0.41958725482E+01  0.26818665288E+02  0.27191603814E+02  0.51100000000E-03 0. -1.
        -11    1    3    3    0    0  0.25163051345E+02  0.66690583101E+01 -0.12847644678E+02  0.29029596377E+02  0.51100000000E-03 0.  1.
         12    1    3    3    0    0 -0.12502808967E+02  0.36274855857E+01 -0.97092863891E+01  0.16240354859E+02  0.00000000000E+00 0. -1.
</event>
<event>
 7    1  0.1345786E-013  0.7246162E+02  0.7816164E-02  0.1226708E+00
        -11   -1    0    0    0    0  0.00000000000E+00  0.00000000000E+00  0.45593999997E+02  0.45594000000E+02  0.51100000000E-03 0.  1.
         11   -1    0    0    0    0 -0.00000000000E+00 -0.00000000000E+00 -0.45593999997E+02  0.45594000000E+02  0.51100000000E-03 0. -1.
    9900012    2    1    2    0    0  0.71003696495E+00  0.17729805220E+02 -0.59855879184E+01  0.72461617318E+02  0.70000061257E+02 0.  0.
         12    1    1    2    0    0 -0.71003696495E+00 -0.17729805220E+02  0.59855879184E+01  0.18726382682E+02  0.00000000000E+00 0. -1.
         11    1    3    3    0    0 -0.44056822614E+01 -0.19419024143E+02  0.68855590526E+01  0.21069396256E+02  0.51100000000E-03 0.  1.
        -11    1    3    3    0    0  0.48509116424E+01  0.36975677341E+02  0.12055189672E+01  0.37311999878E+02  0.51100000000E-03 0. -1.
         12    1    3    3    0    0  0.26480758397E+00  0.17315202110E+00 -0.14076665938E+02  0.14080221185E+02  0.00000000000E+00 0. -1.
</event>
<event>
 7    1  0.1345786E-013  0.7246152E+02  0.7816164E-02  0.1226708E+00
        -11   -1    0    0    0    0  0.00000000000E+00  0.00000000000E+00  0.45593999997E+02  0.45594000000E+02  0.51100000000E-03 0. -1.
         11   -1    0    0    0    0 -0.00000000000E+00 -0.00000000000E+00 -0.45593999997E+02  0.45594000000E+02  0.51100000000E-03 0.  1.
    9900012    2    1    2    0    0  0.76390314214E+01  0.69963116731E+00 -0.17083231574E+02  0.72461519129E+02  0.69999933347E+02 0.  0.
         12    1    1    2    0    0 -0.76390314214E+01 -0.69963116731E+00  0.17083231574E+02  0.18726480871E+02  0.00000000000E+00 0. -1.
         11    1    3    3    0    0 -0.70217937065E+01  0.13368128484E+02 -0.10324647740E+00  0.15100433971E+02  0.51100000000E-03 0. -1.
        -11    1    3    3    0    0  0.65085071355E+01 -0.32601881730E+02 -0.97947091447E+01  0.34658039254E+02  0.51100000000E-03 0.  1.
        -12    1    3    3    0    0  0.81523179925E+01  0.19933384413E+02 -0.71852759514E+01  0.22703045904E+02  0.00000000000E+00 0.  1.
</event>
<event>
 7    1  0.1345786E-013  0.7246150E+02  0.7816164E-02  0.1226708E+00
        -11   -1    0    0    0    0  0.00000000000E+00  0.00000000000E+00  0.45593999997E+02  0.45594000000E+02  0.51100000000E-03 0.  1.
         11   -1    0    0    0    0 -0.00000000000E+00 -0.00000000000E+00 -0.45593999997E+02  0.45594000000E+02  0.51100000000E-03 0. -1.
    9900012    2    1    2    0    0 -0.13417213574E+02 -0.60990653153E+01 -0.11552556360E+02  0.72461500694E+02  0.69999909333E+02 0.  0.
         12    1    1    2    0    0  0.13417213574E+02  0.60990653153E+01  0.11552556360E+02  0.18726499306E+02  0.00000000000E+00 0. -1.
         11    1    3    3    0    0 -0.33750718877E+01 -0.13783362445E+01 -0.85862561255E+01  0.93281678567E+01  0.51100000000E-03 0. -1.
        -11    1    3    3    0    0 -0.83177783862E+01 -0.26764912581E+02  0.17468104141E+02  0.33025454506E+02  0.51100000000E-03 0.  1.
        -12    1    3    3    0    0 -0.17243632999E+01  0.22044183510E+02 -0.20434404376E+02  0.30107878331E+02  0.00000000000E+00 0.  1.
</event>
<event>
 7    1  0.1345786E-013  0.7246160E+02  0.7816164E-02  0.1226708E+00
        -11   -1    0    0    0    0  0.00000000000E+00  0.00000000000E+00  0.45593999997E+02  0.45594000000E+02  0.51100000000E-03 0.  1.
         11   -1    0    0    0    0 -0.00000000000E+00 -0.00000000000E+00 -0.45593999997E+02  0.45594000000E+02  0.51100000000E-03 0. -1.
    9900012    2    1    2    0    0 -0.10810722632E+02  0.12339143415E+02  0.90305999611E+01  0.72461603664E+02  0.70000043471E+02 0.  0.
         12    1    1    2    0    0  0.10810722632E+02 -0.12339143415E+02 -0.90305999611E+01  0.18726396336E+02  0.00000000000E+00 0. -1.
         11    1    3    3    0    0  0.48599079528E+01  0.33904071363E+01  0.64090773982E+01  0.87286791221E+01  0.51100000000E-03 0. -1.
        -11    1    3    3    0    0 -0.25217490670E+02  0.30679120288E+02  0.42626672173E+01  0.39941214170E+02  0.51100000000E-03 0.  1.
        -12    1    3    3    0    0  0.95468600852E+01 -0.21730384009E+02 -0.16411446544E+01  0.23791710372E+02  0.00000000000E+00 0.  1.
</event>
<event>
 7    1  0.1345786E-013  0.7246152E+02  0.7816164E-02  0.1226708E+00
        -11   -1    0    0    0    0  0.00000000000E+00  0.00000000000E+00  0.45593999997E+02  0.45594000000E+02  0.51100000000E-03 0. -1.
         11   -1    0    0    0    0 -0.00000000000E+00 -0.00000000000E+00 -0.45593999997E+02  0.45594000000E+02  0.51100000000E-03 0.  1.
    9900012    2    1    2    0    0  0.12357728389E+02  0.92250990890E+01 -0.10623808678E+02  0.72461515681E+02  0.69999928856E+02 0.  0.
         12    1    1    2    0    0 -0.12357728389E+02 -0.92250990890E+01  0.10623808678E+02  0.18726484319E+02  0.00000000000E+00 0. -1.
         11    1    3    3    0    0  0.24252740824E+02  0.18148486810E+02 -0.26816394363E+02  0.40455926857E+02  0.51100000000E-03 0. -1.
        -11    1    3    3    0    0  0.66802197400E+01 -0.40125673722E+01  0.78435808526E+01  0.11056572414E+02  0.51100000000E-03 0.  1.
         12    1    3    3    0    0 -0.18575232175E+02 -0.49108203486E+01  0.83490048319E+01  0.20949016410E+02  0.00000000000E+00 0. -1.
</event>
<event>
 7    1  0.1345786E-013  0.7246176E+02  0.7816164E-02  0.1226708E+00
        -11   -1    0    0    0    0  0.00000000000E+00  0.00000000000E+00  0.45593999997E+02  0.45594000000E+02  0.51100000000E-03 0.  1.
         11   -1    0    0    0    0 -0.00000000000E+00 -0.00000000000E+00 -0.45593999997E+02  0.45594000000E+02  0.51100000000E-03 0. -1.
    9900012    2    1    2    0    0  0.12001423945E+02 -0.13956524397E+02  0.34428734830E+01  0.72461758311E+02  0.70000244927E+02 0.  0.
         12    1    1    2    0    0 -0.12001423945E+02  0.13956524397E+02 -0.34428734830E+01  0.18726241689E+02  0.00000000000E+00 0. -1.
         11    1    3    3    0    0  0.43584534969E+01 -0.65215188061E+01 -0.22091038685E+01  0.81490161729E+01  0.51100000000E-03 0. -1.
        -11    1    3    3    0    0 -0.13074358392E+02  0.25716724573E+01  0.28764504062E+02  0.31700931229E+02  0.51100000000E-03 0.  1.
        -12    1    3    3    0    0  0.20717328840E+02 -0.10006678048E+02 -0.23112526711E+02  0.32611810909E+02  0.00000000000E+00 0.  1.
</event>
<event>
 7    1  0.1345786E-013  0.7246165E+02  0.7816164E-02  0.1226708E+00
        -11   -1    0    0    0    0  0.00000000000E+00  0.00000000000E+00  0.45593999997E+02  0.45594000000E+02  0.51100000000E-03 0.  1.
         11   -1    0    0    0    0 -0.00000000000E+00 -0.00000000000E+00 -0.45593999997E+02  0.45594000000E+02  0.51100000000E-03 0. -1.
    9900012    2    1    2    0    0 -0.44394159744E+01  0.17892545438E+02 -0.32900831765E+01  0.72461648413E+02  0.70000101764E+02 0.  0.
         12    1    1    2    0    0  0.44394159744E+01 -0.17892545438E+02  0.32900831765E+01  0.18726351587E+02  0.00000000000E+00 0. -1.
         11    1    3    3    0    0 -0.21559022733E+02  0.64430592718E+01 -0.16777765817E+02  0.28067737708E+02  0.51100000000E-03 0. -1.
        -11    1    3    3    0    0  0.22358204506E+02 -0.14657774453E+01 -0.32199002540E+01  0.22636377143E+02  0.51100000000E-03 0.  1.
        -12    1    3    3    0    0 -0.52385977477E+01  0.12915263612E+02  0.16707582895E+02  0.21757533562E+02  0.00000000000E+00 0.  1.
</event>
<event>
 7    1  0.1345786E-013  0.7246158E+02  0.7816164E-02  0.1226708E+00
        -11   -1    0    0    0    0  0.00000000000E+00  0.00000000000E+00  0.45593999997E+02  0.45594000000E+02  0.51100000000E-03 0.  1.
         11   -1    0    0    0    0 -0.00000000000E+00 -0.00000000000E+00 -0.45593999997E+02  0.45594000000E+02  0.51100000000E-03 0. -1.
    9900012    2    1    2    0    0 -0.14471075630E+02  0.11745428464E+02  0.18198256961E+01  0.72461577885E+02  0.70000009888E+02 0.  0.
         12    1    1    2    0    0  0.14471075630E+02 -0.11745428464E+02 -0.18198256961E+01  0.18726422115E+02  0.00000000000E+00 0. -1.
         11    1    3    3    0    0  0.14867243958E+01  0.54880294739E+01 -0.63664659475E+01  0.85358482799E+01  0.51100000000E-03 0. -1.
        -11    1    3    3    0    0 -0.45311961364E+01 -0.26035338670E+02 -0.55780684933E+01  0.27008988253E+02  0.51100000000E-03 0.  1.
        -12    1    3    3    0    0 -0.11426603889E+02  0.32292737660E+02  0.13764360137E+02  0.36916741351E+02  0.00000000000E+00 0.  1.
</event>
<event>
 7    1  0.1345786E-013  0.7246146E+02  0.7816164E-02  0.1226708E+00
        -11   -1    0    0    0    0  0.00000000000E+00  0.00000000000E+00  0.45593999997E+02  0.45594000000E+02  0.51100000000E-03 0.  1.
         11   -1    0    0    0    0 -0.00000000000E+00 -0.00000000000E+00 -0.45593999997E+02  0.45594000000E+02  0.51100000000E-03 0. -1.
    9900012    2    1    2    0    0 -0.87730412317E+01  0.15322509827E+02  0.62400045433E+01  0.72461462238E+02  0.69999859236E+02 0.  0.
         12    1    1    2    0    0  0.87730412317E+01 -0.15322509827E+02 -0.62400045433E+01  0.18726537762E+02  0.00000000000E+00 0. -1.
         11    1    3    3    0    0  0.33248801823E+01  0.14977443192E+02  0.49587029221E+01  0.16123503581E+02  0.51100000000E-03 0. -1.
        -11    1    3    3    0    0 -0.10188995933E+02 -0.17477953973E+02 -0.20044562933E+02  0.28479449022E+02  0.51100000000E-03 0.  1.
        -12    1    3    3    0    0 -0.19089254811E+01  0.17823020608E+02  0.21325864554E+02  0.27858509634E+02  0.00000000000E+00 0.  1.
</event>
<event>
 7    1  0.1345786E-013  0.7246115E+02  0.7816164E-02  0.1226709E+00
        -11   -1    0    0    0    0  0.00000000000E+00  0.00000000000E+00  0.45593999997E+02  0.45594000000E+02  0.51100000000E-03 0.  1.
         11   -1    0    0    0    0 -0.00000000000E+00 -0.00000000000E+00 -0.45593999997E+02  0.45594000000E+02  0.51100000000E-03 0. -1.
    9900012    2    1    2    0    0 -0.83885735799E+00  0.12455262359E+02  0.13959138496E+02  0.72461153238E+02  0.69999456705E+02 0.  0.
         12    1    1    2    0    0  0.83885735799E+00 -0.12455262359E+02 -0.13959138496E+02  0.18726846762E+02  0.00000000000E+00 0. -1.
         11    1    3    3    0    0 -0.84930513512E+01  0.17927173787E+02 -0.30825303050E+01  0.20075295131E+02  0.51100000000E-03 0. -1.
        -11    1    3    3    0    0  0.51225301157E+01 -0.16727318255E+02  0.30190865349E+02  0.34893148920E+02  0.51100000000E-03 0.  1.
        -12    1    3    3    0    0  0.25316638775E+01  0.11255406828E+02 -0.13149196548E+02  0.17492709187E+02  0.00000000000E+00 0.  1.
</event>
<event>
 7    1  0.1345786E-013  0.7246162E+02  0.7816164E-02  0.1226708E+00
        -11   -1    0    0    0    0  0.00000000000E+00  0.00000000000E+00  0.45593999997E+02  0.45594000000E+02  0.51100000000E-03 0.  1.
         11   -1    0    0    0    0 -0.00000000000E+00 -0.00000000000E+00 -0.45593999997E+02  0.45594000000E+02  0.51100000000E-03 0. -1.
    9900012    2    1    2    0    0 -0.17054081905E+02  0.49903114123E+01 -0.59103695391E+01  0.72461617922E+02  0.70000062044E+02 0.  0.
         12    1    1    2    0    0  0.17054081905E+02 -0.49903114123E+01  0.59103695391E+01  0.18726382078E+02  0.00000000000E+00 0. -1.
         11    1    3    3    0    0 -0.18903429105E+02  0.14123294501E+02 -0.15966495382E+02  0.28490981986E+02  0.51100000000E-03 0. -1.
        -11    1    3    3    0    0  0.11408514546E+02 -0.49544843842E+01  0.23717734937E+02  0.26781188743E+02  0.51100000000E-03 0.  1.
        -12    1    3    3    0    0 -0.95591673467E+01 -0.41784987047E+01 -0.13661609094E+02  0.17189447194E+02  0.00000000000E+00 0.  1.
</event>
<event>
 7    1  0.1345786E-013  0.7246154E+02  0.7816164E-02  0.1226708E+00
        -11   -1    0    0    0    0  0.00000000000E+00  0.00000000000E+00  0.45593999997E+02  0.45594000000E+02  0.51100000000E-03 0. -1.
         11   -1    0    0    0    0 -0.00000000000E+00 -0.00000000000E+00 -0.45593999997E+02  0.45594000000E+02  0.51100000000E-03 0.  1.
    9900012    2    1    2    0    0 -0.85065808119E+00 -0.16487896486E+02 -0.88377608775E+01  0.72461538320E+02  0.69999958348E+02 0.  0.
         12    1    1    2    0    0  0.85065808119E+00  0.16487896486E+02  0.88377608775E+01  0.18726461680E+02  0.00000000000E+00 0. -1.
         11    1    3    3    0    0  0.16122039955E+02 -0.19907722136E+02 -0.30231243080E+02  0.39625315536E+02  0.51100000000E-03 0. -1.
        -11    1    3    3    0    0 -0.14627081304E+02  0.61370873416E+01  0.58868413134E+01  0.16919522730E+02  0.51100000000E-03 0.  1.
         12    1    3    3    0    0 -0.23456167318E+01 -0.27172616922E+01  0.15506640889E+02  0.15916700054E+02  0.00000000000E+00 0. -1.
</event>
<event>
 7    1  0.1345786E-013  0.7246109E+02  0.7816164E-02  0.1226709E+00
        -11   -1    0    0    0    0  0.00000000000E+00  0.00000000000E+00  0.45593999997E+02  0.45594000000E+02  0.51100000000E-03 0.  1.
         11   -1    0    0    0    0 -0.00000000000E+00 -0.00000000000E+00 -0.45593999997E+02  0.45594000000E+02  0.51100000000E-03 0. -1.
    9900012    2    1    2    0    0 -0.76663870866E+01  0.16144623012E+02  0.55923902619E+01  0.72461089630E+02  0.69999373843E+02 0.  0.
         12    1    1    2    0    0  0.76663870866E+01 -0.16144623012E+02 -0.55923902619E+01  0.18726910370E+02  0.00000000000E+00 0. -1.
         11    1    3    3    0    0  0.31139983697E+01  0.11418936876E+02 -0.38972965649E+01  0.12461060388E+02  0.51100000000E-03 0. -1.
        -11    1    3    3    0    0  0.59408915457E+01 -0.23272468368E+02 -0.46338768218E+01  0.24461700492E+02  0.51100000000E-03 0.  1.
        -12    1    3    3    0    0 -0.16721277002E+02  0.27998154504E+02  0.14123563649E+02  0.35538328750E+02  0.00000000000E+00 0.  1.
</event>
<event>
 7    1  0.1345786E-013  0.7246162E+02  0.7816164E-02  0.1226708E+00
        -11   -1    0    0    0    0  0.00000000000E+00  0.00000000000E+00  0.45593999997E+02  0.45594000000E+02  0.51100000000E-03 0.  1.
         11   -1    0    0    0    0 -0.00000000000E+00 -0.00000000000E+00 -0.45593999997E+02  0.45594000000E+02  0.51100000000E-03 0. -1.
    9900012    2    1    2    0    0 -0.10760265459E+02 -0.11042126975E+02  0.10628524832E+02  0.72461616981E+02  0.70000060818E+02 0.  0.
         12    1    1    2    0    0  0.10760265459E+02  0.11042126975E+02 -0.10628524832E+02  0.18726383019E+02  0.00000000000E+00 0. -1.
         11    1    3    3    0    0 -0.35954128696E+02  0.35636074568E+01  0.55409465102E+00  0.36134549804E+02  0.51100000000E-03 0. -1.
        -11    1    3    3    0    0  0.18388919552E+02 -0.13327991117E+02  0.15529211404E+02  0.27512617407E+02  0.51100000000E-03 0.  1.
         12    1    3    3    0    0  0.68049436854E+01 -0.12777433149E+01 -0.54547812228E+01  0.88144497689E+01  0.00000000000E+00 0. -1.
</event>
<event>
 7    1  0.1345786E-013  0.7246203E+02  0.7816164E-02  0.1226707E+00
        -11   -1    0    0    0    0  0.00000000000E+00  0.00000000000E+00  0.45593999997E+02  0.45594000000E+02  0.51100000000E-03 0.  1.
         11   -1    0    0    0    0 -0.00000000000E+00 -0.00000000000E+00 -0.45593999997E+02  0.45594000000E+02  0.51100000000E-03 0. -1.
    9900012    2    1    2    0    0  0.38788664504E+01  0.17173828636E+02 -0.63777662519E+01  0.72462031472E+02  0.70000600767E+02 0.  0.
         12    1    1    2    0    0 -0.38788664504E+01 -0.17173828636E+02  0.63777662519E+01  0.18725968528E+02  0.00000000000E+00 0. -1.
         11    1    3    3    0    0  0.67419066241E+01  0.31612972426E+01 -0.83445168098E+01  0.11183830571E+02  0.51100000000E-03 0. -1.
        -11    1    3    3    0    0 -0.29489094268E+01 -0.21013197777E+02  0.12594703383E+02  0.24675435177E+02  0.51100000000E-03 0.  1.
        -12    1    3    3    0    0  0.85869253076E-01  0.35025729170E+02 -0.10627952825E+02  0.36602765724E+02  0.00000000000E+00 0.  1.
</event>
<event>
 7    1  0.1345786E-013  0.7246160E+02  0.7816164E-02  0.1226708E+00
        -11   -1    0    0    0    0  0.00000000000E+00  0.00000000000E+00  0.45593999997E+02  0.45594000000E+02  0.51100000000E-03 0. -1.
         11   -1    0    0    0    0 -0.00000000000E+00 -0.00000000000E+00 -0.45593999997E+02  0.45594000000E+02  0.51100000000E-03 0.  1.
    9900012    2    1    2    0    0  0.73377943829E+01 -0.17216924702E+02 -0.64212041344E+00  0.72461600420E+02  0.70000039244E+02 0.  0.
         12    1    1    2    0    0 -0.73377943829E+01  0.17216924702E+02  0.64212041344E+00  0.18726399580E+02  0.00000000000E+00 0. -1.
         11    1    3    3    0    0 -0.64031290992E+01  0.63663910926E+01 -0.61324618421E+01  0.10915039455E+02  0.51100000000E-03 0. -1.
        -11    1    3    3    0    0  0.25944542459E+02  0.11521021020E+01  0.17653089773E+02  0.31401882132E+02  0.51100000000E-03 0.  1.
        -12    1    3    3    0    0 -0.12203618976E+02 -0.24735417897E+02 -0.12162748344E+02  0.30144678833E+02  0.00000000000E+00 0.  1.
</event>
<event>
 7    1  0.1345786E-013  0.7246160E+02  0.7816164E-02  0.1226708E+00
        -11   -1    0    0    0    0  0.00000000000E+00  0.00000000000E+00  0.45593999997E+02  0.45594000000E+02  0.51100000000E-03 0.  1.
         11   -1    0    0    0    0 -0.00000000000E+00 -0.00000000000E+00 -0.45593999997E+02  0.45594000000E+02  0.51100000000E-03 0. -1.
    9900012    2    1    2    0    0  0.39128497583E+01  0.10120923709E+02  0.15262194936E+02  0.72461599272E+02  0.70000037749E+02 0.  0.
         12    1    1    2    0    0 -0.39128497583E+01 -0.10120923709E+02 -0.15262194936E+02  0.18726400728E+02  0.00000000000E+00 0. -1.
         11    1    3    3    0    0 -0.29471565586E+01 -0.19607469723E+02 -0.16814925329E+02  0.25997698260E+02  0.51100000000E-03 0. -1.
        -11    1    3    3    0    0  0.70598154037E+01  0.20049915409E+02  0.29652408253E+02  0.36484317411E+02  0.51100000000E-03 0.  1.
        -12    1    3    3    0    0 -0.19980908675E+00  0.96784780229E+01  0.24247120127E+01  0.99795836013E+01  0.00000000000E+00 0.  1.
</event>
<event>
 7    1  0.1345786E-013  0.7246163E+02  0.7816164E-02  0.1226708E+00
        -11   -1    0    0    0    0  0.00000000000E+00  0.00000000000E+00  0.45593999997E+02  0.45594000000E+02  0.51100000000E-03 0.  1.
         11   -1    0    0    0    0 -0.00000000000E+00 -0.00000000000E+00 -0.45593999997E+02  0.45594000000E+02  0.51100000000E-03 0. -1.
    9900012    2    1    2    0    0  0.18085258375E+02  0.37666864377E+01 -0.30679395988E+01  0.72461634881E+02  0.70000084135E+02 0.  0.
         12    1    1    2    0    0 -0.18085258375E+02 -0.37666864377E+01  0.30679395988E+01  0.18726365119E+02  0.00000000000E+00 0. -1.
         11    1    3    3    0    0  0.13659116995E+01 -0.15029226442E+02 -0.29203668259E+02  0.32872444421E+02  0.51100000000E-03 0. -1.
        -11    1    3    3    0    0  0.16145097633E+02  0.70642874028E+01  0.12578202006E+02  0.21651316358E+02  0.51100000000E-03 0.  1.
         12    1    3    3    0    0  0.57424904287E+00  0.11731625477E+02  0.13557526653E+02  0.17937874101E+02  0.00000000000E+00 0. -1.
</event>
<event>
 7    1  0.1345786E-013  0.7246157E+02  0.7816164E-02  0.1226708E+00
        -11   -1    0    0    0    0  0.00000000000E+00  0.00000000000E+00  0.45593999997E+02  0.45594000000E+02  0.51100000000E-03 0.  1.
         11   -1    0    0    0    0 -0.00000000000E+00 -0.00000000000E+00 -0.45593999997E+02  0.45594000000E+02  0.51100000000E-03 0. -1.
    9900012    2    1    2    0    0  0.17541318400E+02 -0.10786759956E+01  0.64666693346E+01  0.72461569337E+02  0.69999998752E+02 0.  0.
         12    1    1    2    0    0 -0.17541318400E+02  0.10786759956E+01 -0.64666693346E+01  0.18726430663E+02  0.00000000000E+00 0. -1.
         11    1    3    3    0    0  0.29383879338E+01  0.83047757027E+01 -0.10183798142E+02  0.13465257813E+02  0.51100000000E-03 0. -1.
        -11    1    3    3    0    0  0.21375954227E+02 -0.19620005721E+02  0.29394357634E+02  0.41302594405E+02  0.51100000000E-03 0.  1.
        -12    1    3    3    0    0 -0.67730237613E+01  0.10236554022E+02 -0.12743890158E+02  0.17693717119E+02  0.00000000000E+00 0.  1.
</event>
<event>
 7    1  0.1345786E-013  0.7246173E+02  0.7816164E-02  0.1226708E+00
        -11   -1    0    0    0    0  0.00000000000E+00  0.00000000000E+00  0.45593999997E+02  0.45594000000E+02  0.51100000000E-03 0.  1.
         11   -1    0    0    0    0 -0.00000000000E+00 -0.00000000000E+00 -0.45593999997E+02  0.45594000000E+02  0.51100000000E-03 0. -1.
    9900012    2    1    2    0    0 -0.54692175287E+01  0.80708404957E+01  0.15988193522E+02  0.72461731317E+02  0.70000209762E+02 0.  0.
         12    1    1    2    0    0  0.54692175287E+01 -0.80708404957E+01 -0.15988193522E+02  0.18726268683E+02  0.00000000000E+00 0. -1.
         11    1    3    3    0    0  0.24117117411E+02 -0.30249741918E+01  0.17778109494E+01  0.24371016251E+02  0.51100000000E-03 0.  1.
        -11    1    3    3    0    0 -0.32312901506E+02  0.18518743483E+02  0.14985130841E+02  0.40145007292E+02  0.51100000000E-03 0. -1.
         12    1    3    3    0    0  0.27265665662E+01 -0.74229287950E+01 -0.77474826804E+00  0.79457077731E+01  0.00000000000E+00 0. -1.
</event>
<event>
 8    1  0.1345786E-013  0.7246157E+02  0.7816164E-02  0.1226708E+00
        -11   -1    0    0    0    0  0.00000000000E+00  0.00000000000E+00  0.45593999997E+02  0.45594000000E+02  0.51100000000E-03 0.  1.
         11   -1    0    0    0    0 -0.00000000000E+00 -0.00000000000E+00 -0.45593999997E+02  0.45594000000E+02  0.51100000000E-03 0. -1.
    9900012    2    1    2    0    0  0.14729418701E+02  0.80293278633E+01  0.83218653275E+01  0.72461566176E+02  0.69999994636E+02 0.  0.
        -24    2    3    3    0    0  0.24920652410E+02 -0.21155752567E+01  0.25441203078E+01  0.56964384446E+02  0.51117061456E+02 0.  0.
         12    1    1    2    0    0 -0.14729418701E+02 -0.80293278633E+01 -0.83218653275E+01  0.18726433824E+02  0.00000000000E+00 0. -1.
         11    1    4    4    0    0  0.34031590076E+01 -0.87856694850E+00 -0.23156974753E+02  0.23422187154E+02  0.51100000000E-03 0. -1.
        -11    1    3    3    0    0 -0.10191233709E+02  0.10144903120E+02  0.57777450197E+01  0.15497181731E+02  0.51100000000E-03 0.  1.
        -12    1    4    4    0    0  0.21517493403E+02 -0.12370083082E+01  0.25701095060E+02  0.33542197292E+02  0.00000000000E+00 0.  1.
</event>
<event>
 7    1  0.1345786E-013  0.7246157E+02  0.7816164E-02  0.1226708E+00
        -11   -1    0    0    0    0  0.00000000000E+00  0.00000000000E+00  0.45593999997E+02  0.45594000000E+02  0.51100000000E-03 0.  1.
         11   -1    0    0    0    0 -0.00000000000E+00 -0.00000000000E+00 -0.45593999997E+02  0.45594000000E+02  0.51100000000E-03 0. -1.
    9900012    2    1    2    0    0 -0.38428736242E+01 -0.18220903802E+02 -0.19774253029E+01  0.72461568843E+02  0.69999998109E+02 0.  0.
         12    1    1    2    0    0  0.38428736242E+01  0.18220903802E+02  0.19774253029E+01  0.18726431157E+02  0.00000000000E+00 0. -1.
         11    1    3    3    0    0  0.19417451473E+02 -0.10257603908E+02 -0.19418437168E+02  0.29314357607E+02  0.51100000000E-03 0. -1.
        -11    1    3    3    0    0 -0.24738624059E+02 -0.17186404427E+02  0.13145066803E+02  0.32865860691E+02  0.51100000000E-03 0.  1.
        -12    1    3    3    0    0  0.14782989618E+01  0.92231045327E+01  0.42959450623E+01  0.10281350545E+02  0.00000000000E+00 0.  1.
</event>
<event>
 7    1  0.1345786E-013  0.7246155E+02  0.7816164E-02  0.1226708E+00
        -11   -1    0    0    0    0  0.00000000000E+00  0.00000000000E+00  0.45593999997E+02  0.45594000000E+02  0.51100000000E-03 0.  1.
         11   -1    0    0    0    0 -0.00000000000E+00 -0.00000000000E+00 -0.45593999997E+02  0.45594000000E+02  0.51100000000E-03 0. -1.
    9900012    2    1    2    0    0 -0.51428785108E+01 -0.42017475782E+01  0.17509309034E+02  0.72461553862E+02  0.69999978594E+02 0.  0.
         12    1    1    2    0    0  0.51428785108E+01  0.42017475782E+01 -0.17509309034E+02  0.18726446138E+02  0.00000000000E+00 0. -1.
         11    1    3    3    0    0  0.38366130207E+01 -0.23466965242E+02 -0.15537816911E+02  0.28404961042E+02  0.51100000000E-03 0. -1.
        -11    1    3    3    0    0  0.57014411584E+01  0.85025015166E+01  0.75135916167E+01  0.12698544112E+02  0.51100000000E-03 0.  1.
         12    1    3    3    0    0 -0.14680932690E+02  0.10762716148E+02  0.25533534328E+02  0.31358048709E+02  0.00000000000E+00 0. -1.
</event>
<event>
 7    1  0.1345786E-013  0.7246155E+02  0.7816164E-02  0.1226708E+00
        -11   -1    0    0    0    0  0.00000000000E+00  0.00000000000E+00  0.45593999997E+02  0.45594000000E+02  0.51100000000E-03 0.  1.
         11   -1    0    0    0    0 -0.00000000000E+00 -0.00000000000E+00 -0.45593999997E+02  0.45594000000E+02  0.51100000000E-03 0. -1.
    9900012    2    1    2    0    0 -0.15754626420E+02  0.35483280612E+01  0.94805551511E+01  0.72461553150E+02  0.69999977666E+02 0.  0.
         12    1    1    2    0    0  0.15754626420E+02 -0.35483280612E+01 -0.94805551511E+01  0.18726446850E+02  0.00000000000E+00 0. -1.
         11    1    3    3    0    0 -0.94617747534E+01 -0.44559197504E+01 -0.23649243156E+02  0.25858598269E+02  0.51100000000E-03 0. -1.
        -11    1    3    3    0    0 -0.18613103447E+02  0.12326060075E+01  0.17449375574E+02  0.25543054745E+02  0.51100000000E-03 0.  1.
        -12    1    3    3    0    0  0.12320251781E+02  0.67716418040E+01  0.15680422733E+02  0.21059900136E+02  0.00000000000E+00 0.  1.
</event>
<event>
 7    1  0.1345786E-013  0.7246159E+02  0.7816164E-02  0.1226708E+00
        -11   -1    0    0    0    0  0.00000000000E+00  0.00000000000E+00  0.45593999997E+02  0.45594000000E+02  0.51100000000E-03 0.  1.
         11   -1    0    0    0    0 -0.00000000000E+00 -0.00000000000E+00 -0.45593999997E+02  0.45594000000E+02  0.51100000000E-03 0. -1.
    9900012    2    1    2    0    0  0.16474046853E+02 -0.78020058611E+01  0.42910347660E+01  0.72461588317E+02  0.70000023477E+02 0.  0.
         12    1    1    2    0    0 -0.16474046853E+02  0.78020058611E+01 -0.42910347660E+01  0.18726411683E+02  0.00000000000E+00 0. -1.
         11    1    3    3    0    0 -0.22269820989E+02  0.31222475857E+01  0.54279850879E+01  0.23133447198E+02  0.51100000000E-03 0. -1.
        -11    1    3    3    0    0  0.89520631724E+01  0.91318865289E+01  0.31197557135E+01  0.13162965570E+02  0.51100000000E-03 0.  1.
         12    1    3    3    0    0  0.29791804670E+02 -0.20056139976E+02 -0.42567060353E+01  0.36165175549E+02  0.00000000000E+00 0. -1.
</event>
<event>
 7    1  0.1345786E-013  0.7246146E+02  0.7816164E-02  0.1226708E+00
        -11   -1    0    0    0    0  0.00000000000E+00  0.00000000000E+00  0.45593999997E+02  0.45594000000E+02  0.51100000000E-03 0.  1.
         11   -1    0    0    0    0 -0.00000000000E+00 -0.00000000000E+00 -0.45593999997E+02  0.45594000000E+02  0.51100000000E-03 0. -1.
    9900012    2    1    2    0    0  0.12457351980E+02 -0.30648551406E+01  0.13642004132E+02  0.72461461822E+02  0.69999858695E+02 0.  0.
         12    1    1    2    0    0 -0.12457351980E+02  0.30648551406E+01 -0.13642004132E+02  0.18726538178E+02  0.00000000000E+00 0. -1.
         11    1    3    3    0    0  0.65559125829E+01  0.14553903344E+02 -0.15473569927E+02  0.22231227112E+02  0.51100000000E-03 0. -1.
        -11    1    3    3    0    0 -0.95413116881E+01 -0.11351574074E+02  0.30079758248E+02  0.33536349223E+02  0.51100000000E-03 0.  1.
        -12    1    3    3    0    0  0.15442751085E+02 -0.62671844109E+01 -0.96418418851E+00  0.16693885487E+02  0.00000000000E+00 0.  1.
</event>
<event>
 7    1  0.1345786E-013  0.7246155E+02  0.7816164E-02  0.1226708E+00
        -11   -1    0    0    0    0  0.00000000000E+00  0.00000000000E+00  0.45593999997E+02  0.45594000000E+02  0.51100000000E-03 0. -1.
         11   -1    0    0    0    0 -0.00000000000E+00 -0.00000000000E+00 -0.45593999997E+02  0.45594000000E+02  0.51100000000E-03 0.  1.
    9900012    2    1    2    0    0 -0.11434283014E+01 -0.42457905004E+01 -0.18202909725E+02  0.72461545779E+02  0.69999968064E+02 0.  0.
         12    1    1    2    0    0  0.11434283014E+01  0.42457905004E+01  0.18202909725E+02  0.18726454221E+02  0.00000000000E+00 0. -1.
         11    1    3    3    0    0  0.54112458813E+01 -0.18734042643E+02 -0.57772432685E+01  0.20337710682E+02  0.51100000000E-03 0. -1.
        -11    1    3    3    0    0  0.71761426795E+00  0.30512687625E+02 -0.15545468768E+02  0.34252017106E+02  0.51100000000E-03 0.  1.
         12    1    3    3    0    0 -0.72722884507E+01 -0.16024435482E+02  0.31198023123E+01  0.17871817991E+02  0.00000000000E+00 0. -1.
</event>
<event>
 7    1  0.1345786E-013  0.7246159E+02  0.7816164E-02  0.1226708E+00
        -11   -1    0    0    0    0  0.00000000000E+00  0.00000000000E+00  0.45593999997E+02  0.45594000000E+02  0.51100000000E-03 0.  1.
         11   -1    0    0    0    0 -0.00000000000E+00 -0.00000000000E+00 -0.45593999997E+02  0.45594000000E+02  0.51100000000E-03 0. -1.
    9900012    2    1    2    0    0 -0.16391184573E+01  0.17874302772E+02 -0.53386465131E+01  0.72461586689E+02  0.70000021357E+02 0.  0.
         12    1    1    2    0    0  0.16391184573E+01 -0.17874302772E+02  0.53386465131E+01  0.18726413311E+02  0.00000000000E+00 0. -1.
         11    1    3    3    0    0  0.34405803479E+01  0.31087096175E+02 -0.14018961936E+02  0.34275011828E+02  0.51100000000E-03 0. -1.
        -11    1    3    3    0    0  0.90848192864E+01 -0.15778293595E+02  0.13866367654E+02  0.22885904885E+02  0.51100000000E-03 0.  1.
        -12    1    3    3    0    0 -0.14164518092E+02  0.25655001912E+01 -0.51860522306E+01  0.15300669977E+02  0.00000000000E+00 0.  1.
</event>
<event>
 7    1  0.1345786E-013  0.7246174E+02  0.7816164E-02  0.1226708E+00
        -11   -1    0    0    0    0  0.00000000000E+00  0.00000000000E+00  0.45593999997E+02  0.45594000000E+02  0.51100000000E-03 0.  1.
         11   -1    0    0    0    0 -0.00000000000E+00 -0.00000000000E+00 -0.45593999997E+02  0.45594000000E+02  0.51100000000E-03 0. -1.
    9900012    2    1    2    0    0  0.12929975380E+02 -0.13539509716E+02  0.41263455751E+00  0.72461738923E+02  0.70000219669E+02 0.  0.
         12    1    1    2    0    0 -0.12929975380E+02  0.13539509716E+02 -0.41263455751E+00  0.18726261077E+02  0.00000000000E+00 0. -1.
         11    1    3    3    0    0 -0.23703626109E+02  0.66583579386E+01 -0.74374817429E+01  0.25719870841E+02  0.51100000000E-03 0. -1.
        -11    1    3    3    0    0  0.25347120983E+02 -0.21709131681E+02  0.10620964244E+02  0.35022390299E+02  0.51100000000E-03 0.  1.
         12    1    3    3    0    0  0.11286480506E+02  0.15112640272E+01 -0.27708479441E+01  0.11719477783E+02  0.00000000000E+00 0. -1.
</event>
<event>
 7    1  0.1345786E-013  0.7246159E+02  0.7816164E-02  0.1226708E+00
        -11   -1    0    0    0    0  0.00000000000E+00  0.00000000000E+00  0.45593999997E+02  0.45594000000E+02  0.51100000000E-03 0. -1.
         11   -1    0    0    0    0 -0.00000000000E+00 -0.00000000000E+00 -0.45593999997E+02  0.45594000000E+02  0.51100000000E-03 0.  1.
    9900012    2    1    2    0    0  0.10482544713E+02 -0.11756150290E+02 -0.10128551834E+02  0.72461591493E+02  0.70000027615E+02 0.  0.
         12    1    1    2    0    0 -0.10482544713E+02  0.11756150290E+02  0.10128551834E+02  0.18726408507E+02  0.00000000000E+00 0. -1.
         11    1    3    3    0    0  0.42302480366E+01 -0.23802704754E+02  0.16163854443E+02  0.29081505167E+02  0.51100000000E-03 0. -1.
        -11    1    3    3    0    0  0.89245652398E+01  0.20915384117E+02 -0.10444420788E+02  0.25023730404E+02  0.51100000000E-03 0.  1.
        -12    1    3    3    0    0 -0.26722685631E+01 -0.88688296534E+01 -0.15847985488E+02  0.18356355922E+02  0.00000000000E+00 0.  1.
</event>
<event>
 7    1  0.1345786E-013  0.7246161E+02  0.7816164E-02  0.1226708E+00
        -11   -1    0    0    0    0  0.00000000000E+00  0.00000000000E+00  0.45593999997E+02  0.45594000000E+02  0.51100000000E-03 0.  1.
         11   -1    0    0    0    0 -0.00000000000E+00 -0.00000000000E+00 -0.45593999997E+02  0.45594000000E+02  0.51100000000E-03 0. -1.
    9900012    2    1    2    0    0  0.48171431804E+01  0.65008986918E+01  0.16888189798E+02  0.72461614687E+02  0.70000057830E+02 0.  0.
         12    1    1    2    0    0 -0.48171431804E+01 -0.65008986918E+01 -0.16888189798E+02  0.18726385313E+02  0.00000000000E+00 0. -1.
         11    1    3    3    0    0 -0.63077157089E+01  0.43489220961E+01 -0.17001909353E+02  0.18648467035E+02  0.51100000000E-03 0. -1.
        -11    1    3    3    0    0  0.12482050409E+02  0.13932615583E+02  0.37081547555E+02  0.41532644133E+02  0.51100000000E-03 0.  1.
         12    1    3    3    0    0 -0.13571915194E+01 -0.11780638987E+02 -0.31914484041E+01  0.12280503519E+02  0.00000000000E+00 0. -1.
</event>
<event>
 7    1  0.1345786E-013  0.7246161E+02  0.7816164E-02  0.1226708E+00
        -11   -1    0    0    0    0  0.00000000000E+00  0.00000000000E+00  0.45593999997E+02  0.45594000000E+02  0.51100000000E-03 0.  1.
         11   -1    0    0    0    0 -0.00000000000E+00 -0.00000000000E+00 -0.45593999997E+02  0.45594000000E+02  0.51100000000E-03 0. -1.
    9900012    2    1    2    0    0 -0.98722688834E+01  0.15387536892E+02 -0.40545685426E+01  0.72461614589E+02  0.70000057702E+02 0.  0.
         12    1    1    2    0    0  0.98722688834E+01 -0.15387536892E+02  0.40545685426E+01  0.18726385411E+02  0.00000000000E+00 0. -1.
         11    1    3    3    0    0 -0.32377720473E+02  0.83455316368E+01 -0.72909169332E+01  0.34221662019E+02  0.51100000000E-03 0.  1.
        -11    1    3    3    0    0  0.77784120833E+01 -0.11700788767E+02  0.31693870354E+01  0.14403373450E+02  0.51100000000E-03 0. -1.
        -12    1    3    3    0    0  0.14727039506E+02  0.18742794021E+02  0.66961355306E-01  0.23836579120E+02  0.00000000000E+00 0.  1.
</event>
<event>
 7    1  0.1345786E-013  0.7246128E+02  0.7816164E-02  0.1226709E+00
        -11   -1    0    0    0    0  0.00000000000E+00  0.00000000000E+00  0.45593999997E+02  0.45594000000E+02  0.51100000000E-03 0.  1.
         11   -1    0    0    0    0 -0.00000000000E+00 -0.00000000000E+00 -0.45593999997E+02  0.45594000000E+02  0.51100000000E-03 0. -1.
    9900012    2    1    2    0    0 -0.10804357082E+02  0.69277634873E+01  0.13636791423E+02  0.72461277937E+02  0.69999619150E+02 0.  0.
         12    1    1    2    0    0  0.10804357082E+02 -0.69277634873E+01 -0.13636791423E+02  0.18726722063E+02  0.00000000000E+00 0. -1.
         11    1    3    3    0    0  0.17797636584E+02 -0.14328654478E+02 -0.24672236443E+00  0.22850100203E+02  0.51100000000E-03 0. -1.
        -11    1    3    3    0    0 -0.12218855124E+02  0.27134728439E+02  0.53879861404E+01  0.30242756206E+02  0.51100000000E-03 0.  1.
        -12    1    3    3    0    0 -0.16383138542E+02 -0.58783104745E+01  0.84955276473E+01  0.19368421529E+02  0.00000000000E+00 0.  1.
</event>
<event>
 7    1  0.1345786E-013  0.7246147E+02  0.7816164E-02  0.1226708E+00
        -11   -1    0    0    0    0  0.00000000000E+00  0.00000000000E+00  0.45593999997E+02  0.45594000000E+02  0.51100000000E-03 0.  1.
         11   -1    0    0    0    0 -0.00000000000E+00 -0.00000000000E+00 -0.45593999997E+02  0.45594000000E+02  0.51100000000E-03 0. -1.
    9900012    2    1    2    0    0 -0.12011169773E+02 -0.92710192857E+01  0.10975553132E+02  0.72461474309E+02  0.69999874961E+02 0.  0.
         12    1    1    2    0    0  0.12011169773E+02  0.92710192857E+01 -0.10975553132E+02  0.18726525691E+02  0.00000000000E+00 0. -1.
         11    1    3    3    0    0 -0.15741861486E+01  0.17963108297E+02  0.23490616627E+02  0.29613517041E+02  0.51100000000E-03 0. -1.
        -11    1    3    3    0    0 -0.63091283406E+01 -0.24624378422E+02  0.39041560062E+01  0.25717844923E+02  0.51100000000E-03 0.  1.
        -12    1    3    3    0    0 -0.41278552836E+01 -0.26097491603E+01 -0.16419219502E+02  0.17130112345E+02  0.00000000000E+00 0.  1.
</event>
<event>
 7    1  0.1345786E-013  0.7246152E+02  0.7816164E-02  0.1226708E+00
        -11   -1    0    0    0    0  0.00000000000E+00  0.00000000000E+00  0.45593999997E+02  0.45594000000E+02  0.51100000000E-03 0.  1.
         11   -1    0    0    0    0 -0.00000000000E+00 -0.00000000000E+00 -0.45593999997E+02  0.45594000000E+02  0.51100000000E-03 0. -1.
    9900012    2    1    2    0    0 -0.14849807512E+02 -0.85281348100E+01  0.75786025335E+01  0.72461519208E+02  0.69999933451E+02 0.  0.
         12    1    1    2    0    0  0.14849807512E+02  0.85281348100E+01 -0.75786025335E+01  0.18726480792E+02  0.00000000000E+00 0. -1.
         11    1    3    3    0    0  0.25587787272E+01  0.10039373132E+02 -0.38568406393E+01  0.11054934710E+02  0.51100000000E-03 0. -1.
        -11    1    3    3    0    0 -0.36049781176E+02 -0.17999837285E+02  0.13835744392E+02  0.42602918776E+02  0.51100000000E-03 0.  1.
        -12    1    3    3    0    0  0.18641194937E+02 -0.56767065706E+00 -0.24003012192E+01  0.18803665722E+02  0.00000000000E+00 0.  1.
</event>
<event>
 7    1  0.1345786E-013  0.7246171E+02  0.7816164E-02  0.1226708E+00
        -11   -1    0    0    0    0  0.00000000000E+00  0.00000000000E+00  0.45593999997E+02  0.45594000000E+02  0.51100000000E-03 0.  1.
         11   -1    0    0    0    0 -0.00000000000E+00 -0.00000000000E+00 -0.45593999997E+02  0.45594000000E+02  0.51100000000E-03 0. -1.
    9900012    2    1    2    0    0  0.98937666753E+01  0.28576192249E+01  0.15640376287E+02  0.72461708935E+02  0.70000180604E+02 0.  0.
         12    1    1    2    0    0 -0.98937666753E+01 -0.28576192249E+01 -0.15640376287E+02  0.18726291065E+02  0.00000000000E+00 0. -1.
         11    1    3    3    0    0 -0.44772814928E+01 -0.35920915305E+01 -0.49971276314E+01  0.76105489917E+01  0.51100000000E-03 0. -1.
        -11    1    3    3    0    0  0.26019408274E+02  0.27161391253E+02  0.14477154659E+02  0.40303086594E+02  0.51100000000E-03 0.  1.
        -12    1    3    3    0    0 -0.11648360106E+02 -0.20711680497E+02  0.61603492592E+01  0.24548073349E+02  0.00000000000E+00 0.  1.
</event>
<event>
 7    1  0.1345786E-013  0.7246149E+02  0.7816164E-02  0.1226708E+00
        -11   -1    0    0    0    0  0.00000000000E+00  0.00000000000E+00  0.45593999997E+02  0.45594000000E+02  0.51100000000E-03 0. -1.
         11   -1    0    0    0    0 -0.00000000000E+00 -0.00000000000E+00 -0.45593999997E+02  0.45594000000E+02  0.51100000000E-03 0.  1.
    9900012    2    1    2    0    0 -0.44875461417E+01  0.10075510857E+02 -0.15133682280E+02  0.72461485942E+02  0.69999890116E+02 0.  0.
         12    1    1    2    0    0  0.44875461417E+01 -0.10075510857E+02  0.15133682280E+02  0.18726514058E+02  0.00000000000E+00 0. -1.
         11    1    3    3    0    0 -0.21612944102E+02  0.12694497369E+01  0.69321908598E+01  0.22732930427E+02  0.51100000000E-03 0. -1.
        -11    1    3    3    0    0  0.88523679395E+01  0.17632405765E+02 -0.29529374070E+02  0.35514082903E+02  0.51100000000E-03 0.  1.
         12    1    3    3    0    0  0.82730300212E+01 -0.88263446443E+01  0.74635009306E+01  0.14214472613E+02  0.00000000000E+00 0. -1.
</event>
<event>
 7    1  0.1345786E-013  0.7246146E+02  0.7816164E-02  0.1226708E+00
        -11   -1    0    0    0    0  0.00000000000E+00  0.00000000000E+00  0.45593999997E+02  0.45594000000E+02  0.51100000000E-03 0.  1.
         11   -1    0    0    0    0 -0.00000000000E+00 -0.00000000000E+00 -0.45593999997E+02  0.45594000000E+02  0.51100000000E-03 0. -1.
    9900012    2    1    2    0    0 -0.11496292377E+02  0.17984319339E+01  0.14672564138E+02  0.72461461766E+02  0.69999858622E+02 0.  0.
         12    1    1    2    0    0  0.11496292377E+02 -0.17984319339E+01 -0.14672564138E+02  0.18726538234E+02  0.00000000000E+00 0. -1.
         11    1    3    3    0    0 -0.28478871079E+01 -0.28891385442E+02  0.45532061556E+01  0.29386294430E+02  0.51100000000E-03 0. -1.
        -11    1    3    3    0    0  0.29942032839E+01  0.29956507918E+02  0.86064283590E+01  0.31311790580E+02  0.51100000000E-03 0.  1.
         12    1    3    3    0    0 -0.11642608553E+02  0.73330945785E+00  0.15129296233E+01  0.11763376757E+02  0.00000000000E+00 0. -1.
</event>
<event>
 7    1  0.1345786E-013  0.7246158E+02  0.7816164E-02  0.1226708E+00
        -11   -1    0    0    0    0  0.00000000000E+00  0.00000000000E+00  0.45593999997E+02  0.45594000000E+02  0.51100000000E-03 0. -1.
         11   -1    0    0    0    0 -0.00000000000E+00 -0.00000000000E+00 -0.45593999997E+02  0.45594000000E+02  0.51100000000E-03 0.  1.
    9900012    2    1    2    0    0  0.40190953238E+01 -0.18259480910E+02  0.10569650069E+01  0.72461576280E+02  0.70000007797E+02 0.  0.
         12    1    1    2    0    0 -0.40190953238E+01  0.18259480910E+02 -0.10569650069E+01  0.18726423720E+02  0.00000000000E+00 0. -1.
         11    1    3    3    0    0  0.17195266264E+02  0.42511081220E+01  0.25519144964E+02  0.31064060618E+02  0.51100000000E-03 0. -1.
        -11    1    3    3    0    0 -0.16718844682E+02 -0.85828810818E+01 -0.11422594287E+02  0.21992300373E+02  0.51100000000E-03 0.  1.
        -12    1    3    3    0    0  0.35426737425E+01 -0.13927707950E+02 -0.13039585670E+02  0.19405215289E+02  0.00000000000E+00 0.  1.
</event>
<event>
 7    1  0.1345786E-013  0.7246102E+02  0.7816164E-02  0.1226709E+00
        -11   -1    0    0    0    0  0.00000000000E+00  0.00000000000E+00  0.45593999997E+02  0.45594000000E+02  0.51100000000E-03 0.  1.
         11   -1    0    0    0    0 -0.00000000000E+00 -0.00000000000E+00 -0.45593999997E+02  0.45594000000E+02  0.51100000000E-03 0. -1.
    9900012    2    1    2    0    0 -0.36455461113E+01  0.15849848820E+02 -0.92839748489E+01  0.72461016713E+02  0.69999278853E+02 0.  0.
         12    1    1    2    0    0  0.36455461113E+01 -0.15849848820E+02  0.92839748489E+01  0.18726983287E+02  0.00000000000E+00 0. -1.
         11    1    3    3    0    0  0.26233167010E+02  0.11937406810E+02 -0.10546432857E+02  0.30690519367E+02  0.51100000000E-03 0. -1.
        -11    1    3    3    0    0 -0.21125318241E+02  0.10474720042E+02  0.11986079660E+02  0.26451180250E+02  0.51100000000E-03 0.  1.
        -12    1    3    3    0    0 -0.87533948808E+01 -0.65622780333E+01 -0.10723621653E+02  0.15319317096E+02  0.00000000000E+00 0.  1.
</event>
<event>
 7    1  0.1345786E-013  0.7246151E+02  0.7816164E-02  0.1226708E+00
        -11   -1    0    0    0    0  0.00000000000E+00  0.00000000000E+00  0.45593999997E+02  0.45594000000E+02  0.51100000000E-03 0.  1.
         11   -1    0    0    0    0 -0.00000000000E+00 -0.00000000000E+00 -0.45593999997E+02  0.45594000000E+02  0.51100000000E-03 0. -1.
    9900012    2    1    2    0    0 -0.70731297991E+01  0.16945446469E+02  0.36747916094E+01  0.72461510352E+02  0.69999921913E+02 0.  0.
         12    1    1    2    0    0  0.70731297991E+01 -0.16945446469E+02 -0.36747916094E+01  0.18726489648E+02  0.00000000000E+00 0. -1.
         11    1    3    3    0    0  0.60931293785E+01 -0.46644888508E+01 -0.21585909155E+02  0.22909281005E+02  0.51100000000E-03 0. -1.
        -11    1    3    3    0    0 -0.22608284146E+02  0.10999649731E+02  0.64039743017E+01  0.25944897251E+02  0.51100000000E-03 0.  1.
        -12    1    3    3    0    0  0.94420249686E+01  0.10610285588E+02  0.18856726463E+02  0.23607332096E+02  0.00000000000E+00 0.  1.
</event>
<event>
 7    1  0.1345786E-013  0.7246159E+02  0.7816164E-02  0.1226708E+00
        -11   -1    0    0    0    0  0.00000000000E+00  0.00000000000E+00  0.45593999997E+02  0.45594000000E+02  0.51100000000E-03 0.  1.
         11   -1    0    0    0    0 -0.00000000000E+00 -0.00000000000E+00 -0.45593999997E+02  0.45594000000E+02  0.51100000000E-03 0. -1.
    9900012    2    1    2    0    0 -0.82935680421E+01 -0.72217265417E+01  0.15157235320E+02  0.72461591170E+02  0.70000027194E+02 0.  0.
         12    1    1    2    0    0  0.82935680421E+01  0.72217265417E+01 -0.15157235320E+02  0.18726408830E+02  0.00000000000E+00 0. -1.
         11    1    3    3    0    0 -0.76717524017E+01 -0.77527194008E+01 -0.64981317699E+01  0.12695911144E+02  0.51100000000E-03 0.  1.
        -11    1    3    3    0    0  0.21039574623E+02 -0.78161228899E+01  0.27821976718E+02  0.35746578383E+02  0.51100000000E-03 0. -1.
        -12    1    3    3    0    0 -0.21661390263E+02  0.83471157490E+01 -0.61666096274E+01  0.24019101643E+02  0.00000000000E+00 0.  1.
</event>
<event>
 7    1  0.1345786E-013  0.7246159E+02  0.7816164E-02  0.1226708E+00
        -11   -1    0    0    0    0  0.00000000000E+00  0.00000000000E+00  0.45593999997E+02  0.45594000000E+02  0.51100000000E-03 0.  1.
         11   -1    0    0    0    0 -0.00000000000E+00 -0.00000000000E+00 -0.45593999997E+02  0.45594000000E+02  0.51100000000E-03 0. -1.
    9900012    2    1    2    0    0 -0.10652173733E+02  0.14000629863E+02  0.64180861952E+01  0.72461594253E+02  0.70000031210E+02 0.  0.
         12    1    1    2    0    0  0.10652173733E+02 -0.14000629863E+02 -0.64180861952E+01  0.18726405747E+02  0.00000000000E+00 0. -1.
         11    1    3    3    0    0  0.16748333342E+02 -0.48229595196E+01 -0.88767504690E+01  0.19559251198E+02  0.51100000000E-03 0. -1.
        -11    1    3    3    0    0 -0.15779150485E+02  0.11220446484E+02  0.28025073215E+02  0.34062952577E+02  0.51100000000E-03 0.  1.
        -12    1    3    3    0    0 -0.11621356590E+02  0.76031428990E+01 -0.12730236550E+02  0.18839390478E+02  0.00000000000E+00 0.  1.
</event>
<event>
 7    1  0.1345786E-013  0.7246162E+02  0.7816164E-02  0.1226708E+00
        -11   -1    0    0    0    0  0.00000000000E+00  0.00000000000E+00  0.45593999997E+02  0.45594000000E+02  0.51100000000E-03 0. -1.
         11   -1    0    0    0    0 -0.00000000000E+00 -0.00000000000E+00 -0.45593999997E+02  0.45594000000E+02  0.51100000000E-03 0.  1.
    9900012    2    1    2    0    0  0.15232101468E+02 -0.10524614428E+02  0.28094533855E+01  0.72461616144E+02  0.70000059728E+02 0.  0.
         12    1    1    2    0    0 -0.15232101468E+02  0.10524614428E+02 -0.28094533855E+01  0.18726383856E+02  0.00000000000E+00 0. -1.
         11    1    3    3    0    0  0.22362237599E+01  0.38987015458E+01 -0.56421792402E+01  0.72135121326E+01  0.51100000000E-03 0.  1.
        -11    1    3    3    0    0 -0.37148555728E+01  0.12681130785E+02  0.25799958099E+02  0.28987050006E+02  0.51100000000E-03 0. -1.
        -12    1    3    3    0    0  0.16710733280E+02 -0.27104446759E+02 -0.17348325473E+02  0.36261054006E+02  0.00000000000E+00 0.  1.
</event>
<event>
 7    1  0.1345786E-013  0.7246155E+02  0.7816164E-02  0.1226708E+00
        -11   -1    0    0    0    0  0.00000000000E+00  0.00000000000E+00  0.45593999997E+02  0.45594000000E+02  0.51100000000E-03 0.  1.
         11   -1    0    0    0    0 -0.00000000000E+00 -0.00000000000E+00 -0.45593999997E+02  0.45594000000E+02  0.51100000000E-03 0. -1.
    9900012    2    1    2    0    0  0.14636529776E+02  0.94731356556E+01 -0.68345984830E+01  0.72461547067E+02  0.69999969742E+02 0.  0.
         12    1    1    2    0    0 -0.14636529776E+02 -0.94731356556E+01  0.68345984830E+01  0.18726452933E+02  0.00000000000E+00 0. -1.
         11    1    3    3    0    0 -0.10988362034E+02  0.28779955688E+02  0.95506426772E+01  0.32252825076E+02  0.51100000000E-03 0. -1.
        -11    1    3    3    0    0  0.11299320809E+02 -0.18595941939E+02 -0.13410710212E+02  0.25560337556E+02  0.51100000000E-03 0.  1.
        -12    1    3    3    0    0  0.14325571002E+02 -0.71087809336E+00 -0.29745309484E+01  0.14648384435E+02  0.00000000000E+00 0.  1.
</event>
<event>
 7    1  0.1345786E-013  0.7246160E+02  0.7816164E-02  0.1226708E+00
        -11   -1    0    0    0    0  0.00000000000E+00  0.00000000000E+00  0.45593999997E+02  0.45594000000E+02  0.51100000000E-03 0.  1.
         11   -1    0    0    0    0 -0.00000000000E+00 -0.00000000000E+00 -0.45593999997E+02  0.45594000000E+02  0.51100000000E-03 0. -1.
    9900012    2    1    2    0    0  0.48055104851E+01 -0.17846636825E+02 -0.30137672979E+01  0.72461596974E+02  0.70000034755E+02 0.  0.
         12    1    1    2    0    0 -0.48055104851E+01  0.17846636825E+02  0.30137672979E+01  0.18726403026E+02  0.00000000000E+00 0. -1.
         11    1    3    3    0    0 -0.25554126009E+02 -0.16784019507E+02 -0.18832610001E+02  0.35907991682E+02  0.51100000000E-03 0.  1.
        -11    1    3    3    0    0  0.23375757629E+02  0.43624431530E+01  0.91560327962E+01  0.25481167395E+02  0.51100000000E-03 0. -1.
         12    1    3    3    0    0  0.69838788655E+01 -0.54250604708E+01  0.66628099072E+01  0.11072437897E+02  0.00000000000E+00 0. -1.
</event>
<event>
 7    1  0.1345786E-013  0.7246158E+02  0.7816164E-02  0.1226708E+00
        -11   -1    0    0    0    0  0.00000000000E+00  0.00000000000E+00  0.45593999997E+02  0.45594000000E+02  0.51100000000E-03 0. -1.
         11   -1    0    0    0    0 -0.00000000000E+00 -0.00000000000E+00 -0.45593999997E+02  0.45594000000E+02  0.51100000000E-03 0.  1.
    9900012    2    1    2    0    0  0.22894159505E+00 -0.31557726109E+01 -0.18457184861E+02  0.72461575140E+02  0.70000006313E+02 0.  0.
         12    1    1    2    0    0 -0.22894159505E+00  0.31557726109E+01  0.18457184861E+02  0.18726424860E+02  0.00000000000E+00 0. -1.
         11    1    3    3    0    0  0.10822707522E+02  0.17004837144E+01  0.43689921203E+01  0.11794521414E+02  0.51100000000E-03 0. -1.
        -11    1    3    3    0    0 -0.13852847565E+02  0.23355798572E+02 -0.15777207143E+02  0.31405652009E+02  0.51100000000E-03 0.  1.
        -12    1    3    3    0    0  0.32590816381E+01 -0.28212054898E+02 -0.70489698383E+01  0.29261401717E+02  0.00000000000E+00 0.  1.
</event>
<event>
 7    1  0.1345786E-013  0.7246151E+02  0.7816164E-02  0.1226708E+00
        -11   -1    0    0    0    0  0.00000000000E+00  0.00000000000E+00  0.45593999997E+02  0.45594000000E+02  0.51100000000E-03 0.  1.
         11   -1    0    0    0    0 -0.00000000000E+00 -0.00000000000E+00 -0.45593999997E+02  0.45594000000E+02  0.51100000000E-03 0. -1.
    9900012    2    1    2    0    0 -0.52451975957E+01  0.17964325126E+02  0.67256982568E+00  0.72461510066E+02  0.69999921542E+02 0.  0.
         12    1    1    2    0    0  0.52451975957E+01 -0.17964325126E+02 -0.67256982568E+00  0.18726489934E+02  0.00000000000E+00 0. -1.
         11    1    3    3    0    0  0.66546551954E+00  0.29955099174E+02 -0.10171501979E+01  0.29979749926E+02  0.51100000000E-03 0. -1.
        -11    1    3    3    0    0 -0.10294349237E+02 -0.75698360919E+01  0.19668922435E+02  0.23455117878E+02  0.51100000000E-03 0.  1.
         12    1    3    3    0    0  0.43836861221E+01 -0.44209379552E+01 -0.17979202411E+02  0.19026642262E+02  0.00000000000E+00 0. -1.
</event>
<event>
 7    1  0.1345786E-013  0.7246162E+02  0.7816164E-02  0.1226708E+00
        -11   -1    0    0    0    0  0.00000000000E+00  0.00000000000E+00  0.45593999997E+02  0.45594000000E+02  0.51100000000E-03 0. -1.
         11   -1    0    0    0    0 -0.00000000000E+00 -0.00000000000E+00 -0.45593999997E+02  0.45594000000E+02  0.51100000000E-03 0.  1.
    9900012    2    1    2    0    0 -0.17362609158E+01  0.12826798906E+02 -0.13532774016E+02  0.72461619017E+02  0.70000063471E+02 0.  0.
         12    1    1    2    0    0  0.17362609158E+01 -0.12826798906E+02  0.13532774016E+02  0.18726380983E+02  0.00000000000E+00 0. -1.
         11    1    3    3    0    0  0.13574060532E+02  0.30076711481E+02  0.27226050299E+01  0.33110062991E+02  0.51100000000E-03 0. -1.
        -11    1    3    3    0    0 -0.22901605071E+02 -0.15854750542E+02 -0.14634919483E+02  0.31464861324E+02  0.51100000000E-03 0.  1.
        -12    1    3    3    0    0  0.75912836231E+01 -0.13951620333E+01 -0.16204595628E+01  0.78866947031E+01  0.00000000000E+00 0.  1.
</event>
<event>
 8    1  0.1345786E-013  0.7246158E+02  0.7816164E-02  0.1226708E+00
        -11   -1    0    0    0    0  0.00000000000E+00  0.00000000000E+00  0.45593999997E+02  0.45594000000E+02  0.51100000000E-03 0. -1.
         11   -1    0    0    0    0 -0.00000000000E+00 -0.00000000000E+00 -0.45593999997E+02  0.45594000000E+02  0.51100000000E-03 0.  1.
    9900012    2    1    2    0    0  0.11572952449E+02 -0.14255380472E+02 -0.36782776207E+01  0.72461579439E+02  0.70000011912E+02 0.  0.
         24    2    3    3    0    0 -0.74884976791E+01 -0.13220801991E+02 -0.49949153867E+01  0.53326722008E+02  0.50871631561E+02 0.  0.
         12    1    1    2    0    0 -0.11572952449E+02  0.14255380472E+02  0.36782776207E+01  0.18726420561E+02  0.00000000000E+00 0. -1.
         11    1    3    3    0    0  0.19061450128E+02 -0.10345784810E+01  0.13166377660E+01  0.19134857431E+02  0.51100000000E-03 0.  1.
        -11    1    4    4    0    0 -0.22148064156E+02 -0.14640408142E+02 -0.19277933977E+02  0.32810319034E+02  0.51100000000E-03 0. -1.
         12    1    4    4    0    0  0.14659566477E+02  0.14196061513E+01  0.14283018591E+02  0.20516402974E+02  0.00000000000E+00 0. -1.
</event>
<event>
 7    1  0.1345786E-013  0.7246153E+02  0.7816164E-02  0.1226708E+00
        -11   -1    0    0    0    0  0.00000000000E+00  0.00000000000E+00  0.45593999997E+02  0.45594000000E+02  0.51100000000E-03 0.  1.
         11   -1    0    0    0    0 -0.00000000000E+00 -0.00000000000E+00 -0.45593999997E+02  0.45594000000E+02  0.51100000000E-03 0. -1.
    9900012    2    1    2    0    0 -0.72651981448E+01  0.15122873696E+02  0.83184336069E+01  0.72461528079E+02  0.69999945007E+02 0.  0.
         12    1    1    2    0    0  0.72651981448E+01 -0.15122873696E+02 -0.83184336069E+01  0.18726471921E+02  0.00000000000E+00 0. -1.
         11    1    3    3    0    0 -0.16127041898E+02  0.25267540054E+01 -0.20489382540E+02  0.26196960956E+02  0.51100000000E-03 0. -1.
        -11    1    3    3    0    0  0.35330184560E+01  0.22374767445E+02  0.26552795153E+02  0.34902197185E+02  0.51100000000E-03 0.  1.
         12    1    3    3    0    0  0.53288252969E+01 -0.97786477543E+01  0.22550209942E+01  0.11362369939E+02  0.00000000000E+00 0. -1.
</event>
<event>
 7    1  0.1345786E-013  0.7246167E+02  0.7816164E-02  0.1226708E+00
        -11   -1    0    0    0    0  0.00000000000E+00  0.00000000000E+00  0.45593999997E+02  0.45594000000E+02  0.51100000000E-03 0.  1.
         11   -1    0    0    0    0 -0.00000000000E+00 -0.00000000000E+00 -0.45593999997E+02  0.45594000000E+02  0.51100000000E-03 0. -1.
    9900012    2    1    2    0    0 -0.16957085368E+02  0.31064260549E+01  0.73131847520E+01  0.72461673659E+02  0.70000134652E+02 0.  0.
         12    1    1    2    0    0  0.16957085368E+02 -0.31064260549E+01 -0.73131847520E+01  0.18726326341E+02  0.00000000000E+00 0. -1.
         11    1    3    3    0    0 -0.10148806738E+01  0.50665541840E+01 -0.47896622155E+01  0.70456240661E+01  0.51100000000E-03 0. -1.
        -11    1    3    3    0    0 -0.16576125441E+02 -0.27643453267E+02 -0.75082014542E+01  0.33095340042E+02  0.51100000000E-03 0.  1.
        -12    1    3    3    0    0  0.63392074710E+00  0.25683325138E+02  0.19611048422E+02  0.32320709551E+02  0.00000000000E+00 0.  1.
</event>
<event>
 7    1  0.1345786E-013  0.7246155E+02  0.7816164E-02  0.1226708E+00
        -11   -1    0    0    0    0  0.00000000000E+00  0.00000000000E+00  0.45593999997E+02  0.45594000000E+02  0.51100000000E-03 0. -1.
         11   -1    0    0    0    0 -0.00000000000E+00 -0.00000000000E+00 -0.45593999997E+02  0.45594000000E+02  0.51100000000E-03 0.  1.
    9900012    2    1    2    0    0  0.25105086107E+01 -0.10593845391E+02 -0.15236390789E+02  0.72461552982E+02  0.69999977448E+02 0.  0.
         12    1    1    2    0    0 -0.25105086107E+01  0.10593845391E+02  0.15236390789E+02  0.18726447018E+02  0.00000000000E+00 0. -1.
         11    1    3    3    0    0 -0.16961525010E+02  0.14063730094E+02 -0.47196390651E+00  0.22038706519E+02  0.51100000000E-03 0. -1.
        -11    1    3    3    0    0  0.93102389727E+01 -0.25865928254E+02  0.52097736478E+01  0.27979787989E+02  0.51100000000E-03 0.  1.
         12    1    3    3    0    0  0.10161794648E+02  0.12083527696E+01 -0.19974200530E+02  0.22443058475E+02  0.00000000000E+00 0. -1.
</event>
<event>
 7    1  0.1345786E-013  0.7246158E+02  0.7816164E-02  0.1226708E+00
        -11   -1    0    0    0    0  0.00000000000E+00  0.00000000000E+00  0.45593999997E+02  0.45594000000E+02  0.51100000000E-03 0. -1.
         11   -1    0    0    0    0 -0.00000000000E+00 -0.00000000000E+00 -0.45593999997E+02  0.45594000000E+02  0.51100000000E-03 0.  1.
    9900012    2    1    2    0    0 -0.15525623827E+02  0.87151219773E+01  0.58034771174E+01  0.72461583019E+02  0.70000016576E+02 0.  0.
         12    1    1    2    0    0  0.15525623827E+02 -0.87151219773E+01 -0.58034771174E+01  0.18726416981E+02  0.00000000000E+00 0. -1.
         11    1    3    3    0    0  0.17153269098E+02  0.32328311550E+01 -0.20333435730E+02  0.26798030653E+02  0.51100000000E-03 0. -1.
        -11    1    3    3    0    0 -0.15128757772E+02 -0.28986767055E+01  0.20051239746E+02  0.25285051987E+02  0.51100000000E-03 0.  1.
        -12    1    3    3    0    0 -0.17550135153E+02  0.83809675277E+01  0.60856731019E+01  0.20378500379E+02  0.00000000000E+00 0.  1.
</event>
<event>
 7    1  0.1345786E-013  0.7246158E+02  0.7816164E-02  0.1226708E+00
        -11   -1    0    0    0    0  0.00000000000E+00  0.00000000000E+00  0.45593999997E+02  0.45594000000E+02  0.51100000000E-03 0. -1.
         11   -1    0    0    0    0 -0.00000000000E+00 -0.00000000000E+00 -0.45593999997E+02  0.45594000000E+02  0.51100000000E-03 0.  1.
    9900012    2    1    2    0    0  0.78293315357E+01 -0.31079432826E+01 -0.16724867304E+02  0.72461576687E+02  0.70000008328E+02 0.  0.
         12    1    1    2    0    0 -0.78293315357E+01  0.31079432826E+01  0.16724867304E+02  0.18726423313E+02  0.00000000000E+00 0. -1.
         11    1    3    3    0    0  0.80238437277E+01  0.18992068678E+02 -0.50602465153E+01  0.21229386140E+02  0.51100000000E-03 0. -1.
        -11    1    3    3    0    0 -0.20067588635E+02 -0.97487106268E+01  0.45435993562E+01  0.22768174452E+02  0.51100000000E-03 0.  1.
        -12    1    3    3    0    0  0.19873076443E+02 -0.12351301334E+02 -0.16208220145E+02  0.28464016095E+02  0.00000000000E+00 0.  1.
</event>
<event>
 7    1  0.1345786E-013  0.7246157E+02  0.7816164E-02  0.1226708E+00
        -11   -1    0    0    0    0  0.00000000000E+00  0.00000000000E+00  0.45593999997E+02  0.45594000000E+02  0.51100000000E-03 0.  1.
         11   -1    0    0    0    0 -0.00000000000E+00 -0.00000000000E+00 -0.45593999997E+02  0.45594000000E+02  0.51100000000E-03 0. -1.
    9900012    2    1    2    0    0 -0.17215262697E+02 -0.41436039002E+01 -0.60946153652E+01  0.72461573233E+02  0.70000003828E+02 0.  0.
         12    1    1    2    0    0  0.17215262697E+02  0.41436039002E+01  0.60946153652E+01  0.18726426767E+02  0.00000000000E+00 0. -1.
         11    1    3    3    0    0 -0.19346526589E+02  0.32361286131E+01 -0.28813416169E+02  0.34856471006E+02  0.51100000000E-03 0. -1.
        -11    1    3    3    0    0 -0.12431774147E+02  0.39048912042E+00  0.14694313526E+02  0.19251606178E+02  0.51100000000E-03 0.  1.
        -12    1    3    3    0    0  0.14563038038E+02 -0.77702216337E+01  0.80244872775E+01  0.18353496048E+02  0.00000000000E+00 0.  1.
</event>
<event>
 7    1  0.1345786E-013  0.7246157E+02  0.7816164E-02  0.1226708E+00
        -11   -1    0    0    0    0  0.00000000000E+00  0.00000000000E+00  0.45593999997E+02  0.45594000000E+02  0.51100000000E-03 0. -1.
         11   -1    0    0    0    0 -0.00000000000E+00 -0.00000000000E+00 -0.45593999997E+02  0.45594000000E+02  0.51100000000E-03 0.  1.
    9900012    2    1    2    0    0 -0.18445848041E+02  0.31260769610E+01 -0.81098368738E+00  0.72461565164E+02  0.69999993317E+02 0.  0.
         12    1    1    2    0    0  0.18445848041E+02 -0.31260769610E+01  0.81098368738E+00  0.18726434836E+02  0.00000000000E+00 0. -1.
         11    1    3    3    0    0  0.39087983362E+01  0.20279435721E+01 -0.25923966026E+02  0.26295308980E+02  0.51100000000E-03 0. -1.
        -11    1    3    3    0    0 -0.22059825674E+02 -0.82586036985E+00  0.11297514813E+01  0.22104169127E+02  0.51100000000E-03 0.  1.
         12    1    3    3    0    0 -0.29482070348E+00  0.19239937587E+01  0.23983230857E+02  0.24062087058E+02  0.00000000000E+00 0. -1.
</event>
<event>
 7    1  0.1345786E-013  0.7246155E+02  0.7816164E-02  0.1226708E+00
        -11   -1    0    0    0    0  0.00000000000E+00  0.00000000000E+00  0.45593999997E+02  0.45594000000E+02  0.51100000000E-03 0. -1.
         11   -1    0    0    0    0 -0.00000000000E+00 -0.00000000000E+00 -0.45593999997E+02  0.45594000000E+02  0.51100000000E-03 0.  1.
    9900012    2    1    2    0    0 -0.40098741484E+00  0.13120822521E+02 -0.13355272662E+02  0.72461545920E+02  0.69999968247E+02 0.  0.
         12    1    1    2    0    0  0.40098741484E+00 -0.13120822521E+02  0.13355272662E+02  0.18726454080E+02  0.00000000000E+00 0. -1.
         11    1    3    3    0    0 -0.11855272445E+02 -0.26735157024E+01  0.18388045531E+02  0.22041220239E+02  0.51100000000E-03 0.  1.
        -11    1    3    3    0    0  0.12757675742E+02  0.25783182988E+02 -0.20497427780E+02  0.35322448403E+02  0.51100000000E-03 0. -1.
        -12    1    3    3    0    0 -0.13033907127E+01 -0.99888447649E+01 -0.11245890413E+02  0.15097877277E+02  0.00000000000E+00 0.  1.
</event>
<event>
 7    1  0.1345786E-013  0.7246151E+02  0.7816164E-02  0.1226708E+00
        -11   -1    0    0    0    0  0.00000000000E+00  0.00000000000E+00  0.45593999997E+02  0.45594000000E+02  0.51100000000E-03 0. -1.
         11   -1    0    0    0    0 -0.00000000000E+00 -0.00000000000E+00 -0.45593999997E+02  0.45594000000E+02  0.51100000000E-03 0.  1.
    9900012    2    1    2    0    0  0.84852316593E-01 -0.95134707627E-01 -0.18726051660E+02  0.72461514443E+02  0.69999927243E+02 0.  0.
         12    1    1    2    0    0 -0.84852316593E-01  0.95134707627E-01  0.18726051660E+02  0.18726485557E+02  0.00000000000E+00 0. -1.
         11    1    3    3    0    0  0.92427908456E+01  0.14608192322E+02  0.18606389715E+02  0.25397366084E+02  0.51100000000E-03 0. -1.
        -11    1    3    3    0    0  0.54997113371E+01 -0.11329384995E+02 -0.23340860276E+02  0.26521643008E+02  0.51100000000E-03 0.  1.
        -12    1    3    3    0    0 -0.14657649866E+02 -0.33739420347E+01 -0.13991581099E+02  0.20542505351E+02  0.00000000000E+00 0.  1.
</event>
<event>
 7    1  0.1345786E-013  0.7246196E+02  0.7816164E-02  0.1226707E+00
        -11   -1    0    0    0    0  0.00000000000E+00  0.00000000000E+00  0.45593999997E+02  0.45594000000E+02  0.51100000000E-03 0.  1.
         11   -1    0    0    0    0 -0.00000000000E+00 -0.00000000000E+00 -0.45593999997E+02  0.45594000000E+02  0.51100000000E-03 0. -1.
    9900012    2    1    2    0    0  0.11137246643E+02 -0.26567750567E+01  0.14817819329E+02  0.72461962348E+02  0.70000510721E+02 0.  0.
         12    1    1    2    0    0 -0.11137246643E+02  0.26567750567E+01 -0.14817819329E+02  0.18726037652E+02  0.00000000000E+00 0. -1.
         11    1    3    3    0    0 -0.15021564443E+00  0.40612478647E-01  0.19407253574E+02  0.19407877413E+02  0.51100000000E-03 0. -1.
        -11    1    3    3    0    0 -0.29283602243E+00 -0.18593121205E+02 -0.20558319438E+02  0.27720649477E+02  0.51100000000E-03 0.  1.
        -12    1    3    3    0    0  0.11580298309E+02  0.15895733669E+02  0.15968885192E+02  0.25333435458E+02  0.00000000000E+00 0.  1.
</event>
<event>
 7    1  0.1345786E-013  0.7246159E+02  0.7816164E-02  0.1226708E+00
        -11   -1    0    0    0    0  0.00000000000E+00  0.00000000000E+00  0.45593999997E+02  0.45594000000E+02  0.51100000000E-03 0.  1.
         11   -1    0    0    0    0 -0.00000000000E+00 -0.00000000000E+00 -0.45593999997E+02  0.45594000000E+02  0.51100000000E-03 0. -1.
    9900012    2    1    2    0    0  0.12171830311E+02 -0.14187245535E+02  0.11166275028E+01  0.72461594953E+02  0.70000032123E+02 0.  0.
         12    1    1    2    0    0 -0.12171830311E+02  0.14187245535E+02 -0.11166275028E+01  0.18726405047E+02  0.00000000000E+00 0. -1.
         11    1    3    3    0    0  0.17176407325E+02  0.12588504458E+02  0.21220789165E+02  0.30063620975E+02  0.51100000000E-03 0. -1.
        -11    1    3    3    0    0 -0.69093288818E+01  0.23463301308E+01 -0.65388937962E+00  0.73260946118E+01  0.51100000000E-03 0.  1.
         12    1    3    3    0    0  0.19047518681E+01 -0.29122080124E+02 -0.19450272283E+02  0.35071879366E+02  0.00000000000E+00 0. -1.
</event>
<event>
 7    1  0.1345786E-013  0.7246160E+02  0.7816164E-02  0.1226708E+00
        -11   -1    0    0    0    0  0.00000000000E+00  0.00000000000E+00  0.45593999997E+02  0.45594000000E+02  0.51100000000E-03 0.  1.
         11   -1    0    0    0    0 -0.00000000000E+00 -0.00000000000E+00 -0.45593999997E+02  0.45594000000E+02  0.51100000000E-03 0. -1.
    9900012    2    1    2    0    0 -0.92864787149E+00 -0.19795951024E+01  0.18598301035E+02  0.72461601920E+02  0.70000041199E+02 0.  0.
         12    1    1    2    0    0  0.92864787149E+00  0.19795951024E+01 -0.18598301035E+02  0.18726398080E+02  0.00000000000E+00 0. -1.
         11    1    3    3    0    0  0.63576328634E+00 -0.84269977904E+01 -0.83955468095E+01  0.11912333659E+02  0.51100000000E-03 0. -1.
        -11    1    3    3    0    0  0.95044456445E+01  0.21965483363E+02  0.32817917099E+02  0.40618131780E+02  0.51100000000E-03 0.  1.
        -12    1    3    3    0    0 -0.11068856802E+02 -0.15518080675E+02 -0.58240692540E+01  0.19931136481E+02  0.00000000000E+00 0.  1.
</event>
<event>
 7    1  0.1345786E-013  0.7246164E+02  0.7816164E-02  0.1226708E+00
        -11   -1    0    0    0    0  0.00000000000E+00  0.00000000000E+00  0.45593999997E+02  0.45594000000E+02  0.51100000000E-03 0. -1.
         11   -1    0    0    0    0 -0.00000000000E+00 -0.00000000000E+00 -0.45593999997E+02  0.45594000000E+02  0.51100000000E-03 0.  1.
    9900012    2    1    2    0    0  0.10170313239E+02 -0.14106725954E+02 -0.69456249479E+01  0.72461636379E+02  0.70000086088E+02 0.  0.
         12    1    1    2    0    0 -0.10170313239E+02  0.14106725954E+02  0.69456249479E+01  0.18726363621E+02  0.00000000000E+00 0. -1.
         11    1    3    3    0    0 -0.12937653603E+01  0.10326991481E+02  0.13084712712E+02  0.16719159335E+02  0.51100000000E-03 0. -1.
        -11    1    3    3    0    0  0.88759980898E+01 -0.37429723767E+02 -0.17457934131E+02  0.42243899296E+02  0.51100000000E-03 0.  1.
        -12    1    3    3    0    0  0.25880805098E+01  0.12996006332E+02 -0.25724035291E+01  0.13498577748E+02  0.00000000000E+00 0.  1.
</event>
<event>
 7    1  0.1345786E-013  0.7246147E+02  0.7816164E-02  0.1226708E+00
        -11   -1    0    0    0    0  0.00000000000E+00  0.00000000000E+00  0.45593999997E+02  0.45594000000E+02  0.51100000000E-03 0.  1.
         11   -1    0    0    0    0 -0.00000000000E+00 -0.00000000000E+00 -0.45593999997E+02  0.45594000000E+02  0.51100000000E-03 0. -1.
    9900012    2    1    2    0    0 -0.14621134671E+02  0.92721287780E+01 -0.71367407148E+01  0.72461467508E+02  0.69999866101E+02 0.  0.
         12    1    1    2    0    0  0.14621134671E+02 -0.92721287780E+01  0.71367407148E+01  0.18726532492E+02  0.00000000000E+00 0. -1.
         11    1    3    3    0    0 -0.77750672951E+01 -0.14627922275E+02 -0.70588168907E+01  0.18007072991E+02  0.51100000000E-03 0. -1.
        -11    1    3    3    0    0 -0.48571320416E+00  0.87301395410E+01  0.23858806327E+02  0.25410507538E+02  0.51100000000E-03 0.  1.
         12    1    3    3    0    0 -0.63603541721E+01  0.15169911512E+02 -0.23936730152E+02  0.29043886979E+02  0.00000000000E+00 0. -1.
</event>
<event>
 7    1  0.1345786E-013  0.7246149E+02  0.7816164E-02  0.1226708E+00
        -11   -1    0    0    0    0  0.00000000000E+00  0.00000000000E+00  0.45593999997E+02  0.45594000000E+02  0.51100000000E-03 0.  1.
         11   -1    0    0    0    0 -0.00000000000E+00 -0.00000000000E+00 -0.45593999997E+02  0.45594000000E+02  0.51100000000E-03 0. -1.
    9900012    2    1    2    0    0 -0.13003725995E+02  0.70698136667E+01  0.11471832150E+02  0.72461492373E+02  0.69999898493E+02 0.  0.
         12    1    1    2    0    0  0.13003725995E+02 -0.70698136667E+01 -0.11471832150E+02  0.18726507627E+02  0.00000000000E+00 0. -1.
         11    1    3    3    0    0 -0.93702512455E+01  0.20495000692E+02  0.90028059434E+01  0.24267203731E+02  0.51100000000E-03 0. -1.
        -11    1    3    3    0    0  0.12252210491E+02 -0.25231717593E+02 -0.11533969110E+01  0.28072879427E+02  0.51100000000E-03 0.  1.
        -12    1    3    3    0    0 -0.15885685241E+02  0.11806530567E+02  0.36224231171E+01  0.20121409216E+02  0.00000000000E+00 0.  1.
</event>
<event>
 7    1  0.1345786E-013  0.7246159E+02  0.7816164E-02  0.1226708E+00
        -11   -1    0    0    0    0  0.00000000000E+00  0.00000000000E+00  0.45593999997E+02  0.45594000000E+02  0.51100000000E-03 0.  1.
         11   -1    0    0    0    0 -0.00000000000E+00 -0.00000000000E+00 -0.45593999997E+02  0.45594000000E+02  0.51100000000E-03 0. -1.
    9900012    2    1    2    0    0  0.97797107754E+01  0.12619520753E+02  0.97868953698E+01  0.72461591698E+02  0.70000027883E+02 0.  0.
         12    1    1    2    0    0 -0.97797107754E+01 -0.12619520753E+02 -0.97868953698E+01  0.18726408302E+02  0.00000000000E+00 0. -1.
         11    1    3    3    0    0  0.83221333560E+01  0.12980720958E+02 -0.25318471290E+02  0.29644257604E+02  0.51100000000E-03 0. -1.
        -11    1    3    3    0    0  0.10198297566E+02  0.61842959818E+01  0.25978563268E+02  0.28585600217E+02  0.51100000000E-03 0.  1.
        -12    1    3    3    0    0 -0.87407201464E+01 -0.65454961865E+01  0.91268033911E+01  0.14231733877E+02  0.00000000000E+00 0.  1.
</event>
<event>
 7    1  0.1345786E-013  0.7246114E+02  0.7816164E-02  0.1226709E+00
        -11   -1    0    0    0    0  0.00000000000E+00  0.00000000000E+00  0.45593999997E+02  0.45594000000E+02  0.51100000000E-03 0.  1.
         11   -1    0    0    0    0 -0.00000000000E+00 -0.00000000000E+00 -0.45593999997E+02  0.45594000000E+02  0.51100000000E-03 0. -1.
    9900012    2    1    2    0    0  0.18209209492E+02 -0.27467798186E+01  0.34022187686E+01  0.72461142222E+02  0.69999442354E+02 0.  0.
         12    1    1    2    0    0 -0.18209209492E+02  0.27467798186E+01 -0.34022187686E+01  0.18726857778E+02  0.00000000000E+00 0. -1.
         11    1    3    3    0    0 -0.57432114340E+01 -0.11223882513E+01 -0.15555339146E+02  0.16619651295E+02  0.51100000000E-03 0. -1.
        -11    1    3    3    0    0  0.35265086146E+02 -0.49635918694E+01  0.24072034511E+02  0.42985188041E+02  0.51100000000E-03 0.  1.
        -12    1    3    3    0    0 -0.11312665220E+02  0.33392003020E+01 -0.51144765959E+01  0.12856302886E+02  0.00000000000E+00 0.  1.
</event>
<event>
 7    1  0.1345786E-013  0.7246155E+02  0.7816164E-02  0.1226708E+00
        -11   -1    0    0    0    0  0.00000000000E+00  0.00000000000E+00  0.45593999997E+02  0.45594000000E+02  0.51100000000E-03 0. -1.
         11   -1    0    0    0    0 -0.00000000000E+00 -0.00000000000E+00 -0.45593999997E+02  0.45594000000E+02  0.51100000000E-03 0.  1.
    9900012    2    1    2    0    0 -0.10311453012E+02  0.15069903001E+02 -0.41535271570E+01  0.72461552726E+02  0.69999977113E+02 0.  0.
         12    1    1    2    0    0  0.10311453012E+02 -0.15069903001E+02  0.41535271570E+01  0.18726447274E+02  0.00000000000E+00 0. -1.
         11    1    3    3    0    0  0.11142688573E+02 -0.41718073200E+01  0.64945751699E+01  0.13555183210E+02  0.51100000000E-03 0. -1.
        -11    1    3    3    0    0 -0.30497559586E+02  0.22541950045E+02 -0.22141022921E+02  0.43914297772E+02  0.51100000000E-03 0.  1.
        -12    1    3    3    0    0  0.90434180014E+01 -0.33002397236E+01  0.11492920594E+02  0.14992071744E+02  0.00000000000E+00 0.  1.
</event>
<event>
 7    1  0.1345786E-013  0.7246160E+02  0.7816164E-02  0.1226708E+00
        -11   -1    0    0    0    0  0.00000000000E+00  0.00000000000E+00  0.45593999997E+02  0.45594000000E+02  0.51100000000E-03 0.  1.
         11   -1    0    0    0    0 -0.00000000000E+00 -0.00000000000E+00 -0.45593999997E+02  0.45594000000E+02  0.51100000000E-03 0. -1.
    9900012    2    1    2    0    0 -0.15867758996E+02 -0.87894810832E+01  0.46516046589E+01  0.72461596737E+02  0.70000034446E+02 0.  0.
         12    1    1    2    0    0  0.15867758996E+02  0.87894810832E+01 -0.46516046589E+01  0.18726403263E+02  0.00000000000E+00 0. -1.
         11    1    3    3    0    0  0.41790233418E+01 -0.49715290918E+01  0.39011284429E+01  0.75762220790E+01  0.51100000000E-03 0.  1.
        -11    1    3    3    0    0 -0.14828272315E+02 -0.22259763647E+01 -0.30061783559E+02  0.33593800941E+02  0.51100000000E-03 0. -1.
        -12    1    3    3    0    0 -0.52185100228E+01 -0.15919756267E+01  0.30812259775E+02  0.31291573717E+02  0.00000000000E+00 0.  1.
</event>
<event>
 7    1  0.1345786E-013  0.7246152E+02  0.7816164E-02  0.1226708E+00
        -11   -1    0    0    0    0  0.00000000000E+00  0.00000000000E+00  0.45593999997E+02  0.45594000000E+02  0.51100000000E-03 0.  1.
         11   -1    0    0    0    0 -0.00000000000E+00 -0.00000000000E+00 -0.45593999997E+02  0.45594000000E+02  0.51100000000E-03 0. -1.
    9900012    2    1    2    0    0 -0.41825683259E+01 -0.18253318302E+02  0.59136467299E-01  0.72461521314E+02  0.69999936194E+02 0.  0.
         12    1    1    2    0    0  0.41825683259E+01  0.18253318302E+02 -0.59136467299E-01  0.18726478686E+02  0.00000000000E+00 0. -1.
         11    1    3    3    0    0 -0.13482749732E+02 -0.24384634249E+02  0.84835411692E+01  0.29126712805E+02  0.51100000000E-03 0. -1.
        -11    1    3    3    0    0  0.22141428082E+02 -0.55280396147E+01  0.23090746230E+01  0.22937608537E+02  0.51100000000E-03 0.  1.
         12    1    3    3    0    0 -0.12841246676E+02  0.11659355561E+02 -0.10733479325E+02  0.20397199973E+02  0.00000000000E+00 0. -1.
</event>
<event>
 7    1  0.1345786E-013  0.7246154E+02  0.7816164E-02  0.1226708E+00
        -11   -1    0    0    0    0  0.00000000000E+00  0.00000000000E+00  0.45593999997E+02  0.45594000000E+02  0.51100000000E-03 0. -1.
         11   -1    0    0    0    0 -0.00000000000E+00 -0.00000000000E+00 -0.45593999997E+02  0.45594000000E+02  0.51100000000E-03 0.  1.
    9900012    2    1    2    0    0 -0.98556685178E+01  0.13400802588E+02  0.86002596719E+01  0.72461543358E+02  0.69999964910E+02 0.  0.
         12    1    1    2    0    0  0.98556685178E+01 -0.13400802588E+02 -0.86002596719E+01  0.18726456642E+02  0.00000000000E+00 0. -1.
         11    1    3    3    0    0  0.12082292004E+02  0.21734034264E+02  0.21896467396E+02  0.33133145190E+02  0.51100000000E-03 0. -1.
        -11    1    3    3    0    0 -0.23833920795E+02  0.43152728119E+01 -0.88627932684E+01  0.25791984505E+02  0.51100000000E-03 0.  1.
        -12    1    3    3    0    0  0.18959602731E+01 -0.12648504488E+02 -0.44334144558E+01  0.13536413664E+02  0.00000000000E+00 0.  1.
</event>
<event>
 7    1  0.1345786E-013  0.7246153E+02  0.7816164E-02  0.1226708E+00
        -11   -1    0    0    0    0  0.00000000000E+00  0.00000000000E+00  0.45593999997E+02  0.45594000000E+02  0.51100000000E-03 0.  1.
         11   -1    0    0    0    0 -0.00000000000E+00 -0.00000000000E+00 -0.45593999997E+02  0.45594000000E+02  0.51100000000E-03 0. -1.
    9900012    2    1    2    0    0  0.65956629731E+01 -0.14982738577E+02  0.90937013045E+01  0.72461531333E+02  0.69999949246E+02 0.  0.
         12    1    1    2    0    0 -0.65956629731E+01  0.14982738577E+02 -0.90937013045E+01  0.18726468667E+02  0.00000000000E+00 0. -1.
         11    1    3    3    0    0  0.12909852759E+02  0.73482792486E+01 -0.10200412473E+02  0.18019709239E+02  0.51100000000E-03 0. -1.
        -11    1    3    3    0    0 -0.14892195374E+01 -0.20756236819E+02  0.33454952604E+02  0.39398895869E+02  0.51100000000E-03 0.  1.
        -12    1    3    3    0    0 -0.48249702488E+01 -0.15747810068E+01 -0.14160838827E+02  0.15042926225E+02  0.00000000000E+00 0.  1.
</event>
<event>
 7    1  0.1345786E-013  0.7246164E+02  0.7816164E-02  0.1226708E+00
        -11   -1    0    0    0    0  0.00000000000E+00  0.00000000000E+00  0.45593999997E+02  0.45594000000E+02  0.51100000000E-03 0.  1.
         11   -1    0    0    0    0 -0.00000000000E+00 -0.00000000000E+00 -0.45593999997E+02  0.45594000000E+02  0.51100000000E-03 0. -1.
    9900012    2    1    2    0    0  0.55907300192E+01  0.77744683309E+01  0.16092793844E+02  0.72461638002E+02  0.70000088201E+02 0.  0.
         12    1    1    2    0    0 -0.55907300192E+01 -0.77744683309E+01 -0.16092793844E+02  0.18726361998E+02  0.00000000000E+00 0. -1.
         11    1    3    3    0    0 -0.58084717843E+01  0.39496018894E+01 -0.21162450042E+00  0.70272672315E+01  0.51100000000E-03 0. -1.
        -11    1    3    3    0    0  0.37036179274E+02  0.15329164314E+00  0.13344527835E+02  0.39367226178E+02  0.51100000000E-03 0.  1.
        -12    1    3    3    0    0 -0.25636977471E+02  0.36715747984E+01  0.29598905098E+01  0.26067144592E+02  0.00000000000E+00 0.  1.
</event>
<event>
 7    1  0.1345786E-013  0.7246149E+02  0.7816164E-02  0.1226708E+00
        -11   -1    0    0    0    0  0.00000000000E+00  0.00000000000E+00  0.45593999997E+02  0.45594000000E+02  0.51100000000E-03 0.  1.
         11   -1    0    0    0    0 -0.00000000000E+00 -0.00000000000E+00 -0.45593999997E+02  0.45594000000E+02  0.51100000000E-03 0. -1.
    9900012    2    1    2    0    0  0.45446987747E+01  0.58657034832E+01  0.17193646593E+02  0.72461488113E+02  0.69999892943E+02 0.  0.
         12    1    1    2    0    0 -0.45446987747E+01 -0.58657034832E+01 -0.17193646593E+02  0.18726511887E+02  0.00000000000E+00 0. -1.
         11    1    3    3    0    0  0.36475580715E+01  0.31876023881E+02  0.72408591663E+01  0.32890965630E+02  0.51100000000E-03 0. -1.
        -11    1    3    3    0    0  0.99673505720E+01 -0.20474661905E+02  0.15536220213E+02  0.27566900375E+02  0.51100000000E-03 0.  1.
        -12    1    3    3    0    0 -0.90702098689E+01 -0.55356584933E+01 -0.55834327861E+01  0.12003622107E+02  0.00000000000E+00 0.  1.
</event>
<event>
 7    1  0.1345786E-013  0.7246157E+02  0.7816164E-02  0.1226708E+00
        -11   -1    0    0    0    0  0.00000000000E+00  0.00000000000E+00  0.45593999997E+02  0.45594000000E+02  0.51100000000E-03 0.  1.
         11   -1    0    0    0    0 -0.00000000000E+00 -0.00000000000E+00 -0.45593999997E+02  0.45594000000E+02  0.51100000000E-03 0. -1.
    9900012    2    1    2    0    0  0.26352785050E+01  0.17296321104E+02 -0.66762038095E+01  0.72461571781E+02  0.70000001937E+02 0.  0.
         12    1    1    2    0    0 -0.26352785050E+01 -0.17296321104E+02  0.66762038095E+01  0.18726428219E+02  0.00000000000E+00 0. -1.
         11    1    3    3    0    0  0.26791189105E+02 -0.99536465471E+01 -0.43145497778E+00  0.28583719963E+02  0.51100000000E-03 0.  1.
        -11    1    3    3    0    0 -0.19063464868E+02  0.28150981483E+02 -0.12079997377E+02  0.36080739850E+02  0.51100000000E-03 0. -1.
        -12    1    3    3    0    0 -0.50924457324E+01 -0.90101383243E+00  0.58352485454E+01  0.77971119686E+01  0.00000000000E+00 0.  1.
</event>
<event>
 7    1  0.1345786E-013  0.7246156E+02  0.7816164E-02  0.1226708E+00
        -11   -1    0    0    0    0  0.00000000000E+00  0.00000000000E+00  0.45593999997E+02  0.45594000000E+02  0.51100000000E-03 0.  1.
         11   -1    0    0    0    0 -0.00000000000E+00 -0.00000000000E+00 -0.45593999997E+02  0.45594000000E+02  0.51100000000E-03 0. -1.
    9900012    2    1    2    0    0  0.18407703883E+02  0.22128543203E+01  0.26342604296E+01  0.72461558413E+02  0.69999984523E+02 0.  0.
         12    1    1    2    0    0 -0.18407703883E+02 -0.22128543203E+01 -0.26342604296E+01  0.18726441587E+02  0.00000000000E+00 0. -1.
         11    1    3    3    0    0 -0.11668191671E+02 -0.18657496881E+02  0.28335052813E+01  0.22187330601E+02  0.51100000000E-03 0. -1.
        -11    1    3    3    0    0  0.11276936434E+02 -0.53943618296E+01  0.10420114857E+02  0.16274127589E+02  0.51100000000E-03 0.  1.
         12    1    3    3    0    0  0.18798959120E+02  0.26264713031E+02 -0.10619359709E+02  0.34000100224E+02  0.00000000000E+00 0. -1.
</event>
<event>
 7    1  0.1345786E-013  0.7246164E+02  0.7816164E-02  0.1226708E+00
        -11   -1    0    0    0    0  0.00000000000E+00  0.00000000000E+00  0.45593999997E+02  0.45594000000E+02  0.51100000000E-03 0. -1.
         11   -1    0    0    0    0 -0.00000000000E+00 -0.00000000000E+00 -0.45593999997E+02  0.45594000000E+02  0.51100000000E-03 0.  1.
    9900012    2    1    2    0    0  0.18629517904E+02 -0.45909033396E+00  0.18457372369E+01  0.72461642981E+02  0.70000094687E+02 0.  0.
         12    1    1    2    0    0 -0.18629517904E+02  0.45909033396E+00 -0.18457372369E+01  0.18726357019E+02  0.00000000000E+00 0. -1.
         11    1    3    3    0    0  0.13141484158E+02  0.28132933757E+02  0.20995050127E+02  0.37482698645E+02  0.51100000000E-03 0. -1.
        -11    1    3    3    0    0  0.29127391799E+01 -0.12775195551E+02 -0.10344639850E+02  0.16694347690E+02  0.51100000000E-03 0.  1.
         12    1    3    3    0    0  0.25752945657E+01 -0.15816828540E+02 -0.88046730399E+01  0.18284596646E+02  0.00000000000E+00 0. -1.
</event>
<event>
 7    1  0.1345786E-013  0.7246162E+02  0.7816164E-02  0.1226708E+00
        -11   -1    0    0    0    0  0.00000000000E+00  0.00000000000E+00  0.45593999997E+02  0.45594000000E+02  0.51100000000E-03 0.  1.
         11   -1    0    0    0    0 -0.00000000000E+00 -0.00000000000E+00 -0.45593999997E+02  0.45594000000E+02  0.51100000000E-03 0. -1.
    9900012    2    1    2    0    0  0.10431798180E+02  0.12454836672E+02  0.93129994710E+01  0.72461619438E+02  0.70000064019E+02 0.  0.
         12    1    1    2    0    0 -0.10431798180E+02 -0.12454836672E+02 -0.93129994710E+01  0.18726380562E+02  0.00000000000E+00 0. -1.
         11    1    3    3    0    0  0.69187488799E+01 -0.10424947652E+02 -0.12794456077E+02  0.17895438697E+02  0.51100000000E-03 0. -1.
        -11    1    3    3    0    0  0.15608432358E+02  0.81631349695E+01  0.29314209754E+02  0.34199164127E+02  0.51100000000E-03 0.  1.
        -12    1    3    3    0    0 -0.12095383058E+02  0.14716649354E+02 -0.72067542063E+01  0.20367016614E+02  0.00000000000E+00 0.  1.
</event>
<event>
 7    1  0.1345786E-013  0.7246160E+02  0.7816164E-02  0.1226708E+00
        -11   -1    0    0    0    0  0.00000000000E+00  0.00000000000E+00  0.45593999997E+02  0.45594000000E+02  0.51100000000E-03 0.  1.
         11   -1    0    0    0    0 -0.00000000000E+00 -0.00000000000E+00 -0.45593999997E+02  0.45594000000E+02  0.51100000000E-03 0. -1.
    9900012    2    1    2    0    0 -0.80901549126E+01  0.13645457893E+02  0.99513344558E+01  0.72461596580E+02  0.70000034241E+02 0.  0.
         12    1    1    2    0    0  0.80901549126E+01 -0.13645457893E+02 -0.99513344558E+01  0.18726403420E+02  0.00000000000E+00 0. -1.
         11    1    3    3    0    0 -0.25706946075E+02  0.18504073908E+02 -0.36739284113E+01  0.31886448186E+02  0.51100000000E-03 0. -1.
        -11    1    3    3    0    0  0.14497528099E+02 -0.26984848004E+01 -0.92366979338E+01  0.17400480746E+02  0.51100000000E-03 0.  1.
        -12    1    3    3    0    0  0.31192630638E+01 -0.21601312143E+01  0.22861960801E+02  0.23174667648E+02  0.00000000000E+00 0.  1.
</event>
<event>
 7    1  0.1345786E-013  0.7246152E+02  0.7816164E-02  0.1226708E+00
        -11   -1    0    0    0    0  0.00000000000E+00  0.00000000000E+00  0.45593999997E+02  0.45594000000E+02  0.51100000000E-03 0.  1.
         11   -1    0    0    0    0 -0.00000000000E+00 -0.00000000000E+00 -0.45593999997E+02  0.45594000000E+02  0.51100000000E-03 0. -1.
    9900012    2    1    2    0    0  0.13644427289E+02  0.11385994094E+02  0.59050794534E+01  0.72461515522E+02  0.69999928649E+02 0.  0.
         12    1    1    2    0    0 -0.13644427289E+02 -0.11385994094E+02 -0.59050794534E+01  0.18726484478E+02  0.00000000000E+00 0. -1.
         11    1    3    3    0    0 -0.42938631495E+01 -0.65568658017E+01 -0.18950918371E+02  0.20507731646E+02  0.51100000000E-03 0. -1.
        -11    1    3    3    0    0  0.28901277641E+01  0.23228761381E+02  0.27141671324E+02  0.35841296242E+02  0.51100000000E-03 0.  1.
        -12    1    3    3    0    0  0.15048162675E+02 -0.52859014860E+01 -0.22856734993E+01  0.16112487634E+02  0.00000000000E+00 0.  1.
</event>
<event>
 7    1  0.1345786E-013  0.7246158E+02  0.7816164E-02  0.1226708E+00
        -11   -1    0    0    0    0  0.00000000000E+00  0.00000000000E+00  0.45593999997E+02  0.45594000000E+02  0.51100000000E-03 0. -1.
         11   -1    0    0    0    0 -0.00000000000E+00 -0.00000000000E+00 -0.45593999997E+02  0.45594000000E+02  0.51100000000E-03 0.  1.
    9900012    2    1    2    0    0  0.51336929046E+00  0.89406508204E+01 -0.16446280684E+02  0.72461576597E+02  0.70000008211E+02 0.  0.
         12    1    1    2    0    0 -0.51336929046E+00 -0.89406508204E+01  0.16446280684E+02  0.18726423403E+02  0.00000000000E+00 0. -1.
         11    1    3    3    0    0  0.18245671216E+02  0.21148058006E+02 -0.15662462732E+00  0.27931512797E+02  0.51100000000E-03 0. -1.
        -11    1    3    3    0    0 -0.10892623375E+02  0.66277196049E+01 -0.20416554826E+02  0.24070970532E+02  0.51100000000E-03 0.  1.
         12    1    3    3    0    0 -0.68396785511E+01 -0.18835126791E+02  0.41268987693E+01  0.20459093268E+02  0.00000000000E+00 0. -1.
</event>
<event>
 7    1  0.1345786E-013  0.7246160E+02  0.7816164E-02  0.1226708E+00
        -11   -1    0    0    0    0  0.00000000000E+00  0.00000000000E+00  0.45593999997E+02  0.45594000000E+02  0.51100000000E-03 0. -1.
         11   -1    0    0    0    0 -0.00000000000E+00 -0.00000000000E+00 -0.45593999997E+02  0.45594000000E+02  0.51100000000E-03 0.  1.
    9900012    2    1    2    0    0  0.15153156081E+02  0.11002547697E+02  0.63284056441E-01  0.72461596184E+02  0.70000033726E+02 0.  0.
         12    1    1    2    0    0 -0.15153156081E+02 -0.11002547697E+02 -0.63284056441E-01  0.18726403816E+02  0.00000000000E+00 0. -1.
         11    1    3    3    0    0  0.25487111788E+02  0.16824012631E+02  0.25852558632E+02  0.40012436272E+02  0.51100000000E-03 0. -1.
        -11    1    3    3    0    0  0.33187869478E+01 -0.31763736423E+01 -0.12068244503E+02  0.12913025283E+02  0.51100000000E-03 0.  1.
         12    1    3    3    0    0 -0.13652742655E+02 -0.26450912917E+01 -0.13721030073E+02  0.19536134628E+02  0.00000000000E+00 0. -1.
</event>
<event>
 7    1  0.1345786E-013  0.7246159E+02  0.7816164E-02  0.1226708E+00
        -11   -1    0    0    0    0  0.00000000000E+00  0.00000000000E+00  0.45593999997E+02  0.45594000000E+02  0.51100000000E-03 0.  1.
         11   -1    0    0    0    0 -0.00000000000E+00 -0.00000000000E+00 -0.45593999997E+02  0.45594000000E+02  0.51100000000E-03 0. -1.
    9900012    2    1    2    0    0  0.64938131324E+01 -0.25683285570E+01  0.17375634205E+02  0.72461585912E+02  0.70000020344E+02 0.  0.
         12    1    1    2    0    0 -0.64938131324E+01  0.25683285570E+01 -0.17375634205E+02  0.18726414088E+02  0.00000000000E+00 0. -1.
         11    1    3    3    0    0 -0.11917345326E+02 -0.19718870590E+02  0.11062424907E+02  0.25558447177E+02  0.51100000000E-03 0. -1.
        -11    1    3    3    0    0  0.29072191121E+02  0.70494028790E+01  0.10379525606E+02  0.31664190019E+02  0.51100000000E-03 0.  1.
        -12    1    3    3    0    0 -0.10661032662E+02  0.10101139154E+02 -0.40663163079E+01  0.15238948716E+02  0.00000000000E+00 0.  1.
</event>
<event>
 7    1  0.1345786E-013  0.7246157E+02  0.7816164E-02  0.1226708E+00
        -11   -1    0    0    0    0  0.00000000000E+00  0.00000000000E+00  0.45593999997E+02  0.45594000000E+02  0.51100000000E-03 0.  1.
         11   -1    0    0    0    0 -0.00000000000E+00 -0.00000000000E+00 -0.45593999997E+02  0.45594000000E+02  0.51100000000E-03 0. -1.
    9900012    2    1    2    0    0 -0.14772258370E+02  0.77162059966E+01  0.85393111379E+01  0.72461567156E+02  0.69999995912E+02 0.  0.
         12    1    1    2    0    0  0.14772258370E+02 -0.77162059966E+01 -0.85393111379E+01  0.18726432844E+02  0.00000000000E+00 0. -1.
         11    1    3    3    0    0  0.72471412858E+01 -0.24997812440E+02 -0.30457016713E+01  0.26204732064E+02  0.51100000000E-03 0. -1.
        -11    1    3    3    0    0 -0.17751112794E+02  0.18919438116E+02 -0.25274634434E+01  0.26065978128E+02  0.51100000000E-03 0.  1.
         12    1    3    3    0    0 -0.42682868625E+01  0.13794580321E+02  0.14112476253E+02  0.20190856965E+02  0.00000000000E+00 0. -1.
</event>
<event>
 7    1  0.1345786E-013  0.7246158E+02  0.7816164E-02  0.1226708E+00
        -11   -1    0    0    0    0  0.00000000000E+00  0.00000000000E+00  0.45593999997E+02  0.45594000000E+02  0.51100000000E-03 0.  1.
         11   -1    0    0    0    0 -0.00000000000E+00 -0.00000000000E+00 -0.45593999997E+02  0.45594000000E+02  0.51100000000E-03 0. -1.
    9900012    2    1    2    0    0 -0.49891233991E+01  0.16770785323E+02  0.66729564216E+01  0.72461576422E+02  0.70000007982E+02 0.  0.
         12    1    1    2    0    0  0.49891233991E+01 -0.16770785323E+02 -0.66729564216E+01  0.18726423578E+02  0.00000000000E+00 0. -1.
         11    1    3    3    0    0  0.11045018819E+02 -0.12040233036E+02 -0.22370174735E+02  0.27701703381E+02  0.51100000000E-03 0. -1.
        -11    1    3    3    0    0 -0.88134205978E+01  0.16460008266E+02  0.10778190884E+02  0.21558702506E+02  0.51100000000E-03 0.  1.
         12    1    3    3    0    0 -0.72207216204E+01  0.12351010093E+02  0.18264940272E+02  0.23201170535E+02  0.00000000000E+00 0. -1.
</event>
<event>
 7    1  0.1345786E-013  0.7246159E+02  0.7816164E-02  0.1226708E+00
        -11   -1    0    0    0    0  0.00000000000E+00  0.00000000000E+00  0.45593999997E+02  0.45594000000E+02  0.51100000000E-03 0.  1.
         11   -1    0    0    0    0 -0.00000000000E+00 -0.00000000000E+00 -0.45593999997E+02  0.45594000000E+02  0.51100000000E-03 0. -1.
    9900012    2    1    2    0    0  0.76159804107E+01 -0.13598040772E+02  0.10381168767E+02  0.72461587225E+02  0.70000022056E+02 0.  0.
         12    1    1    2    0    0 -0.76159804107E+01  0.13598040772E+02 -0.10381168767E+02  0.18726412775E+02  0.00000000000E+00 0. -1.
         11    1    3    3    0    0 -0.70712962764E+01 -0.26128738698E+02  0.23261652514E+02  0.35690596730E+02  0.51100000000E-03 0. -1.
        -11    1    3    3    0    0  0.12773216919E+02 -0.70888213858E+01 -0.39717754949E+01  0.15138740369E+02  0.51100000000E-03 0.  1.
         12    1    3    3    0    0  0.19140597680E+01  0.19619519312E+02 -0.89087082522E+01  0.21632250127E+02  0.00000000000E+00 0. -1.
</event>
<event>
 7    1  0.1345786E-013  0.7246152E+02  0.7816164E-02  0.1226708E+00
        -11   -1    0    0    0    0  0.00000000000E+00  0.00000000000E+00  0.45593999997E+02  0.45594000000E+02  0.51100000000E-03 0.  1.
         11   -1    0    0    0    0 -0.00000000000E+00 -0.00000000000E+00 -0.45593999997E+02  0.45594000000E+02  0.51100000000E-03 0. -1.
    9900012    2    1    2    0    0 -0.13861118791E+02  0.10455073496E+02  0.70172673095E+01  0.72461515641E+02  0.69999928804E+02 0.  0.
         12    1    1    2    0    0  0.13861118791E+02 -0.10455073496E+02 -0.70172673095E+01  0.18726484359E+02  0.00000000000E+00 0. -1.
         11    1    3    3    0    0  0.33592627532E+01 -0.20885244870E+02  0.29747943759E+01  0.21361823456E+02  0.51100000000E-03 0. -1.
        -11    1    3    3    0    0 -0.25727295000E+02  0.95349379812E+01  0.37450761126E+01  0.27691773972E+02  0.51100000000E-03 0.  1.
         12    1    3    3    0    0  0.85069134559E+01  0.21805380384E+02  0.29739682099E+00  0.23407918214E+02  0.00000000000E+00 0. -1.
</event>
<event>
 7    1  0.1345786E-013  0.7246152E+02  0.7816164E-02  0.1226708E+00
        -11   -1    0    0    0    0  0.00000000000E+00  0.00000000000E+00  0.45593999997E+02  0.45594000000E+02  0.51100000000E-03 0. -1.
         11   -1    0    0    0    0 -0.00000000000E+00 -0.00000000000E+00 -0.45593999997E+02  0.45594000000E+02  0.51100000000E-03 0.  1.
    9900012    2    1    2    0    0 -0.17152455847E+02 -0.56208171596E+01 -0.49880446363E+01  0.72461523652E+02  0.69999939239E+02 0.  0.
         12    1    1    2    0    0  0.17152455847E+02  0.56208171596E+01  0.49880446363E+01  0.18726476348E+02  0.00000000000E+00 0. -1.
         11    1    3    3    0    0 -0.15076301210E+02  0.93471612982E+01 -0.80049234980E+01  0.19461322745E+02  0.51100000000E-03 0. -1.
        -11    1    3    3    0    0  0.21702265453E+02  0.45006235649E+01  0.19558396572E+01  0.22250151624E+02  0.51100000000E-03 0.  1.
        -12    1    3    3    0    0 -0.23778420090E+02 -0.19468602023E+02  0.10610392045E+01  0.30750049283E+02  0.00000000000E+00 0.  1.
</event>
<event>
 7    1  0.1345786E-013  0.7246155E+02  0.7816164E-02  0.1226708E+00
        -11   -1    0    0    0    0  0.00000000000E+00  0.00000000000E+00  0.45593999997E+02  0.45594000000E+02  0.51100000000E-03 0.  1.
         11   -1    0    0    0    0 -0.00000000000E+00 -0.00000000000E+00 -0.45593999997E+02  0.45594000000E+02  0.51100000000E-03 0. -1.
    9900012    2    1    2    0    0 -0.14923188882E+02 -0.93634745225E+01  0.63485272568E+01  0.72461547590E+02  0.69999970423E+02 0.  0.
         12    1    1    2    0    0  0.14923188882E+02  0.93634745225E+01 -0.63485272568E+01  0.18726452410E+02  0.00000000000E+00 0. -1.
         11    1    3    3    0    0 -0.20434092744E+02 -0.27503069242E+02  0.16209386900E+02  0.37904026012E+02  0.51100000000E-03 0. -1.
        -11    1    3    3    0    0  0.88178962422E+01  0.14946526072E+01  0.64443013868E+01  0.11023533970E+02  0.51100000000E-03 0.  1.
         12    1    3    3    0    0 -0.33069923805E+01  0.16644942113E+02 -0.16305161030E+02  0.23533987608E+02  0.00000000000E+00 0. -1.
</event>
<event>
 7    1  0.1345786E-013  0.7246160E+02  0.7816164E-02  0.1226708E+00
        -11   -1    0    0    0    0  0.00000000000E+00  0.00000000000E+00  0.45593999997E+02  0.45594000000E+02  0.51100000000E-03 0.  1.
         11   -1    0    0    0    0 -0.00000000000E+00 -0.00000000000E+00 -0.45593999997E+02  0.45594000000E+02  0.51100000000E-03 0. -1.
    9900012    2    1    2    0    0  0.16663827037E+02  0.76099820003E+01 -0.38837010965E+01  0.72461599071E+02  0.70000037487E+02 0.  0.
         12    1    1    2    0    0 -0.16663827037E+02 -0.76099820003E+01  0.38837010965E+01  0.18726400929E+02  0.00000000000E+00 0. -1.
         11    1    3    3    0    0  0.23461125688E+02  0.23318860587E+02 -0.14561900626E+02  0.36141978746E+02  0.51100000000E-03 0. -1.
        -11    1    3    3    0    0  0.72049217376E+01 -0.64351021271E+01  0.16010085335E+02  0.18698777215E+02  0.51100000000E-03 0.  1.
         12    1    3    3    0    0 -0.14002220389E+02 -0.92737764596E+01 -0.53318858064E+01  0.17620843109E+02  0.00000000000E+00 0. -1.
</event>
<event>
 7    1  0.1345786E-013  0.7246149E+02  0.7816164E-02  0.1226708E+00
        -11   -1    0    0    0    0  0.00000000000E+00  0.00000000000E+00  0.45593999997E+02  0.45594000000E+02  0.51100000000E-03 0.  1.
         11   -1    0    0    0    0 -0.00000000000E+00 -0.00000000000E+00 -0.45593999997E+02  0.45594000000E+02  0.51100000000E-03 0. -1.
    9900012    2    1    2    0    0 -0.10676096572E+02  0.11773582374E+02  0.99038334798E+01  0.72461489446E+02  0.69999894679E+02 0.  0.
         12    1    1    2    0    0  0.10676096572E+02 -0.11773582374E+02 -0.99038334798E+01  0.18726510554E+02  0.00000000000E+00 0. -1.
         11    1    3    3    0    0  0.24073676337E+01 -0.83353341009E+01 -0.91365411848E+00  0.87239886295E+01  0.51100000000E-03 0. -1.
        -11    1    3    3    0    0 -0.18485140548E+02  0.16535242313E+02  0.32628839004E+02  0.40984823952E+02  0.51100000000E-03 0.  1.
        -12    1    3    3    0    0  0.54016763418E+01  0.35736741626E+01 -0.21811351406E+02  0.22752676864E+02  0.00000000000E+00 0.  1.
</event>
<event>
 7    1  0.1345786E-013  0.7246152E+02  0.7816164E-02  0.1226708E+00
        -11   -1    0    0    0    0  0.00000000000E+00  0.00000000000E+00  0.45593999997E+02  0.45594000000E+02  0.51100000000E-03 0.  1.
         11   -1    0    0    0    0 -0.00000000000E+00 -0.00000000000E+00 -0.45593999997E+02  0.45594000000E+02  0.51100000000E-03 0. -1.
    9900012    2    1    2    0    0 -0.10474758979E+02 -0.82625581236E+01  0.13141186910E+02  0.72461515123E+02  0.69999928130E+02 0.  0.
         12    1    1    2    0    0  0.10474758979E+02  0.82625581236E+01 -0.13141186910E+02  0.18726484877E+02  0.00000000000E+00 0. -1.
         11    1    3    3    0    0 -0.30360726047E+02  0.11649657657E+02  0.61486890675E+01  0.33095235113E+02  0.51100000000E-03 0. -1.
        -11    1    3    3    0    0  0.85279281636E+01 -0.17074031020E+02  0.15750837636E+02  0.24745443632E+02  0.51100000000E-03 0.  1.
         12    1    3    3    0    0  0.11358038904E+02 -0.28381847610E+01 -0.87583397932E+01  0.14620836379E+02  0.00000000000E+00 0. -1.
</event>
<event>
 7    1  0.1345786E-013  0.7246151E+02  0.7816164E-02  0.1226708E+00
        -11   -1    0    0    0    0  0.00000000000E+00  0.00000000000E+00  0.45593999997E+02  0.45594000000E+02  0.51100000000E-03 0.  1.
         11   -1    0    0    0    0 -0.00000000000E+00 -0.00000000000E+00 -0.45593999997E+02  0.45594000000E+02  0.51100000000E-03 0. -1.
    9900012    2    1    2    0    0 -0.30583947228E+01  0.18180089240E+02 -0.32881329168E+01  0.72461514982E+02  0.69999927945E+02 0.  0.
         12    1    1    2    0    0  0.30583947228E+01 -0.18180089240E+02  0.32881329168E+01  0.18726485018E+02  0.00000000000E+00 0. -1.
         11    1    3    3    0    0 -0.14016439350E+01  0.29082339807E+02 -0.27669581166E+01  0.29247275973E+02  0.51100000000E-03 0. -1.
        -11    1    3    3    0    0  0.21349005455E+00 -0.15455703171E+02  0.18187619092E+02  0.23868678786E+02  0.51100000000E-03 0.  1.
         12    1    3    3    0    0 -0.18702408423E+01  0.45534526047E+01 -0.18708793892E+02  0.19345560223E+02  0.00000000000E+00 0. -1.
</event>
<event>
 7    1  0.1345786E-013  0.7246157E+02  0.7816164E-02  0.1226708E+00
        -11   -1    0    0    0    0  0.00000000000E+00  0.00000000000E+00  0.45593999997E+02  0.45594000000E+02  0.51100000000E-03 0. -1.
         11   -1    0    0    0    0 -0.00000000000E+00 -0.00000000000E+00 -0.45593999997E+02  0.45594000000E+02  0.51100000000E-03 0.  1.
    9900012    2    1    2    0    0 -0.48517548412E+00 -0.53225380372E+01 -0.17947543768E+02  0.72461571250E+02  0.70000001245E+02 0.  0.
         12    1    1    2    0    0  0.48517548412E+00  0.53225380372E+01  0.17947543768E+02  0.18726428750E+02  0.00000000000E+00 0. -1.
         11    1    3    3    0    0 -0.75826458843E-01 -0.12182693902E+02 -0.77642101290E+01  0.14446686110E+02  0.51100000000E-03 0.  1.
        -11    1    3    3    0    0 -0.96327426847E+00  0.16261344581E+01  0.23674791649E+02  0.23750115168E+02  0.51100000000E-03 0. -1.
        -12    1    3    3    0    0  0.55392524319E+00  0.52340214066E+01 -0.33858125288E+02  0.34264769973E+02  0.00000000000E+00 0.  1.
</event>
<event>
 7    1  0.1345786E-013  0.7246157E+02  0.7816164E-02  0.1226708E+00
        -11   -1    0    0    0    0  0.00000000000E+00  0.00000000000E+00  0.45593999997E+02  0.45594000000E+02  0.51100000000E-03 0. -1.
         11   -1    0    0    0    0 -0.00000000000E+00 -0.00000000000E+00 -0.45593999997E+02  0.45594000000E+02  0.51100000000E-03 0.  1.
    9900012    2    1    2    0    0  0.13984349582E+01  0.94282657223E+01 -0.16119285093E+02  0.72461570367E+02  0.70000000095E+02 0.  0.
         12    1    1    2    0    0 -0.13984349582E+01 -0.94282657223E+01  0.16119285093E+02  0.18726429633E+02  0.00000000000E+00 0. -1.
         11    1    3    3    0    0 -0.19157665804E+02  0.15159908279E+02  0.16960140468E+02  0.29740298301E+02  0.51100000000E-03 0. -1.
        -11    1    3    3    0    0  0.19467299228E+02 -0.10425104605E+02 -0.25419986625E+02  0.33672455591E+02  0.51100000000E-03 0.  1.
        -12    1    3    3    0    0  0.10888015346E+01  0.46934620479E+01 -0.76594389362E+01  0.90488164748E+01  0.00000000000E+00 0.  1.
</event>
<event>
 7    1  0.1345786E-013  0.7246159E+02  0.7816164E-02  0.1226708E+00
        -11   -1    0    0    0    0  0.00000000000E+00  0.00000000000E+00  0.45593999997E+02  0.45594000000E+02  0.51100000000E-03 0. -1.
         11   -1    0    0    0    0 -0.00000000000E+00 -0.00000000000E+00 -0.45593999997E+02  0.45594000000E+02  0.51100000000E-03 0.  1.
    9900012    2    1    2    0    0  0.11912236656E+02  0.70271414739E+01 -0.12625224975E+02  0.72461590705E+02  0.70000026589E+02 0.  0.
         12    1    1    2    0    0 -0.11912236656E+02 -0.70271414739E+01  0.12625224975E+02  0.18726409295E+02  0.00000000000E+00 0. -1.
         11    1    3    3    0    0  0.24486589257E+02  0.20604502247E+02 -0.22383264046E+02  0.39053157054E+02  0.51100000000E-03 0. -1.
        -11    1    3    3    0    0  0.11627417388E+01 -0.13330472360E+02 -0.39987031845E+01  0.13965782796E+02  0.51100000000E-03 0.  1.
         12    1    3    3    0    0 -0.13737094340E+02 -0.24688841365E+00  0.13756742256E+02  0.19442650855E+02  0.00000000000E+00 0. -1.
</event>
<event>
 7    1  0.1345786E-013  0.7246156E+02  0.7816164E-02  0.1226708E+00
        -11   -1    0    0    0    0  0.00000000000E+00  0.00000000000E+00  0.45593999997E+02  0.45594000000E+02  0.51100000000E-03 0.  1.
         11   -1    0    0    0    0 -0.00000000000E+00 -0.00000000000E+00 -0.45593999997E+02  0.45594000000E+02  0.51100000000E-03 0. -1.
    9900012    2    1    2    0    0  0.57178745216E+01  0.48488607676E+01  0.17160245295E+02  0.72461559912E+02  0.69999986475E+02 0.  0.
         12    1    1    2    0    0 -0.57178745216E+01 -0.48488607676E+01 -0.17160245295E+02  0.18726440088E+02  0.00000000000E+00 0. -1.
         11    1    3    3    0    0 -0.23013079113E+00 -0.20461758341E+02  0.32683305203E+02  0.38560795555E+02  0.51100000000E-03 0. -1.
        -11    1    3    3    0    0  0.60574915777E+01  0.27381680615E+02 -0.14760691926E+02  0.31691129105E+02  0.51100000000E-03 0.  1.
         12    1    3    3    0    0 -0.10948626503E+00 -0.20710615068E+01 -0.76236798092E+00  0.22096352517E+01  0.00000000000E+00 0. -1.
</event>
<event>
 7    1  0.1345786E-013  0.7246146E+02  0.7816164E-02  0.1226708E+00
        -11   -1    0    0    0    0  0.00000000000E+00  0.00000000000E+00  0.45593999997E+02  0.45594000000E+02  0.51100000000E-03 0.  1.
         11   -1    0    0    0    0 -0.00000000000E+00 -0.00000000000E+00 -0.45593999997E+02  0.45594000000E+02  0.51100000000E-03 0. -1.
    9900012    2    1    2    0    0  0.86485760731E+01 -0.56696123357E+01  0.15612204514E+02  0.72461459958E+02  0.69999856267E+02 0.  0.
         12    1    1    2    0    0 -0.86485760731E+01  0.56696123357E+01 -0.15612204514E+02  0.18726540042E+02  0.00000000000E+00 0. -1.
         11    1    3    3    0    0  0.85212446307E+01 -0.21727314715E+02  0.27270085927E+02  0.35893528686E+02  0.51100000000E-03 0. -1.
        -11    1    3    3    0    0 -0.91137802114E+01 -0.37280276340E+01 -0.10939882824E+02  0.14718702941E+02  0.51100000000E-03 0.  1.
         12    1    3    3    0    0  0.92411116538E+01  0.19785730013E+02 -0.71799858871E+00  0.21849228332E+02  0.00000000000E+00 0. -1.
</event>
<event>
 7    1  0.1345786E-013  0.7246166E+02  0.7816164E-02  0.1226708E+00
        -11   -1    0    0    0    0  0.00000000000E+00  0.00000000000E+00  0.45593999997E+02  0.45594000000E+02  0.51100000000E-03 0. -1.
         11   -1    0    0    0    0 -0.00000000000E+00 -0.00000000000E+00 -0.45593999997E+02  0.45594000000E+02  0.51100000000E-03 0.  1.
    9900012    2    1    2    0    0  0.58870134322E+01 -0.31570932666E+01 -0.17494326875E+02  0.72461664590E+02  0.70000122838E+02 0.  0.
         12    1    1    2    0    0 -0.58870134322E+01  0.31570932666E+01  0.17494326875E+02  0.18726335410E+02  0.00000000000E+00 0. -1.
         11    1    3    3    0    0 -0.15707586434E+02 -0.46260214833E+01  0.12880703558E+01  0.16425208427E+02  0.51100000000E-03 0. -1.
        -11    1    3    3    0    0  0.33559739548E+02  0.69976986643E+01 -0.24013756892E+02  0.41855518459E+02  0.51100000000E-03 0.  1.
        -12    1    3    3    0    0 -0.11965139682E+02 -0.55287704476E+01  0.52313596612E+01  0.14180937704E+02  0.00000000000E+00 0.  1.
</event>
<event>
 7    1  0.1345786E-013  0.7246102E+02  0.7816164E-02  0.1226709E+00
        -11   -1    0    0    0    0  0.00000000000E+00  0.00000000000E+00  0.45593999997E+02  0.45594000000E+02  0.51100000000E-03 0.  1.
         11   -1    0    0    0    0 -0.00000000000E+00 -0.00000000000E+00 -0.45593999997E+02  0.45594000000E+02  0.51100000000E-03 0. -1.
    9900012    2    1    2    0    0  0.52841186484E+01 -0.12359887816E+02 -0.13038823282E+02  0.72461023488E+02  0.69999287679E+02 0.  0.
         12    1    1    2    0    0 -0.52841186484E+01  0.12359887816E+02  0.13038823282E+02  0.18726976512E+02  0.00000000000E+00 0. -1.
         11    1    3    3    0    0 -0.15558679027E+02  0.21946363456E+02 -0.91965073324E+01  0.28430460943E+02  0.51100000000E-03 0. -1.
        -11    1    3    3    0    0  0.56519926308E+01 -0.64277047754E+01  0.63815783024E+01  0.10676373507E+02  0.51100000000E-03 0.  1.
         12    1    3    3    0    0  0.15190805045E+02 -0.27878546497E+02 -0.10223894252E+02  0.33354189038E+02  0.00000000000E+00 0. -1.
</event>
<event>
 7    1  0.1345786E-013  0.7246155E+02  0.7816164E-02  0.1226708E+00
        -11   -1    0    0    0    0  0.00000000000E+00  0.00000000000E+00  0.45593999997E+02  0.45594000000E+02  0.51100000000E-03 0.  1.
         11   -1    0    0    0    0 -0.00000000000E+00 -0.00000000000E+00 -0.45593999997E+02  0.45594000000E+02  0.51100000000E-03 0. -1.
    9900012    2    1    2    0    0 -0.16076637470E+02 -0.59105411437E+01 -0.75688217598E+01  0.72461552612E+02  0.69999976965E+02 0.  0.
         12    1    1    2    0    0  0.16076637470E+02  0.59105411437E+01  0.75688217598E+01  0.18726447388E+02  0.00000000000E+00 0. -1.
         11    1    3    3    0    0 -0.23714867131E+02 -0.53525914613E+01 -0.24607229244E+02  0.34591341253E+02  0.51100000000E-03 0. -1.
        -11    1    3    3    0    0  0.44451820376E+01  0.13088283711E+02  0.19232767034E+02  0.23684639365E+02  0.51100000000E-03 0.  1.
        -12    1    3    3    0    0  0.31930476231E+01 -0.13646233393E+02 -0.21943595497E+01  0.14185571993E+02  0.00000000000E+00 0.  1.
</event>
<event>
 7    1  0.1345786E-013  0.7246136E+02  0.7816164E-02  0.1226709E+00
        -11   -1    0    0    0    0  0.00000000000E+00  0.00000000000E+00  0.45593999997E+02  0.45594000000E+02  0.51100000000E-03 0.  1.
         11   -1    0    0    0    0 -0.00000000000E+00 -0.00000000000E+00 -0.45593999997E+02  0.45594000000E+02  0.51100000000E-03 0. -1.
    9900012    2    1    2    0    0  0.18105918908E+02  0.28772455994E+01 -0.38189331505E+01  0.72461358760E+02  0.69999724436E+02 0.  0.
         12    1    1    2    0    0 -0.18105918908E+02 -0.28772455994E+01  0.38189331505E+01  0.18726641240E+02  0.00000000000E+00 0. -1.
         11    1    3    3    0    0 -0.47367084214E+01  0.17769651282E+00 -0.70610938959E+00  0.47923452975E+01  0.51100000000E-03 0. -1.
        -11    1    3    3    0    0  0.26730561333E+02  0.53411896710E+01 -0.29906929517E+02  0.40465734265E+02  0.51100000000E-03 0.  1.
        -12    1    3    3    0    0 -0.38879340033E+01 -0.26416405844E+01  0.26794105756E+02  0.27203279197E+02  0.00000000000E+00 0.  1.
</event>
<event>
 7    1  0.1345786E-013  0.7246139E+02  0.7816164E-02  0.1226708E+00
        -11   -1    0    0    0    0  0.00000000000E+00  0.00000000000E+00  0.45593999997E+02  0.45594000000E+02  0.51100000000E-03 0. -1.
         11   -1    0    0    0    0 -0.00000000000E+00 -0.00000000000E+00 -0.45593999997E+02  0.45594000000E+02  0.51100000000E-03 0.  1.
    9900012    2    1    2    0    0 -0.68836094740E+01 -0.16244413215E+02 -0.62785979064E+01  0.72461392411E+02  0.69999768274E+02 0.  0.
         12    1    1    2    0    0  0.68836094740E+01  0.16244413215E+02  0.62785979064E+01  0.18726607589E+02  0.00000000000E+00 0. -1.
         11    1    3    3    0    0  0.14553339650E+02 -0.53123378271E+01 -0.15456904696E+02  0.21884618598E+02  0.51100000000E-03 0. -1.
        -11    1    3    3    0    0 -0.11069334476E+02 -0.26940450319E+02  0.11600769580E+02  0.31351170380E+02  0.51100000000E-03 0.  1.
        -12    1    3    3    0    0 -0.10367614648E+02  0.16008374930E+02 -0.24224627897E+01  0.19225603433E+02  0.00000000000E+00 0.  1.
</event>
<event>
 7    1  0.1345786E-013  0.7246167E+02  0.7816164E-02  0.1226708E+00
        -11   -1    0    0    0    0  0.00000000000E+00  0.00000000000E+00  0.45593999997E+02  0.45594000000E+02  0.51100000000E-03 0.  1.
         11   -1    0    0    0    0 -0.00000000000E+00 -0.00000000000E+00 -0.45593999997E+02  0.45594000000E+02  0.51100000000E-03 0. -1.
    9900012    2    1    2    0    0 -0.14392675150E+02 -0.98919574330E+01  0.67583764534E+01  0.72461666346E+02  0.70000125125E+02 0.  0.
         12    1    1    2    0    0  0.14392675150E+02  0.98919574330E+01 -0.67583764534E+01  0.18726333654E+02  0.00000000000E+00 0. -1.
         11    1    3    3    0    0  0.75219619560E+01  0.14377163810E+02 -0.65917694827E+01  0.17513828138E+02  0.51100000000E-03 0. -1.
        -11    1    3    3    0    0 -0.29519927299E+02 -0.31130335288E+02  0.12419166862E+02  0.44662731541E+02  0.51100000000E-03 0.  1.
        -12    1    3    3    0    0  0.76052901933E+01  0.68612140456E+01  0.93097907424E+00  0.10285106667E+02  0.00000000000E+00 0.  1.
</event>
<event>
 7    1  0.1345786E-013  0.7246151E+02  0.7816164E-02  0.1226708E+00
        -11   -1    0    0    0    0  0.00000000000E+00  0.00000000000E+00  0.45593999997E+02  0.45594000000E+02  0.51100000000E-03 0.  1.
         11   -1    0    0    0    0 -0.00000000000E+00 -0.00000000000E+00 -0.45593999997E+02  0.45594000000E+02  0.51100000000E-03 0. -1.
    9900012    2    1    2    0    0  0.72838130717E+01  0.70751685970E+01  0.15734341995E+02  0.72461509097E+02  0.69999920278E+02 0.  0.
         12    1    1    2    0    0 -0.72838130717E+01 -0.70751685970E+01 -0.15734341995E+02  0.18726490903E+02  0.00000000000E+00 0. -1.
         11    1    3    3    0    0  0.14794433492E+02 -0.15723106878E+02 -0.12089481677E+02  0.24743623820E+02  0.51100000000E-03 0. -1.
        -11    1    3    3    0    0 -0.11439051407E+01  0.28982204194E+02  0.25304984554E+02  0.38491803315E+02  0.51100000000E-03 0.  1.
         12    1    3    3    0    0 -0.63667152800E+01 -0.61839287192E+01  0.25188391174E+01  0.92260819615E+01  0.00000000000E+00 0. -1.
</event>
<event>
 7    1  0.1345786E-013  0.7246123E+02  0.7816164E-02  0.1226709E+00
        -11   -1    0    0    0    0  0.00000000000E+00  0.00000000000E+00  0.45593999997E+02  0.45594000000E+02  0.51100000000E-03 0.  1.
         11   -1    0    0    0    0 -0.00000000000E+00 -0.00000000000E+00 -0.45593999997E+02  0.45594000000E+02  0.51100000000E-03 0. -1.
    9900012    2    1    2    0    0  0.86089064343E+01  0.57635717095E+01  0.15599993702E+02  0.72461232197E+02  0.69999559564E+02 0.  0.
         12    1    1    2    0    0 -0.86089064343E+01 -0.57635717095E+01 -0.15599993702E+02  0.18726767803E+02  0.00000000000E+00 0. -1.
         11    1    3    3    0    0 -0.19760957529E+02 -0.17244209407E+02 -0.41883000396E+01  0.26559368554E+02  0.51100000000E-03 0.  1.
        -11    1    3    3    0    0  0.19704633255E+02  0.25415221470E+02  0.13244327267E+02  0.34779566689E+02  0.51100000000E-03 0. -1.
        -12    1    3    3    0    0  0.86652307084E+01 -0.24074403541E+01  0.65439664748E+01  0.11122296953E+02  0.00000000000E+00 0.  1.
</event>
<event>
 7    1  0.1345786E-013  0.7246156E+02  0.7816164E-02  0.1226708E+00
        -11   -1    0    0    0    0  0.00000000000E+00  0.00000000000E+00  0.45593999997E+02  0.45594000000E+02  0.51100000000E-03 0.  1.
         11   -1    0    0    0    0 -0.00000000000E+00 -0.00000000000E+00 -0.45593999997E+02  0.45594000000E+02  0.51100000000E-03 0. -1.
    9900012    2    1    2    0    0 -0.13210459285E+02 -0.50825452532E+01  0.12260955699E+02  0.72461560525E+02  0.69999987273E+02 0.  0.
         12    1    1    2    0    0  0.13210459285E+02  0.50825452532E+01 -0.12260955699E+02  0.18726439475E+02  0.00000000000E+00 0. -1.
         11    1    3    3    0    0 -0.19004090336E+02 -0.84348701990E+01 -0.15596633486E+02  0.25991488244E+02  0.51100000000E-03 0. -1.
        -11    1    3    3    0    0  0.16838989036E+02  0.12717769351E+02  0.96445954780E+01  0.23201539415E+02  0.51100000000E-03 0.  1.
         12    1    3    3    0    0 -0.11045357986E+02 -0.93654444055E+01  0.18212993707E+02  0.23268532866E+02  0.00000000000E+00 0. -1.
</event>
<event>
 7    1  0.1345786E-013  0.7246144E+02  0.7816164E-02  0.1226708E+00
        -11   -1    0    0    0    0  0.00000000000E+00  0.00000000000E+00  0.45593999997E+02  0.45594000000E+02  0.51100000000E-03 0. -1.
         11   -1    0    0    0    0 -0.00000000000E+00 -0.00000000000E+00 -0.45593999997E+02  0.45594000000E+02  0.51100000000E-03 0.  1.
    9900012    2    1    2    0    0 -0.15623734448E+02 -0.47356729729E+01 -0.91736682899E+01  0.72461444884E+02  0.69999836630E+02 0.  0.
         12    1    1    2    0    0  0.15623734448E+02  0.47356729729E+01  0.91736682899E+01  0.18726555116E+02  0.00000000000E+00 0. -1.
         11    1    3    3    0    0  0.93278606575E+01  0.11059644977E+02  0.86271495613E+01  0.16844952992E+02  0.51100000000E-03 0. -1.
        -11    1    3    3    0    0 -0.10084418600E+02 -0.14928470872E+02 -0.30909610882E+02  0.35776511656E+02  0.51100000000E-03 0.  1.
        -12    1    3    3    0    0 -0.14867176505E+02 -0.86684707782E+00  0.13108793031E+02  0.19839980237E+02  0.00000000000E+00 0.  1.
</event>
<event>
 7    1  0.1345786E-013  0.7246147E+02  0.7816164E-02  0.1226708E+00
        -11   -1    0    0    0    0  0.00000000000E+00  0.00000000000E+00  0.45593999997E+02  0.45594000000E+02  0.51100000000E-03 0. -1.
         11   -1    0    0    0    0 -0.00000000000E+00 -0.00000000000E+00 -0.45593999997E+02  0.45594000000E+02  0.51100000000E-03 0.  1.
    9900012    2    1    2    0    0 -0.97957010977E+01 -0.81034095363E+01 -0.13749984534E+02  0.72461465863E+02  0.69999863958E+02 0.  0.
         12    1    1    2    0    0  0.97957010977E+01  0.81034095363E+01  0.13749984534E+02  0.18726534137E+02  0.00000000000E+00 0. -1.
         11    1    3    3    0    0 -0.65211034452E+01  0.15202299598E+01  0.33343994763E+01  0.74802479505E+01  0.51100000000E-03 0. -1.
        -11    1    3    3    0    0  0.25926397559E+02 -0.14490075647E+02  0.19852787219E+01  0.29767124727E+02  0.51100000000E-03 0.  1.
        -12    1    3    3    0    0 -0.29200995212E+02  0.48664361508E+01 -0.19069662732E+02  0.35214093185E+02  0.00000000000E+00 0.  1.
</event>
<event>
 7    1  0.1345786E-013  0.7246158E+02  0.7816164E-02  0.1226708E+00
        -11   -1    0    0    0    0  0.00000000000E+00  0.00000000000E+00  0.45593999997E+02  0.45594000000E+02  0.51100000000E-03 0. -1.
         11   -1    0    0    0    0 -0.00000000000E+00 -0.00000000000E+00 -0.45593999997E+02  0.45594000000E+02  0.51100000000E-03 0.  1.
    9900012    2    1    2    0    0  0.79430218637E+01 -0.48671884276E+01 -0.16244923757E+02  0.72461583701E+02  0.70000017465E+02 0.  0.
         12    1    1    2    0    0 -0.79430218637E+01  0.48671884276E+01  0.16244923757E+02  0.18726416299E+02  0.00000000000E+00 0. -1.
         11    1    3    3    0    0  0.97388760476E+01 -0.23694034863E+01  0.25092904366E+02  0.27020614896E+02  0.51100000000E-03 0. -1.
        -11    1    3    3    0    0  0.58570030564E+00  0.46343737669E+01 -0.35797564584E+02  0.36101053939E+02  0.51100000000E-03 0.  1.
         12    1    3    3    0    0 -0.23815544895E+01 -0.71321587083E+01 -0.55402635393E+01  0.93399148664E+01  0.00000000000E+00 0. -1.
</event>
<event>
 7    1  0.1345786E-013  0.7246151E+02  0.7816164E-02  0.1226708E+00
        -11   -1    0    0    0    0  0.00000000000E+00  0.00000000000E+00  0.45593999997E+02  0.45594000000E+02  0.51100000000E-03 0.  1.
         11   -1    0    0    0    0 -0.00000000000E+00 -0.00000000000E+00 -0.45593999997E+02  0.45594000000E+02  0.51100000000E-03 0. -1.
    9900012    2    1    2    0    0 -0.14282406485E+02  0.83424492922E+01  0.87805438542E+01  0.72461506854E+02  0.69999917357E+02 0.  0.
         12    1    1    2    0    0  0.14282406485E+02 -0.83424492922E+01 -0.87805438542E+01  0.18726493146E+02  0.00000000000E+00 0. -1.
         11    1    3    3    0    0 -0.21806240802E+02  0.19627562881E+02  0.22952419673E+02  0.37250059485E+02  0.51100000000E-03 0. -1.
        -11    1    3    3    0    0  0.16602521675E+02 -0.13139719421E+02 -0.41751601454E+01  0.21580730176E+02  0.51100000000E-03 0.  1.
         12    1    3    3    0    0 -0.90786873576E+01  0.18546058325E+01 -0.99967156735E+01  0.13630717193E+02  0.00000000000E+00 0. -1.
</event>
<event>
 7    1  0.1345786E-013  0.7246157E+02  0.7816164E-02  0.1226708E+00
        -11   -1    0    0    0    0  0.00000000000E+00  0.00000000000E+00  0.45593999997E+02  0.45594000000E+02  0.51100000000E-03 0. -1.
         11   -1    0    0    0    0 -0.00000000000E+00 -0.00000000000E+00 -0.45593999997E+02  0.45594000000E+02  0.51100000000E-03 0.  1.
    9900012    2    1    2    0    0  0.14451055058E+02  0.27310919800E+00 -0.11906792251E+02  0.72461567274E+02  0.69999996066E+02 0.  0.
         12    1    1    2    0    0 -0.14451055058E+02 -0.27310919800E+00  0.11906792251E+02  0.18726432726E+02  0.00000000000E+00 0. -1.
         11    1    3    3    0    0  0.23133508882E+02 -0.91455852867E+01  0.46917409395E+01  0.25314292341E+02  0.51100000000E-03 0. -1.
        -11    1    3    3    0    0 -0.15979076239E+02 -0.12968425261E+02 -0.80267563120E+01  0.22089358260E+02  0.51100000000E-03 0.  1.
        -12    1    3    3    0    0  0.72966224154E+01  0.22387119745E+02 -0.85717768782E+01  0.25057916674E+02  0.00000000000E+00 0.  1.
</event>
<event>
 7    1  0.1345786E-013  0.7246157E+02  0.7816164E-02  0.1226708E+00
        -11   -1    0    0    0    0  0.00000000000E+00  0.00000000000E+00  0.45593999997E+02  0.45594000000E+02  0.51100000000E-03 0.  1.
         11   -1    0    0    0    0 -0.00000000000E+00 -0.00000000000E+00 -0.45593999997E+02  0.45594000000E+02  0.51100000000E-03 0. -1.
    9900012    2    1    2    0    0 -0.54397714997E+01  0.16955905331E+02 -0.57952908552E+01  0.72461568529E+02  0.69999997700E+02 0.  0.
         12    1    1    2    0    0  0.54397714997E+01 -0.16955905331E+02  0.57952908552E+01  0.18726431471E+02  0.00000000000E+00 0. -1.
         11    1    3    3    0    0 -0.27086568820E+02  0.80839945192E+01 -0.56063227108E+01  0.28817772857E+02  0.51100000000E-03 0. -1.
        -11    1    3    3    0    0  0.25618569486E+02  0.82750356015E+01 -0.13230923157E+02  0.29997410631E+02  0.51100000000E-03 0.  1.
         12    1    3    3    0    0 -0.39717721657E+01  0.59687521010E+00  0.13041955012E+02  0.13646385041E+02  0.00000000000E+00 0. -1.
</event>
<event>
 7    1  0.1345786E-013  0.7246154E+02  0.7816164E-02  0.1226708E+00
        -11   -1    0    0    0    0  0.00000000000E+00  0.00000000000E+00  0.45593999997E+02  0.45594000000E+02  0.51100000000E-03 0. -1.
         11   -1    0    0    0    0 -0.00000000000E+00 -0.00000000000E+00 -0.45593999997E+02  0.45594000000E+02  0.51100000000E-03 0.  1.
    9900012    2    1    2    0    0  0.42281261941E+01  0.12536595351E+02  0.13252816706E+02  0.72461536780E+02  0.69999956341E+02 0.  0.
         12    1    1    2    0    0 -0.42281261941E+01 -0.12536595351E+02 -0.13252816706E+02  0.18726463220E+02  0.00000000000E+00 0. -1.
         11    1    3    3    0    0  0.15554505608E+02  0.99739689123E+00  0.19191332483E+02  0.24723363202E+02  0.51100000000E-03 0. -1.
        -11    1    3    3    0    0 -0.20251117885E+02  0.20796571192E+02  0.66104033116E+01  0.29770834404E+02  0.51100000000E-03 0.  1.
        -12    1    3    3    0    0  0.89247384705E+01 -0.92573727326E+01 -0.12548919089E+02  0.17967339174E+02  0.00000000000E+00 0.  1.
</event>
<event>
 7    1  0.1345786E-013  0.7246141E+02  0.7816164E-02  0.1226708E+00
        -11   -1    0    0    0    0  0.00000000000E+00  0.00000000000E+00  0.45593999997E+02  0.45594000000E+02  0.51100000000E-03 0.  1.
         11   -1    0    0    0    0 -0.00000000000E+00 -0.00000000000E+00 -0.45593999997E+02  0.45594000000E+02  0.51100000000E-03 0. -1.
    9900012    2    1    2    0    0 -0.12668225461E+02  0.12673405804E+02 -0.54393000337E+01  0.72461410993E+02  0.69999792480E+02 0.  0.
         12    1    1    2    0    0  0.12668225461E+02 -0.12673405804E+02  0.54393000337E+01  0.18726589007E+02  0.00000000000E+00 0. -1.
         11    1    3    3    0    0 -0.31723587742E+01 -0.25300624321E+02  0.11047769437E+01  0.25522656280E+02  0.51100000000E-03 0. -1.
        -11    1    3    3    0    0 -0.50220712528E+01  0.14984400741E+02  0.96017982172E+01  0.18491835888E+02  0.51100000000E-03 0.  1.
         12    1    3    3    0    0 -0.44737954338E+01  0.22989629384E+02 -0.16145875195E+02  0.28446918825E+02  0.00000000000E+00 0. -1.
</event>
<event>
 7    1  0.1345786E-013  0.7246158E+02  0.7816164E-02  0.1226708E+00
        -11   -1    0    0    0    0  0.00000000000E+00  0.00000000000E+00  0.45593999997E+02  0.45594000000E+02  0.51100000000E-03 0. -1.
         11   -1    0    0    0    0 -0.00000000000E+00 -0.00000000000E+00 -0.45593999997E+02  0.45594000000E+02  0.51100000000E-03 0.  1.
    9900012    2    1    2    0    0 -0.16059713488E+02  0.39685437951E+01  0.87758319891E+01  0.72461575774E+02  0.70000007139E+02 0.  0.
         12    1    1    2    0    0  0.16059713488E+02 -0.39685437951E+01 -0.87758319891E+01  0.18726424226E+02  0.00000000000E+00 0. -1.
         11    1    3    3    0    0 -0.13476536475E+02 -0.22353912053E+02  0.27521354014E+02  0.37930717716E+02  0.51100000000E-03 0. -1.
        -11    1    3    3    0    0 -0.59643271218E+01  0.79801872920E+01 -0.39243766844E+01  0.10707815830E+02  0.51100000000E-03 0.  1.
         12    1    3    3    0    0  0.33811501085E+01  0.18342268556E+02 -0.14821145340E+02  0.23823042229E+02  0.00000000000E+00 0. -1.
</event>
<event>
 7    1  0.1345786E-013  0.7246158E+02  0.7816164E-02  0.1226708E+00
        -11   -1    0    0    0    0  0.00000000000E+00  0.00000000000E+00  0.45593999997E+02  0.45594000000E+02  0.51100000000E-03 0.  1.
         11   -1    0    0    0    0 -0.00000000000E+00 -0.00000000000E+00 -0.45593999997E+02  0.45594000000E+02  0.51100000000E-03 0. -1.
    9900012    2    1    2    0    0 -0.30590945507E+01  0.17786152037E+02  0.49973563412E+01  0.72461579249E+02  0.70000011665E+02 0.  0.
         12    1    1    2    0    0  0.30590945507E+01 -0.17786152037E+02 -0.49973563412E+01  0.18726420751E+02  0.00000000000E+00 0. -1.
         11    1    3    3    0    0 -0.33732140736E+01 -0.15939476860E+02  0.68595020427E+01  0.17677620437E+02  0.51100000000E-03 0. -1.
        -11    1    3    3    0    0  0.11285032466E+02  0.40374796481E+02 -0.15954218522E+01  0.41952610405E+02  0.51100000000E-03 0.  1.
        -12    1    3    3    0    0 -0.10970912943E+02 -0.66491675839E+01 -0.26672384929E+00  0.12831348408E+02  0.00000000000E+00 0.  1.
</event>
<event>
 7    1  0.1345786E-013  0.7246158E+02  0.7816164E-02  0.1226708E+00
        -11   -1    0    0    0    0  0.00000000000E+00  0.00000000000E+00  0.45593999997E+02  0.45594000000E+02  0.51100000000E-03 0.  1.
         11   -1    0    0    0    0 -0.00000000000E+00 -0.00000000000E+00 -0.45593999997E+02  0.45594000000E+02  0.51100000000E-03 0. -1.
    9900012    2    1    2    0    0 -0.10291802313E+02  0.13700477483E+02  0.75534412337E+01  0.72461581426E+02  0.70000014502E+02 0.  0.
         12    1    1    2    0    0  0.10291802313E+02 -0.13700477483E+02 -0.75534412337E+01  0.18726418574E+02  0.00000000000E+00 0. -1.
         11    1    3    3    0    0  0.11896398628E+02  0.56312102054E+01  0.28542022449E+01  0.13467787473E+02  0.51100000000E-03 0. -1.
        -11    1    3    3    0    0 -0.23166143569E+02 -0.51355045793E+01 -0.19958243867E+02  0.31006049630E+02  0.51100000000E-03 0.  1.
        -12    1    3    3    0    0  0.97794262812E+00  0.13204771857E+02  0.24657482855E+02  0.27987744324E+02  0.00000000000E+00 0.  1.
</event>
<event>
 7    1  0.1345786E-013  0.7246154E+02  0.7816164E-02  0.1226708E+00
        -11   -1    0    0    0    0  0.00000000000E+00  0.00000000000E+00  0.45593999997E+02  0.45594000000E+02  0.51100000000E-03 0. -1.
         11   -1    0    0    0    0 -0.00000000000E+00 -0.00000000000E+00 -0.45593999997E+02  0.45594000000E+02  0.51100000000E-03 0.  1.
    9900012    2    1    2    0    0  0.43170529934E+01 -0.30983041258E+01 -0.17956718865E+02  0.72461543117E+02  0.69999964596E+02 0.  0.
         12    1    1    2    0    0 -0.43170529934E+01  0.30983041258E+01  0.17956718865E+02  0.18726456883E+02  0.00000000000E+00 0. -1.
         11    1    3    3    0    0  0.24463840205E+01 -0.17741026415E+02  0.95432665757E+01  0.20292923649E+02  0.51100000000E-03 0. -1.
        -11    1    3    3    0    0  0.74627781855E+01  0.26901807426E+02 -0.26763677992E+02  0.38674213127E+02  0.51100000000E-03 0.  1.
         12    1    3    3    0    0 -0.55921092127E+01 -0.12259085136E+02 -0.73630744863E+00  0.13494406341E+02  0.00000000000E+00 0. -1.
</event>
<event>
 7    1  0.1345786E-013  0.7246158E+02  0.7816164E-02  0.1226708E+00
        -11   -1    0    0    0    0  0.00000000000E+00  0.00000000000E+00  0.45593999997E+02  0.45594000000E+02  0.51100000000E-03 0. -1.
         11   -1    0    0    0    0 -0.00000000000E+00 -0.00000000000E+00 -0.45593999997E+02  0.45594000000E+02  0.51100000000E-03 0.  1.
    9900012    2    1    2    0    0 -0.12315478401E+02 -0.85063486358E+01 -0.11253880718E+02  0.72461579985E+02  0.70000012624E+02 0.  0.
         12    1    1    2    0    0  0.12315478401E+02  0.85063486358E+01  0.11253880718E+02  0.18726420015E+02  0.00000000000E+00 0. -1.
         11    1    3    3    0    0 -0.22647737908E+02 -0.50456446590E+01  0.17241218110E+01  0.23266954219E+02  0.51100000000E-03 0.  1.
        -11    1    3    3    0    0  0.18563226699E+01  0.16863655804E+02 -0.19863288056E+02  0.26122385680E+02  0.51100000000E-03 0. -1.
         12    1    3    3    0    0  0.84759368366E+01 -0.20324359781E+02  0.68852855278E+01  0.23072240086E+02  0.00000000000E+00 0. -1.
</event>
<event>
 7    1  0.1345786E-013  0.7246162E+02  0.7816164E-02  0.1226708E+00
        -11   -1    0    0    0    0  0.00000000000E+00  0.00000000000E+00  0.45593999997E+02  0.45594000000E+02  0.51100000000E-03 0. -1.
         11   -1    0    0    0    0 -0.00000000000E+00 -0.00000000000E+00 -0.45593999997E+02  0.45594000000E+02  0.51100000000E-03 0.  1.
    9900012    2    1    2    0    0 -0.17638611759E+02 -0.28104638086E+01 -0.56265472989E+01  0.72461618446E+02  0.70000062727E+02 0.  0.
         12    1    1    2    0    0  0.17638611759E+02  0.28104638086E+01  0.56265472989E+01  0.18726381554E+02  0.00000000000E+00 0. -1.
         11    1    3    3    0    0  0.23080262216E+02  0.11279348317E+02 -0.98382738420E+01  0.27508432069E+02  0.51100000000E-03 0. -1.
        -11    1    3    3    0    0 -0.14142549833E+02 -0.60648231202E+01 -0.41896885578E+01  0.15948269051E+02  0.51100000000E-03 0.  1.
         12    1    3    3    0    0 -0.26576324142E+02 -0.80249890053E+01  0.84014151009E+01  0.29004917327E+02  0.00000000000E+00 0. -1.
</event>
<event>
 7    1  0.1345786E-013  0.7246145E+02  0.7816164E-02  0.1226708E+00
        -11   -1    0    0    0    0  0.00000000000E+00  0.00000000000E+00  0.45593999997E+02  0.45594000000E+02  0.51100000000E-03 0.  1.
         11   -1    0    0    0    0 -0.00000000000E+00 -0.00000000000E+00 -0.45593999997E+02  0.45594000000E+02  0.51100000000E-03 0. -1.
    9900012    2    1    2    0    0 -0.14465472742E+01 -0.18568157027E+02  0.19531774827E+01  0.72461445147E+02  0.69999836972E+02 0.  0.
         12    1    1    2    0    0  0.14465472742E+01  0.18568157027E+02 -0.19531774827E+01  0.18726554853E+02  0.00000000000E+00 0. -1.
         11    1    3    3    0    0  0.12807117533E+02 -0.17726126758E+02 -0.12321129443E+02  0.25100758163E+02  0.51100000000E-03 0. -1.
        -11    1    3    3    0    0 -0.90567344536E+01  0.16301707212E+02  0.21127428678E+02  0.28180460248E+02  0.51100000000E-03 0.  1.
        -12    1    3    3    0    0 -0.51969303534E+01 -0.17143737481E+02 -0.68531217522E+01  0.19180226737E+02  0.00000000000E+00 0.  1.
</event>
<event>
 7    1  0.1345786E-013  0.7246157E+02  0.7816164E-02  0.1226708E+00
        -11   -1    0    0    0    0  0.00000000000E+00  0.00000000000E+00  0.45593999997E+02  0.45594000000E+02  0.51100000000E-03 0.  1.
         11   -1    0    0    0    0 -0.00000000000E+00 -0.00000000000E+00 -0.45593999997E+02  0.45594000000E+02  0.51100000000E-03 0. -1.
    9900012    2    1    2    0    0 -0.12759993338E+02  0.33791682045E+01  0.13283188411E+02  0.72461566755E+02  0.69999995389E+02 0.  0.
         12    1    1    2    0    0  0.12759993338E+02 -0.33791682045E+01 -0.13283188411E+02  0.18726433245E+02  0.00000000000E+00 0. -1.
         11    1    3    3    0    0  0.14744845944E+02  0.33261949010E+01  0.23963608287E+02  0.28332465068E+02  0.51100000000E-03 0. -1.
        -11    1    3    3    0    0 -0.25873403570E+02 -0.10837297078E+00  0.66554337194E+01  0.26715904537E+02  0.51100000000E-03 0.  1.
         12    1    3    3    0    0 -0.16314357116E+01  0.16134627426E+00 -0.17335853596E+02  0.17413197150E+02  0.00000000000E+00 0. -1.
</event>
<event>
 7    1  0.1345786E-013  0.7246158E+02  0.7816164E-02  0.1226708E+00
        -11   -1    0    0    0    0  0.00000000000E+00  0.00000000000E+00  0.45593999997E+02  0.45594000000E+02  0.51100000000E-03 0. -1.
         11   -1    0    0    0    0 -0.00000000000E+00 -0.00000000000E+00 -0.45593999997E+02  0.45594000000E+02  0.51100000000E-03 0.  1.
    9900012    2    1    2    0    0  0.12347525551E+02 -0.53850840195E+00 -0.14068662153E+02  0.72461584611E+02  0.70000018650E+02 0.  0.
         12    1    1    2    0    0 -0.12347525551E+02  0.53850840195E+00  0.14068662153E+02  0.18726415389E+02  0.00000000000E+00 0. -1.
         11    1    3    3    0    0  0.25993608123E+02  0.58721210790E+01 -0.33824604689E+02  0.43061042159E+02  0.51100000000E-03 0. -1.
        -11    1    3    3    0    0 -0.11124463524E+02  0.17292317040E+01  0.49087317980E+01  0.12281676559E+02  0.51100000000E-03 0.  1.
         12    1    3    3    0    0 -0.25216190475E+01 -0.81398611850E+01  0.14847210738E+02  0.17118865892E+02  0.00000000000E+00 0. -1.
</event>
<event>
 7    1  0.1345786E-013  0.7246158E+02  0.7816164E-02  0.1226708E+00
        -11   -1    0    0    0    0  0.00000000000E+00  0.00000000000E+00  0.45593999997E+02  0.45594000000E+02  0.51100000000E-03 0.  1.
         11   -1    0    0    0    0 -0.00000000000E+00 -0.00000000000E+00 -0.45593999997E+02  0.45594000000E+02  0.51100000000E-03 0. -1.
    9900012    2    1    2    0    0  0.18001355560E+02 -0.13147519151E+01  0.49901511330E+01  0.72461575276E+02  0.70000006490E+02 0.  0.
         12    1    1    2    0    0 -0.18001355560E+02  0.13147519151E+01 -0.49901511330E+01  0.18726424724E+02  0.00000000000E+00 0. -1.
         11    1    3    3    0    0  0.65973485034E+01  0.80666263137E+01 -0.29047214687E+02  0.30859944081E+02  0.51100000000E-03 0. -1.
        -11    1    3    3    0    0  0.87783491378E+01  0.38914545687E+01  0.90946446060E+01  0.13225558325E+02  0.51100000000E-03 0.  1.
         12    1    3    3    0    0  0.26256579190E+01 -0.13272832797E+02  0.24942721214E+02  0.28376072870E+02  0.00000000000E+00 0. -1.
</event>
<event>
 7    1  0.1345786E-013  0.7246163E+02  0.7816164E-02  0.1226708E+00
        -11   -1    0    0    0    0  0.00000000000E+00  0.00000000000E+00  0.45593999997E+02  0.45594000000E+02  0.51100000000E-03 0. -1.
         11   -1    0    0    0    0 -0.00000000000E+00 -0.00000000000E+00 -0.45593999997E+02  0.45594000000E+02  0.51100000000E-03 0.  1.
    9900012    2    1    2    0    0  0.16426381152E+02 -0.89493713931E+01 -0.87170254591E+00  0.72461625247E+02  0.70000071585E+02 0.  0.
         12    1    1    2    0    0 -0.16426381152E+02  0.89493713931E+01  0.87170254591E+00  0.18726374753E+02  0.00000000000E+00 0. -1.
         11    1    3    3    0    0  0.14106671597E+01  0.57550909630E+00  0.31271470520E+02  0.31308562108E+02  0.51100000000E-03 0. -1.
        -11    1    3    3    0    0 -0.25414712288E+01 -0.71464905305E+01 -0.13137302601E+02  0.15169710702E+02  0.51100000000E-03 0.  1.
         12    1    3    3    0    0  0.17557185221E+02 -0.23783899589E+01 -0.19005870465E+02  0.25983352436E+02  0.00000000000E+00 0. -1.
</event>
<event>
 8    1  0.1345786E-013  0.7246152E+02  0.7816164E-02  0.1226708E+00
        -11   -1    0    0    0    0  0.00000000000E+00  0.00000000000E+00  0.45593999997E+02  0.45594000000E+02  0.51100000000E-03 0. -1.
         11   -1    0    0    0    0 -0.00000000000E+00 -0.00000000000E+00 -0.45593999997E+02  0.45594000000E+02  0.51100000000E-03 0.  1.
    9900012    2    1    2    0    0 -0.95998982346E+01  0.10458099601E+02 -0.12212740416E+02  0.72461523507E+02  0.69999939050E+02 0.  0.
        -24    2    3    3    0    0 -0.14300443368E+02  0.80339341227E+01 -0.22195409453E+02  0.61164382976E+02  0.54583869101E+02 0.  0.
         12    1    1    2    0    0  0.95998982346E+01 -0.10458099601E+02  0.12212740416E+02  0.18726476493E+02  0.00000000000E+00 0. -1.
         11    1    4    4    0    0 -0.29615511300E+02  0.18055985708E+02 -0.24851857797E+02  0.42669801566E+02  0.51100000000E-03 0.  1.
        -11    1    3    3    0    0  0.47005451333E+01  0.24241654784E+01  0.99826690364E+01  0.11297140531E+02  0.51100000000E-03 0. -1.
        -12    1    4    4    0    0  0.15315067932E+02 -0.10022051585E+02  0.26564483447E+01  0.18494581410E+02  0.00000000000E+00 0.  1.
</event>
<event>
 7    1  0.1345786E-013  0.7246159E+02  0.7816164E-02  0.1226708E+00
        -11   -1    0    0    0    0  0.00000000000E+00  0.00000000000E+00  0.45593999997E+02  0.45594000000E+02  0.51100000000E-03 0.  1.
         11   -1    0    0    0    0 -0.00000000000E+00 -0.00000000000E+00 -0.45593999997E+02  0.45594000000E+02  0.51100000000E-03 0. -1.
    9900012    2    1    2    0    0  0.14280195762E+02 -0.26823503070E+01  0.11813530497E+02  0.72461588252E+02  0.70000023393E+02 0.  0.
         12    1    1    2    0    0 -0.14280195762E+02  0.26823503070E+01 -0.11813530497E+02  0.18726411748E+02  0.00000000000E+00 0. -1.
         11    1    3    3    0    0 -0.21415525705E+02 -0.13801934707E+02  0.11663492053E+02  0.28020620800E+02  0.51100000000E-03 0.  1.
        -11    1    3    3    0    0  0.34519727693E+02  0.89781719650E+01  0.77135202404E+01  0.36492705663E+02  0.51100000000E-03 0. -1.
         12    1    3    3    0    0  0.11759937736E+01  0.21414124349E+01 -0.75634817969E+01  0.79482617888E+01  0.00000000000E+00 0. -1.
</event>
<event>
 7    1  0.1345786E-013  0.7246158E+02  0.7816164E-02  0.1226708E+00
        -11   -1    0    0    0    0  0.00000000000E+00  0.00000000000E+00  0.45593999997E+02  0.45594000000E+02  0.51100000000E-03 0. -1.
         11   -1    0    0    0    0 -0.00000000000E+00 -0.00000000000E+00 -0.45593999997E+02  0.45594000000E+02  0.51100000000E-03 0.  1.
    9900012    2    1    2    0    0  0.10653228707E+02 -0.14866519396E+02 -0.40217272675E+01  0.72461575594E+02  0.70000006903E+02 0.  0.
         12    1    1    2    0    0 -0.10653228707E+02  0.14866519396E+02  0.40217272675E+01  0.18726424406E+02  0.00000000000E+00 0. -1.
         11    1    3    3    0    0 -0.26485385824E+02 -0.55778124933E+01  0.43844429450E+01  0.27419172028E+02  0.51100000000E-03 0. -1.
        -11    1    3    3    0    0  0.20977122415E+02 -0.57950419773E+00 -0.14714673585E+02  0.25630004075E+02  0.51100000000E-03 0.  1.
         12    1    3    3    0    0  0.16161492116E+02 -0.87092027050E+01  0.63085033724E+01  0.19412399491E+02  0.00000000000E+00 0. -1.
</event>
<event>
 7    1  0.1345786E-013  0.7246162E+02  0.7816164E-02  0.1226708E+00
        -11   -1    0    0    0    0  0.00000000000E+00  0.00000000000E+00  0.45593999997E+02  0.45594000000E+02  0.51100000000E-03 0. -1.
         11   -1    0    0    0    0 -0.00000000000E+00 -0.00000000000E+00 -0.45593999997E+02  0.45594000000E+02  0.51100000000E-03 0.  1.
    9900012    2    1    2    0    0 -0.34754176195E+01 -0.18274634963E+02 -0.21532821514E+01  0.72461616615E+02  0.70000060341E+02 0.  0.
         12    1    1    2    0    0  0.34754176195E+01  0.18274634963E+02  0.21532821514E+01  0.18726383385E+02  0.00000000000E+00 0. -1.
         11    1    3    3    0    0 -0.10230514545E+02  0.45890608333E+01  0.22238731243E+02  0.24905502901E+02  0.51100000000E-03 0. -1.
        -11    1    3    3    0    0  0.14563914157E+02 -0.27541706179E+02 -0.22013406676E+02  0.38147650630E+02  0.51100000000E-03 0.  1.
        -12    1    3    3    0    0 -0.78088172318E+01  0.46780103826E+01 -0.23786067181E+01  0.94084630848E+01  0.00000000000E+00 0.  1.
</event>
<event>
 7    1  0.1345786E-013  0.7246147E+02  0.7816164E-02  0.1226708E+00
        -11   -1    0    0    0    0  0.00000000000E+00  0.00000000000E+00  0.45593999997E+02  0.45594000000E+02  0.51100000000E-03 0. -1.
         11   -1    0    0    0    0 -0.00000000000E+00 -0.00000000000E+00 -0.45593999997E+02  0.45594000000E+02  0.51100000000E-03 0.  1.
    9900012    2    1    2    0    0 -0.74046902430E+01 -0.40231912191E+01 -0.16723255446E+02  0.72461473950E+02  0.69999874494E+02 0.  0.
         12    1    1    2    0    0  0.74046902430E+01  0.40231912191E+01  0.16723255446E+02  0.18726526050E+02  0.00000000000E+00 0. -1.
         11    1    3    3    0    0  0.15492195959E+02  0.74822506813E+00 -0.38191939642E+01  0.15973547482E+02  0.51100000000E-03 0. -1.
        -11    1    3    3    0    0 -0.32524071889E+02 -0.17635796129E+02 -0.19651301341E+01  0.37049943239E+02  0.51100000000E-03 0.  1.
        -12    1    3    3    0    0  0.96271856873E+01  0.12864379842E+02 -0.10938931347E+02  0.19437983229E+02  0.00000000000E+00 0.  1.
</event>
<event>
 7    1  0.1345786E-013  0.7246157E+02  0.7816164E-02  0.1226708E+00
        -11   -1    0    0    0    0  0.00000000000E+00  0.00000000000E+00  0.45593999997E+02  0.45594000000E+02  0.51100000000E-03 0. -1.
         11   -1    0    0    0    0 -0.00000000000E+00 -0.00000000000E+00 -0.45593999997E+02  0.45594000000E+02  0.51100000000E-03 0.  1.
    9900012    2    1    2    0    0  0.13603326474E+01 -0.50792494321E+01 -0.17973033574E+02  0.72461569065E+02  0.69999998399E+02 0.  0.
         12    1    1    2    0    0 -0.13603326474E+01  0.50792494321E+01  0.17973033574E+02  0.18726430935E+02  0.00000000000E+00 0. -1.
         11    1    3    3    0    0 -0.93950495531E+01 -0.85677888886E+01 -0.66874217711E+01  0.14366473915E+02  0.51100000000E-03 0.  1.
        -11    1    3    3    0    0  0.93973026654E+01 -0.13649945494E+02  0.17792576479E+02  0.24314729845E+02  0.51100000000E-03 0. -1.
        -12    1    3    3    0    0  0.13580795351E+01  0.17138484951E+02 -0.29078188282E+02  0.33780365306E+02  0.00000000000E+00 0.  1.
</event>
<event>
 7    1  0.1345786E-013  0.7246153E+02  0.7816164E-02  0.1226708E+00
        -11   -1    0    0    0    0  0.00000000000E+00  0.00000000000E+00  0.45593999997E+02  0.45594000000E+02  0.51100000000E-03 0.  1.
         11   -1    0    0    0    0 -0.00000000000E+00 -0.00000000000E+00 -0.45593999997E+02  0.45594000000E+02  0.51100000000E-03 0. -1.
    9900012    2    1    2    0    0 -0.50697140183E+01 -0.47561505657E+01  0.17388439199E+02  0.72461527128E+02  0.69999943768E+02 0.  0.
         12    1    1    2    0    0  0.50697140183E+01  0.47561505657E+01 -0.17388439199E+02  0.18726472872E+02  0.00000000000E+00 0. -1.
         11    1    3    3    0    0 -0.21950411799E+02  0.10744368599E+02  0.55245321278E+01  0.25055588004E+02  0.51100000000E-03 0. -1.
        -11    1    3    3    0    0  0.95660703183E+01 -0.10416451628E+02 -0.14091457534E+02  0.19964502036E+02  0.51100000000E-03 0.  1.
         12    1    3    3    0    0  0.73146274628E+01 -0.50840675367E+01  0.25955364606E+02  0.27441437088E+02  0.00000000000E+00 0. -1.
</event>
<event>
 7    1  0.1345786E-013  0.7246153E+02  0.7816164E-02  0.1226708E+00
        -11   -1    0    0    0    0  0.00000000000E+00  0.00000000000E+00  0.45593999997E+02  0.45594000000E+02  0.51100000000E-03 0.  1.
         11   -1    0    0    0    0 -0.00000000000E+00 -0.00000000000E+00 -0.45593999997E+02  0.45594000000E+02  0.51100000000E-03 0. -1.
    9900012    2    1    2    0    0  0.68518474679E+01  0.17375231800E+02  0.13543131380E+01  0.72461530554E+02  0.69999948231E+02 0.  0.
         12    1    1    2    0    0 -0.68518474679E+01 -0.17375231800E+02 -0.13543131380E+01  0.18726469446E+02  0.00000000000E+00 0. -1.
         11    1    3    3    0    0  0.43306055560E+01  0.22201983726E+02 -0.11880066245E+02  0.25550307241E+02  0.51100000000E-03 0. -1.
        -11    1    3    3    0    0  0.12610551436E+02  0.12291102010E+01  0.26381956518E+02  0.29266778938E+02  0.51100000000E-03 0.  1.
        -12    1    3    3    0    0 -0.10089309524E+02 -0.60558621274E+01 -0.13147577135E+02  0.17644444375E+02  0.00000000000E+00 0.  1.
</event>
<event>
 7    1  0.1345786E-013  0.7246159E+02  0.7816164E-02  0.1226708E+00
        -11   -1    0    0    0    0  0.00000000000E+00  0.00000000000E+00  0.45593999997E+02  0.45594000000E+02  0.51100000000E-03 0.  1.
         11   -1    0    0    0    0 -0.00000000000E+00 -0.00000000000E+00 -0.45593999997E+02  0.45594000000E+02  0.51100000000E-03 0. -1.
    9900012    2    1    2    0    0  0.13318338398E+02 -0.13015531464E+02 -0.19738958419E+01  0.72461589191E+02  0.70000024617E+02 0.  0.
         12    1    1    2    0    0 -0.13318338398E+02  0.13015531464E+02  0.19738958419E+01  0.18726410809E+02  0.00000000000E+00 0. -1.
         11    1    3    3    0    0  0.24542062565E+02 -0.12553974543E+02 -0.22955110191E+02  0.35872722170E+02  0.51100000000E-03 0. -1.
        -11    1    3    3    0    0 -0.53604131150E+01 -0.12982379179E+02  0.17295634472E+02  0.22280376342E+02  0.51100000000E-03 0.  1.
        -12    1    3    3    0    0 -0.58633110517E+01  0.12520822257E+02  0.36855798773E+01  0.14308490679E+02  0.00000000000E+00 0.  1.
</event>
<event>
 7    1  0.1345786E-013  0.7246153E+02  0.7816164E-02  0.1226708E+00
        -11   -1    0    0    0    0  0.00000000000E+00  0.00000000000E+00  0.45593999997E+02  0.45594000000E+02  0.51100000000E-03 0.  1.
         11   -1    0    0    0    0 -0.00000000000E+00 -0.00000000000E+00 -0.45593999997E+02  0.45594000000E+02  0.51100000000E-03 0. -1.
    9900012    2    1    2    0    0 -0.82069674925E+01 -0.93258251198E+01  0.14012678930E+02  0.72461534760E+02  0.69999953710E+02 0.  0.
         12    1    1    2    0    0  0.82069674925E+01  0.93258251198E+01 -0.14012678930E+02  0.18726465240E+02  0.00000000000E+00 0. -1.
         11    1    3    3    0    0 -0.21809672503E+02 -0.30640328234E+02  0.96178493733E+01  0.38820027766E+02  0.51100000000E-03 0. -1.
        -11    1    3    3    0    0  0.14844853611E+02  0.62036592350E+01  0.81299433431E+01  0.18026398577E+02  0.51100000000E-03 0.  1.
        -12    1    3    3    0    0 -0.12421486008E+01  0.15110843879E+02 -0.37351137868E+01  0.15615108417E+02  0.00000000000E+00 0.  1.
</event>
<event>
 7    1  0.1345786E-013  0.7246156E+02  0.7816164E-02  0.1226708E+00
        -11   -1    0    0    0    0  0.00000000000E+00  0.00000000000E+00  0.45593999997E+02  0.45594000000E+02  0.51100000000E-03 0.  1.
         11   -1    0    0    0    0 -0.00000000000E+00 -0.00000000000E+00 -0.45593999997E+02  0.45594000000E+02  0.51100000000E-03 0. -1.
    9900012    2    1    2    0    0  0.18582398106E+02  0.72860781212E+00 -0.22007202713E+01  0.72461559911E+02  0.69999986474E+02 0.  0.
         12    1    1    2    0    0 -0.18582398106E+02 -0.72860781212E+00  0.22007202713E+01  0.18726440089E+02  0.00000000000E+00 0. -1.
         11    1    3    3    0    0 -0.83573710389E+01  0.12992292478E+02  0.56330395984E+00  0.15458416029E+02  0.51100000000E-03 0. -1.
        -11    1    3    3    0    0  0.27059395605E+02 -0.46674442342E+01  0.19368775845E+02  0.33602758877E+02  0.51100000000E-03 0.  1.
         12    1    3    3    0    0 -0.11962646027E+00 -0.75962404314E+01 -0.22132800076E+02  0.23400385005E+02  0.00000000000E+00 0. -1.
</event>
<event>
 7    1  0.1345786E-013  0.7246142E+02  0.7816164E-02  0.1226708E+00
        -11   -1    0    0    0    0  0.00000000000E+00  0.00000000000E+00  0.45593999997E+02  0.45594000000E+02  0.51100000000E-03 0.  1.
         11   -1    0    0    0    0 -0.00000000000E+00 -0.00000000000E+00 -0.45593999997E+02  0.45594000000E+02  0.51100000000E-03 0. -1.
    9900012    2    1    2    0    0 -0.17064745758E+02  0.75703007281E+01 -0.14730820710E+01  0.72461415376E+02  0.69999798189E+02 0.  0.
         12    1    1    2    0    0  0.17064745758E+02 -0.75703007281E+01  0.14730820710E+01  0.18726584624E+02  0.00000000000E+00 0. -1.
         11    1    3    3    0    0  0.19322454360E+01 -0.60832474995E+01 -0.23872243840E+01  0.68145662434E+01  0.51100000000E-03 0. -1.
        -11    1    3    3    0    0 -0.30366456502E+02  0.28391415514E+02 -0.11669906222E+02  0.43178476893E+02  0.51100000000E-03 0.  1.
        -12    1    3    3    0    0  0.11369465308E+02 -0.14737867286E+02  0.12584048535E+02  0.22468372239E+02  0.00000000000E+00 0.  1.
</event>
<event>
 7    1  0.1345786E-013  0.7246158E+02  0.7816164E-02  0.1226708E+00
        -11   -1    0    0    0    0  0.00000000000E+00  0.00000000000E+00  0.45593999997E+02  0.45594000000E+02  0.51100000000E-03 0.  1.
         11   -1    0    0    0    0 -0.00000000000E+00 -0.00000000000E+00 -0.45593999997E+02  0.45594000000E+02  0.51100000000E-03 0. -1.
    9900012    2    1    2    0    0 -0.50326759191E+01 -0.17056986282E+01  0.17956658395E+02  0.72461579749E+02  0.70000012316E+02 0.  0.
         12    1    1    2    0    0  0.50326759191E+01  0.17056986282E+01 -0.17956658395E+02  0.18726420251E+02  0.00000000000E+00 0. -1.
         11    1    3    3    0    0  0.76082461023E+01  0.20269734468E+02 -0.13160953125E+02  0.25336894671E+02  0.51100000000E-03 0. -1.
        -11    1    3    3    0    0 -0.14012771152E+02 -0.12224227222E+02  0.32235224650E+02  0.37214233769E+02  0.51100000000E-03 0.  1.
        -12    1    3    3    0    0  0.13718491306E+01 -0.97512058737E+01 -0.11176131293E+01  0.99104513084E+01  0.00000000000E+00 0.  1.
</event>
<event>
 7    1  0.1345786E-013  0.7246158E+02  0.7816164E-02  0.1226708E+00
        -11   -1    0    0    0    0  0.00000000000E+00  0.00000000000E+00  0.45593999997E+02  0.45594000000E+02  0.51100000000E-03 0.  1.
         11   -1    0    0    0    0 -0.00000000000E+00 -0.00000000000E+00 -0.45593999997E+02  0.45594000000E+02  0.51100000000E-03 0. -1.
    9900012    2    1    2    0    0 -0.12762745215E+02 -0.12885793354E+02  0.46634215676E+01  0.72461579186E+02  0.70000011583E+02 0.  0.
         12    1    1    2    0    0  0.12762745215E+02  0.12885793354E+02 -0.46634215676E+01  0.18726420814E+02  0.00000000000E+00 0. -1.
         11    1    3    3    0    0  0.41750224334E+01 -0.49848953880E+01 -0.15547066909E+02  0.16852040947E+02  0.51100000000E-03 0. -1.
        -11    1    3    3    0    0 -0.24983744605E+02  0.57488329243E+01  0.27991562617E+02  0.37957399180E+02  0.51100000000E-03 0.  1.
        -12    1    3    3    0    0  0.80459769566E+01 -0.13649730890E+02 -0.77810741404E+01  0.17652139058E+02  0.00000000000E+00 0.  1.
</event>
<event>
 7    1  0.1345786E-013  0.7246154E+02  0.7816164E-02  0.1226708E+00
        -11   -1    0    0    0    0  0.00000000000E+00  0.00000000000E+00  0.45593999997E+02  0.45594000000E+02  0.51100000000E-03 0. -1.
         11   -1    0    0    0    0 -0.00000000000E+00 -0.00000000000E+00 -0.45593999997E+02  0.45594000000E+02  0.51100000000E-03 0.  1.
    9900012    2    1    2    0    0  0.12900799427E+02  0.13128073811E+02 -0.34501011102E+01  0.72461544235E+02  0.69999966053E+02 0.  0.
         12    1    1    2    0    0 -0.12900799427E+02 -0.13128073811E+02  0.34501011102E+01  0.18726455765E+02  0.00000000000E+00 0. -1.
         11    1    3    3    0    0 -0.19059296688E+01  0.48014919370E+01  0.22214926829E+02  0.22807671231E+02  0.51100000000E-03 0. -1.
        -11    1    3    3    0    0  0.36363801099E+01  0.12977249324E+02 -0.32901821783E+02  0.35555057829E+02  0.51100000000E-03 0.  1.
        -12    1    3    3    0    0  0.11170348986E+02 -0.46506674505E+01  0.72367938438E+01  0.14098815175E+02  0.00000000000E+00 0.  1.
</event>
<event>
 7    1  0.1345786E-013  0.7246161E+02  0.7816164E-02  0.1226708E+00
        -11   -1    0    0    0    0  0.00000000000E+00  0.00000000000E+00  0.45593999997E+02  0.45594000000E+02  0.51100000000E-03 0. -1.
         11   -1    0    0    0    0 -0.00000000000E+00 -0.00000000000E+00 -0.45593999997E+02  0.45594000000E+02  0.51100000000E-03 0.  1.
    9900012    2    1    2    0    0 -0.91776979999E+01  0.24792195890E+00 -0.16321337353E+02  0.72461610629E+02  0.70000052543E+02 0.  0.
         12    1    1    2    0    0  0.91776979999E+01 -0.24792195890E+00  0.16321337353E+02  0.18726389371E+02  0.00000000000E+00 0. -1.
         11    1    3    3    0    0  0.28846288023E+02  0.96187665526E+00 -0.95478402250E+01  0.30400572242E+02  0.51100000000E-03 0. -1.
        -11    1    3    3    0    0 -0.32366913003E+02 -0.67936695031E+01 -0.40392850115E+01  0.33317965519E+02  0.51100000000E-03 0.  1.
         12    1    3    3    0    0 -0.56570730201E+01  0.60797148068E+01 -0.27342121169E+01  0.87430728686E+01  0.00000000000E+00 0. -1.
</event>
<event>
 7    1  0.1345786E-013  0.7246156E+02  0.7816164E-02  0.1226708E+00
        -11   -1    0    0    0    0  0.00000000000E+00  0.00000000000E+00  0.45593999997E+02  0.45594000000E+02  0.51100000000E-03 0. -1.
         11   -1    0    0    0    0 -0.00000000000E+00 -0.00000000000E+00 -0.45593999997E+02  0.45594000000E+02  0.51100000000E-03 0.  1.
    9900012    2    1    2    0    0  0.18466981983E+02  0.64668328568E+00 -0.30384304995E+01  0.72461556591E+02  0.69999982149E+02 0.  0.
         12    1    1    2    0    0 -0.18466981983E+02 -0.64668328568E+00  0.30384304995E+01  0.18726443409E+02  0.00000000000E+00 0. -1.
         11    1    3    3    0    0 -0.17251163783E+01  0.91867518267E+00  0.83961497269E+01  0.86206334517E+01  0.51100000000E-03 0. -1.
        -11    1    3    3    0    0  0.18937474208E+02 -0.15187219172E+02 -0.30894406852E+02  0.39290506876E+02  0.51100000000E-03 0.  1.
        -12    1    3    3    0    0  0.12546241532E+01  0.14915227275E+02  0.19459826625E+02  0.24550416264E+02  0.00000000000E+00 0.  1.
</event>
<event>
 7    1  0.1345786E-013  0.7246158E+02  0.7816164E-02  0.1226708E+00
        -11   -1    0    0    0    0  0.00000000000E+00  0.00000000000E+00  0.45593999997E+02  0.45594000000E+02  0.51100000000E-03 0.  1.
         11   -1    0    0    0    0 -0.00000000000E+00 -0.00000000000E+00 -0.45593999997E+02  0.45594000000E+02  0.51100000000E-03 0. -1.
    9900012    2    1    2    0    0  0.14872507160E+01  0.40763592298E+01  0.18216757744E+02  0.72461577972E+02  0.70000010002E+02 0.  0.
         12    1    1    2    0    0 -0.14872507160E+01 -0.40763592298E+01 -0.18216757744E+02  0.18726422028E+02  0.00000000000E+00 0. -1.
         11    1    3    3    0    0 -0.24323945713E+02 -0.63446304834E+01  0.16160887594E+02  0.29884493623E+02  0.51100000000E-03 0.  1.
        -11    1    3    3    0    0  0.23721611820E+02  0.10793258015E+02 -0.11765038198E+02  0.28594149926E+02  0.51100000000E-03 0. -1.
         12    1    3    3    0    0  0.20895846091E+01 -0.37226830193E+00  0.13820908348E+02  0.13982934423E+02  0.00000000000E+00 0. -1.
</event>
<event>
 7    1  0.1345786E-013  0.7246157E+02  0.7816164E-02  0.1226708E+00
        -11   -1    0    0    0    0  0.00000000000E+00  0.00000000000E+00  0.45593999997E+02  0.45594000000E+02  0.51100000000E-03 0. -1.
         11   -1    0    0    0    0 -0.00000000000E+00 -0.00000000000E+00 -0.45593999997E+02  0.45594000000E+02  0.51100000000E-03 0.  1.
    9900012    2    1    2    0    0  0.86659147570E+01  0.16599827666E+02 -0.16427641575E+00  0.72461565640E+02  0.69999993936E+02 0.  0.
         12    1    1    2    0    0 -0.86659147570E+01 -0.16599827666E+02  0.16427641575E+00  0.18726434360E+02  0.00000000000E+00 0. -1.
         11    1    3    3    0    0 -0.18016134597E+01  0.33115991084E+02  0.21846812525E+00  0.33165681135E+02  0.51100000000E-03 0. -1.
        -11    1    3    3    0    0  0.14165714355E+02 -0.23270032425E+02 -0.80726191897E+01  0.28413536441E+02  0.51100000000E-03 0.  1.
        -12    1    3    3    0    0 -0.36981861382E+01  0.67538690066E+01  0.76898746487E+01  0.10882348064E+02  0.00000000000E+00 0.  1.
</event>
<event>
 7    1  0.1386700E-013  0.7246155E+02  0.7816164E-02  0.1226708E+00
        -11   -1    0    0    0    0  0.00000000000E+00  0.00000000000E+00  0.45593999997E+02  0.45594000000E+02  0.51100000000E-03 0. -1.
         11   -1    0    0    0    0 -0.00000000000E+00 -0.00000000000E+00 -0.45593999997E+02  0.45594000000E+02  0.51100000000E-03 0.  1.
    9900012    2    1    2    0    0 -0.14672211784E+02  0.11869505708E+01 -0.11575722526E+02  0.72461548059E+02  0.69999971035E+02 0.  0.
         12    1    1    2    0    0  0.14672211784E+02 -0.11869505708E+01  0.11575722526E+02  0.18726451941E+02  0.00000000000E+00 0. -1.
         11    1    3    3    0    0  0.13470117163E+02  0.27181600887E+01  0.14716573659E+02  0.20134795533E+02  0.51100000000E-03 0. -1.
        -11    1    3    3    0    0 -0.19037753160E+02  0.15616947583E+02 -0.20572034947E+02  0.32086347865E+02  0.51100000000E-03 0.  1.
        -12    1    3    3    0    0 -0.91045757871E+01 -0.17148157101E+02 -0.57202612373E+01  0.20240404661E+02  0.00000000000E+00 0.  1.
</event>
<event>
 7    1  0.1345786E-013  0.7246155E+02  0.7816164E-02  0.1226708E+00
        -11   -1    0    0    0    0  0.00000000000E+00  0.00000000000E+00  0.45593999997E+02  0.45594000000E+02  0.51100000000E-03 0.  1.
         11   -1    0    0    0    0 -0.00000000000E+00 -0.00000000000E+00 -0.45593999997E+02  0.45594000000E+02  0.51100000000E-03 0. -1.
    9900012    2    1    2    0    0 -0.14332495169E+02 -0.43361961799E+01  0.11245310901E+02  0.72461547257E+02  0.69999969989E+02 0.  0.
         12    1    1    2    0    0  0.14332495169E+02  0.43361961799E+01 -0.11245310901E+02  0.18726452743E+02  0.00000000000E+00 0. -1.
         11    1    3    3    0    0  0.13389672177E+02 -0.41728502931E+01 -0.19045222003E+02  0.23651986851E+02  0.51100000000E-03 0. -1.
        -11    1    3    3    0    0 -0.84783854669E+01  0.11869617159E+02  0.66279999410E+01  0.16021897987E+02  0.51100000000E-03 0.  1.
         12    1    3    3    0    0 -0.19243781879E+02 -0.12032963046E+02  0.23662532963E+02  0.32787662419E+02  0.00000000000E+00 0. -1.
</event>
<event>
 7    1  0.1345786E-013  0.7246160E+02  0.7816164E-02  0.1226708E+00
        -11   -1    0    0    0    0  0.00000000000E+00  0.00000000000E+00  0.45593999997E+02  0.45594000000E+02  0.51100000000E-03 0.  1.
         11   -1    0    0    0    0 -0.00000000000E+00 -0.00000000000E+00 -0.45593999997E+02  0.45594000000E+02  0.51100000000E-03 0. -1.
    9900012    2    1    2    0    0 -0.64790691033E+01  0.17078048204E+02  0.41279745403E+01  0.72461595094E+02  0.70000032306E+02 0.  0.
         12    1    1    2    0    0  0.64790691033E+01 -0.17078048204E+02 -0.41279745403E+01  0.18726404906E+02  0.00000000000E+00 0. -1.
         11    1    3    3    0    0 -0.18967067412E+02 -0.95536736237E+01 -0.21989499310E+02  0.30570580729E+02  0.51100000000E-03 0. -1.
        -11    1    3    3    0    0  0.79557587259E+01  0.26371591018E+02  0.25038755523E+02  0.37224913541E+02  0.51100000000E-03 0.  1.
         12    1    3    3    0    0  0.45322395830E+01  0.26013080908E+00  0.10787183277E+01  0.46661008247E+01  0.00000000000E+00 0. -1.
</event>
<event>
 7    1  0.1345786E-013  0.7246157E+02  0.7816164E-02  0.1226708E+00
        -11   -1    0    0    0    0  0.00000000000E+00  0.00000000000E+00  0.45593999997E+02  0.45594000000E+02  0.51100000000E-03 0. -1.
         11   -1    0    0    0    0 -0.00000000000E+00 -0.00000000000E+00 -0.45593999997E+02  0.45594000000E+02  0.51100000000E-03 0.  1.
    9900012    2    1    2    0    0 -0.17385874476E+02  0.67109922080E+01 -0.18366354417E+01  0.72461567412E+02  0.69999996246E+02 0.  0.
         12    1    1    2    0    0  0.17385874476E+02 -0.67109922080E+01  0.18366354417E+01  0.18726432588E+02  0.00000000000E+00 0. -1.
         11    1    3    3    0    0 -0.81806526975E+01 -0.73563020404E+01  0.17331823191E+02  0.20528768926E+02  0.51100000000E-03 0. -1.
        -11    1    3    3    0    0 -0.25774564858E+02  0.94665379267E+01 -0.21099501012E+02  0.34628492274E+02  0.51100000000E-03 0.  1.
         12    1    3    3    0    0  0.16569343079E+02  0.46007563217E+01  0.19310423799E+01  0.17304306212E+02  0.00000000000E+00 0. -1.
</event>
<event>
 7    1  0.1345786E-013  0.7246150E+02  0.7816164E-02  0.1226708E+00
        -11   -1    0    0    0    0  0.00000000000E+00  0.00000000000E+00  0.45593999997E+02  0.45594000000E+02  0.51100000000E-03 0. -1.
         11   -1    0    0    0    0 -0.00000000000E+00 -0.00000000000E+00 -0.45593999997E+02  0.45594000000E+02  0.51100000000E-03 0.  1.
    9900012    2    1    2    0    0  0.60831402642E+00  0.11684395646E+02 -0.14621439930E+02  0.72461503980E+02  0.69999913613E+02 0.  0.
         12    1    1    2    0    0 -0.60831402642E+00 -0.11684395646E+02  0.14621439930E+02  0.18726496020E+02  0.00000000000E+00 0. -1.
         11    1    3    3    0    0 -0.18367569418E+02  0.20101514976E+02 -0.33059146266E+01  0.27429319759E+02  0.51100000000E-03 0. -1.
        -11    1    3    3    0    0  0.25160194918E+02  0.59003645944E+01 -0.13708580188E+02  0.29253630231E+02  0.51100000000E-03 0.  1.
         12    1    3    3    0    0 -0.61843114736E+01 -0.14317483924E+02  0.23930548849E+01  0.15778553990E+02  0.00000000000E+00 0. -1.
</event>
<event>
 7    1  0.1345786E-013  0.7246153E+02  0.7816164E-02  0.1226708E+00
        -11   -1    0    0    0    0  0.00000000000E+00  0.00000000000E+00  0.45593999997E+02  0.45594000000E+02  0.51100000000E-03 0. -1.
         11   -1    0    0    0    0 -0.00000000000E+00 -0.00000000000E+00 -0.45593999997E+02  0.45594000000E+02  0.51100000000E-03 0.  1.
    9900012    2    1    2    0    0 -0.15486266901E+02 -0.55364981333E+01  0.89556354888E+01  0.72461529934E+02  0.69999947424E+02 0.  0.
         12    1    1    2    0    0  0.15486266901E+02  0.55364981333E+01 -0.89556354888E+01  0.18726470066E+02  0.00000000000E+00 0. -1.
         11    1    3    3    0    0  0.46119624057E+01 -0.20306233378E+01  0.10555409006E+02  0.11696593004E+02  0.51100000000E-03 0. -1.
        -11    1    3    3    0    0 -0.22269856076E+02 -0.10260560251E+02 -0.25772085833E+02  0.35572826634E+02  0.51100000000E-03 0.  1.
        -12    1    3    3    0    0  0.21716267692E+01  0.67546854551E+01  0.24172312316E+02  0.25192110296E+02  0.00000000000E+00 0.  1.
</event>
<event>
 7    1  0.1345786E-013  0.7246190E+02  0.7816164E-02  0.1226707E+00
        -11   -1    0    0    0    0  0.00000000000E+00  0.00000000000E+00  0.45593999997E+02  0.45594000000E+02  0.51100000000E-03 0. -1.
         11   -1    0    0    0    0 -0.00000000000E+00 -0.00000000000E+00 -0.45593999997E+02  0.45594000000E+02  0.51100000000E-03 0.  1.
    9900012    2    1    2    0    0 -0.54548412784E+00 -0.88052637828E+01 -0.16517765552E+02  0.72461900511E+02  0.70000430168E+02 0.  0.
         12    1    1    2    0    0  0.54548412784E+00  0.88052637828E+01  0.16517765552E+02  0.18726099489E+02  0.00000000000E+00 0. -1.
         11    1    3    3    0    0  0.12507460404E+02  0.25253982421E+02 -0.38190857702E+01  0.28439156286E+02  0.51100000000E-03 0.  1.
        -11    1    3    3    0    0 -0.16879799084E+02 -0.30378256301E+02 -0.56677850143E+01  0.35212069809E+02  0.51100000000E-03 0. -1.
        -12    1    3    3    0    0  0.38268545519E+01 -0.36809899029E+01 -0.70308947677E+01  0.88106744158E+01  0.00000000000E+00 0.  1.
</event>
<event>
 7    1  0.1345786E-013  0.7246165E+02  0.7816164E-02  0.1226708E+00
        -11   -1    0    0    0    0  0.00000000000E+00  0.00000000000E+00  0.45593999997E+02  0.45594000000E+02  0.51100000000E-03 0.  1.
         11   -1    0    0    0    0 -0.00000000000E+00 -0.00000000000E+00 -0.45593999997E+02  0.45594000000E+02  0.51100000000E-03 0. -1.
    9900012    2    1    2    0    0 -0.12631744691E+02 -0.13696022330E+02 -0.18799216333E+01  0.72461652066E+02  0.70000106523E+02 0.  0.
         12    1    1    2    0    0  0.12631744691E+02  0.13696022330E+02  0.18799216333E+01  0.18726347934E+02  0.00000000000E+00 0. -1.
         11    1    3    3    0    0  0.36299400750E+01  0.14143795306E+02  0.10858446832E+02  0.18196957946E+02  0.51100000000E-03 0. -1.
        -11    1    3    3    0    0 -0.57016278630E+01 -0.32675748538E+01 -0.24266581298E+02  0.25140655797E+02  0.51100000000E-03 0.  1.
        -12    1    3    3    0    0 -0.10560056903E+02 -0.24572242782E+02  0.11528212833E+02  0.29124038323E+02  0.00000000000E+00 0.  1.
</event>
<event>
 7    1  0.1345786E-013  0.7246158E+02  0.7816164E-02  0.1226708E+00
        -11   -1    0    0    0    0  0.00000000000E+00  0.00000000000E+00  0.45593999997E+02  0.45594000000E+02  0.51100000000E-03 0. -1.
         11   -1    0    0    0    0 -0.00000000000E+00 -0.00000000000E+00 -0.45593999997E+02  0.45594000000E+02  0.51100000000E-03 0.  1.
    9900012    2    1    2    0    0  0.14065175934E+02  0.40198163281E+00 -0.12356699584E+02  0.72461580484E+02  0.70000013274E+02 0.  0.
         12    1    1    2    0    0 -0.14065175934E+02 -0.40198163281E+00  0.12356699584E+02  0.18726419516E+02  0.00000000000E+00 0. -1.
         11    1    3    3    0    0  0.14790417450E+02 -0.51476977819E+01  0.25157269355E+02  0.29633485155E+02  0.51100000000E-03 0. -1.
        -11    1    3    3    0    0 -0.89180435625E+01  0.77881228874E+01 -0.25505975122E+02  0.28120119599E+02  0.51100000000E-03 0.  1.
         12    1    3    3    0    0  0.81928020466E+01 -0.22384434727E+01 -0.12007993816E+02  0.14707975729E+02  0.00000000000E+00 0. -1.
</event>
<event>
 7    1  0.1345786E-013  0.7246166E+02  0.7816164E-02  0.1226708E+00
        -11   -1    0    0    0    0  0.00000000000E+00  0.00000000000E+00  0.45593999997E+02  0.45594000000E+02  0.51100000000E-03 0.  1.
         11   -1    0    0    0    0 -0.00000000000E+00 -0.00000000000E+00 -0.45593999997E+02  0.45594000000E+02  0.51100000000E-03 0. -1.
    9900012    2    1    2    0    0 -0.46634964230E+01  0.64181139060E+01  0.16962765644E+02  0.72461660174E+02  0.70000117084E+02 0.  0.
         12    1    1    2    0    0  0.46634964230E+01 -0.64181139060E+01 -0.16962765644E+02  0.18726339826E+02  0.00000000000E+00 0. -1.
         11    1    3    3    0    0 -0.21584954045E+02  0.24294974182E+02  0.58858860592E+01  0.33027256420E+02  0.51100000000E-03 0. -1.
        -11    1    3    3    0    0 -0.28711726742E+01 -0.16699879627E+02  0.47775298252E+00  0.16951632967E+02  0.51100000000E-03 0.  1.
         12    1    3    3    0    0  0.19792630297E+02 -0.11769806488E+01  0.10599126602E+02  0.22482770787E+02  0.00000000000E+00 0. -1.
</event>
<event>
 7    1  0.1345786E-013  0.7246158E+02  0.7816164E-02  0.1226708E+00
        -11   -1    0    0    0    0  0.00000000000E+00  0.00000000000E+00  0.45593999997E+02  0.45594000000E+02  0.51100000000E-03 0. -1.
         11   -1    0    0    0    0 -0.00000000000E+00 -0.00000000000E+00 -0.45593999997E+02  0.45594000000E+02  0.51100000000E-03 0.  1.
    9900012    2    1    2    0    0 -0.17234011153E+02 -0.69968818418E+00 -0.72923400335E+01  0.72461576766E+02  0.70000008430E+02 0.  0.
         12    1    1    2    0    0  0.17234011153E+02  0.69968818418E+00  0.72923400335E+01  0.18726423234E+02  0.00000000000E+00 0. -1.
         11    1    3    3    0    0 -0.20865972079E+02  0.21724359881E+02  0.18667722676E+02  0.35437557382E+02  0.51100000000E-03 0. -1.
        -11    1    3    3    0    0  0.27570581206E+01 -0.21524525082E+01  0.65303833954E+00  0.35582131210E+01  0.51100000000E-03 0.  1.
         12    1    3    3    0    0  0.87490280547E+00 -0.20271595557E+02 -0.26613101049E+02  0.33465806262E+02  0.00000000000E+00 0. -1.
</event>
<event>
 7    1  0.1345786E-013  0.7246170E+02  0.7816164E-02  0.1226708E+00
        -11   -1    0    0    0    0  0.00000000000E+00  0.00000000000E+00  0.45593999997E+02  0.45594000000E+02  0.51100000000E-03 0. -1.
         11   -1    0    0    0    0 -0.00000000000E+00 -0.00000000000E+00 -0.45593999997E+02  0.45594000000E+02  0.51100000000E-03 0.  1.
    9900012    2    1    2    0    0 -0.80932736571E+01  0.69572004917E+00 -0.16872730216E+02  0.72461704856E+02  0.70000175291E+02 0.  0.
         12    1    1    2    0    0  0.80932736571E+01 -0.69572004917E+00  0.16872730216E+02  0.18726295144E+02  0.00000000000E+00 0. -1.
         11    1    3    3    0    0 -0.42727582611E+01  0.18190155544E+02  0.29261870492E+01  0.18912979480E+02  0.51100000000E-03 0. -1.
        -11    1    3    3    0    0 -0.15215013457E+01 -0.26544449986E+02 -0.29752083620E+02  0.39901243983E+02  0.51100000000E-03 0.  1.
         12    1    3    3    0    0 -0.22990140502E+01  0.90500144908E+01  0.99531663550E+01  0.13647481393E+02  0.00000000000E+00 0. -1.
</event>
<event>
 7    1  0.1345786E-013  0.7246156E+02  0.7816164E-02  0.1226708E+00
        -11   -1    0    0    0    0  0.00000000000E+00  0.00000000000E+00  0.45593999997E+02  0.45594000000E+02  0.51100000000E-03 0. -1.
         11   -1    0    0    0    0 -0.00000000000E+00 -0.00000000000E+00 -0.45593999997E+02  0.45594000000E+02  0.51100000000E-03 0.  1.
    9900012    2    1    2    0    0 -0.58258510896E+01  0.13769352970E+02 -0.11275808468E+02  0.72461562038E+02  0.69999989245E+02 0.  0.
         12    1    1    2    0    0  0.58258510896E+01 -0.13769352970E+02  0.11275808468E+02  0.18726437962E+02  0.00000000000E+00 0. -1.
         11    1    3    3    0    0 -0.10443283840E+02  0.22897853842E+01 -0.21551211672E+01  0.10906412883E+02  0.51100000000E-03 0. -1.
        -11    1    3    3    0    0  0.19984528766E+02  0.11338538556E+01  0.19185171778E+02  0.27726121816E+02  0.51100000000E-03 0.  1.
        -12    1    3    3    0    0 -0.15367096016E+02  0.10345713730E+02 -0.28305859078E+02  0.33829027339E+02  0.00000000000E+00 0.  1.
</event>
<event>
 7    1  0.1345786E-013  0.7246159E+02  0.7816164E-02  0.1226708E+00
        -11   -1    0    0    0    0  0.00000000000E+00  0.00000000000E+00  0.45593999997E+02  0.45594000000E+02  0.51100000000E-03 0.  1.
         11   -1    0    0    0    0 -0.00000000000E+00 -0.00000000000E+00 -0.45593999997E+02  0.45594000000E+02  0.51100000000E-03 0. -1.
    9900012    2    1    2    0    0 -0.57857446927E+01 -0.17786372988E+02  0.92122675032E+00  0.72461586450E+02  0.70000021046E+02 0.  0.
         12    1    1    2    0    0  0.57857446927E+01  0.17786372988E+02 -0.92122675032E+00  0.18726413550E+02  0.00000000000E+00 0. -1.
         11    1    3    3    0    0  0.17272612921E+02  0.15483816728E+02 -0.73998108956E+01  0.24348489463E+02  0.51100000000E-03 0. -1.
        -11    1    3    3    0    0 -0.22760457160E+02 -0.13707241841E+02  0.10195476130E+02  0.28458296203E+02  0.51100000000E-03 0.  1.
        -12    1    3    3    0    0 -0.29790045403E+00 -0.19562947875E+02 -0.18744384839E+01  0.19654800784E+02  0.00000000000E+00 0.  1.
</event>
<event>
 7    1  0.1345786E-013  0.7246156E+02  0.7816164E-02  0.1226708E+00
        -11   -1    0    0    0    0  0.00000000000E+00  0.00000000000E+00  0.45593999997E+02  0.45594000000E+02  0.51100000000E-03 0. -1.
         11   -1    0    0    0    0 -0.00000000000E+00 -0.00000000000E+00 -0.45593999997E+02  0.45594000000E+02  0.51100000000E-03 0.  1.
    9900012    2    1    2    0    0 -0.66897738162E+01  0.62321355042E+01 -0.16342800843E+02  0.72461555435E+02  0.69999980642E+02 0.  0.
         12    1    1    2    0    0  0.66897738162E+01 -0.62321355042E+01  0.16342800843E+02  0.18726444565E+02  0.00000000000E+00 0. -1.
         11    1    3    3    0    0  0.18248513608E+02  0.17187139792E+02 -0.12920114536E+02  0.28201691137E+02  0.51100000000E-03 0. -1.
        -11    1    3    3    0    0 -0.28273685297E+02 -0.17048560119E+02 -0.10199118638E+02  0.34555414969E+02  0.51100000000E-03 0.  1.
        -12    1    3    3    0    0  0.33353978733E+01  0.60935558315E+01  0.67764323304E+01  0.97044493287E+01  0.00000000000E+00 0.  1.
</event>
<event>
 7    1  0.1345786E-013  0.7246120E+02  0.7816164E-02  0.1226709E+00
        -11   -1    0    0    0    0  0.00000000000E+00  0.00000000000E+00  0.45593999997E+02  0.45594000000E+02  0.51100000000E-03 0. -1.
         11   -1    0    0    0    0 -0.00000000000E+00 -0.00000000000E+00 -0.45593999997E+02  0.45594000000E+02  0.51100000000E-03 0.  1.
    9900012    2    1    2    0    0  0.17924575412E+02 -0.16281025499E+01 -0.51722139337E+01  0.72461203195E+02  0.69999521783E+02 0.  0.
         12    1    1    2    0    0 -0.17924575412E+02  0.16281025499E+01  0.51722139337E+01  0.18726796805E+02  0.00000000000E+00 0. -1.
         11    1    3    3    0    0  0.95214419378E+01  0.99840334056E+00 -0.52658125588E+00  0.95881152416E+01  0.51100000000E-03 0. -1.
        -11    1    3    3    0    0 -0.12880254101E+02  0.26518280844E+01  0.23659019741E+02  0.27068105831E+02  0.51100000000E-03 0.  1.
        -12    1    3    3    0    0  0.21283387575E+02 -0.52783339748E+01 -0.28304652419E+02  0.35804982122E+02  0.00000000000E+00 0.  1.
</event>
<event>
 7    1  0.1345786E-013  0.7246163E+02  0.7816164E-02  0.1226708E+00
        -11   -1    0    0    0    0  0.00000000000E+00  0.00000000000E+00  0.45593999997E+02  0.45594000000E+02  0.51100000000E-03 0.  1.
         11   -1    0    0    0    0 -0.00000000000E+00 -0.00000000000E+00 -0.45593999997E+02  0.45594000000E+02  0.51100000000E-03 0. -1.
    9900012    2    1    2    0    0 -0.78959387626E+01 -0.11676931949E+02  0.12328030579E+02  0.72461630180E+02  0.70000078012E+02 0.  0.
         12    1    1    2    0    0  0.78959387626E+01  0.11676931949E+02 -0.12328030579E+02  0.18726369820E+02  0.00000000000E+00 0. -1.
         11    1    3    3    0    0  0.13057359514E+02  0.19503381435E+01 -0.10903166828E+02  0.17122426916E+02  0.51100000000E-03 0. -1.
        -11    1    3    3    0    0 -0.12520498770E+02  0.63928401656E+01  0.29542921878E+02  0.32717205385E+02  0.51100000000E-03 0.  1.
        -12    1    3    3    0    0 -0.84327995064E+01 -0.20020110258E+02 -0.63117244715E+01  0.22621997879E+02  0.00000000000E+00 0.  1.
</event>
<event>
 7    1  0.1345786E-013  0.7246163E+02  0.7816164E-02  0.1226708E+00
        -11   -1    0    0    0    0  0.00000000000E+00  0.00000000000E+00  0.45593999997E+02  0.45594000000E+02  0.51100000000E-03 0.  1.
         11   -1    0    0    0    0 -0.00000000000E+00 -0.00000000000E+00 -0.45593999997E+02  0.45594000000E+02  0.51100000000E-03 0. -1.
    9900012    2    1    2    0    0 -0.43401909512E+01  0.18064860897E+02  0.23453006822E+01  0.72461631104E+02  0.70000079216E+02 0.  0.
         12    1    1    2    0    0  0.43401909512E+01 -0.18064860897E+02 -0.23453006822E+01  0.18726368896E+02  0.00000000000E+00 0. -1.
         11    1    3    3    0    0 -0.28782260996E+02  0.11354036594E+02 -0.42940856667E+01  0.31237347310E+02  0.51100000000E-03 0. -1.
        -11    1    3    3    0    0  0.62008024982E+01 -0.97786897602E+01 -0.65681558983E+01  0.13312152238E+02  0.51100000000E-03 0.  1.
         12    1    3    3    0    0  0.18241267547E+02  0.16489514064E+02  0.13207542247E+02  0.27912131556E+02  0.00000000000E+00 0. -1.
</event>
<event>
 7    1  0.1345786E-013  0.7246157E+02  0.7816164E-02  0.1226708E+00
        -11   -1    0    0    0    0  0.00000000000E+00  0.00000000000E+00  0.45593999997E+02  0.45594000000E+02  0.51100000000E-03 0. -1.
         11   -1    0    0    0    0 -0.00000000000E+00 -0.00000000000E+00 -0.45593999997E+02  0.45594000000E+02  0.51100000000E-03 0.  1.
    9900012    2    1    2    0    0 -0.13340711870E+02  0.13076286340E+02 -0.13096810246E+01  0.72461571563E+02  0.70000001652E+02 0.  0.
         12    1    1    2    0    0  0.13340711870E+02 -0.13076286340E+02  0.13096810246E+01  0.18726428437E+02  0.00000000000E+00 0. -1.
         11    1    3    3    0    0 -0.23173342997E+01 -0.20388059187E+02  0.13055056656E+02  0.24320310447E+02  0.51100000000E-03 0. -1.
        -11    1    3    3    0    0 -0.13220549250E+02  0.35790370626E+02 -0.52901278906E+01  0.38519073267E+02  0.51100000000E-03 0.  1.
        -12    1    3    3    0    0  0.21971716804E+01 -0.23260250987E+01 -0.90746097903E+01  0.96221878489E+01  0.00000000000E+00 0.  1.
</event>
<event>
 7    1  0.1345786E-013  0.7246160E+02  0.7816164E-02  0.1226708E+00
        -11   -1    0    0    0    0  0.00000000000E+00  0.00000000000E+00  0.45593999997E+02  0.45594000000E+02  0.51100000000E-03 0.  1.
         11   -1    0    0    0    0 -0.00000000000E+00 -0.00000000000E+00 -0.45593999997E+02  0.45594000000E+02  0.51100000000E-03 0. -1.
    9900012    2    1    2    0    0  0.33277175514E+01  0.14746976852E+02  0.11051290501E+02  0.72461600129E+02  0.70000038866E+02 0.  0.
         12    1    1    2    0    0 -0.33277175514E+01 -0.14746976852E+02 -0.11051290501E+02  0.18726399871E+02  0.00000000000E+00 0. -1.
         11    1    3    3    0    0 -0.36503004328E+01 -0.86218791349E+01 -0.23489961043E+01  0.96529413147E+01  0.51100000000E-03 0. -1.
        -11    1    3    3    0    0 -0.78517976486E+00  0.19113837734E+02 -0.20342185842E+02  0.27924179939E+02  0.51100000000E-03 0.  1.
        -12    1    3    3    0    0  0.77631977490E+01  0.42550182535E+01  0.33742472446E+02  0.34884478876E+02  0.00000000000E+00 0.  1.
</event>
<event>
 7    1  0.1345786E-013  0.7246158E+02  0.7816164E-02  0.1226708E+00
        -11   -1    0    0    0    0  0.00000000000E+00  0.00000000000E+00  0.45593999997E+02  0.45594000000E+02  0.51100000000E-03 0. -1.
         11   -1    0    0    0    0 -0.00000000000E+00 -0.00000000000E+00 -0.45593999997E+02  0.45594000000E+02  0.51100000000E-03 0.  1.
    9900012    2    1    2    0    0  0.18292686284E+02 -0.12057992953E+01 -0.38213332845E+01  0.72461577184E+02  0.70000008974E+02 0.  0.
         12    1    1    2    0    0 -0.18292686284E+02  0.12057992953E+01  0.38213332845E+01  0.18726422816E+02  0.00000000000E+00 0. -1.
         11    1    3    3    0    0  0.24769741600E+02 -0.28287692106E+02  0.12463186915E+02  0.39611420726E+02  0.51100000000E-03 0. -1.
        -11    1    3    3    0    0 -0.40355566394E+01  0.13810221810E+02 -0.11869523816E+02  0.18651904453E+02  0.51100000000E-03 0.  1.
         12    1    3    3    0    0 -0.24414986765E+01  0.13271671000E+02 -0.44149963835E+01  0.14198252005E+02  0.00000000000E+00 0. -1.
</event>
<event>
 7    1  0.1345786E-013  0.7246213E+02  0.7816164E-02  0.1226707E+00
        -11   -1    0    0    0    0  0.00000000000E+00  0.00000000000E+00  0.45593999997E+02  0.45594000000E+02  0.51100000000E-03 0.  1.
         11   -1    0    0    0    0 -0.00000000000E+00 -0.00000000000E+00 -0.45593999997E+02  0.45594000000E+02  0.51100000000E-03 0. -1.
    9900012    2    1    2    0    0  0.17485040832E+02 -0.42826596841E+01  0.51566040936E+01  0.72462125050E+02  0.70000722668E+02 0.  0.
         12    1    1    2    0    0 -0.17485040832E+02  0.42826596841E+01 -0.51566040936E+01  0.18725874950E+02  0.00000000000E+00 0. -1.
         11    1    3    3    0    0  0.45765488154E+01 -0.99524286965E+01 -0.86276242987E+01  0.13943870959E+02  0.51100000000E-03 0. -1.
        -11    1    3    3    0    0  0.17013888228E+02 -0.71571549471E+01  0.31352078948E+02  0.36382002614E+02  0.51100000000E-03 0.  1.
        -12    1    3    3    0    0 -0.41053962109E+01  0.12826923960E+02 -0.17567850556E+02  0.22136251477E+02  0.00000000000E+00 0.  1.
</event>
<event>
 7    1  0.1345786E-013  0.7246154E+02  0.7816164E-02  0.1226708E+00
        -11   -1    0    0    0    0  0.00000000000E+00  0.00000000000E+00  0.45593999997E+02  0.45594000000E+02  0.51100000000E-03 0.  1.
         11   -1    0    0    0    0 -0.00000000000E+00 -0.00000000000E+00 -0.45593999997E+02  0.45594000000E+02  0.51100000000E-03 0. -1.
    9900012    2    1    2    0    0  0.31335172407E+01  0.80919864708E+01  0.16594610470E+02  0.72461540859E+02  0.69999961654E+02 0.  0.
         12    1    1    2    0    0 -0.31335172407E+01 -0.80919864708E+01 -0.16594610470E+02  0.18726459141E+02  0.00000000000E+00 0. -1.
         11    1    3    3    0    0 -0.15550361527E+02 -0.65289723931E+01 -0.56111975383E+01  0.17774328741E+02  0.51100000000E-03 0. -1.
        -11    1    3    3    0    0  0.22598500698E+02 -0.52686882589E+01  0.25131559544E+02  0.34205943857E+02  0.51100000000E-03 0.  1.
        -12    1    3    3    0    0 -0.39146219307E+01  0.19889647123E+02 -0.29257515357E+01  0.20481268261E+02  0.00000000000E+00 0.  1.
</event>
<event>
 7    1  0.1345786E-013  0.7246156E+02  0.7816164E-02  0.1226708E+00
        -11   -1    0    0    0    0  0.00000000000E+00  0.00000000000E+00  0.45593999997E+02  0.45594000000E+02  0.51100000000E-03 0. -1.
         11   -1    0    0    0    0 -0.00000000000E+00 -0.00000000000E+00 -0.45593999997E+02  0.45594000000E+02  0.51100000000E-03 0.  1.
    9900012    2    1    2    0    0  0.16316959832E+02 -0.75967992780E+01 -0.51696198718E+01  0.72461561282E+02  0.69999988260E+02 0.  0.
         12    1    1    2    0    0 -0.16316959832E+02  0.75967992780E+01  0.51696198718E+01  0.18726438718E+02  0.00000000000E+00 0. -1.
         11    1    3    3    0    0 -0.10084276299E+02  0.11226724135E+02  0.14104044832E+02  0.20655654048E+02  0.51100000000E-03 0. -1.
        -11    1    3    3    0    0  0.82232648307E+01 -0.20249946775E+02 -0.24505822262E+02  0.32836226243E+02  0.51100000000E-03 0.  1.
        -12    1    3    3    0    0  0.18177971300E+02  0.14264233625E+01  0.52321575581E+01  0.18969680991E+02  0.00000000000E+00 0.  1.
</event>
<event>
 7    1  0.1345786E-013  0.7246160E+02  0.7816164E-02  0.1226708E+00
        -11   -1    0    0    0    0  0.00000000000E+00  0.00000000000E+00  0.45593999997E+02  0.45594000000E+02  0.51100000000E-03 0.  1.
         11   -1    0    0    0    0 -0.00000000000E+00 -0.00000000000E+00 -0.45593999997E+02  0.45594000000E+02  0.51100000000E-03 0. -1.
    9900012    2    1    2    0    0 -0.70261506067E+01  0.56790534977E+01  0.16403036735E+02  0.72461600049E+02  0.70000038761E+02 0.  0.
         12    1    1    2    0    0  0.70261506067E+01 -0.56790534977E+01 -0.16403036735E+02  0.18726399951E+02  0.00000000000E+00 0. -1.
         11    1    3    3    0    0 -0.24322570512E-01  0.31061931193E+01 -0.69718590301E+01  0.76325517279E+01  0.51100000000E-03 0. -1.
        -11    1    3    3    0    0 -0.59065428649E+01  0.25202015068E+02  0.31490480874E+02  0.40763699514E+02  0.51100000000E-03 0.  1.
        -12    1    3    3    0    0 -0.10952851713E+01 -0.22629154690E+02 -0.81155851086E+01  0.24065348808E+02  0.00000000000E+00 0.  1.
</event>
<event>
 7    1  0.1345786E-013  0.7246157E+02  0.7816164E-02  0.1226708E+00
        -11   -1    0    0    0    0  0.00000000000E+00  0.00000000000E+00  0.45593999997E+02  0.45594000000E+02  0.51100000000E-03 0.  1.
         11   -1    0    0    0    0 -0.00000000000E+00 -0.00000000000E+00 -0.45593999997E+02  0.45594000000E+02  0.51100000000E-03 0. -1.
    9900012    2    1    2    0    0 -0.22551491934E+01  0.17105778145E+02  0.72791451290E+01  0.72461566874E+02  0.69999995544E+02 0.  0.
         12    1    1    2    0    0  0.22551491934E+01 -0.17105778145E+02 -0.72791451290E+01  0.18726433126E+02  0.00000000000E+00 0. -1.
         11    1    3    3    0    0  0.18408661537E+02 -0.24752985566E+01 -0.19229894347E+02  0.26735645857E+02  0.51100000000E-03 0. -1.
        -11    1    3    3    0    0 -0.14325952803E+02  0.25018724144E+02  0.21750578763E+02  0.36114500665E+02  0.51100000000E-03 0.  1.
        -12    1    3    3    0    0 -0.63378579272E+01 -0.54376474423E+01  0.47584607133E+01  0.96114203515E+01  0.00000000000E+00 0.  1.
</event>
<event>
 7    1  0.1345786E-013  0.7246161E+02  0.7816164E-02  0.1226708E+00
        -11   -1    0    0    0    0  0.00000000000E+00  0.00000000000E+00  0.45593999997E+02  0.45594000000E+02  0.51100000000E-03 0. -1.
         11   -1    0    0    0    0 -0.00000000000E+00 -0.00000000000E+00 -0.45593999997E+02  0.45594000000E+02  0.51100000000E-03 0.  1.
    9900012    2    1    2    0    0 -0.12782688633E+02  0.12754473086E+02 -0.49602571960E+01  0.72461605156E+02  0.70000045414E+02 0.  0.
         12    1    1    2    0    0  0.12782688633E+02 -0.12754473086E+02  0.49602571960E+01  0.18726394844E+02  0.00000000000E+00 0. -1.
         11    1    3    3    0    0  0.21072661781E+02  0.21176712278E+02  0.40423550728E+01  0.30147153303E+02  0.51100000000E-03 0. -1.
        -11    1    3    3    0    0 -0.26437001566E+02 -0.15685930767E+02 -0.86160628673E+01  0.31924912144E+02  0.51100000000E-03 0.  1.
        -12    1    3    3    0    0 -0.74183488483E+01  0.72636915749E+01 -0.38654940142E+00  0.10389539709E+02  0.00000000000E+00 0.  1.
</event>
<event>
 7    1  0.1345786E-013  0.7246162E+02  0.7816164E-02  0.1226708E+00
        -11   -1    0    0    0    0  0.00000000000E+00  0.00000000000E+00  0.45593999997E+02  0.45594000000E+02  0.51100000000E-03 0. -1.
         11   -1    0    0    0    0 -0.00000000000E+00 -0.00000000000E+00 -0.45593999997E+02  0.45594000000E+02  0.51100000000E-03 0.  1.
    9900012    2    1    2    0    0  0.11401506509E+02 -0.39774635853E-01 -0.14855354210E+02  0.72461615368E+02  0.70000058717E+02 0.  0.
         12    1    1    2    0    0 -0.11401506509E+02  0.39774635853E-01  0.14855354210E+02  0.18726384632E+02  0.00000000000E+00 0. -1.
         11    1    3    3    0    0 -0.36498299341E+01  0.21917244851E+02  0.10524619662E+02  0.24585656381E+02  0.51100000000E-03 0. -1.
        -11    1    3    3    0    0  0.24210157250E+02 -0.19305388397E+02 -0.17981681280E+02  0.35807409808E+02  0.51100000000E-03 0.  1.
        -12    1    3    3    0    0 -0.91588208068E+01 -0.26516310898E+01 -0.73982925909E+01  0.12068549178E+02  0.00000000000E+00 0.  1.
</event>
<event>
 7    1  0.1345786E-013  0.7246157E+02  0.7816164E-02  0.1226708E+00
        -11   -1    0    0    0    0  0.00000000000E+00  0.00000000000E+00  0.45593999997E+02  0.45594000000E+02  0.51100000000E-03 0.  1.
         11   -1    0    0    0    0 -0.00000000000E+00 -0.00000000000E+00 -0.45593999997E+02  0.45594000000E+02  0.51100000000E-03 0. -1.
    9900012    2    1    2    0    0  0.61171161367E+01  0.66027703716E+01  0.16421430467E+02  0.72461573085E+02  0.70000003635E+02 0.  0.
         12    1    1    2    0    0 -0.61171161367E+01 -0.66027703716E+01 -0.16421430467E+02  0.18726426915E+02  0.00000000000E+00 0. -1.
         11    1    3    3    0    0 -0.83604854770E+00  0.30426632858E+01 -0.26822130749E+02  0.27007100459E+02  0.51100000000E-03 0. -1.
        -11    1    3    3    0    0 -0.25336996529E+01 -0.12654244131E+01  0.15146153359E+02  0.15408662977E+02  0.51100000000E-03 0.  1.
         12    1    3    3    0    0  0.94868643373E+01  0.48255314989E+01  0.28097407857E+02  0.30045809649E+02  0.00000000000E+00 0. -1.
</event>
<event>
 8    1  0.1345786E-013  0.7246144E+02  0.7816164E-02  0.1226708E+00
        -11   -1    0    0    0    0  0.00000000000E+00  0.00000000000E+00  0.45593999997E+02  0.45594000000E+02  0.51100000000E-03 0. -1.
         11   -1    0    0    0    0 -0.00000000000E+00 -0.00000000000E+00 -0.45593999997E+02  0.45594000000E+02  0.51100000000E-03 0.  1.
    9900012    2    1    2    0    0  0.15032081277E+02 -0.12178839865E+01 -0.11101228434E+02  0.72461441810E+02  0.69999832625E+02 0.  0.
        -24    2    3    3    0    0  0.13363939146E+02  0.27135428421E+01 -0.20297708889E+02  0.62321714589E+02  0.57323999677E+02 0.  0.
         12    1    1    2    0    0 -0.15032081277E+02  0.12178839865E+01  0.11101228434E+02  0.18726558190E+02  0.00000000000E+00 0. -1.
         11    1    4    4    0    0  0.19366418813E+02 -0.24244605371E+02 -0.13737797728E+02  0.33935028420E+02  0.51100000000E-03 0. -1.
        -11    1    3    3    0    0  0.16681421306E+01 -0.39314268286E+01  0.91964804554E+01  0.10139727220E+02  0.51100000000E-03 0.  1.
        -12    1    4    4    0    0 -0.60024796664E+01  0.26958148213E+02 -0.65599111616E+01  0.28386686169E+02  0.00000000000E+00 0.  1.
</event>
<event>
 7    1  0.1345786E-013  0.7246165E+02  0.7816164E-02  0.1226708E+00
        -11   -1    0    0    0    0  0.00000000000E+00  0.00000000000E+00  0.45593999997E+02  0.45594000000E+02  0.51100000000E-03 0.  1.
         11   -1    0    0    0    0 -0.00000000000E+00 -0.00000000000E+00 -0.45593999997E+02  0.45594000000E+02  0.51100000000E-03 0. -1.
    9900012    2    1    2    0    0 -0.11454861302E+02 -0.82597632008E+01  0.12297916394E+02  0.72461647359E+02  0.70000100391E+02 0.  0.
         12    1    1    2    0    0  0.11454861302E+02  0.82597632008E+01 -0.12297916394E+02  0.18726352641E+02  0.00000000000E+00 0. -1.
         11    1    3    3    0    0 -0.80807439587E+01 -0.21632004169E+02  0.18012845406E+02  0.29286594667E+02  0.51100000000E-03 0. -1.
        -11    1    3    3    0    0  0.13741963872E+02  0.19307294777E+02  0.13345104958E+01  0.23735924697E+02  0.51100000000E-03 0.  1.
         12    1    3    3    0    0 -0.17116081215E+02 -0.59350538092E+01 -0.70494395072E+01  0.19439127996E+02  0.00000000000E+00 0. -1.
</event>
<event>
 7    1  0.1345786E-013  0.7246157E+02  0.7816164E-02  0.1226708E+00
        -11   -1    0    0    0    0  0.00000000000E+00  0.00000000000E+00  0.45593999997E+02  0.45594000000E+02  0.51100000000E-03 0. -1.
         11   -1    0    0    0    0 -0.00000000000E+00 -0.00000000000E+00 -0.45593999997E+02  0.45594000000E+02  0.51100000000E-03 0.  1.
    9900012    2    1    2    0    0 -0.77177729179E+01  0.95349752098E+01 -0.14149190674E+02  0.72461565000E+02  0.69999993103E+02 0.  0.
         12    1    1    2    0    0  0.77177729179E+01 -0.95349752098E+01  0.14149190674E+02  0.18726435000E+02  0.00000000000E+00 0. -1.
         11    1    3    3    0    0  0.23035648089E+00 -0.45209640898E+01  0.22833471444E+01  0.50700941661E+01  0.51100000000E-03 0. -1.
        -11    1    3    3    0    0 -0.32960205279E+02  0.21341973078E+02 -0.11019255840E+02  0.40783317012E+02  0.51100000000E-03 0.  1.
        -12    1    3    3    0    0  0.25012075880E+02 -0.72860337787E+01 -0.54132819781E+01  0.26608153823E+02  0.00000000000E+00 0.  1.
</event>
<event>
 7    1  0.1345786E-013  0.7246149E+02  0.7816164E-02  0.1226708E+00
        -11   -1    0    0    0    0  0.00000000000E+00  0.00000000000E+00  0.45593999997E+02  0.45594000000E+02  0.51100000000E-03 0.  1.
         11   -1    0    0    0    0 -0.00000000000E+00 -0.00000000000E+00 -0.45593999997E+02  0.45594000000E+02  0.51100000000E-03 0. -1.
    9900012    2    1    2    0    0  0.16501441942E+02  0.22975727390E+01  0.85501879475E+01  0.72461490967E+02  0.69999896661E+02 0.  0.
         12    1    1    2    0    0 -0.16501441942E+02 -0.22975727390E+01 -0.85501879475E+01  0.18726509033E+02  0.00000000000E+00 0. -1.
         11    1    3    3    0    0 -0.23085441282E+01  0.20957717276E+02 -0.73882147209E+01  0.22341463838E+02  0.51100000000E-03 0. -1.
        -11    1    3    3    0    0 -0.87331476754E+01 -0.95554070700E+01  0.16664903559E+02  0.21101959233E+02  0.51100000000E-03 0.  1.
         12    1    3    3    0    0  0.27543133745E+02 -0.91047374666E+01 -0.72650089030E+00  0.29018067896E+02  0.00000000000E+00 0. -1.
</event>
<event>
 7    1  0.1345786E-013  0.7246156E+02  0.7816164E-02  0.1226708E+00
        -11   -1    0    0    0    0  0.00000000000E+00  0.00000000000E+00  0.45593999997E+02  0.45594000000E+02  0.51100000000E-03 0. -1.
         11   -1    0    0    0    0 -0.00000000000E+00 -0.00000000000E+00 -0.45593999997E+02  0.45594000000E+02  0.51100000000E-03 0.  1.
    9900012    2    1    2    0    0  0.47568467938E+01  0.15564746014E+02 -0.92623146969E+01  0.72461564583E+02  0.69999992560E+02 0.  0.
         12    1    1    2    0    0 -0.47568467938E+01 -0.15564746014E+02  0.92623146969E+01  0.18726435417E+02  0.00000000000E+00 0. -1.
         11    1    3    3    0    0  0.23059209605E+01 -0.12388762342E+01 -0.36020089941E+02  0.36115079474E+02  0.51100000000E-03 0.  1.
        -11    1    3    3    0    0  0.13091963882E+00  0.91566585077E+01  0.26835462765E+02  0.28354957186E+02  0.51100000000E-03 0. -1.
        -12    1    3    3    0    0  0.23200061945E+01  0.76469637403E+01 -0.77687521342E-01  0.79915279226E+01  0.00000000000E+00 0.  1.
</event>
<event>
 7    1  0.1345786E-013  0.7246157E+02  0.7816164E-02  0.1226708E+00
        -11   -1    0    0    0    0  0.00000000000E+00  0.00000000000E+00  0.45593999997E+02  0.45594000000E+02  0.51100000000E-03 0. -1.
         11   -1    0    0    0    0 -0.00000000000E+00 -0.00000000000E+00 -0.45593999997E+02  0.45594000000E+02  0.51100000000E-03 0.  1.
    9900012    2    1    2    0    0  0.40145963878E+01  0.51065598919E+01 -0.17563747335E+02  0.72461570588E+02  0.70000000383E+02 0.  0.
         12    1    1    2    0    0 -0.40145963878E+01 -0.51065598919E+01  0.17563747335E+02  0.18726429412E+02  0.00000000000E+00 0. -1.
         11    1    3    3    0    0  0.10226973353E+02 -0.13628045183E+02  0.52699148946E+01  0.17834982555E+02  0.51100000000E-03 0. -1.
        -11    1    3    3    0    0 -0.19731463154E+02  0.20543533977E+02 -0.53781480430E+00  0.28489588826E+02  0.51100000000E-03 0.  1.
        -12    1    3    3    0    0  0.13519086189E+02 -0.18089289018E+01 -0.22295847425E+02  0.26136999207E+02  0.00000000000E+00 0.  1.
</event>
<event>
 7    1  0.1345786E-013  0.7246153E+02  0.7816164E-02  0.1226708E+00
        -11   -1    0    0    0    0  0.00000000000E+00  0.00000000000E+00  0.45593999997E+02  0.45594000000E+02  0.51100000000E-03 0.  1.
         11   -1    0    0    0    0 -0.00000000000E+00 -0.00000000000E+00 -0.45593999997E+02  0.45594000000E+02  0.51100000000E-03 0. -1.
    9900012    2    1    2    0    0  0.12562807503E+01  0.63043394367E+00  0.18673644870E+02  0.72461529403E+02  0.69999946731E+02 0.  0.
         12    1    1    2    0    0 -0.12562807503E+01 -0.63043394367E+00 -0.18673644870E+02  0.18726470597E+02  0.00000000000E+00 0. -1.
         11    1    3    3    0    0  0.31230958056E+01  0.92535126559E-01 -0.17155278533E+02  0.17437484681E+02  0.51100000000E-03 0. -1.
        -11    1    3    3    0    0  0.12330175607E+02 -0.15302838990E+02  0.22708703167E+02  0.30031571911E+02  0.51100000000E-03 0.  1.
         12    1    3    3    0    0 -0.14196990662E+02  0.15840737807E+02  0.13120220237E+02  0.24992472811E+02  0.00000000000E+00 0. -1.
</event>
<event>
 7    1  0.1345786E-013  0.7246156E+02  0.7816164E-02  0.1226708E+00
        -11   -1    0    0    0    0  0.00000000000E+00  0.00000000000E+00  0.45593999997E+02  0.45594000000E+02  0.51100000000E-03 0.  1.
         11   -1    0    0    0    0 -0.00000000000E+00 -0.00000000000E+00 -0.45593999997E+02  0.45594000000E+02  0.51100000000E-03 0. -1.
    9900012    2    1    2    0    0  0.76896834588E+01 -0.14149107216E+02  0.95577828627E+01  0.72461556665E+02  0.69999982246E+02 0.  0.
         12    1    1    2    0    0 -0.76896834588E+01  0.14149107216E+02 -0.95577828627E+01  0.18726443335E+02  0.00000000000E+00 0. -1.
         11    1    3    3    0    0  0.19471554055E+02  0.12917107797E+02  0.44742226221E+01  0.23791001649E+02  0.51100000000E-03 0. -1.
        -11    1    3    3    0    0 -0.16134302266E+02 -0.10310444547E+02 -0.13381054997E+02  0.23359657734E+02  0.51100000000E-03 0.  1.
        -12    1    3    3    0    0  0.43524316704E+01 -0.16755770466E+02  0.18464615237E+02  0.25310897282E+02  0.00000000000E+00 0.  1.
</event>
<event>
 7    1  0.1345786E-013  0.7246154E+02  0.7816164E-02  0.1226708E+00
        -11   -1    0    0    0    0  0.00000000000E+00  0.00000000000E+00  0.45593999997E+02  0.45594000000E+02  0.51100000000E-03 0.  1.
         11   -1    0    0    0    0 -0.00000000000E+00 -0.00000000000E+00 -0.45593999997E+02  0.45594000000E+02  0.51100000000E-03 0. -1.
    9900012    2    1    2    0    0  0.13244653751E+02 -0.11580968262E+02 -0.64140930673E+01  0.72461540945E+02  0.69999961767E+02 0.  0.
         12    1    1    2    0    0 -0.13244653751E+02  0.11580968262E+02  0.64140930673E+01  0.18726459055E+02  0.00000000000E+00 0. -1.
         11    1    3    3    0    0 -0.19433590151E+02 -0.82076126410E+01  0.14289850300E+02  0.25479975536E+02  0.51100000000E-03 0. -1.
        -11    1    3    3    0    0  0.95734255969E+01 -0.12016575016E+02 -0.15391746047E+02  0.21747514787E+02  0.51100000000E-03 0.  1.
         12    1    3    3    0    0  0.23104818305E+02  0.86432193953E+01 -0.53121973203E+01  0.25234050622E+02  0.00000000000E+00 0. -1.
</event>
<event>
 7    1  0.1345786E-013  0.7246156E+02  0.7816164E-02  0.1226708E+00
        -11   -1    0    0    0    0  0.00000000000E+00  0.00000000000E+00  0.45593999997E+02  0.45594000000E+02  0.51100000000E-03 0.  1.
         11   -1    0    0    0    0 -0.00000000000E+00 -0.00000000000E+00 -0.45593999997E+02  0.45594000000E+02  0.51100000000E-03 0. -1.
    9900012    2    1    2    0    0  0.25575633440E+01  0.92126139341E+01  0.16101743456E+02  0.72461560721E+02  0.69999987529E+02 0.  0.
         12    1    1    2    0    0 -0.25575633440E+01 -0.92126139341E+01 -0.16101743456E+02  0.18726439279E+02  0.00000000000E+00 0. -1.
         11    1    3    3    0    0 -0.14975312128E+02  0.31523218456E+02  0.68430394311E+01  0.35564033293E+02  0.51100000000E-03 0. -1.
        -11    1    3    3    0    0  0.20921830485E+02 -0.14575484262E+02  0.11774657782E+02  0.28085766831E+02  0.51100000000E-03 0.  1.
        -12    1    3    3    0    0 -0.33889550127E+01 -0.77351202596E+01 -0.25159537571E+01  0.88117605969E+01  0.00000000000E+00 0.  1.
</event>
<event>
 7    1  0.1345786E-013  0.7246156E+02  0.7816164E-02  0.1226708E+00
        -11   -1    0    0    0    0  0.00000000000E+00  0.00000000000E+00  0.45593999997E+02  0.45594000000E+02  0.51100000000E-03 0. -1.
         11   -1    0    0    0    0 -0.00000000000E+00 -0.00000000000E+00 -0.45593999997E+02  0.45594000000E+02  0.51100000000E-03 0.  1.
    9900012    2    1    2    0    0 -0.35578019891E+01 -0.14431280246E+00 -0.18384799767E+02  0.72461557635E+02  0.69999983508E+02 0.  0.
         12    1    1    2    0    0  0.35578019891E+01  0.14431280246E+00  0.18384799767E+02  0.18726442365E+02  0.00000000000E+00 0. -1.
         11    1    3    3    0    0 -0.21929116673E+02 -0.13095042085E+02  0.10860845659E+02  0.27754715887E+02  0.51100000000E-03 0. -1.
        -11    1    3    3    0    0  0.16866498333E+02  0.31916456752E+01 -0.40382775226E+01  0.17634428081E+02  0.51100000000E-03 0.  1.
         12    1    3    3    0    0  0.15048163514E+01  0.97590836073E+01 -0.25207367904E+02  0.27072413667E+02  0.00000000000E+00 0. -1.
</event>
<event>
 7    1  0.1345786E-013  0.7246158E+02  0.7816164E-02  0.1226708E+00
        -11   -1    0    0    0    0  0.00000000000E+00  0.00000000000E+00  0.45593999997E+02  0.45594000000E+02  0.51100000000E-03 0. -1.
         11   -1    0    0    0    0 -0.00000000000E+00 -0.00000000000E+00 -0.45593999997E+02  0.45594000000E+02  0.51100000000E-03 0.  1.
    9900012    2    1    2    0    0  0.12631345468E+02 -0.93713911778E+01 -0.10163904049E+02  0.72461579988E+02  0.70000012628E+02 0.  0.
         12    1    1    2    0    0 -0.12631345468E+02  0.93713911778E+01  0.10163904049E+02  0.18726420012E+02  0.00000000000E+00 0. -1.
         11    1    3    3    0    0  0.31149485841E+02  0.79512180582E+01  0.72619269604E+00  0.32156487570E+02  0.51100000000E-03 0. -1.
        -11    1    3    3    0    0 -0.25294644078E+02 -0.90796083166E+01 -0.12273613535E+02  0.29544879348E+02  0.51100000000E-03 0.  1.
        -12    1    3    3    0    0  0.67765037050E+01 -0.82430009194E+01  0.13835167896E+01  0.10760213071E+02  0.00000000000E+00 0.  1.
</event>
<event>
 7    1  0.1345786E-013  0.7246154E+02  0.7816164E-02  0.1226708E+00
        -11   -1    0    0    0    0  0.00000000000E+00  0.00000000000E+00  0.45593999997E+02  0.45594000000E+02  0.51100000000E-03 0. -1.
         11   -1    0    0    0    0 -0.00000000000E+00 -0.00000000000E+00 -0.45593999997E+02  0.45594000000E+02  0.51100000000E-03 0.  1.
    9900012    2    1    2    0    0 -0.94516622097E+00 -0.18019492315E+02  0.50084748319E+01  0.72461541109E+02  0.69999961980E+02 0.  0.
         12    1    1    2    0    0  0.94516622097E+00  0.18019492315E+02 -0.50084748319E+01  0.18726458891E+02  0.00000000000E+00 0. -1.
         11    1    3    3    0    0  0.14959694288E+02 -0.11148477963E+02  0.23388347559E+02  0.29918151947E+02  0.51100000000E-03 0. -1.
        -11    1    3    3    0    0 -0.13107066493E+02 -0.16495291128E+02 -0.23270471373E+02  0.31391155755E+02  0.51100000000E-03 0.  1.
        -12    1    3    3    0    0 -0.27977940161E+01  0.96242767771E+01  0.48905986458E+01  0.11152233407E+02  0.00000000000E+00 0.  1.
</event>
<event>
 7    1  0.1345786E-013  0.7246158E+02  0.7816164E-02  0.1226708E+00
        -11   -1    0    0    0    0  0.00000000000E+00  0.00000000000E+00  0.45593999997E+02  0.45594000000E+02  0.51100000000E-03 0.  1.
         11   -1    0    0    0    0 -0.00000000000E+00 -0.00000000000E+00 -0.45593999997E+02  0.45594000000E+02  0.51100000000E-03 0. -1.
    9900012    2    1    2    0    0  0.13527194818E+02  0.11272143566E+02 -0.63743808546E+01  0.72461576116E+02  0.70000007584E+02 0.  0.
         12    1    1    2    0    0 -0.13527194818E+02 -0.11272143566E+02  0.63743808546E+01  0.18726423884E+02  0.00000000000E+00 0. -1.
         11    1    3    3    0    0 -0.78296821249E+01  0.73226619713E+01 -0.33122196878E+02  0.34813865439E+02  0.51100000000E-03 0. -1.
        -11    1    3    3    0    0 -0.97924583278E+00 -0.27610853005E+01  0.47922310196E+01  0.56167599952E+01  0.51100000000E-03 0.  1.
         12    1    3    3    0    0  0.22336122776E+02  0.67105668949E+01  0.21955585004E+02  0.32030950681E+02  0.00000000000E+00 0. -1.
</event>
<event>
 7    1  0.1345786E-013  0.7246155E+02  0.7816164E-02  0.1226708E+00
        -11   -1    0    0    0    0  0.00000000000E+00  0.00000000000E+00  0.45593999997E+02  0.45594000000E+02  0.51100000000E-03 0. -1.
         11   -1    0    0    0    0 -0.00000000000E+00 -0.00000000000E+00 -0.45593999997E+02  0.45594000000E+02  0.51100000000E-03 0.  1.
    9900012    2    1    2    0    0  0.48081891224E+01  0.17098844836E+02 -0.59321938146E+01  0.72461545428E+02  0.69999967607E+02 0.  0.
         12    1    1    2    0    0 -0.48081891224E+01 -0.17098844836E+02  0.59321938146E+01  0.18726454572E+02  0.00000000000E+00 0. -1.
         11    1    3    3    0    0 -0.12992287448E+02 -0.10635343525E+02  0.19380805471E+02  0.25642263667E+02  0.51100000000E-03 0. -1.
        -11    1    3    3    0    0  0.64755320309E+01 -0.18919789431E+01 -0.87174064937E+01  0.11022943148E+02  0.51100000000E-03 0.  1.
         12    1    3    3    0    0  0.11324944539E+02  0.29626167305E+02 -0.16595592792E+02  0.35796338613E+02  0.00000000000E+00 0. -1.
</event>
<event>
 7    1  0.1345786E-013  0.7246163E+02  0.7816164E-02  0.1226708E+00
        -11   -1    0    0    0    0  0.00000000000E+00  0.00000000000E+00  0.45593999997E+02  0.45594000000E+02  0.51100000000E-03 0. -1.
         11   -1    0    0    0    0 -0.00000000000E+00 -0.00000000000E+00 -0.45593999997E+02  0.45594000000E+02  0.51100000000E-03 0.  1.
    9900012    2    1    2    0    0 -0.12944079465E+02  0.23730945674E+01 -0.13322773302E+02  0.72461626633E+02  0.70000073392E+02 0.  0.
         12    1    1    2    0    0  0.12944079465E+02 -0.23730945674E+01  0.13322773302E+02  0.18726373367E+02  0.00000000000E+00 0. -1.
         11    1    3    3    0    0 -0.17748537001E+02 -0.10862144794E+02  0.12232889594E+02  0.24137944057E+02  0.51100000000E-03 0. -1.
        -11    1    3    3    0    0  0.74062743317E+01  0.74101004431E+01 -0.35219031552E+02  0.36744287608E+02  0.51100000000E-03 0.  1.
         12    1    3    3    0    0 -0.26018167956E+01  0.58251389187E+01  0.96633686556E+01  0.11579394968E+02  0.00000000000E+00 0. -1.
</event>
<event>
 7    1  0.1345786E-013  0.7246157E+02  0.7816164E-02  0.1226708E+00
        -11   -1    0    0    0    0  0.00000000000E+00  0.00000000000E+00  0.45593999997E+02  0.45594000000E+02  0.51100000000E-03 0. -1.
         11   -1    0    0    0    0 -0.00000000000E+00 -0.00000000000E+00 -0.45593999997E+02  0.45594000000E+02  0.51100000000E-03 0.  1.
    9900012    2    1    2    0    0 -0.13945901002E+02  0.12335328204E+02 -0.20076467513E+01  0.72461571559E+02  0.70000001648E+02 0.  0.
         12    1    1    2    0    0  0.13945901002E+02 -0.12335328204E+02  0.20076467513E+01  0.18726428441E+02  0.00000000000E+00 0. -1.
         11    1    3    3    0    0 -0.24686871890E+02  0.12298832458E+02  0.25888835715E+02  0.37827698033E+02  0.51100000000E-03 0. -1.
        -11    1    3    3    0    0  0.14043875895E+02 -0.27812859450E+01 -0.26417236654E+02  0.30047236052E+02  0.51100000000E-03 0.  1.
        -12    1    3    3    0    0 -0.33029050074E+01  0.28177816918E+01 -0.14792458123E+01  0.45866374747E+01  0.00000000000E+00 0.  1.
</event>
<event>
 7    1  0.1345786E-013  0.7246156E+02  0.7816164E-02  0.1226708E+00
        -11   -1    0    0    0    0  0.00000000000E+00  0.00000000000E+00  0.45593999997E+02  0.45594000000E+02  0.51100000000E-03 0.  1.
         11   -1    0    0    0    0 -0.00000000000E+00 -0.00000000000E+00 -0.45593999997E+02  0.45594000000E+02  0.51100000000E-03 0. -1.
    9900012    2    1    2    0    0 -0.95218954692E+01  0.63608432284E+01  0.14817306207E+02  0.72461564591E+02  0.69999992571E+02 0.  0.
         12    1    1    2    0    0  0.95218954692E+01 -0.63608432284E+01 -0.14817306207E+02  0.18726435409E+02  0.00000000000E+00 0. -1.
         11    1    3    3    0    0 -0.49848000488E+01 -0.95487062576E+01 -0.74453946756E+01  0.13094270688E+02  0.51100000000E-03 0. -1.
        -11    1    3    3    0    0 -0.15074748391E+02  0.32244637839E+02  0.14605232793E+02  0.38474375026E+02  0.51100000000E-03 0.  1.
        -12    1    3    3    0    0  0.10537652971E+02 -0.16335088353E+02  0.76574680890E+01  0.20892918877E+02  0.00000000000E+00 0.  1.
</event>
<event>
 7    1  0.1558977E-013  0.7246157E+02  0.7816164E-02  0.1226708E+00
        -11   -1    0    0    0    0  0.00000000000E+00  0.00000000000E+00  0.45593999997E+02  0.45594000000E+02  0.51100000000E-03 0. -1.
         11   -1    0    0    0    0 -0.00000000000E+00 -0.00000000000E+00 -0.45593999997E+02  0.45594000000E+02  0.51100000000E-03 0.  1.
    9900012    2    1    2    0    0 -0.11359515872E+02 -0.28227872783E+01 -0.14617542974E+02  0.72461567039E+02  0.69999995759E+02 0.  0.
         12    1    1    2    0    0  0.11359515872E+02  0.28227872783E+01  0.14617542974E+02  0.18726432961E+02  0.00000000000E+00 0. -1.
         11    1    3    3    0    0  0.86357376441E+01 -0.58924551017E+01  0.15626017834E+02  0.18800782574E+02  0.51100000000E-03 0. -1.
        -11    1    3    3    0    0 -0.11044706497E+02 -0.13678118104E+02 -0.29879430088E+02  0.34667806379E+02  0.51100000000E-03 0.  1.
        -12    1    3    3    0    0 -0.89505470195E+01  0.16747785927E+02 -0.36413071929E+00  0.18992978086E+02  0.00000000000E+00 0.  1.
</event>
<event>
 7    1  0.1345786E-013  0.7246158E+02  0.7816164E-02  0.1226708E+00
        -11   -1    0    0    0    0  0.00000000000E+00  0.00000000000E+00  0.45593999997E+02  0.45594000000E+02  0.51100000000E-03 0. -1.
         11   -1    0    0    0    0 -0.00000000000E+00 -0.00000000000E+00 -0.45593999997E+02  0.45594000000E+02  0.51100000000E-03 0.  1.
    9900012    2    1    2    0    0 -0.12501191603E+02 -0.62882446154E+01 -0.12444148232E+02  0.72461584511E+02  0.70000018520E+02 0.  0.
         12    1    1    2    0    0  0.12501191603E+02  0.62882446154E+01  0.12444148232E+02  0.18726415489E+02  0.00000000000E+00 0. -1.
         11    1    3    3    0    0  0.20692697716E+02 -0.25854495085E+00 -0.14415021177E+01  0.20744457401E+02  0.51100000000E-03 0. -1.
        -11    1    3    3    0    0 -0.27825680483E+02 -0.20735600043E+02 -0.55701186573E+01  0.35146263324E+02  0.51100000000E-03 0.  1.
         12    1    3    3    0    0 -0.53682088355E+01  0.14705900379E+02 -0.54325274573E+01  0.16570863786E+02  0.00000000000E+00 0. -1.
</event>
<event>
 7    1  0.1345786E-013  0.7246152E+02  0.7816164E-02  0.1226708E+00
        -11   -1    0    0    0    0  0.00000000000E+00  0.00000000000E+00  0.45593999997E+02  0.45594000000E+02  0.51100000000E-03 0.  1.
         11   -1    0    0    0    0 -0.00000000000E+00 -0.00000000000E+00 -0.45593999997E+02  0.45594000000E+02  0.51100000000E-03 0. -1.
    9900012    2    1    2    0    0 -0.15549009187E+02 -0.89972403560E+01  0.52876207218E+01  0.72461522658E+02  0.69999937945E+02 0.  0.
         12    1    1    2    0    0  0.15549009187E+02  0.89972403560E+01 -0.52876207218E+01  0.18726477342E+02  0.00000000000E+00 0. -1.
         11    1    3    3    0    0  0.96552000481E+01 -0.22816199036E+02  0.10042981087E+02  0.26733187161E+02  0.51100000000E-03 0. -1.
        -11    1    3    3    0    0 -0.31732245629E+02  0.23071122763E+01 -0.62042606214E+01  0.32415290063E+02  0.51100000000E-03 0.  1.
         12    1    3    3    0    0  0.65280363939E+01  0.11511846404E+02  0.14489002566E+01  0.13313045435E+02  0.00000000000E+00 0. -1.
</event>
<event>
 7    1  0.1345786E-013  0.7246154E+02  0.7816164E-02  0.1226708E+00
        -11   -1    0    0    0    0  0.00000000000E+00  0.00000000000E+00  0.45593999997E+02  0.45594000000E+02  0.51100000000E-03 0.  1.
         11   -1    0    0    0    0 -0.00000000000E+00 -0.00000000000E+00 -0.45593999997E+02  0.45594000000E+02  0.51100000000E-03 0. -1.
    9900012    2    1    2    0    0 -0.18019367442E+02  0.44710203616E+01  0.24479755843E+01  0.72461542499E+02  0.69999963792E+02 0.  0.
         12    1    1    2    0    0  0.18019367442E+02 -0.44710203616E+01 -0.24479755843E+01  0.18726457501E+02  0.00000000000E+00 0. -1.
         11    1    3    3    0    0  0.94681304546E+01  0.25847004280E+02  0.18536176839E+01  0.27588929362E+02  0.51100000000E-03 0. -1.
        -11    1    3    3    0    0 -0.21333678683E+02 -0.81784363456E+00 -0.64236020386E+01  0.22294783645E+02  0.51100000000E-03 0.  1.
         12    1    3    3    0    0 -0.61538192131E+01 -0.20558140284E+02  0.70179599390E+01  0.22577829492E+02  0.00000000000E+00 0. -1.
</event>
<event>
 7    1  0.1345786E-013  0.7246157E+02  0.7816164E-02  0.1226708E+00
        -11   -1    0    0    0    0  0.00000000000E+00  0.00000000000E+00  0.45593999997E+02  0.45594000000E+02  0.51100000000E-03 0. -1.
         11   -1    0    0    0    0 -0.00000000000E+00 -0.00000000000E+00 -0.45593999997E+02  0.45594000000E+02  0.51100000000E-03 0.  1.
    9900012    2    1    2    0    0 -0.16372783550E+01 -0.15413029221E+02 -0.10508901411E+02  0.72461570574E+02  0.70000000364E+02 0.  0.
         12    1    1    2    0    0  0.16372783550E+01  0.15413029221E+02  0.10508901411E+02  0.18726429426E+02  0.00000000000E+00 0. -1.
         11    1    3    3    0    0  0.64714962501E+01 -0.38422357033E+02 -0.10586063574E+02  0.40376014240E+02  0.51100000000E-03 0.  1.
        -11    1    3    3    0    0  0.30850767815E+01  0.18964129166E+02  0.38583895829E+01  0.19597016717E+02  0.51100000000E-03 0. -1.
        -12    1    3    3    0    0 -0.11193851387E+02  0.40451986459E+01 -0.37812274202E+01  0.12488539617E+02  0.00000000000E+00 0.  1.
</event>
<event>
 7    1  0.1345786E-013  0.7246195E+02  0.7816164E-02  0.1226707E+00
        -11   -1    0    0    0    0  0.00000000000E+00  0.00000000000E+00  0.45593999997E+02  0.45594000000E+02  0.51100000000E-03 0. -1.
         11   -1    0    0    0    0 -0.00000000000E+00 -0.00000000000E+00 -0.45593999997E+02  0.45594000000E+02  0.51100000000E-03 0.  1.
    9900012    2    1    2    0    0 -0.17346802638E+02  0.59455462097E+01 -0.37952212483E+01  0.72461954346E+02  0.70000500297E+02 0.  0.
         12    1    1    2    0    0  0.17346802638E+02 -0.59455462097E+01  0.37952212483E+01  0.18726045654E+02  0.00000000000E+00 0. -1.
         11    1    3    3    0    0 -0.18663629942E+02  0.18759999482E+02  0.27398377926E+02  0.38091203399E+02  0.51100000000E-03 0. -1.
        -11    1    3    3    0    0 -0.24483861837E+01 -0.76678565767E+01 -0.16880948426E+02  0.18701792412E+02  0.51100000000E-03 0.  1.
         12    1    3    3    0    0  0.37652134877E+01 -0.51465966954E+01 -0.14312650748E+02  0.15668958535E+02  0.00000000000E+00 0. -1.
</event>
<event>
 7    1  0.1345786E-013  0.7246156E+02  0.7816164E-02  0.1226708E+00
        -11   -1    0    0    0    0  0.00000000000E+00  0.00000000000E+00  0.45593999997E+02  0.45594000000E+02  0.51100000000E-03 0. -1.
         11   -1    0    0    0    0 -0.00000000000E+00 -0.00000000000E+00 -0.45593999997E+02  0.45594000000E+02  0.51100000000E-03 0.  1.
    9900012    2    1    2    0    0  0.14482640341E+02 -0.10181463330E+02  0.61049529754E+01  0.72461561000E+02  0.69999987892E+02 0.  0.
         12    1    1    2    0    0 -0.14482640341E+02  0.10181463330E+02 -0.61049529754E+01  0.18726439000E+02  0.00000000000E+00 0. -1.
         11    1    3    3    0    0  0.28142519796E+01  0.45840206787E+01  0.30019077930E+02  0.30497185113E+02  0.51100000000E-03 0. -1.
        -11    1    3    3    0    0  0.13542491870E+02 -0.22406604050E+02 -0.15412518643E+02  0.30380926949E+02  0.51100000000E-03 0.  1.
         12    1    3    3    0    0 -0.18741035083E+01  0.76411200408E+01 -0.85016063112E+01  0.11583448938E+02  0.00000000000E+00 0. -1.
</event>
<event>
 7    1  0.1345786E-013  0.7246162E+02  0.7816164E-02  0.1226708E+00
        -11   -1    0    0    0    0  0.00000000000E+00  0.00000000000E+00  0.45593999997E+02  0.45594000000E+02  0.51100000000E-03 0. -1.
         11   -1    0    0    0    0 -0.00000000000E+00 -0.00000000000E+00 -0.45593999997E+02  0.45594000000E+02  0.51100000000E-03 0.  1.
    9900012    2    1    2    0    0 -0.12707085800E+02 -0.87321562449E+01 -0.10628115976E+02  0.72461616702E+02  0.70000060455E+02 0.  0.
         12    1    1    2    0    0  0.12707085800E+02  0.87321562449E+01  0.10628115976E+02  0.18726383298E+02  0.00000000000E+00 0. -1.
         11    1    3    3    0    0 -0.23193181147E+01 -0.17851190538E+02 -0.82509792854E+01  0.19802093313E+02  0.51100000000E-03 0. -1.
        -11    1    3    3    0    0 -0.31662851246E+01  0.84940370962E+01  0.23815520074E+02  0.25482406172E+02  0.51100000000E-03 0.  1.
        -12    1    3    3    0    0 -0.72214825610E+01  0.62499719673E+00 -0.26192656764E+02  0.27177117217E+02  0.00000000000E+00 0.  1.
</event>
<event>
 7    1  0.1345786E-013  0.7246157E+02  0.7816164E-02  0.1226708E+00
        -11   -1    0    0    0    0  0.00000000000E+00  0.00000000000E+00  0.45593999997E+02  0.45594000000E+02  0.51100000000E-03 0.  1.
         11   -1    0    0    0    0 -0.00000000000E+00 -0.00000000000E+00 -0.45593999997E+02  0.45594000000E+02  0.51100000000E-03 0. -1.
    9900012    2    1    2    0    0 -0.17986578107E+02 -0.30078282400E+01 -0.42561844509E+01  0.72461571381E+02  0.70000001416E+02 0.  0.
         12    1    1    2    0    0  0.17986578107E+02  0.30078282400E+01  0.42561844509E+01  0.18726428619E+02  0.00000000000E+00 0. -1.
         11    1    3    3    0    0 -0.54135817666E+01  0.13809997120E+02 -0.11180276985E+02  0.18574753881E+02  0.51100000000E-03 0. -1.
        -11    1    3    3    0    0 -0.18607696677E+02  0.12303399165E+01  0.22550873986E+02  0.29262638803E+02  0.51100000000E-03 0.  1.
        -12    1    3    3    0    0  0.60347003364E+01 -0.18048165277E+02 -0.15626781452E+02  0.24624178698E+02  0.00000000000E+00 0.  1.
</event>
<event>
 7    1  0.1345786E-013  0.7246157E+02  0.7816164E-02  0.1226708E+00
        -11   -1    0    0    0    0  0.00000000000E+00  0.00000000000E+00  0.45593999997E+02  0.45594000000E+02  0.51100000000E-03 0. -1.
         11   -1    0    0    0    0 -0.00000000000E+00 -0.00000000000E+00 -0.45593999997E+02  0.45594000000E+02  0.51100000000E-03 0.  1.
    9900012    2    1    2    0    0  0.60383909105E+01 -0.98666889987E+01 -0.14726351777E+02  0.72461570729E+02  0.70000000566E+02 0.  0.
         12    1    1    2    0    0 -0.60383909105E+01  0.98666889987E+01  0.14726351777E+02  0.18726429271E+02  0.00000000000E+00 0. -1.
         11    1    3    3    0    0 -0.15974909114E+02  0.20510758158E+02  0.41161385584E+01  0.26321692923E+02  0.51100000000E-03 0. -1.
        -11    1    3    3    0    0  0.18414457762E+02 -0.31838359510E+02 -0.12774658238E+02  0.38935398859E+02  0.51100000000E-03 0.  1.
        -12    1    3    3    0    0  0.35988422628E+01  0.14609123534E+01 -0.60678320972E+01  0.72044789469E+01  0.00000000000E+00 0.  1.
</event>
<event>
 7    1  0.1345786E-013  0.7246162E+02  0.7816164E-02  0.1226708E+00
        -11   -1    0    0    0    0  0.00000000000E+00  0.00000000000E+00  0.45593999997E+02  0.45594000000E+02  0.51100000000E-03 0.  1.
         11   -1    0    0    0    0 -0.00000000000E+00 -0.00000000000E+00 -0.45593999997E+02  0.45594000000E+02  0.51100000000E-03 0. -1.
    9900012    2    1    2    0    0 -0.29910526171E+01 -0.14942828028E+02 -0.10883140564E+02  0.72461621446E+02  0.70000066634E+02 0.  0.
         12    1    1    2    0    0  0.29910526171E+01  0.14942828028E+02  0.10883140564E+02  0.18726378554E+02  0.00000000000E+00 0. -1.
         11    1    3    3    0    0 -0.76344133152E+01 -0.13673219175E+01 -0.18667413824E+02  0.20214504076E+02  0.51100000000E-03 0. -1.
        -11    1    3    3    0    0  0.26502460936E+02 -0.36781482663E+01  0.89766268102E+01  0.28222137401E+02  0.51100000000E-03 0.  1.
        -12    1    3    3    0    0 -0.21859100238E+02 -0.98973578438E+01 -0.11923535495E+01  0.24024979969E+02  0.00000000000E+00 0.  1.
</event>
<event>
 7    1  0.1345786E-013  0.7246144E+02  0.7816164E-02  0.1226708E+00
        -11   -1    0    0    0    0  0.00000000000E+00  0.00000000000E+00  0.45593999997E+02  0.45594000000E+02  0.51100000000E-03 0. -1.
         11   -1    0    0    0    0 -0.00000000000E+00 -0.00000000000E+00 -0.45593999997E+02  0.45594000000E+02  0.51100000000E-03 0.  1.
    9900012    2    1    2    0    0  0.24065756225E+01 -0.28238226337E+01 -0.18355341333E+02  0.72461437691E+02  0.69999827259E+02 0.  0.
         12    1    1    2    0    0 -0.24065756225E+01  0.28238226337E+01  0.18355341333E+02  0.18726562309E+02  0.00000000000E+00 0. -1.
         11    1    3    3    0    0 -0.60295738286E+01 -0.20953892942E+01  0.72964193783E+01  0.96945424262E+01  0.51100000000E-03 0. -1.
        -11    1    3    3    0    0 -0.33118842734E+00  0.18365144149E+02 -0.35188086858E+02  0.39693698018E+02  0.51100000000E-03 0.  1.
        -12    1    3    3    0    0  0.87673378784E+01 -0.19093577488E+02  0.95363261472E+01  0.23073197246E+02  0.00000000000E+00 0.  1.
</event>
<event>
 7    1  0.1345786E-013  0.7246144E+02  0.7816164E-02  0.1226708E+00
        -11   -1    0    0    0    0  0.00000000000E+00  0.00000000000E+00  0.45593999997E+02  0.45594000000E+02  0.51100000000E-03 0.  1.
         11   -1    0    0    0    0 -0.00000000000E+00 -0.00000000000E+00 -0.45593999997E+02  0.45594000000E+02  0.51100000000E-03 0. -1.
    9900012    2    1    2    0    0 -0.10999414091E+02 -0.20677073978E+01  0.15014049238E+02  0.72461436013E+02  0.69999825073E+02 0.  0.
         12    1    1    2    0    0  0.10999414091E+02  0.20677073978E+01 -0.15014049238E+02  0.18726563987E+02  0.00000000000E+00 0. -1.
         11    1    3    3    0    0  0.66574612735E+01  0.77806539400E+01 -0.22256905441E+02  0.24499596046E+02  0.51100000000E-03 0. -1.
        -11    1    3    3    0    0 -0.94562940346E+01 -0.16563808645E+02  0.19548665607E+02  0.27311748039E+02  0.51100000000E-03 0.  1.
        -12    1    3    3    0    0 -0.82005813299E+01  0.67154473070E+01  0.17722289072E+02  0.20650091928E+02  0.00000000000E+00 0.  1.
</event>
<event>
 7    1  0.1345786E-013  0.7246158E+02  0.7816164E-02  0.1226708E+00
        -11   -1    0    0    0    0  0.00000000000E+00  0.00000000000E+00  0.45593999997E+02  0.45594000000E+02  0.51100000000E-03 0.  1.
         11   -1    0    0    0    0 -0.00000000000E+00 -0.00000000000E+00 -0.45593999997E+02  0.45594000000E+02  0.51100000000E-03 0. -1.
    9900012    2    1    2    0    0  0.15182293964E+02 -0.88667051448E+01  0.64465778607E+01  0.72461578125E+02  0.70000010201E+02 0.  0.
         12    1    1    2    0    0 -0.15182293964E+02  0.88667051448E+01 -0.64465778607E+01  0.18726421875E+02  0.00000000000E+00 0. -1.
         11    1    3    3    0    0  0.19213884308E+02 -0.35292866763E+02 -0.26536046172E+01  0.40271595602E+02  0.51100000000E-03 0. -1.
        -11    1    3    3    0    0 -0.93374181268E+01  0.17199734400E+02  0.26622351609E+01  0.19751094578E+02  0.51100000000E-03 0.  1.
         12    1    3    3    0    0  0.53058277821E+01  0.92264272183E+01  0.64379473169E+01  0.12438887946E+02  0.00000000000E+00 0. -1.
</event>
<event>
 7    1  0.1345786E-013  0.7246155E+02  0.7816164E-02  0.1226708E+00
        -11   -1    0    0    0    0  0.00000000000E+00  0.00000000000E+00  0.45593999997E+02  0.45594000000E+02  0.51100000000E-03 0.  1.
         11   -1    0    0    0    0 -0.00000000000E+00 -0.00000000000E+00 -0.45593999997E+02  0.45594000000E+02  0.51100000000E-03 0. -1.
    9900012    2    1    2    0    0 -0.11856337725E+02  0.77531809970E+01  0.12247257432E+02  0.72461551473E+02  0.69999975482E+02 0.  0.
         12    1    1    2    0    0  0.11856337725E+02 -0.77531809970E+01 -0.12247257432E+02  0.18726448527E+02  0.00000000000E+00 0. -1.
         11    1    3    3    0    0 -0.10948048325E+02  0.16630385681E+02 -0.98102713731E+01  0.22196191446E+02  0.51100000000E-03 0. -1.
        -11    1    3    3    0    0  0.17704492202E+02 -0.14627430701E+02  0.20394121679E+02  0.30713693564E+02  0.51100000000E-03 0.  1.
        -12    1    3    3    0    0 -0.18612781602E+02  0.57502260164E+01  0.16634071260E+01  0.19551666463E+02  0.00000000000E+00 0.  1.
</event>
<event>
 7    1  0.1345786E-013  0.7246155E+02  0.7816164E-02  0.1226708E+00
        -11   -1    0    0    0    0  0.00000000000E+00  0.00000000000E+00  0.45593999997E+02  0.45594000000E+02  0.51100000000E-03 0.  1.
         11   -1    0    0    0    0 -0.00000000000E+00 -0.00000000000E+00 -0.45593999997E+02  0.45594000000E+02  0.51100000000E-03 0. -1.
    9900012    2    1    2    0    0  0.11997606961E+02 -0.11978532805E+02 -0.79531228067E+01  0.72461548566E+02  0.69999971694E+02 0.  0.
         12    1    1    2    0    0 -0.11997606961E+02  0.11978532805E+02  0.79531228067E+01  0.18726451434E+02  0.00000000000E+00 0. -1.
         11    1    3    3    0    0  0.23963531121E+02  0.36800390469E+01  0.20421094150E-01  0.24244461810E+02  0.51100000000E-03 0. -1.
        -11    1    3    3    0    0 -0.26414738051E+02 -0.12198522127E+02 -0.13870235051E+02  0.32232371135E+02  0.51100000000E-03 0.  1.
        -12    1    3    3    0    0  0.14448813891E+02 -0.34600497247E+01  0.58966911503E+01  0.15984715621E+02  0.00000000000E+00 0.  1.
</event>
<event>
 7    1  0.1345786E-013  0.7246178E+02  0.7816164E-02  0.1226707E+00
        -11   -1    0    0    0    0  0.00000000000E+00  0.00000000000E+00  0.45593999997E+02  0.45594000000E+02  0.51100000000E-03 0.  1.
         11   -1    0    0    0    0 -0.00000000000E+00 -0.00000000000E+00 -0.45593999997E+02  0.45594000000E+02  0.51100000000E-03 0. -1.
    9900012    2    1    2    0    0  0.11000885779E+02 -0.14916699541E+02 -0.26728392912E+01  0.72461775528E+02  0.70000267354E+02 0.  0.
         12    1    1    2    0    0 -0.11000885779E+02  0.14916699541E+02  0.26728392912E+01  0.18726224472E+02  0.00000000000E+00 0. -1.
         11    1    3    3    0    0 -0.18100346258E+02 -0.28322261859E+02 -0.20214596847E+01  0.33672828081E+02  0.51100000000E-03 0. -1.
        -11    1    3    3    0    0  0.20934993401E+02  0.17312945758E+02  0.56644163680E+01  0.27750633372E+02  0.51100000000E-03 0.  1.
         12    1    3    3    0    0  0.81662386368E+01 -0.39073834396E+01 -0.63157959745E+01  0.11038314075E+02  0.00000000000E+00 0. -1.
</event>
<event>
 7    1  0.1345786E-013  0.7246155E+02  0.7816164E-02  0.1226708E+00
        -11   -1    0    0    0    0  0.00000000000E+00  0.00000000000E+00  0.45593999997E+02  0.45594000000E+02  0.51100000000E-03 0.  1.
         11   -1    0    0    0    0 -0.00000000000E+00 -0.00000000000E+00 -0.45593999997E+02  0.45594000000E+02  0.51100000000E-03 0. -1.
    9900012    2    1    2    0    0 -0.54123939384E+01 -0.14064863075E+02  0.11116007384E+02  0.72461548077E+02  0.69999971058E+02 0.  0.
         12    1    1    2    0    0  0.54123939384E+01  0.14064863075E+02 -0.11116007384E+02  0.18726451923E+02  0.00000000000E+00 0. -1.
         11    1    3    3    0    0 -0.25635680146E+02 -0.40955701855E+01  0.73904304714E+01  0.26992225816E+02  0.51100000000E-03 0. -1.
        -11    1    3    3    0    0  0.21176364788E+02 -0.14587571515E+02  0.17371018025E+02  0.31032046916E+02  0.51100000000E-03 0.  1.
         12    1    3    3    0    0 -0.95307858103E+00  0.46182786250E+01 -0.13645441112E+02  0.14437275345E+02  0.00000000000E+00 0. -1.
</event>
<event>
 7    1  0.1345786E-013  0.7246157E+02  0.7816164E-02  0.1226708E+00
        -11   -1    0    0    0    0  0.00000000000E+00  0.00000000000E+00  0.45593999997E+02  0.45594000000E+02  0.51100000000E-03 0. -1.
         11   -1    0    0    0    0 -0.00000000000E+00 -0.00000000000E+00 -0.45593999997E+02  0.45594000000E+02  0.51100000000E-03 0.  1.
    9900012    2    1    2    0    0 -0.13342370648E+02  0.74494195626E+01 -0.10824354569E+02  0.72461565257E+02  0.69999993438E+02 0.  0.
         12    1    1    2    0    0  0.13342370648E+02 -0.74494195626E+01  0.10824354569E+02  0.18726434743E+02  0.00000000000E+00 0. -1.
         11    1    3    3    0    0 -0.13497146527E+02  0.80455942394E+01  0.28307741720E+02  0.32376423406E+02  0.51100000000E-03 0. -1.
        -11    1    3    3    0    0 -0.26281818481E+01 -0.34076910533E+01 -0.14091102605E+02  0.14733596677E+02  0.51100000000E-03 0.  1.
         12    1    3    3    0    0  0.27829577266E+01  0.28115163765E+01 -0.25040993684E+02  0.25351545174E+02  0.00000000000E+00 0. -1.
</event>
<event>
 7    1  0.1345786E-013  0.7246164E+02  0.7816164E-02  0.1226708E+00
        -11   -1    0    0    0    0  0.00000000000E+00  0.00000000000E+00  0.45593999997E+02  0.45594000000E+02  0.51100000000E-03 0.  1.
         11   -1    0    0    0    0 -0.00000000000E+00 -0.00000000000E+00 -0.45593999997E+02  0.45594000000E+02  0.51100000000E-03 0. -1.
    9900012    2    1    2    0    0 -0.11194686213E+01  0.91719008588E+01  0.16288020550E+02  0.72461639200E+02  0.70000089763E+02 0.  0.
         12    1    1    2    0    0  0.11194686213E+01 -0.91719008588E+01 -0.16288020550E+02  0.18726360800E+02  0.00000000000E+00 0. -1.
         11    1    3    3    0    0 -0.20442453510E+02 -0.20688711565E+02  0.78968880718E+01  0.30137643127E+02  0.51100000000E-03 0. -1.
        -11    1    3    3    0    0  0.80425189659E+01  0.23980354441E+02 -0.27131327289E+01  0.25438172102E+02  0.51100000000E-03 0.  1.
        -12    1    3    3    0    0  0.11280465923E+02  0.58802579833E+01  0.11104265207E+02  0.16885823971E+02  0.00000000000E+00 0.  1.
</event>
<event>
 7    1  0.1345786E-013  0.7246161E+02  0.7816164E-02  0.1226708E+00
        -11   -1    0    0    0    0  0.00000000000E+00  0.00000000000E+00  0.45593999997E+02  0.45594000000E+02  0.51100000000E-03 0. -1.
         11   -1    0    0    0    0 -0.00000000000E+00 -0.00000000000E+00 -0.45593999997E+02  0.45594000000E+02  0.51100000000E-03 0.  1.
    9900012    2    1    2    0    0  0.52339903464E+01 -0.64676660226E+01 -0.16776535306E+02  0.72461614989E+02  0.70000058223E+02 0.  0.
         12    1    1    2    0    0 -0.52339903464E+01  0.64676660226E+01  0.16776535306E+02  0.18726385011E+02  0.00000000000E+00 0. -1.
         11    1    3    3    0    0  0.11447917200E+02  0.89945622112E+01 -0.19411453938E+01  0.14687579899E+02  0.51100000000E-03 0. -1.
        -11    1    3    3    0    0 -0.13660835389E+02 -0.33535889777E+02 -0.11081092326E+02  0.37869049818E+02  0.51100000000E-03 0.  1.
        -12    1    3    3    0    0  0.74469085352E+01  0.18073661543E+02 -0.37542975854E+01  0.19904985272E+02  0.00000000000E+00 0.  1.
</event>
<event>
 7    1  0.1345786E-013  0.7246160E+02  0.7816164E-02  0.1226708E+00
        -11   -1    0    0    0    0  0.00000000000E+00  0.00000000000E+00  0.45593999997E+02  0.45594000000E+02  0.51100000000E-03 0.  1.
         11   -1    0    0    0    0 -0.00000000000E+00 -0.00000000000E+00 -0.45593999997E+02  0.45594000000E+02  0.51100000000E-03 0. -1.
    9900012    2    1    2    0    0  0.68373941663E+01  0.70508936657E+01  0.15944052741E+02  0.72461604771E+02  0.70000044912E+02 0.  0.
         12    1    1    2    0    0 -0.68373941663E+01 -0.70508936657E+01 -0.15944052741E+02  0.18726395229E+02  0.00000000000E+00 0. -1.
         11    1    3    3    0    0 -0.12652917093E+02  0.15579933214E+02  0.76312123247E+01  0.21472448200E+02  0.51100000000E-03 0. -1.
        -11    1    3    3    0    0  0.29597960304E+02  0.74477979291E+01  0.47808783221E+00  0.30524375774E+02  0.51100000000E-03 0.  1.
         12    1    3    3    0    0 -0.10107649045E+02 -0.15976837477E+02  0.78347525841E+01  0.20464780796E+02  0.00000000000E+00 0. -1.
</event>
<event>
 7    1  0.1345786E-013  0.7246157E+02  0.7816164E-02  0.1226708E+00
        -11   -1    0    0    0    0  0.00000000000E+00  0.00000000000E+00  0.45593999997E+02  0.45594000000E+02  0.51100000000E-03 0. -1.
         11   -1    0    0    0    0 -0.00000000000E+00 -0.00000000000E+00 -0.45593999997E+02  0.45594000000E+02  0.51100000000E-03 0.  1.
    9900012    2    1    2    0    0  0.17899362407E+02  0.86761075952E+00 -0.54350067875E+01  0.72461568899E+02  0.69999998182E+02 0.  0.
         12    1    1    2    0    0 -0.17899362407E+02 -0.86761075952E+00  0.54350067875E+01  0.18726431101E+02  0.00000000000E+00 0. -1.
         11    1    3    3    0    0  0.85493560889E+01 -0.23103432321E+02  0.95578471152E+00  0.24653064703E+02  0.51100000000E-03 0. -1.
        -11    1    3    3    0    0  0.62347625316E+01  0.25286253545E+02 -0.20597895787E+02  0.33204520675E+02  0.51100000000E-03 0.  1.
        -12    1    3    3    0    0  0.31152437865E+01 -0.13152104639E+01  0.14207104288E+02  0.14603983521E+02  0.00000000000E+00 0.  1.
</event>
<event>
 7    1  0.1345786E-013  0.7246157E+02  0.7816164E-02  0.1226708E+00
        -11   -1    0    0    0    0  0.00000000000E+00  0.00000000000E+00  0.45593999997E+02  0.45594000000E+02  0.51100000000E-03 0. -1.
         11   -1    0    0    0    0 -0.00000000000E+00 -0.00000000000E+00 -0.45593999997E+02  0.45594000000E+02  0.51100000000E-03 0.  1.
    9900012    2    1    2    0    0 -0.23894163947E+01 -0.15576696608E+02 -0.10116146830E+02  0.72461569090E+02  0.69999998431E+02 0.  0.
         12    1    1    2    0    0  0.23894163947E+01  0.15576696608E+02  0.10116146830E+02  0.18726430910E+02  0.00000000000E+00 0. -1.
         11    1    3    3    0    0 -0.25561610528E+02 -0.19564472233E+02  0.50355887732E+01  0.32581001536E+02  0.51100000000E-03 0. -1.
        -11    1    3    3    0    0  0.21001067495E+02 -0.83405094142E+01 -0.15425223910E+02  0.27359577229E+02  0.51100000000E-03 0.  1.
        -12    1    3    3    0    0  0.21711266383E+01  0.12328285039E+02  0.27348830707E+00  0.12520990325E+02  0.00000000000E+00 0.  1.
</event>
<event>
 7    1  0.1345786E-013  0.7246138E+02  0.7816164E-02  0.1226709E+00
        -11   -1    0    0    0    0  0.00000000000E+00  0.00000000000E+00  0.45593999997E+02  0.45594000000E+02  0.51100000000E-03 0. -1.
         11   -1    0    0    0    0 -0.00000000000E+00 -0.00000000000E+00 -0.45593999997E+02  0.45594000000E+02  0.51100000000E-03 0.  1.
    9900012    2    1    2    0    0 -0.17982309159E-01  0.18679871054E+02  0.13222023443E+01  0.72461384582E+02  0.69999758075E+02 0.  0.
         12    1    1    2    0    0  0.17982309159E-01 -0.18679871054E+02 -0.13222023443E+01  0.18726615418E+02  0.00000000000E+00 0. -1.
         11    1    3    3    0    0  0.30751076752E+02 -0.28000199454E+01 -0.37301198279E+01  0.31102775234E+02  0.51100000000E-03 0.  1.
        -11    1    3    3    0    0 -0.23981553902E+02  0.23849919441E+02  0.48350863748E+01  0.34165942771E+02  0.51100000000E-03 0. -1.
        -12    1    3    3    0    0 -0.67875051590E+01 -0.23700284418E+01  0.21723579729E+00  0.71926665771E+01  0.00000000000E+00 0.  1.
</event>
<event>
 7    1  0.1345786E-013  0.7246156E+02  0.7816164E-02  0.1226708E+00
        -11   -1    0    0    0    0  0.00000000000E+00  0.00000000000E+00  0.45593999997E+02  0.45594000000E+02  0.51100000000E-03 0.  1.
         11   -1    0    0    0    0 -0.00000000000E+00 -0.00000000000E+00 -0.45593999997E+02  0.45594000000E+02  0.51100000000E-03 0. -1.
    9900012    2    1    2    0    0  0.14805001331E+02  0.24344751921E+01  0.11205572151E+02  0.72461559305E+02  0.69999985685E+02 0.  0.
         12    1    1    2    0    0 -0.14805001331E+02 -0.24344751921E+01 -0.11205572151E+02  0.18726440695E+02  0.00000000000E+00 0. -1.
         11    1    3    3    0    0 -0.18907124647E+02 -0.14895059864E+02 -0.40472833218E+01  0.24407430698E+02  0.51100000000E-03 0. -1.
        -11    1    3    3    0    0  0.11252337385E+02  0.17207625756E+02  0.15242562226E+02  0.25594006803E+02  0.51100000000E-03 0.  1.
        -12    1    3    3    0    0  0.22459788592E+02  0.12190929965E+00  0.10293246699E-01  0.22460121804E+02  0.00000000000E+00 0.  1.
</event>
<event>
 7    1  0.1345786E-013  0.7246150E+02  0.7816164E-02  0.1226708E+00
        -11   -1    0    0    0    0  0.00000000000E+00  0.00000000000E+00  0.45593999997E+02  0.45594000000E+02  0.51100000000E-03 0. -1.
         11   -1    0    0    0    0 -0.00000000000E+00 -0.00000000000E+00 -0.45593999997E+02  0.45594000000E+02  0.51100000000E-03 0.  1.
    9900012    2    1    2    0    0  0.14140241657E+02  0.10374509044E+02 -0.65654297966E+01  0.72461501650E+02  0.69999910578E+02 0.  0.
         12    1    1    2    0    0 -0.14140241657E+02 -0.10374509044E+02  0.65654297966E+01  0.18726498350E+02  0.00000000000E+00 0. -1.
         11    1    3    3    0    0 -0.58467484965E+01  0.96811010490E+01  0.12734501897E+02  0.17031609563E+02  0.51100000000E-03 0. -1.
        -11    1    3    3    0    0  0.21671223871E+02 -0.17857496427E+02 -0.23168954967E+02  0.36405117734E+02  0.51100000000E-03 0.  1.
        -12    1    3    3    0    0 -0.16842337177E+01  0.18550904422E+02  0.38690232735E+01  0.19024774353E+02  0.00000000000E+00 0.  1.
</event>
<event>
 7    1  0.1345786E-013  0.7246154E+02  0.7816164E-02  0.1226708E+00
        -11   -1    0    0    0    0  0.00000000000E+00  0.00000000000E+00  0.45593999997E+02  0.45594000000E+02  0.51100000000E-03 0. -1.
         11   -1    0    0    0    0 -0.00000000000E+00 -0.00000000000E+00 -0.45593999997E+02  0.45594000000E+02  0.51100000000E-03 0.  1.
    9900012    2    1    2    0    0 -0.15763536622E+02  0.71425548996E+01 -0.71536663390E+01  0.72461544932E+02  0.69999966960E+02 0.  0.
         12    1    1    2    0    0  0.15763536622E+02 -0.71425548996E+01  0.71536663390E+01  0.18726455068E+02  0.00000000000E+00 0. -1.
         11    1    3    3    0    0 -0.15398325289E+02  0.92903818207E+00  0.66911899236E+01  0.16814980122E+02  0.51100000000E-03 0. -1.
        -11    1    3    3    0    0  0.25090878366E+02  0.28062845912E+01 -0.15972401912E+02  0.29875492188E+02  0.51100000000E-03 0.  1.
        -12    1    3    3    0    0 -0.25456089699E+02  0.34072321264E+01  0.21275456499E+01  0.25771072621E+02  0.00000000000E+00 0.  1.
</event>
<event>
 7    1  0.1345786E-013  0.7246154E+02  0.7816164E-02  0.1226708E+00
        -11   -1    0    0    0    0  0.00000000000E+00  0.00000000000E+00  0.45593999997E+02  0.45594000000E+02  0.51100000000E-03 0.  1.
         11   -1    0    0    0    0 -0.00000000000E+00 -0.00000000000E+00 -0.45593999997E+02  0.45594000000E+02  0.51100000000E-03 0. -1.
    9900012    2    1    2    0    0 -0.16948190165E+02  0.58009148752E+00  0.79437229363E+01  0.72461537705E+02  0.69999957546E+02 0.  0.
         12    1    1    2    0    0  0.16948190165E+02 -0.58009148752E+00 -0.79437229363E+01  0.18726462295E+02  0.00000000000E+00 0. -1.
         11    1    3    3    0    0  0.51872591253E+01  0.22691839216E+01 -0.24047708888E+02  0.24705245514E+02  0.51100000000E-03 0. -1.
        -11    1    3    3    0    0 -0.51979759465E+01 -0.82911520126E+01  0.27272612457E+02  0.28975119433E+02  0.51100000000E-03 0.  1.
        -12    1    3    3    0    0 -0.16937473344E+02  0.66020595785E+01  0.47188193670E+01  0.18781172758E+02  0.00000000000E+00 0.  1.
</event>
<event>
 7    1  0.1345786E-013  0.7246157E+02  0.7816164E-02  0.1226708E+00
        -11   -1    0    0    0    0  0.00000000000E+00  0.00000000000E+00  0.45593999997E+02  0.45594000000E+02  0.51100000000E-03 0. -1.
         11   -1    0    0    0    0 -0.00000000000E+00 -0.00000000000E+00 -0.45593999997E+02  0.45594000000E+02  0.51100000000E-03 0.  1.
    9900012    2    1    2    0    0  0.12313536255E+02  0.43113524757E+01 -0.13433847059E+02  0.72461569959E+02  0.69999999563E+02 0.  0.
         12    1    1    2    0    0 -0.12313536255E+02 -0.43113524757E+01  0.13433847059E+02  0.18726430041E+02  0.00000000000E+00 0. -1.
         11    1    3    3    0    0 -0.11625923844E+02 -0.67208556481E+01  0.13326162607E+02  0.18918737166E+02  0.51100000000E-03 0. -1.
        -11    1    3    3    0    0  0.20587186170E+02 -0.99270544674E+01 -0.55150722131E+01  0.23511585795E+02  0.51100000000E-03 0.  1.
         12    1    3    3    0    0  0.33522739282E+01  0.20959262591E+02 -0.21244937453E+02  0.30031246998E+02  0.00000000000E+00 0. -1.
</event>
<event>
 7    1  0.1345786E-013  0.7246156E+02  0.7816164E-02  0.1226708E+00
        -11   -1    0    0    0    0  0.00000000000E+00  0.00000000000E+00  0.45593999997E+02  0.45594000000E+02  0.51100000000E-03 0.  1.
         11   -1    0    0    0    0 -0.00000000000E+00 -0.00000000000E+00 -0.45593999997E+02  0.45594000000E+02  0.51100000000E-03 0. -1.
    9900012    2    1    2    0    0 -0.66032598637E+01 -0.16953949442E+02  0.44317004804E+01  0.72461563830E+02  0.69999991578E+02 0.  0.
         12    1    1    2    0    0  0.66032598637E+01  0.16953949442E+02 -0.44317004804E+01  0.18726436170E+02  0.00000000000E+00 0. -1.
         11    1    3    3    0    0 -0.63559251306E+01  0.14400881256E+02 -0.53672367090E+01  0.16631007046E+02  0.51100000000E-03 0. -1.
        -11    1    3    3    0    0 -0.12760249240E+02 -0.15738081569E+01  0.18358436109E+02  0.22412786739E+02  0.51100000000E-03 0.  1.
         12    1    3    3    0    0  0.12512914507E+02 -0.29781022541E+02 -0.85594989192E+01  0.33417770045E+02  0.00000000000E+00 0. -1.
</event>
<event>
 7    1  0.1345786E-013  0.7246155E+02  0.7816164E-02  0.1226708E+00
        -11   -1    0    0    0    0  0.00000000000E+00  0.00000000000E+00  0.45593999997E+02  0.45594000000E+02  0.51100000000E-03 0. -1.
         11   -1    0    0    0    0 -0.00000000000E+00 -0.00000000000E+00 -0.45593999997E+02  0.45594000000E+02  0.51100000000E-03 0.  1.
    9900012    2    1    2    0    0 -0.36454658934E+00 -0.45726249184E+01 -0.18155943182E+02  0.72461546367E+02  0.69999968830E+02 0.  0.
         12    1    1    2    0    0  0.36454658934E+00  0.45726249184E+01  0.18155943182E+02  0.18726453633E+02  0.00000000000E+00 0. -1.
         11    1    3    3    0    0 -0.14215197065E+02  0.20996078016E+02  0.12925835061E+02  0.28460223680E+02  0.51100000000E-03 0. -1.
        -11    1    3    3    0    0  0.12754979587E+02 -0.21288141000E+02 -0.19362288798E+02  0.31476541730E+02  0.51100000000E-03 0.  1.
         12    1    3    3    0    0  0.10956708883E+01 -0.42805619335E+01 -0.11719489445E+02  0.12524780957E+02  0.00000000000E+00 0. -1.
</event>
<event>
 7    1  0.1345786E-013  0.7246160E+02  0.7816164E-02  0.1226708E+00
        -11   -1    0    0    0    0  0.00000000000E+00  0.00000000000E+00  0.45593999997E+02  0.45594000000E+02  0.51100000000E-03 0. -1.
         11   -1    0    0    0    0 -0.00000000000E+00 -0.00000000000E+00 -0.45593999997E+02  0.45594000000E+02  0.51100000000E-03 0.  1.
    9900012    2    1    2    0    0  0.26208840240E+01 -0.18540799245E+02 -0.21824415106E+00  0.72461604185E+02  0.70000044149E+02 0.  0.
         12    1    1    2    0    0 -0.26208840240E+01  0.18540799245E+02  0.21824415106E+00  0.18726395815E+02  0.00000000000E+00 0. -1.
         11    1    3    3    0    0 -0.26717023261E+02 -0.92431267489E+00  0.29934957455E+01  0.26900087414E+02  0.51100000000E-03 0. -1.
        -11    1    3    3    0    0  0.21451060925E+01 -0.14937297162E+02 -0.90832362708E+01  0.17613333247E+02  0.51100000000E-03 0.  1.
         12    1    3    3    0    0  0.27192801193E+02 -0.26791894079E+01  0.58714963742E+01  0.27948183524E+02  0.00000000000E+00 0. -1.
</event>
<event>
 7    1  0.1345786E-013  0.7246157E+02  0.7816164E-02  0.1226708E+00
        -11   -1    0    0    0    0  0.00000000000E+00  0.00000000000E+00  0.45593999997E+02  0.45594000000E+02  0.51100000000E-03 0. -1.
         11   -1    0    0    0    0 -0.00000000000E+00 -0.00000000000E+00 -0.45593999997E+02  0.45594000000E+02  0.51100000000E-03 0.  1.
    9900012    2    1    2    0    0 -0.11827803710E+02 -0.86435199216E+01 -0.11664977190E+02  0.72461572949E+02  0.70000003459E+02 0.  0.
         12    1    1    2    0    0  0.11827803710E+02  0.86435199216E+01  0.11664977190E+02  0.18726427051E+02  0.00000000000E+00 0. -1.
         11    1    3    3    0    0  0.10765141092E+02 -0.20454505963E+01  0.24200581927E+02  0.26565773031E+02  0.51100000000E-03 0. -1.
        -11    1    3    3    0    0 -0.18352497671E+01  0.37236844579E+01 -0.11672331663E+02  0.12388595335E+02  0.51100000000E-03 0.  1.
         12    1    3    3    0    0 -0.20757695035E+02 -0.10321753783E+02 -0.24193227454E+02  0.33507204583E+02  0.00000000000E+00 0. -1.
</event>
<event>
 7    1  0.1345786E-013  0.7246160E+02  0.7816164E-02  0.1226708E+00
        -11   -1    0    0    0    0  0.00000000000E+00  0.00000000000E+00  0.45593999997E+02  0.45594000000E+02  0.51100000000E-03 0. -1.
         11   -1    0    0    0    0 -0.00000000000E+00 -0.00000000000E+00 -0.45593999997E+02  0.45594000000E+02  0.51100000000E-03 0.  1.
    9900012    2    1    2    0    0 -0.12250349779E+02 -0.90707700276E+01 -0.10877871258E+02  0.72461600941E+02  0.70000039923E+02 0.  0.
         12    1    1    2    0    0  0.12250349779E+02  0.90707700276E+01  0.10877871258E+02  0.18726399059E+02  0.00000000000E+00 0. -1.
         11    1    3    3    0    0 -0.40143728107E+02 -0.62163197411E+01 -0.55595516140E+01  0.41000855502E+02  0.51100000000E-03 0. -1.
        -11    1    3    3    0    0  0.89064128667E+01 -0.71980465686E+01 -0.88847213090E+00  0.11485880356E+02  0.51100000000E-03 0.  1.
         12    1    3    3    0    0  0.18986965462E+02  0.43435962821E+01 -0.44298475136E+01  0.19974865084E+02  0.00000000000E+00 0. -1.
</event>
<event>
 7    1  0.1345786E-013  0.7246160E+02  0.7816164E-02  0.1226708E+00
        -11   -1    0    0    0    0  0.00000000000E+00  0.00000000000E+00  0.45593999997E+02  0.45594000000E+02  0.51100000000E-03 0.  1.
         11   -1    0    0    0    0 -0.00000000000E+00 -0.00000000000E+00 -0.45593999997E+02  0.45594000000E+02  0.51100000000E-03 0. -1.
    9900012    2    1    2    0    0 -0.32688583824E+01 -0.11380553875E+02  0.14507783449E+02  0.72461595587E+02  0.70000032949E+02 0.  0.
         12    1    1    2    0    0  0.32688583824E+01  0.11380553875E+02 -0.14507783449E+02  0.18726404413E+02  0.00000000000E+00 0. -1.
         11    1    3    3    0    0  0.12913615738E+02 -0.25496069116E+02 -0.11468635672E+02  0.30795139491E+02  0.51100000000E-03 0.  1.
        -11    1    3    3    0    0 -0.14273082346E+02  0.44582059541E+01  0.27882782746E+02  0.31639311843E+02  0.51100000000E-03 0. -1.
         12    1    3    3    0    0 -0.19093917750E+01  0.96573092872E+01 -0.19063636244E+01  0.10027144254E+02  0.00000000000E+00 0. -1.
</event>
<event>
 7    1  0.1345786E-013  0.7246159E+02  0.7816164E-02  0.1226708E+00
        -11   -1    0    0    0    0  0.00000000000E+00  0.00000000000E+00  0.45593999997E+02  0.45594000000E+02  0.51100000000E-03 0. -1.
         11   -1    0    0    0    0 -0.00000000000E+00 -0.00000000000E+00 -0.45593999997E+02  0.45594000000E+02  0.51100000000E-03 0.  1.
    9900012    2    1    2    0    0  0.66691666698E+00 -0.18707144752E+00 -0.18713594976E+02  0.72461590561E+02  0.70000026401E+02 0.  0.
         12    1    1    2    0    0 -0.66691666698E+00  0.18707144752E+00  0.18713594976E+02  0.18726409439E+02  0.00000000000E+00 0. -1.
         11    1    3    3    0    0  0.50590078679E+01  0.30270604055E+02 -0.15613655034E+01  0.30730130051E+02  0.51100000000E-03 0. -1.
        -11    1    3    3    0    0 -0.95328127808E+01 -0.34978390732E+01 -0.75540800399E+01  0.12655967889E+02  0.51100000000E-03 0.  1.
         12    1    3    3    0    0  0.51407215799E+01 -0.26959836429E+02 -0.95981494323E+01  0.29075492621E+02  0.00000000000E+00 0. -1.
</event>
<event>
 7    1  0.1345786E-013  0.7246149E+02  0.7816164E-02  0.1226708E+00
        -11   -1    0    0    0    0  0.00000000000E+00  0.00000000000E+00  0.45593999997E+02  0.45594000000E+02  0.51100000000E-03 0.  1.
         11   -1    0    0    0    0 -0.00000000000E+00 -0.00000000000E+00 -0.45593999997E+02  0.45594000000E+02  0.51100000000E-03 0. -1.
    9900012    2    1    2    0    0 -0.30268702473E+01  0.14675002395E+02  0.11232290580E+02  0.72461494974E+02  0.69999901881E+02 0.  0.
         12    1    1    2    0    0  0.30268702473E+01 -0.14675002395E+02 -0.11232290580E+02  0.18726505026E+02  0.00000000000E+00 0. -1.
         11    1    3    3    0    0 -0.32222117115E+02 -0.38504493125E+00  0.14030824205E+02  0.35146509345E+02  0.51100000000E-03 0. -1.
        -11    1    3    3    0    0  0.12295013091E+02  0.79949881515E+01  0.73171605364E+01  0.16389875564E+02  0.51100000000E-03 0.  1.
         12    1    3    3    0    0  0.16900233777E+02  0.70650591752E+01 -0.10115694161E+02  0.20925110065E+02  0.00000000000E+00 0. -1.
</event>
<event>
 7    1  0.1345786E-013  0.7246213E+02  0.7816164E-02  0.1226707E+00
        -11   -1    0    0    0    0  0.00000000000E+00  0.00000000000E+00  0.45593999997E+02  0.45594000000E+02  0.51100000000E-03 0. -1.
         11   -1    0    0    0    0 -0.00000000000E+00 -0.00000000000E+00 -0.45593999997E+02  0.45594000000E+02  0.51100000000E-03 0.  1.
    9900012    2    1    2    0    0  0.37790526845E+01  0.84347200438E+01 -0.16285958846E+02  0.72462130276E+02  0.70000729476E+02 0.  0.
         12    1    1    2    0    0 -0.37790526845E+01 -0.84347200438E+01  0.16285958846E+02  0.18725869724E+02  0.00000000000E+00 0. -1.
         11    1    3    3    0    0  0.86240342019E+01 -0.53631642563E+01 -0.76340043301E+01  0.12704940737E+02  0.51100000000E-03 0. -1.
        -11    1    3    3    0    0 -0.30061296164E+02  0.68447762599E+01 -0.12595264289E+02  0.33304251559E+02  0.51100000000E-03 0.  1.
        -12    1    3    3    0    0  0.25216314647E+02  0.69531080403E+01  0.39433097736E+01  0.26452937980E+02  0.00000000000E+00 0.  1.
</event>
<event>
 7    1  0.1345786E-013  0.7246162E+02  0.7816164E-02  0.1226708E+00
        -11   -1    0    0    0    0  0.00000000000E+00  0.00000000000E+00  0.45593999997E+02  0.45594000000E+02  0.51100000000E-03 0.  1.
         11   -1    0    0    0    0 -0.00000000000E+00 -0.00000000000E+00 -0.45593999997E+02  0.45594000000E+02  0.51100000000E-03 0. -1.
    9900012    2    1    2    0    0 -0.85344978981E+01  0.87785669099E+01  0.14169563071E+02  0.72461617301E+02  0.70000061234E+02 0.  0.
         12    1    1    2    0    0  0.85344978981E+01 -0.87785669099E+01 -0.14169563071E+02  0.18726382699E+02  0.00000000000E+00 0. -1.
         11    1    3    3    0    0  0.90254308576E+01  0.20644932310E+02 -0.17588750205E+02  0.28583837502E+02  0.51100000000E-03 0. -1.
        -11    1    3    3    0    0 -0.83661125185E+01 -0.24137298627E+01  0.29167375283E+02  0.30439344797E+02  0.51100000000E-03 0.  1.
         12    1    3    3    0    0 -0.91938162372E+01 -0.94526355378E+01  0.25909379941E+01  0.13438435002E+02  0.00000000000E+00 0. -1.
</event>
<event>
 7    1  0.1345786E-013  0.7246157E+02  0.7816164E-02  0.1226708E+00
        -11   -1    0    0    0    0  0.00000000000E+00  0.00000000000E+00  0.45593999997E+02  0.45594000000E+02  0.51100000000E-03 0.  1.
         11   -1    0    0    0    0 -0.00000000000E+00 -0.00000000000E+00 -0.45593999997E+02  0.45594000000E+02  0.51100000000E-03 0. -1.
    9900012    2    1    2    0    0 -0.16181113652E+02  0.94239513324E+01  0.19968856546E+00  0.72461570195E+02  0.69999999870E+02 0.  0.
         12    1    1    2    0    0  0.16181113652E+02 -0.94239513324E+01 -0.19968856546E+00  0.18726429805E+02  0.00000000000E+00 0. -1.
         11    1    3    3    0    0  0.38414565932E+01  0.28525604049E+02  0.75417315937E+01  0.29754740644E+02  0.51100000000E-03 0. -1.
        -11    1    3    3    0    0 -0.11930287766E+02 -0.13559922761E+02 -0.19833621896E+02  0.26824910610E+02  0.51100000000E-03 0.  1.
         12    1    3    3    0    0 -0.80922824791E+01 -0.55417299554E+01  0.12491578868E+02  0.15881918941E+02  0.00000000000E+00 0. -1.
</event>
<event>
 7    1  0.1345786E-013  0.7246142E+02  0.7816164E-02  0.1226708E+00
        -11   -1    0    0    0    0  0.00000000000E+00  0.00000000000E+00  0.45593999997E+02  0.45594000000E+02  0.51100000000E-03 0. -1.
         11   -1    0    0    0    0 -0.00000000000E+00 -0.00000000000E+00 -0.45593999997E+02  0.45594000000E+02  0.51100000000E-03 0.  1.
    9900012    2    1    2    0    0  0.14383737012E+02  0.35070731511E+01 -0.11467047399E+02  0.72461424537E+02  0.69999810124E+02 0.  0.
         12    1    1    2    0    0 -0.14383737012E+02 -0.35070731511E+01  0.11467047399E+02  0.18726575463E+02  0.00000000000E+00 0. -1.
         11    1    3    3    0    0 -0.22676206573E+02  0.76694467006E+01 -0.18971512409E+02  0.30544214519E+02  0.51100000000E-03 0. -1.
        -11    1    3    3    0    0  0.36400348611E+02  0.50169531497E+00  0.76732564949E+01  0.37203708722E+02  0.51100000000E-03 0.  1.
         12    1    3    3    0    0  0.65959497312E+00 -0.46640688645E+01 -0.16879148482E+00  0.47135012959E+01  0.00000000000E+00 0. -1.
</event>
<event>
 8    1  0.1345786E-013  0.7246155E+02  0.7816164E-02  0.1226708E+00
        -11   -1    0    0    0    0  0.00000000000E+00  0.00000000000E+00  0.45593999997E+02  0.45594000000E+02  0.51100000000E-03 0.  1.
         11   -1    0    0    0    0 -0.00000000000E+00 -0.00000000000E+00 -0.45593999997E+02  0.45594000000E+02  0.51100000000E-03 0. -1.
    9900012    2    1    2    0    0 -0.85136179427E+01  0.11913040875E+02  0.11673801221E+02  0.72461551636E+02  0.69999975695E+02 0.  0.
         24    2    3    3    0    0 -0.58542517301E+00  0.24312208721E+02  0.15805139098E+02  0.57175494042E+02  0.49272796567E+02 0.  0.
         12    1    1    2    0    0  0.85136179427E+01 -0.11913040875E+02 -0.11673801221E+02  0.18726448364E+02  0.00000000000E+00 0. -1.
         11    1    3    3    0    0 -0.79281927697E+01 -0.12399167846E+02 -0.41313378765E+01  0.15286057594E+02  0.51100000000E-03 0. -1.
        -11    1    4    4    0    0 -0.78848345006E+01  0.36604429011E+02  0.19765884361E+02  0.42340819822E+02  0.51100000000E-03 0.  1.
         12    1    4    4    0    0  0.72994093276E+01 -0.12292220290E+02 -0.39607452638E+01  0.14834674221E+02  0.00000000000E+00 0. -1.
</event>
<event>
 7    1  0.1345786E-013  0.7246154E+02  0.7816164E-02  0.1226708E+00
        -11   -1    0    0    0    0  0.00000000000E+00  0.00000000000E+00  0.45593999997E+02  0.45594000000E+02  0.51100000000E-03 0.  1.
         11   -1    0    0    0    0 -0.00000000000E+00 -0.00000000000E+00 -0.45593999997E+02  0.45594000000E+02  0.51100000000E-03 0. -1.
    9900012    2    1    2    0    0 -0.17402313755E+02  0.24635332223E+01 -0.64630277198E+01  0.72461541518E+02  0.69999962513E+02 0.  0.
         12    1    1    2    0    0  0.17402313755E+02 -0.24635332223E+01  0.64630277198E+01  0.18726458482E+02  0.00000000000E+00 0. -1.
         11    1    3    3    0    0 -0.18000824782E+02  0.13941098068E+02 -0.46953181578E+01  0.23247148664E+02  0.51100000000E-03 0.  1.
        -11    1    3    3    0    0  0.18009444999E+02 -0.17112852223E+02  0.10722068754E+02  0.27058318111E+02  0.51100000000E-03 0. -1.
         12    1    3    3    0    0 -0.17410933973E+02  0.56352873772E+01 -0.12489778316E+02  0.22156074743E+02  0.00000000000E+00 0. -1.
</event>
<event>
 7    1  0.1345786E-013  0.7246158E+02  0.7816164E-02  0.1226708E+00
        -11   -1    0    0    0    0  0.00000000000E+00  0.00000000000E+00  0.45593999997E+02  0.45594000000E+02  0.51100000000E-03 0. -1.
         11   -1    0    0    0    0 -0.00000000000E+00 -0.00000000000E+00 -0.45593999997E+02  0.45594000000E+02  0.51100000000E-03 0.  1.
    9900012    2    1    2    0    0 -0.99515788124E+01  0.14084620416E+02  0.72985192490E+01  0.72461579190E+02  0.70000011588E+02 0.  0.
         12    1    1    2    0    0  0.99515788124E+01 -0.14084620416E+02 -0.72985192490E+01  0.18726420810E+02  0.00000000000E+00 0. -1.
         11    1    3    3    0    0 -0.12379427122E+02 -0.14569279912E+02  0.96837854217E+01  0.21431048350E+02  0.51100000000E-03 0.  1.
        -11    1    3    3    0    0  0.22017660620E+02  0.15338135347E+02  0.21270087696E+01  0.26917651117E+02  0.51100000000E-03 0. -1.
        -12    1    3    3    0    0 -0.19589812310E+02  0.13315764981E+02 -0.45122749424E+01  0.24112879723E+02  0.00000000000E+00 0.  1.
</event>
<event>
 7    1  0.1345786E-013  0.7246161E+02  0.7816164E-02  0.1226708E+00
        -11   -1    0    0    0    0  0.00000000000E+00  0.00000000000E+00  0.45593999997E+02  0.45594000000E+02  0.51100000000E-03 0. -1.
         11   -1    0    0    0    0 -0.00000000000E+00 -0.00000000000E+00 -0.45593999997E+02  0.45594000000E+02  0.51100000000E-03 0.  1.
    9900012    2    1    2    0    0  0.14271458847E+02 -0.90324873821E+01 -0.80880882145E+01  0.72461613886E+02  0.70000056787E+02 0.  0.
         12    1    1    2    0    0 -0.14271458847E+02  0.90324873821E+01  0.80880882145E+01  0.18726386114E+02  0.00000000000E+00 0. -1.
         11    1    3    3    0    0  0.23105852790E+02 -0.20059760217E+02  0.25074488798E+00  0.30599628860E+02  0.51100000000E-03 0.  1.
        -11    1    3    3    0    0  0.10133445938E+02  0.16259741876E+02  0.26238783024E+01  0.19337804168E+02  0.51100000000E-03 0. -1.
        -12    1    3    3    0    0 -0.18967839881E+02 -0.52324690410E+01 -0.10962711405E+02  0.22524180859E+02  0.00000000000E+00 0.  1.
</event>
<event>
 7    1  0.1345786E-013  0.7246183E+02  0.7816164E-02  0.1226707E+00
        -11   -1    0    0    0    0  0.00000000000E+00  0.00000000000E+00  0.45593999997E+02  0.45594000000E+02  0.51100000000E-03 0. -1.
         11   -1    0    0    0    0 -0.00000000000E+00 -0.00000000000E+00 -0.45593999997E+02  0.45594000000E+02  0.51100000000E-03 0.  1.
    9900012    2    1    2    0    0  0.12004356977E+02  0.10306651295E+02 -0.10016875169E+02  0.72461830197E+02  0.70000338571E+02 0.  0.
         12    1    1    2    0    0 -0.12004356977E+02 -0.10306651295E+02  0.10016875169E+02  0.18726169803E+02  0.00000000000E+00 0. -1.
         11    1    3    3    0    0 -0.76922594129E+01  0.85429418848E+01  0.96161549561E+01  0.14987432980E+02  0.51100000000E-03 0. -1.
        -11    1    3    3    0    0  0.34157185723E+02  0.12082802703E+02 -0.12419508675E+02  0.38300804869E+02  0.51100000000E-03 0.  1.
        -12    1    3    3    0    0 -0.14460569333E+02 -0.10319093293E+02 -0.72135214497E+01  0.19173592348E+02  0.00000000000E+00 0.  1.
</event>
<event>
 7    1  0.1345786E-013  0.7246159E+02  0.7816164E-02  0.1226708E+00
        -11   -1    0    0    0    0  0.00000000000E+00  0.00000000000E+00  0.45593999997E+02  0.45594000000E+02  0.51100000000E-03 0. -1.
         11   -1    0    0    0    0 -0.00000000000E+00 -0.00000000000E+00 -0.45593999997E+02  0.45594000000E+02  0.51100000000E-03 0.  1.
    9900012    2    1    2    0    0 -0.95596001674E+00 -0.10327056542E+02 -0.15592188649E+02  0.72461593425E+02  0.70000030131E+02 0.  0.
         12    1    1    2    0    0  0.95596001674E+00  0.10327056542E+02  0.15592188649E+02  0.18726406575E+02  0.00000000000E+00 0. -1.
         11    1    3    3    0    0 -0.14171608202E+02 -0.11896521795E+02 -0.21980315054E+02  0.28731445491E+02  0.51100000000E-03 0. -1.
        -11    1    3    3    0    0 -0.97655078699E+01 -0.58953672381E-02  0.16020477031E+02  0.18762219039E+02  0.51100000000E-03 0.  1.
        -12    1    3    3    0    0  0.22981156055E+02  0.15753606204E+01 -0.96323506253E+01  0.24967928895E+02  0.00000000000E+00 0.  1.
</event>
<event>
 7    1  0.1345786E-013  0.7246151E+02  0.7816164E-02  0.1226708E+00
        -11   -1    0    0    0    0  0.00000000000E+00  0.00000000000E+00  0.45593999997E+02  0.45594000000E+02  0.51100000000E-03 0.  1.
         11   -1    0    0    0    0 -0.00000000000E+00 -0.00000000000E+00 -0.45593999997E+02  0.45594000000E+02  0.51100000000E-03 0. -1.
    9900012    2    1    2    0    0  0.90110908671E+01 -0.13749029330E+02  0.89691649266E+01  0.72461508454E+02  0.69999919442E+02 0.  0.
         12    1    1    2    0    0 -0.90110908671E+01  0.13749029330E+02 -0.89691649266E+01  0.18726491546E+02  0.00000000000E+00 0. -1.
         11    1    3    3    0    0 -0.98963739409E+00  0.30027728198E+01 -0.32615878119E+01  0.45424643196E+01  0.51100000000E-03 0. -1.
        -11    1    3    3    0    0 -0.54810191685E+01 -0.24410892257E+01  0.35798325746E+02  0.36297666787E+02  0.51100000000E-03 0.  1.
        -12    1    3    3    0    0  0.15481747430E+02 -0.14310712924E+02 -0.23567573008E+02  0.31621377347E+02  0.00000000000E+00 0.  1.
</event>
<event>
 7    1  0.1345786E-013  0.7246154E+02  0.7816164E-02  0.1226708E+00
        -11   -1    0    0    0    0  0.00000000000E+00  0.00000000000E+00  0.45593999997E+02  0.45594000000E+02  0.51100000000E-03 0.  1.
         11   -1    0    0    0    0 -0.00000000000E+00 -0.00000000000E+00 -0.45593999997E+02  0.45594000000E+02  0.51100000000E-03 0. -1.
    9900012    2    1    2    0    0  0.53695610230E+00 -0.38583073351E+01  0.18316808506E+02  0.72461539278E+02  0.69999959595E+02 0.  0.
         12    1    1    2    0    0 -0.53695610230E+00  0.38583073351E+01 -0.18316808506E+02  0.18726460722E+02  0.00000000000E+00 0. -1.
         11    1    3    3    0    0  0.29417403105E+02 -0.16931636287E+02  0.14913722694E+02  0.37074021061E+02  0.51100000000E-03 0. -1.
        -11    1    3    3    0    0 -0.22027434603E+02  0.10865860319E+02  0.91136855591E+01  0.26197978174E+02  0.51100000000E-03 0.  1.
         12    1    3    3    0    0 -0.68530123996E+01  0.22074686329E+01 -0.57105997470E+01  0.91895400421E+01  0.00000000000E+00 0. -1.
</event>
<event>
 7    1  0.1345786E-013  0.7246158E+02  0.7816164E-02  0.1226708E+00
        -11   -1    0    0    0    0  0.00000000000E+00  0.00000000000E+00  0.45593999997E+02  0.45594000000E+02  0.51100000000E-03 0. -1.
         11   -1    0    0    0    0 -0.00000000000E+00 -0.00000000000E+00 -0.45593999997E+02  0.45594000000E+02  0.51100000000E-03 0.  1.
    9900012    2    1    2    0    0  0.11547221861E+02  0.13399830590E+02 -0.61469406181E+01  0.72461583592E+02  0.70000017322E+02 0.  0.
         12    1    1    2    0    0 -0.11547221861E+02 -0.13399830590E+02  0.61469406181E+01  0.18726416408E+02  0.00000000000E+00 0. -1.
         11    1    3    3    0    0 -0.22713336605E+02  0.20177086553E+00 -0.73504273716E+01  0.23873942992E+02  0.51100000000E-03 0. -1.
        -11    1    3    3    0    0  0.75956583002E+01  0.19544123684E+02 -0.16323328662E+01  0.21031673885E+02  0.51100000000E-03 0.  1.
         12    1    3    3    0    0  0.26664900165E+02 -0.63460639596E+01  0.28358196196E+01  0.27555966714E+02  0.00000000000E+00 0. -1.
</event>
<event>
 7    1  0.1345786E-013  0.7246152E+02  0.7816164E-02  0.1226708E+00
        -11   -1    0    0    0    0  0.00000000000E+00  0.00000000000E+00  0.45593999997E+02  0.45594000000E+02  0.51100000000E-03 0.  1.
         11   -1    0    0    0    0 -0.00000000000E+00 -0.00000000000E+00 -0.45593999997E+02  0.45594000000E+02  0.51100000000E-03 0. -1.
    9900012    2    1    2    0    0  0.95143993469E+01  0.15122212918E+02  0.56103318814E+01  0.72461522961E+02  0.69999938339E+02 0.  0.
         12    1    1    2    0    0 -0.95143993469E+01 -0.15122212918E+02 -0.56103318814E+01  0.18726477039E+02  0.00000000000E+00 0. -1.
         11    1    3    3    0    0  0.27405380257E+02  0.28263633979E+02 -0.83329356232E+01  0.40240846029E+02  0.51100000000E-03 0. -1.
        -11    1    3    3    0    0 -0.98358997832E+01  0.21489636750E+01  0.10597451288E+02  0.14617419180E+02  0.51100000000E-03 0.  1.
         12    1    3    3    0    0 -0.80550811266E+01 -0.15290384736E+02  0.33458162168E+01  0.17603257752E+02  0.00000000000E+00 0. -1.
</event>
<event>
 7    1  0.1345786E-013  0.7246163E+02  0.7816164E-02  0.1226708E+00
        -11   -1    0    0    0    0  0.00000000000E+00  0.00000000000E+00  0.45593999997E+02  0.45594000000E+02  0.51100000000E-03 0.  1.
         11   -1    0    0    0    0 -0.00000000000E+00 -0.00000000000E+00 -0.45593999997E+02  0.45594000000E+02  0.51100000000E-03 0. -1.
    9900012    2    1    2    0    0 -0.18031006695E+02 -0.10662110137E+01  0.49419695038E+01  0.72461626327E+02  0.70000072993E+02 0.  0.
         12    1    1    2    0    0  0.18031006695E+02  0.10662110137E+01 -0.49419695038E+01  0.18726373673E+02  0.00000000000E+00 0. -1.
         11    1    3    3    0    0 -0.80756081744E+01  0.74116096985E+01 -0.12119006722E+02  0.16340677155E+02  0.51100000000E-03 0. -1.
        -11    1    3    3    0    0 -0.90127828828E+01 -0.30206183256E+02  0.77369132019E+01  0.32457720011E+02  0.51100000000E-03 0.  1.
        -12    1    3    3    0    0 -0.94261563794E+00  0.21728362543E+02  0.93240630235E+01  0.23663229161E+02  0.00000000000E+00 0.  1.
</event>
<event>
 7    1  0.1345786E-013  0.7246195E+02  0.7816164E-02  0.1226707E+00
        -11   -1    0    0    0    0  0.00000000000E+00  0.00000000000E+00  0.45593999997E+02  0.45594000000E+02  0.51100000000E-03 0. -1.
         11   -1    0    0    0    0 -0.00000000000E+00 -0.00000000000E+00 -0.45593999997E+02  0.45594000000E+02  0.51100000000E-03 0.  1.
    9900012    2    1    2    0    0 -0.79356468222E+00 -0.14307809449E+02  0.12054954713E+02  0.72461946244E+02  0.70000489743E+02 0.  0.
         12    1    1    2    0    0  0.79356468222E+00  0.14307809449E+02 -0.12054954713E+02  0.18726053756E+02  0.00000000000E+00 0. -1.
         11    1    3    3    0    0 -0.18977396824E+02  0.11662109888E+02  0.19889338799E+02  0.29861885329E+02  0.51100000000E-03 0. -1.
        -11    1    3    3    0    0  0.11265768905E+02 -0.54608393417E+01 -0.15240712658E+02  0.19723530057E+02  0.51100000000E-03 0.  1.
        -12    1    3    3    0    0  0.69180632375E+01 -0.20509079995E+02  0.74063285719E+01  0.22876530859E+02  0.00000000000E+00 0.  1.
</event>
<event>
 7    1  0.1345786E-013  0.7246146E+02  0.7816164E-02  0.1226708E+00
        -11   -1    0    0    0    0  0.00000000000E+00  0.00000000000E+00  0.45593999997E+02  0.45594000000E+02  0.51100000000E-03 0. -1.
         11   -1    0    0    0    0 -0.00000000000E+00 -0.00000000000E+00 -0.45593999997E+02  0.45594000000E+02  0.51100000000E-03 0.  1.
    9900012    2    1    2    0    0 -0.16891705586E+02 -0.54320779805E+01 -0.59871723041E+01  0.72461456779E+02  0.69999852126E+02 0.  0.
         12    1    1    2    0    0  0.16891705586E+02  0.54320779805E+01  0.59871723041E+01  0.18726543221E+02  0.00000000000E+00 0. -1.
         11    1    3    3    0    0 -0.16811702607E+02 -0.34857432638E+01 -0.36099670327E+02  0.39974616304E+02  0.51100000000E-03 0.  1.
        -11    1    3    3    0    0  0.21516202270E+01 -0.54020384897E+01  0.26101664888E+02  0.26741510796E+02  0.51100000000E-03 0. -1.
        -12    1    3    3    0    0 -0.22316232058E+01  0.34557037730E+01  0.40108331344E+01  0.57453296800E+01  0.00000000000E+00 0.  1.
</event>
<event>
 7    1  0.1345786E-013  0.7246158E+02  0.7816164E-02  0.1226708E+00
        -11   -1    0    0    0    0  0.00000000000E+00  0.00000000000E+00  0.45593999997E+02  0.45594000000E+02  0.51100000000E-03 0. -1.
         11   -1    0    0    0    0 -0.00000000000E+00 -0.00000000000E+00 -0.45593999997E+02  0.45594000000E+02  0.51100000000E-03 0.  1.
    9900012    2    1    2    0    0  0.55262613715E+01 -0.17188765194E+02 -0.49684684372E+01  0.72461577698E+02  0.70000009644E+02 0.  0.
         12    1    1    2    0    0 -0.55262613715E+01  0.17188765194E+02  0.49684684372E+01  0.18726422302E+02  0.00000000000E+00 0. -1.
         11    1    3    3    0    0 -0.29441008364E+02 -0.91593313707E+01 -0.10379201549E+02  0.32532970195E+02  0.51100000000E-03 0. -1.
        -11    1    3    3    0    0  0.13975174222E+02  0.17561257854E+01  0.86699224906E+01  0.16539559503E+02  0.51100000000E-03 0.  1.
         12    1    3    3    0    0  0.20992095514E+02 -0.97855596085E+01 -0.32591893793E+01  0.23389048000E+02  0.00000000000E+00 0. -1.
</event>
<event>
 7    1  0.1345786E-013  0.7246157E+02  0.7816164E-02  0.1226708E+00
        -11   -1    0    0    0    0  0.00000000000E+00  0.00000000000E+00  0.45593999997E+02  0.45594000000E+02  0.51100000000E-03 0.  1.
         11   -1    0    0    0    0 -0.00000000000E+00 -0.00000000000E+00 -0.45593999997E+02  0.45594000000E+02  0.51100000000E-03 0. -1.
    9900012    2    1    2    0    0 -0.17569296544E+02  0.34122973766E+01  0.55095700380E+01  0.72461566372E+02  0.69999994890E+02 0.  0.
         12    1    1    2    0    0  0.17569296544E+02 -0.34122973766E+01 -0.55095700380E+01  0.18726433628E+02  0.00000000000E+00 0. -1.
         11    1    3    3    0    0  0.18371580676E+02 -0.10119982552E+02 -0.74639976835E+01  0.22262980148E+02  0.51100000000E-03 0. -1.
        -11    1    3    3    0    0 -0.34236850192E+02  0.18658846082E+02  0.33150705726E+01  0.39131881393E+02  0.51100000000E-03 0.  1.
        -12    1    3    3    0    0 -0.17040270285E+01 -0.51265661535E+01  0.96584971489E+01  0.11066704831E+02  0.00000000000E+00 0.  1.
</event>
<event>
 7    1  0.1345786E-013  0.7246161E+02  0.7816164E-02  0.1226708E+00
        -11   -1    0    0    0    0  0.00000000000E+00  0.00000000000E+00  0.45593999997E+02  0.45594000000E+02  0.51100000000E-03 0. -1.
         11   -1    0    0    0    0 -0.00000000000E+00 -0.00000000000E+00 -0.45593999997E+02  0.45594000000E+02  0.51100000000E-03 0.  1.
    9900012    2    1    2    0    0  0.17850796422E+02 -0.56122298291E+01 -0.72777960862E+00  0.72461609005E+02  0.70000050427E+02 0.  0.
         12    1    1    2    0    0 -0.17850796422E+02  0.56122298291E+01  0.72777960862E+00  0.18726390995E+02  0.00000000000E+00 0. -1.
         11    1    3    3    0    0 -0.18851606175E+02  0.54562556270E+01 -0.12281549530E+02  0.23151463020E+02  0.51100000000E-03 0.  1.
        -11    1    3    3    0    0  0.36019263320E+02 -0.62067616143E+01  0.18372446235E+02  0.40907921002E+02  0.51100000000E-03 0. -1.
         12    1    3    3    0    0  0.68313927737E+00 -0.48617238418E+01 -0.68186763132E+01  0.84022249822E+01  0.00000000000E+00 0. -1.
</event>
<event>
 7    1  0.1345786E-013  0.7246174E+02  0.7816164E-02  0.1226708E+00
        -11   -1    0    0    0    0  0.00000000000E+00  0.00000000000E+00  0.45593999997E+02  0.45594000000E+02  0.51100000000E-03 0.  1.
         11   -1    0    0    0    0 -0.00000000000E+00 -0.00000000000E+00 -0.45593999997E+02  0.45594000000E+02  0.51100000000E-03 0. -1.
    9900012    2    1    2    0    0 -0.12349389983E+02  0.46314730786E+01  0.13293407774E+02  0.72461743939E+02  0.70000226204E+02 0.  0.
         12    1    1    2    0    0  0.12349389983E+02 -0.46314730786E+01 -0.13293407774E+02  0.18726256061E+02  0.00000000000E+00 0. -1.
         11    1    3    3    0    0 -0.93078525107E+00  0.61918060480E+01 -0.42580631255E+01  0.75720489407E+01  0.51100000000E-03 0. -1.
        -11    1    3    3    0    0 -0.36369115990E+01 -0.12942436032E+01  0.40485932186E+02  0.40669557383E+02  0.51100000000E-03 0.  1.
        -12    1    3    3    0    0 -0.77816931333E+01 -0.26608936614E+00 -0.22934461287E+02  0.24220137615E+02  0.00000000000E+00 0.  1.
</event>
<event>
 7    1  0.1345786E-013  0.7246156E+02  0.7816164E-02  0.1226708E+00
        -11   -1    0    0    0    0  0.00000000000E+00  0.00000000000E+00  0.45593999997E+02  0.45594000000E+02  0.51100000000E-03 0. -1.
         11   -1    0    0    0    0 -0.00000000000E+00 -0.00000000000E+00 -0.45593999997E+02  0.45594000000E+02  0.51100000000E-03 0.  1.
    9900012    2    1    2    0    0  0.10513228088E+02 -0.98397020798E+01 -0.11972132119E+02  0.72461557483E+02  0.69999983311E+02 0.  0.
         12    1    1    2    0    0 -0.10513228088E+02  0.98397020798E+01  0.11972132119E+02  0.18726442517E+02  0.00000000000E+00 0. -1.
         11    1    3    3    0    0 -0.21506963107E+02 -0.20217378673E+02 -0.23939786269E+00  0.29518624190E+02  0.51100000000E-03 0. -1.
        -11    1    3    3    0    0 -0.16867894552E+01  0.66382872654E+01 -0.47024734229E+01  0.83081510000E+01  0.51100000000E-03 0.  1.
         12    1    3    3    0    0  0.33706980650E+02  0.37393893276E+01 -0.70302608338E+01  0.34634782293E+02  0.00000000000E+00 0. -1.
</event>
<event>
 7    1  0.1345786E-013  0.7246158E+02  0.7816164E-02  0.1226708E+00
        -11   -1    0    0    0    0  0.00000000000E+00  0.00000000000E+00  0.45593999997E+02  0.45594000000E+02  0.51100000000E-03 0.  1.
         11   -1    0    0    0    0 -0.00000000000E+00 -0.00000000000E+00 -0.45593999997E+02  0.45594000000E+02  0.51100000000E-03 0. -1.
    9900012    2    1    2    0    0  0.29021701276E+01 -0.11717607730E+01  0.18463020849E+02  0.72461581399E+02  0.70000014466E+02 0.  0.
         12    1    1    2    0    0 -0.29021701276E+01  0.11717607730E+01 -0.18463020849E+02  0.18726418601E+02  0.00000000000E+00 0. -1.
         11    1    3    3    0    0 -0.54212516954E+01  0.59378112380E+01 -0.97038139241E+01  0.12602046547E+02  0.51100000000E-03 0. -1.
        -11    1    3    3    0    0  0.17053929037E+02 -0.23253920420E+02  0.34052656241E+01  0.29037512717E+02  0.51100000000E-03 0.  1.
        -12    1    3    3    0    0 -0.87305072142E+01  0.16144348409E+02  0.24761569149E+02  0.30822022135E+02  0.00000000000E+00 0.  1.
</event>
<event>
 7    1  0.1345786E-013  0.7246168E+02  0.7816164E-02  0.1226708E+00
        -11   -1    0    0    0    0  0.00000000000E+00  0.00000000000E+00  0.45593999997E+02  0.45594000000E+02  0.51100000000E-03 0. -1.
         11   -1    0    0    0    0 -0.00000000000E+00 -0.00000000000E+00 -0.45593999997E+02  0.45594000000E+02  0.51100000000E-03 0.  1.
    9900012    2    1    2    0    0 -0.69281437125E+01 -0.17364703041E+02  0.10691563874E+01  0.72461676752E+02  0.70000138681E+02 0.  0.
         12    1    1    2    0    0  0.69281437125E+01  0.17364703041E+02 -0.10691563874E+01  0.18726323248E+02  0.00000000000E+00 0. -1.
         11    1    3    3    0    0 -0.36611147194E+02 -0.11984768852E+02  0.54882981996E+01  0.38911851674E+02  0.51100000000E-03 0.  1.
        -11    1    3    3    0    0  0.20072492756E+02  0.29622338043E+01 -0.74337583605E+00  0.20303507146E+02  0.51100000000E-03 0. -1.
         12    1    3    3    0    0  0.96105107261E+01 -0.83421679931E+01 -0.36757659761E+01  0.13246317932E+02  0.00000000000E+00 0. -1.
</event>
<event>
 7    1  0.1345786E-013  0.7246155E+02  0.7816164E-02  0.1226708E+00
        -11   -1    0    0    0    0  0.00000000000E+00  0.00000000000E+00  0.45593999997E+02  0.45594000000E+02  0.51100000000E-03 0.  1.
         11   -1    0    0    0    0 -0.00000000000E+00 -0.00000000000E+00 -0.45593999997E+02  0.45594000000E+02  0.51100000000E-03 0. -1.
    9900012    2    1    2    0    0 -0.15287142446E+02  0.10719268226E+02  0.14423897425E+01  0.72461550159E+02  0.69999973770E+02 0.  0.
         12    1    1    2    0    0  0.15287142446E+02 -0.10719268226E+02 -0.14423897425E+01  0.18726449841E+02  0.00000000000E+00 0. -1.
         11    1    3    3    0    0  0.71326211461E+01  0.14611651877E+02  0.14927416648E+02  0.22072662346E+02  0.51100000000E-03 0. -1.
        -11    1    3    3    0    0 -0.16395600570E+02 -0.22226919551E+01  0.14324833986E+02  0.21885085026E+02  0.51100000000E-03 0.  1.
         12    1    3    3    0    0 -0.60241630221E+01 -0.16696916960E+01 -0.27809860892E+02  0.28503802787E+02  0.00000000000E+00 0. -1.
</event>
<event>
 7    1  0.1345786E-013  0.7246157E+02  0.7816164E-02  0.1226708E+00
        -11   -1    0    0    0    0  0.00000000000E+00  0.00000000000E+00  0.45593999997E+02  0.45594000000E+02  0.51100000000E-03 0.  1.
         11   -1    0    0    0    0 -0.00000000000E+00 -0.00000000000E+00 -0.45593999997E+02  0.45594000000E+02  0.51100000000E-03 0. -1.
    9900012    2    1    2    0    0 -0.25829993145E+01  0.13235595294E+02  0.12993316295E+02  0.72461571174E+02  0.70000001146E+02 0.  0.
         12    1    1    2    0    0  0.25829993145E+01 -0.13235595294E+02 -0.12993316295E+02  0.18726428826E+02  0.00000000000E+00 0. -1.
         11    1    3    3    0    0 -0.31511708147E+02 -0.83970366594E+01  0.74146105315E+01  0.33443600652E+02  0.51100000000E-03 0. -1.
        -11    1    3    3    0    0  0.39522884001E+01 -0.10847670985E+01  0.31484682374E+01  0.51681868928E+01  0.51100000000E-03 0.  1.
         12    1    3    3    0    0  0.24976420432E+02  0.22717399051E+02  0.24302375261E+01  0.33849783629E+02  0.00000000000E+00 0. -1.
</event>
<event>
 7    1  0.1345786E-013  0.7246166E+02  0.7816164E-02  0.1226708E+00
        -11   -1    0    0    0    0  0.00000000000E+00  0.00000000000E+00  0.45593999997E+02  0.45594000000E+02  0.51100000000E-03 0.  1.
         11   -1    0    0    0    0 -0.00000000000E+00 -0.00000000000E+00 -0.45593999997E+02  0.45594000000E+02  0.51100000000E-03 0. -1.
    9900012    2    1    2    0    0 -0.58779481291E+01  0.16746964916E+02 -0.59720007584E+01  0.72461657560E+02  0.70000113680E+02 0.  0.
         12    1    1    2    0    0  0.58779481291E+01 -0.16746964916E+02  0.59720007584E+01  0.18726342440E+02  0.00000000000E+00 0. -1.
         11    1    3    3    0    0 -0.29070900762E+02 -0.59111892728E+01 -0.88921311157E+01  0.30969814752E+02  0.51100000000E-03 0. -1.
        -11    1    3    3    0    0  0.27519930573E+02  0.15122372298E+02  0.65456920770E+01  0.32076140785E+02  0.51100000000E-03 0.  1.
        -12    1    3    3    0    0 -0.43269779405E+01  0.75357818912E+01 -0.36255617197E+01  0.94157020234E+01  0.00000000000E+00 0.  1.
</event>
<event>
 8    1  0.1345786E-013  0.7246156E+02  0.7816164E-02  0.1226708E+00
        -11   -1    0    0    0    0  0.00000000000E+00  0.00000000000E+00  0.45593999997E+02  0.45594000000E+02  0.51100000000E-03 0.  1.
         11   -1    0    0    0    0 -0.00000000000E+00 -0.00000000000E+00 -0.45593999997E+02  0.45594000000E+02  0.51100000000E-03 0. -1.
    9900012    2    1    2    0    0 -0.52672674353E+01 -0.17963708060E+02  0.49056406710E+00  0.72461559692E+02  0.69999986189E+02 0.  0.
         24    2    3    3    0    0  0.30490540449E+01 -0.20772918857E+02 -0.13644769992E+02  0.55822432988E+02  0.49891415977E+02 0.  0.
         12    1    1    2    0    0  0.52672674353E+01  0.17963708060E+02 -0.49056406710E+00  0.18726440308E+02  0.00000000000E+00 0. -1.
         11    1    3    3    0    0 -0.83163214802E+01  0.28092107972E+01  0.14135334059E+02  0.16639126704E+02  0.51100000000E-03 0. -1.
        -11    1    4    4    0    0  0.79550698172E+01 -0.36508075092E+02 -0.12066605081E+02  0.39264814289E+02  0.51100000000E-03 0.  1.
         12    1    4    4    0    0 -0.49060157723E+01  0.15735156235E+02 -0.15781649109E+01  0.16557618699E+02  0.00000000000E+00 0. -1.
</event>
<event>
 7    1  0.1345786E-013  0.7246163E+02  0.7816164E-02  0.1226708E+00
        -11   -1    0    0    0    0  0.00000000000E+00  0.00000000000E+00  0.45593999997E+02  0.45594000000E+02  0.51100000000E-03 0.  1.
         11   -1    0    0    0    0 -0.00000000000E+00 -0.00000000000E+00 -0.45593999997E+02  0.45594000000E+02  0.51100000000E-03 0. -1.
    9900012    2    1    2    0    0  0.82143089647E+01  0.57578996347E+01  0.15812931084E+02  0.72461626367E+02  0.70000073045E+02 0.  0.
         12    1    1    2    0    0 -0.82143089647E+01 -0.57578996347E+01 -0.15812931084E+02  0.18726373633E+02  0.00000000000E+00 0. -1.
         11    1    3    3    0    0  0.29398105361E+01 -0.97058718010E+01 -0.14573326506E+02  0.17754669220E+02  0.51100000000E-03 0.  1.
        -11    1    3    3    0    0 -0.16127051076E+02  0.16551261117E+02  0.10174085013E+02  0.25249515383E+02  0.51100000000E-03 0. -1.
        -12    1    3    3    0    0  0.21401549504E+02 -0.10874896813E+01  0.20212172577E+02  0.29457441764E+02  0.00000000000E+00 0.  1.
</event>
<event>
 7    1  0.1378475E-013  0.7246153E+02  0.7816164E-02  0.1226708E+00
        -11   -1    0    0    0    0  0.00000000000E+00  0.00000000000E+00  0.45593999997E+02  0.45594000000E+02  0.51100000000E-03 0.  1.
         11   -1    0    0    0    0 -0.00000000000E+00 -0.00000000000E+00 -0.45593999997E+02  0.45594000000E+02  0.51100000000E-03 0. -1.
    9900012    2    1    2    0    0  0.11945274831E+02  0.82465041736E+01  0.11831578586E+02  0.72461530132E+02  0.69999947681E+02 0.  0.
         12    1    1    2    0    0 -0.11945274831E+02 -0.82465041736E+01 -0.11831578586E+02  0.18726469868E+02  0.00000000000E+00 0. -1.
         11    1    3    3    0    0 -0.14749805643E+02  0.11894326751E+02 -0.61700312493E+01  0.19927394743E+02  0.51100000000E-03 0. -1.
        -11    1    3    3    0    0  0.46727935163E+01 -0.72650552573E+01  0.27092483153E+02  0.28436221107E+02  0.51100000000E-03 0.  1.
         12    1    3    3    0    0  0.22022286957E+02  0.36172326799E+01 -0.90908733177E+01  0.24097914283E+02  0.00000000000E+00 0. -1.
</event>
<event>
 7    1  0.1345786E-013  0.7246155E+02  0.7816164E-02  0.1226708E+00
        -11   -1    0    0    0    0  0.00000000000E+00  0.00000000000E+00  0.45593999997E+02  0.45594000000E+02  0.51100000000E-03 0. -1.
         11   -1    0    0    0    0 -0.00000000000E+00 -0.00000000000E+00 -0.45593999997E+02  0.45594000000E+02  0.51100000000E-03 0.  1.
    9900012    2    1    2    0    0  0.72017908506E+01 -0.17273155374E+02 -0.67244837871E+00  0.72461551462E+02  0.69999975468E+02 0.  0.
         12    1    1    2    0    0 -0.72017908506E+01  0.17273155374E+02  0.67244837871E+00  0.18726448538E+02  0.00000000000E+00 0. -1.
         11    1    3    3    0    0 -0.22246606268E+02 -0.16671974526E+02  0.83317754458E+01  0.29022141675E+02  0.51100000000E-03 0. -1.
        -11    1    3    3    0    0  0.26686193733E+02 -0.48829655673E+01 -0.18379501261E+02  0.32768923625E+02  0.51100000000E-03 0.  1.
         12    1    3    3    0    0  0.27622033857E+01  0.42817847198E+01  0.93752774362E+01  0.10670486162E+02  0.00000000000E+00 0. -1.
</event>
<event>
 7    1  0.1345786E-013  0.7246154E+02  0.7816164E-02  0.1226708E+00
        -11   -1    0    0    0    0  0.00000000000E+00  0.00000000000E+00  0.45593999997E+02  0.45594000000E+02  0.51100000000E-03 0.  1.
         11   -1    0    0    0    0 -0.00000000000E+00 -0.00000000000E+00 -0.45593999997E+02  0.45594000000E+02  0.51100000000E-03 0. -1.
    9900012    2    1    2    0    0 -0.10392806572E+02  0.14270180731E+02  0.62475317074E+01  0.72461544410E+02  0.69999966281E+02 0.  0.
         12    1    1    2    0    0  0.10392806572E+02 -0.14270180731E+02 -0.62475317074E+01  0.18726455590E+02  0.00000000000E+00 0. -1.
         11    1    3    3    0    0  0.60647217842E+01 -0.63844191631E+01  0.28221049180E+02  0.29562971357E+02  0.51100000000E-03 0. -1.
        -11    1    3    3    0    0 -0.98310399046E+01  0.14119918851E+02  0.18666815396E+01  0.17306240325E+02  0.51100000000E-03 0.  1.
         12    1    3    3    0    0 -0.66264884512E+01  0.65346810438E+01 -0.23840199012E+02  0.25592332728E+02  0.00000000000E+00 0. -1.
</event>
<event>
 7    1  0.1345786E-013  0.7246160E+02  0.7816164E-02  0.1226708E+00
        -11   -1    0    0    0    0  0.00000000000E+00  0.00000000000E+00  0.45593999997E+02  0.45594000000E+02  0.51100000000E-03 0. -1.
         11   -1    0    0    0    0 -0.00000000000E+00 -0.00000000000E+00 -0.45593999997E+02  0.45594000000E+02  0.51100000000E-03 0.  1.
    9900012    2    1    2    0    0 -0.16201468478E+01 -0.14524124209E+02  0.11709104873E+02  0.72461596267E+02  0.70000033834E+02 0.  0.
         12    1    1    2    0    0  0.16201468478E+01  0.14524124209E+02 -0.11709104873E+02  0.18726403733E+02  0.00000000000E+00 0. -1.
         11    1    3    3    0    0  0.17077416711E+02 -0.21486151994E+02  0.38044250627E+01  0.27708600458E+02  0.51100000000E-03 0. -1.
        -11    1    3    3    0    0 -0.17310235495E+02  0.22503140054E+02  0.61746667075E+01  0.29054467374E+02  0.51100000000E-03 0.  1.
        -12    1    3    3    0    0 -0.13873280641E+01 -0.15541112268E+02  0.17300131030E+01  0.15698528435E+02  0.00000000000E+00 0.  1.
</event>
<event>
 7    1  0.1345786E-013  0.7246148E+02  0.7816164E-02  0.1226708E+00
        -11   -1    0    0    0    0  0.00000000000E+00  0.00000000000E+00  0.45593999997E+02  0.45594000000E+02  0.51100000000E-03 0.  1.
         11   -1    0    0    0    0 -0.00000000000E+00 -0.00000000000E+00 -0.45593999997E+02  0.45594000000E+02  0.51100000000E-03 0. -1.
    9900012    2    1    2    0    0 -0.18619975859E+02 -0.19900684966E+01 -0.13602303238E+00  0.72461484684E+02  0.69999888477E+02 0.  0.
         12    1    1    2    0    0  0.18619975859E+02  0.19900684966E+01  0.13602303238E+00  0.18726515316E+02  0.00000000000E+00 0. -1.
         11    1    3    3    0    0 -0.45583040705E+01 -0.23191805833E+02 -0.19420686395E+02  0.30590865534E+02  0.51100000000E-03 0. -1.
        -11    1    3    3    0    0 -0.42846044260E+01  0.89022956624E+00  0.18821682673E+02  0.19323718138E+02  0.51100000000E-03 0.  1.
        -12    1    3    3    0    0 -0.97770673626E+01  0.20311507770E+02  0.46298068992E+00  0.22546901012E+02  0.00000000000E+00 0.  1.
</event>
<event>
 7    1  0.1345786E-013  0.7246156E+02  0.7816164E-02  0.1226708E+00
        -11   -1    0    0    0    0  0.00000000000E+00  0.00000000000E+00  0.45593999997E+02  0.45594000000E+02  0.51100000000E-03 0. -1.
         11   -1    0    0    0    0 -0.00000000000E+00 -0.00000000000E+00 -0.45593999997E+02  0.45594000000E+02  0.51100000000E-03 0.  1.
    9900012    2    1    2    0    0  0.72762836366E+01  0.89398340497E+01 -0.14758544663E+02  0.72461559416E+02  0.69999985829E+02 0.  0.
         12    1    1    2    0    0 -0.72762836366E+01 -0.89398340497E+01  0.14758544663E+02  0.18726440584E+02  0.00000000000E+00 0. -1.
         11    1    3    3    0    0 -0.66225293956E+00  0.43646393587E+01 -0.35984673057E+02  0.36254452843E+02  0.51100000000E-03 0.  1.
        -11    1    3    3    0    0  0.15331674264E+02 -0.20746530747E+01  0.21222566783E+02  0.26263315903E+02  0.51100000000E-03 0. -1.
         12    1    3    3    0    0 -0.73931376881E+01  0.66498477658E+01  0.35616114809E-02  0.99437906690E+01  0.00000000000E+00 0. -1.
</event>
<event>
 7    1  0.1345786E-013  0.7246151E+02  0.7816164E-02  0.1226708E+00
        -11   -1    0    0    0    0  0.00000000000E+00  0.00000000000E+00  0.45593999997E+02  0.45594000000E+02  0.51100000000E-03 0. -1.
         11   -1    0    0    0    0 -0.00000000000E+00 -0.00000000000E+00 -0.45593999997E+02  0.45594000000E+02  0.51100000000E-03 0.  1.
    9900012    2    1    2    0    0 -0.12094582623E+02 -0.39620030256E+01 -0.13736997448E+02  0.72461508186E+02  0.69999919092E+02 0.  0.
         12    1    1    2    0    0  0.12094582623E+02  0.39620030256E+01  0.13736997448E+02  0.18726491814E+02  0.00000000000E+00 0. -1.
         11    1    3    3    0    0 -0.87290499828E+01  0.17968662186E+02  0.15188352232E+02  0.25094923354E+02  0.51100000000E-03 0. -1.
        -11    1    3    3    0    0 -0.14612221677E+02 -0.27588315268E+01 -0.15087054153E+02  0.21183658253E+02  0.51100000000E-03 0.  1.
         12    1    3    3    0    0  0.11246689036E+02 -0.19171833685E+02 -0.13838295526E+02  0.26182926578E+02  0.00000000000E+00 0. -1.
</event>
<event>
 7    1  0.1345786E-013  0.7246158E+02  0.7816164E-02  0.1226708E+00
        -11   -1    0    0    0    0  0.00000000000E+00  0.00000000000E+00  0.45593999997E+02  0.45594000000E+02  0.51100000000E-03 0.  1.
         11   -1    0    0    0    0 -0.00000000000E+00 -0.00000000000E+00 -0.45593999997E+02  0.45594000000E+02  0.51100000000E-03 0. -1.
    9900012    2    1    2    0    0  0.62871288748E+01 -0.17600067504E+02 -0.11782775333E+01  0.72461582735E+02  0.70000016207E+02 0.  0.
         12    1    1    2    0    0 -0.62871288748E+01  0.17600067504E+02  0.11782775333E+01  0.18726417265E+02  0.00000000000E+00 0. -1.
         11    1    3    3    0    0  0.82957901825E+01 -0.10091561055E+01  0.74630563756E+01  0.11204273360E+02  0.51100000000E-03 0. -1.
        -11    1    3    3    0    0 -0.26876685616E+02 -0.13510200000E+02 -0.17353484829E+02  0.34727873095E+02  0.51100000000E-03 0.  1.
        -12    1    3    3    0    0  0.24868024308E+02 -0.30807113986E+01  0.87121509202E+01  0.26529436281E+02  0.00000000000E+00 0.  1.
</event>
<event>
 7    1  0.1345786E-013  0.7246160E+02  0.7816164E-02  0.1226708E+00
        -11   -1    0    0    0    0  0.00000000000E+00  0.00000000000E+00  0.45593999997E+02  0.45594000000E+02  0.51100000000E-03 0.  1.
         11   -1    0    0    0    0 -0.00000000000E+00 -0.00000000000E+00 -0.45593999997E+02  0.45594000000E+02  0.51100000000E-03 0. -1.
    9900012    2    1    2    0    0  0.72846286101E+01  0.32599302852E+00  0.17248360436E+02  0.72461600902E+02  0.70000039873E+02 0.  0.
         12    1    1    2    0    0 -0.72846286101E+01 -0.32599302852E+00 -0.17248360436E+02  0.18726399098E+02  0.00000000000E+00 0. -1.
         11    1    3    3    0    0 -0.55722844227E+01 -0.36505891969E+01 -0.56536927971E+01  0.87373564468E+01  0.51100000000E-03 0. -1.
        -11    1    3    3    0    0  0.28193887181E+02 -0.32929666306E+01 -0.70946596559E+01  0.29258726895E+02  0.51100000000E-03 0.  1.
        -12    1    3    3    0    0 -0.15336974148E+02  0.72695488560E+01  0.29996712889E+02  0.34465517561E+02  0.00000000000E+00 0.  1.
</event>
<event>
 7    1  0.1345786E-013  0.7246153E+02  0.7816164E-02  0.1226708E+00
        -11   -1    0    0    0    0  0.00000000000E+00  0.00000000000E+00  0.45593999997E+02  0.45594000000E+02  0.51100000000E-03 0. -1.
         11   -1    0    0    0    0 -0.00000000000E+00 -0.00000000000E+00 -0.45593999997E+02  0.45594000000E+02  0.51100000000E-03 0.  1.
    9900012    2    1    2    0    0 -0.32815434084E+01 -0.18056237867E+02  0.37261815237E+01  0.72461529916E+02  0.69999947400E+02 0.  0.
         12    1    1    2    0    0  0.32815434084E+01  0.18056237867E+02 -0.37261815237E+01  0.18726470084E+02  0.00000000000E+00 0. -1.
         11    1    3    3    0    0  0.80096214621E+01  0.98321797190E+01  0.19337799754E+02  0.23125230671E+02  0.51100000000E-03 0. -1.
        -11    1    3    3    0    0  0.38490904131E+01 -0.11683367286E+02 -0.22897788905E+02  0.25992793331E+02  0.51100000000E-03 0.  1.
        -12    1    3    3    0    0 -0.15140255284E+02 -0.16205050301E+02  0.72861706747E+01  0.23343505915E+02  0.00000000000E+00 0.  1.
</event>
<event>
 7    1  0.1345786E-013  0.7246157E+02  0.7816164E-02  0.1226708E+00
        -11   -1    0    0    0    0  0.00000000000E+00  0.00000000000E+00  0.45593999997E+02  0.45594000000E+02  0.51100000000E-03 0. -1.
         11   -1    0    0    0    0 -0.00000000000E+00 -0.00000000000E+00 -0.45593999997E+02  0.45594000000E+02  0.51100000000E-03 0.  1.
    9900012    2    1    2    0    0  0.15143053587E+02  0.10565217816E+02  0.31214163116E+01  0.72461571103E+02  0.70000001053E+02 0.  0.
         12    1    1    2    0    0 -0.15143053587E+02 -0.10565217816E+02 -0.31214163116E+01  0.18726428897E+02  0.00000000000E+00 0. -1.
         11    1    3    3    0    0 -0.41915559089E+01  0.12667007983E+00  0.42178565632E+01  0.59477307013E+01  0.51100000000E-03 0. -1.
        -11    1    3    3    0    0  0.24780372065E+02 -0.16358287241E+02 -0.17656397333E+02  0.34545748916E+02  0.51100000000E-03 0.  1.
        -12    1    3    3    0    0 -0.54457625685E+01  0.26796834977E+02  0.16559957081E+02  0.31968091486E+02  0.00000000000E+00 0.  1.
</event>
<event>
 7    1  0.1345786E-013  0.7246157E+02  0.7816164E-02  0.1226708E+00
        -11   -1    0    0    0    0  0.00000000000E+00  0.00000000000E+00  0.45593999997E+02  0.45594000000E+02  0.51100000000E-03 0.  1.
         11   -1    0    0    0    0 -0.00000000000E+00 -0.00000000000E+00 -0.45593999997E+02  0.45594000000E+02  0.51100000000E-03 0. -1.
    9900012    2    1    2    0    0 -0.88403354992E+01  0.15144082965E+02  0.65714841886E+01  0.72461569880E+02  0.69999999460E+02 0.  0.
         12    1    1    2    0    0  0.88403354992E+01 -0.15144082965E+02 -0.65714841886E+01  0.18726430120E+02  0.00000000000E+00 0. -1.
         11    1    3    3    0    0  0.46130861342E+01  0.35293606788E+01  0.32725563815E+02  0.33237019688E+02  0.51100000000E-03 0.  1.
        -11    1    3    3    0    0 -0.90029209846E+01  0.55530778834E+01 -0.29241146302E+02  0.31095560737E+02  0.51100000000E-03 0. -1.
        -12    1    3    3    0    0 -0.44505006488E+01  0.60616444030E+01  0.30870666756E+01  0.81289894546E+01  0.00000000000E+00 0.  1.
</event>
<event>
 7    1  0.1345786E-013  0.7246165E+02  0.7816164E-02  0.1226708E+00
        -11   -1    0    0    0    0  0.00000000000E+00  0.00000000000E+00  0.45593999997E+02  0.45594000000E+02  0.51100000000E-03 0.  1.
         11   -1    0    0    0    0 -0.00000000000E+00 -0.00000000000E+00 -0.45593999997E+02  0.45594000000E+02  0.51100000000E-03 0. -1.
    9900012    2    1    2    0    0  0.15644793788E+02  0.69258117458E+01  0.76124651821E+01  0.72461653128E+02  0.70000107906E+02 0.  0.
         12    1    1    2    0    0 -0.15644793788E+02 -0.69258117458E+01 -0.76124651821E+01  0.18726346872E+02  0.00000000000E+00 0. -1.
         11    1    3    3    0    0 -0.61838672934E+00  0.46074409872E+01 -0.21032044337E+02  0.21539679753E+02  0.51100000000E-03 0. -1.
        -11    1    3    3    0    0  0.19701448448E+02  0.17580364694E+02  0.16752932607E+02  0.31271025646E+02  0.51100000000E-03 0.  1.
        -12    1    3    3    0    0 -0.34382679301E+01 -0.15261993935E+02  0.11891576912E+02  0.19650947730E+02  0.00000000000E+00 0.  1.
</event>
<event>
 7    1  0.1345786E-013  0.7246155E+02  0.7816164E-02  0.1226708E+00
        -11   -1    0    0    0    0  0.00000000000E+00  0.00000000000E+00  0.45593999997E+02  0.45594000000E+02  0.51100000000E-03 0. -1.
         11   -1    0    0    0    0 -0.00000000000E+00 -0.00000000000E+00 -0.45593999997E+02  0.45594000000E+02  0.51100000000E-03 0.  1.
    9900012    2    1    2    0    0  0.14294359443E+01 -0.23111746927E+01 -0.18528224639E+02  0.72461550153E+02  0.69999973762E+02 0.  0.
         12    1    1    2    0    0 -0.14294359443E+01  0.23111746927E+01  0.18528224639E+02  0.18726449847E+02  0.00000000000E+00 0. -1.
         11    1    3    3    0    0  0.17167966972E+02 -0.17299019384E+02 -0.16706139352E+02  0.29548100682E+02  0.51100000000E-03 0. -1.
        -11    1    3    3    0    0 -0.13975136340E+02 -0.40034611985E+01  0.12411485720E+02  0.19114840186E+02  0.51100000000E-03 0.  1.
         12    1    3    3    0    0 -0.17633946876E+01  0.18991305890E+02 -0.14233571008E+02  0.23798609284E+02  0.00000000000E+00 0. -1.
</event>
<event>
 7    1  0.1345786E-013  0.7246153E+02  0.7816164E-02  0.1226708E+00
        -11   -1    0    0    0    0  0.00000000000E+00  0.00000000000E+00  0.45593999997E+02  0.45594000000E+02  0.51100000000E-03 0.  1.
         11   -1    0    0    0    0 -0.00000000000E+00 -0.00000000000E+00 -0.45593999997E+02  0.45594000000E+02  0.51100000000E-03 0. -1.
    9900012    2    1    2    0    0 -0.42512542250E+01  0.16570518167E+02 -0.76174412440E+01  0.72461530875E+02  0.69999948648E+02 0.  0.
         12    1    1    2    0    0  0.42512542250E+01 -0.16570518167E+02  0.76174412440E+01  0.18726469125E+02  0.00000000000E+00 0. -1.
         11    1    3    3    0    0 -0.19005637983E+02  0.26665693526E+02 -0.70653997936E+01  0.33499154629E+02  0.51100000000E-03 0.  1.
        -11    1    3    3    0    0  0.10693728037E+02  0.81011545720E+01  0.10722694878E+02  0.17174420235E+02  0.51100000000E-03 0. -1.
         12    1    3    3    0    0  0.40606557218E+01 -0.18196329931E+02 -0.11274736328E+02  0.21787956010E+02  0.00000000000E+00 0. -1.
</event>
<event>
 7    1  0.1345786E-013  0.7246162E+02  0.7816164E-02  0.1226708E+00
        -11   -1    0    0    0    0  0.00000000000E+00  0.00000000000E+00  0.45593999997E+02  0.45594000000E+02  0.51100000000E-03 0.  1.
         11   -1    0    0    0    0 -0.00000000000E+00 -0.00000000000E+00 -0.45593999997E+02  0.45594000000E+02  0.51100000000E-03 0. -1.
    9900012    2    1    2    0    0 -0.51792259076E+01  0.17125638275E+02 -0.55286094063E+01  0.72461617826E+02  0.70000061919E+02 0.  0.
         12    1    1    2    0    0  0.51792259076E+01 -0.17125638275E+02  0.55286094063E+01  0.18726382174E+02  0.00000000000E+00 0. -1.
         11    1    3    3    0    0  0.93829630119E+01  0.13596767828E+02 -0.23837892670E+02  0.29002710519E+02  0.51100000000E-03 0. -1.
        -11    1    3    3    0    0 -0.14614262187E+02 -0.11975333077E+02 -0.72655474234E+00  0.18908017972E+02  0.51100000000E-03 0.  1.
        -12    1    3    3    0    0  0.52073267683E-01  0.15504203525E+02  0.19035838006E+02  0.24550889335E+02  0.00000000000E+00 0.  1.
</event>
<event>
 7    1  0.1345786E-013  0.7246155E+02  0.7816164E-02  0.1226708E+00
        -11   -1    0    0    0    0  0.00000000000E+00  0.00000000000E+00  0.45593999997E+02  0.45594000000E+02  0.51100000000E-03 0.  1.
         11   -1    0    0    0    0 -0.00000000000E+00 -0.00000000000E+00 -0.45593999997E+02  0.45594000000E+02  0.51100000000E-03 0. -1.
    9900012    2    1    2    0    0 -0.20175343994E+01  0.67897138421E+01  0.17335204137E+02  0.72461549146E+02  0.69999972450E+02 0.  0.
         12    1    1    2    0    0  0.20175343994E+01 -0.67897138421E+01 -0.17335204137E+02  0.18726450854E+02  0.00000000000E+00 0. -1.
         11    1    3    3    0    0 -0.16070444680E+01 -0.54331616294E+01 -0.19460568472E+02  0.20268585612E+02  0.51100000000E-03 0. -1.
        -11    1    3    3    0    0 -0.89509788580E+01  0.97381715975E+01  0.40464515218E+02  0.42571457582E+02  0.51100000000E-03 0.  1.
        -12    1    3    3    0    0  0.85404889266E+01  0.24847038739E+01 -0.36687426087E+01  0.96215059515E+01  0.00000000000E+00 0.  1.
</event>
<event>
 7    1  0.1345786E-013  0.7246144E+02  0.7816164E-02  0.1226708E+00
        -11   -1    0    0    0    0  0.00000000000E+00  0.00000000000E+00  0.45593999997E+02  0.45594000000E+02  0.51100000000E-03 0.  1.
         11   -1    0    0    0    0 -0.00000000000E+00 -0.00000000000E+00 -0.45593999997E+02  0.45594000000E+02  0.51100000000E-03 0. -1.
    9900012    2    1    2    0    0  0.12886394127E+02 -0.96871798192E+01  0.95280372685E+01  0.72461438633E+02  0.69999828487E+02 0.  0.
         12    1    1    2    0    0 -0.12886394127E+02  0.96871798192E+01 -0.95280372685E+01  0.18726561367E+02  0.00000000000E+00 0. -1.
         11    1    3    3    0    0 -0.20249140242E+01  0.46971510853E+00 -0.82712047262E+01  0.85284076458E+01  0.51100000000E-03 0. -1.
        -11    1    3    3    0    0 -0.40764899977E+01 -0.48438455847E+01  0.36328319739E+02  0.36875837971E+02  0.51100000000E-03 0.  1.
        -12    1    3    3    0    0  0.18987798148E+02 -0.53130493430E+01 -0.18529077744E+02  0.27057193016E+02  0.00000000000E+00 0.  1.
</event>
<event>
 7    1  0.1345786E-013  0.7246156E+02  0.7816164E-02  0.1226708E+00
        -11   -1    0    0    0    0  0.00000000000E+00  0.00000000000E+00  0.45593999997E+02  0.45594000000E+02  0.51100000000E-03 0.  1.
         11   -1    0    0    0    0 -0.00000000000E+00 -0.00000000000E+00 -0.45593999997E+02  0.45594000000E+02  0.51100000000E-03 0. -1.
    9900012    2    1    2    0    0 -0.73573248356E+01 -0.76487535233E+01  0.15428735074E+02  0.72461560798E+02  0.69999987630E+02 0.  0.
         12    1    1    2    0    0  0.73573248356E+01  0.76487535233E+01 -0.15428735074E+02  0.18726439202E+02  0.00000000000E+00 0. -1.
         11    1    3    3    0    0  0.17601790006E+02  0.18069593441E+02  0.10631454981E+02  0.27374459882E+02  0.51100000000E-03 0. -1.
        -11    1    3    3    0    0 -0.21359891471E+02 -0.37230471789E+01 -0.20307206950E+01  0.21776819574E+02  0.51100000000E-03 0.  1.
        -12    1    3    3    0    0 -0.35992233711E+01 -0.21995299785E+02  0.68280007879E+01  0.23310281343E+02  0.00000000000E+00 0.  1.
</event>
<event>
 7    1  0.1345786E-013  0.7246161E+02  0.7816164E-02  0.1226708E+00
        -11   -1    0    0    0    0  0.00000000000E+00  0.00000000000E+00  0.45593999997E+02  0.45594000000E+02  0.51100000000E-03 0.  1.
         11   -1    0    0    0    0 -0.00000000000E+00 -0.00000000000E+00 -0.45593999997E+02  0.45594000000E+02  0.51100000000E-03 0. -1.
    9900012    2    1    2    0    0 -0.38214412673E+01 -0.11704786592E+02  0.14109299601E+02  0.72461607455E+02  0.70000048409E+02 0.  0.
         12    1    1    2    0    0  0.38214412673E+01  0.11704786592E+02 -0.14109299601E+02  0.18726392545E+02  0.00000000000E+00 0. -1.
         11    1    3    3    0    0 -0.18388922969E+02  0.11799241268E+02  0.27400211551E+02  0.35044916547E+02  0.51100000000E-03 0.  1.
        -11    1    3    3    0    0 -0.56152050125E+01 -0.46319199360E+01 -0.18514626636E+01  0.75108670526E+01  0.51100000000E-03 0. -1.
         12    1    3    3    0    0  0.20182686715E+02 -0.18872107924E+02 -0.11439449286E+02  0.29905823855E+02  0.00000000000E+00 0. -1.
</event>
<event>
 7    1  0.1345786E-013  0.7246158E+02  0.7816164E-02  0.1226708E+00
        -11   -1    0    0    0    0  0.00000000000E+00  0.00000000000E+00  0.45593999997E+02  0.45594000000E+02  0.51100000000E-03 0.  1.
         11   -1    0    0    0    0 -0.00000000000E+00 -0.00000000000E+00 -0.45593999997E+02  0.45594000000E+02  0.51100000000E-03 0. -1.
    9900012    2    1    2    0    0 -0.41590327450E+01 -0.31143254807E+01  0.17991168959E+02  0.72461581841E+02  0.70000015042E+02 0.  0.
         12    1    1    2    0    0  0.41590327450E+01  0.31143254807E+01 -0.17991168959E+02  0.18726418159E+02  0.00000000000E+00 0. -1.
         11    1    3    3    0    0  0.37312347513E+00 -0.70559931151E+00 -0.11559699927E+02  0.11587223748E+02  0.51100000000E-03 0. -1.
        -11    1    3    3    0    0  0.17130159663E+02  0.15204624902E+02  0.22436838200E+02  0.32062980167E+02  0.51100000000E-03 0.  1.
        -12    1    3    3    0    0 -0.21662315883E+02 -0.17613351072E+02  0.71140306856E+01  0.28811377926E+02  0.00000000000E+00 0.  1.
</event>
<event>
 7    1  0.1345786E-013  0.7246137E+02  0.7816164E-02  0.1226709E+00
        -11   -1    0    0    0    0  0.00000000000E+00  0.00000000000E+00  0.45593999997E+02  0.45594000000E+02  0.51100000000E-03 0. -1.
         11   -1    0    0    0    0 -0.00000000000E+00 -0.00000000000E+00 -0.45593999997E+02  0.45594000000E+02  0.51100000000E-03 0.  1.
    9900012    2    1    2    0    0  0.13353645021E+02 -0.84848525566E+01 -0.10018696247E+02  0.72461365686E+02  0.69999733459E+02 0.  0.
         12    1    1    2    0    0 -0.13353645021E+02  0.84848525566E+01  0.10018696247E+02  0.18726634314E+02  0.00000000000E+00 0. -1.
         11    1    3    3    0    0 -0.12162902818E-01 -0.64220507299E+01  0.74359225588E+01  0.98252647840E+01  0.51100000000E-03 0. -1.
        -11    1    3    3    0    0  0.24960935353E+02  0.27443056093E+01  0.14013545700E+02  0.28756894309E+02  0.51100000000E-03 0.  1.
        -12    1    3    3    0    0 -0.11595127428E+02 -0.48071074360E+01 -0.31468164506E+02  0.33879206593E+02  0.00000000000E+00 0.  1.
</event>
<event>
 7    1  0.1345786E-013  0.7246153E+02  0.7816164E-02  0.1226708E+00
        -11   -1    0    0    0    0  0.00000000000E+00  0.00000000000E+00  0.45593999997E+02  0.45594000000E+02  0.51100000000E-03 0.  1.
         11   -1    0    0    0    0 -0.00000000000E+00 -0.00000000000E+00 -0.45593999997E+02  0.45594000000E+02  0.51100000000E-03 0. -1.
    9900012    2    1    2    0    0 -0.56862203839E+01  0.57961321793E+01  0.16874605400E+02  0.72461533225E+02  0.69999951710E+02 0.  0.
         12    1    1    2    0    0  0.56862203839E+01 -0.57961321793E+01 -0.16874605400E+02  0.18726466775E+02  0.00000000000E+00 0. -1.
         11    1    3    3    0    0 -0.19927377648E+02 -0.25726372070E+02 -0.25105233696E+01  0.32638157541E+02  0.51100000000E-03 0. -1.
        -11    1    3    3    0    0  0.74296403558E+01  0.20662521125E+02  0.11783919842E+02  0.24919873639E+02  0.51100000000E-03 0.  1.
         12    1    3    3    0    0  0.68115169080E+01  0.10859983124E+02  0.76012089270E+01  0.14903502045E+02  0.00000000000E+00 0. -1.
</event>
<event>
 7    1  0.1345786E-013  0.7246155E+02  0.7816164E-02  0.1226708E+00
        -11   -1    0    0    0    0  0.00000000000E+00  0.00000000000E+00  0.45593999997E+02  0.45594000000E+02  0.51100000000E-03 0.  1.
         11   -1    0    0    0    0 -0.00000000000E+00 -0.00000000000E+00 -0.45593999997E+02  0.45594000000E+02  0.51100000000E-03 0. -1.
    9900012    2    1    2    0    0  0.80109529541E+01  0.14061642935E+02 -0.94220262951E+01  0.72461554828E+02  0.69999979852E+02 0.  0.
         12    1    1    2    0    0 -0.80109529541E+01 -0.14061642935E+02  0.94220262951E+01  0.18726445172E+02  0.00000000000E+00 0. -1.
         11    1    3    3    0    0 -0.18040044445E+02  0.10333747403E+02 -0.16612202569E+02  0.26611929908E+02  0.51100000000E-03 0. -1.
        -11    1    3    3    0    0  0.28918194411E+02 -0.59263221250E+00 -0.78252204957E+01  0.29964099469E+02  0.51100000000E-03 0.  1.
        -12    1    3    3    0    0 -0.28671970115E+01  0.43205277453E+01  0.15015396770E+02  0.15885525451E+02  0.00000000000E+00 0.  1.
</event>
<event>
 7    1  0.1345786E-013  0.7246165E+02  0.7816164E-02  0.1226708E+00
        -11   -1    0    0    0    0  0.00000000000E+00  0.00000000000E+00  0.45593999997E+02  0.45594000000E+02  0.51100000000E-03 0. -1.
         11   -1    0    0    0    0 -0.00000000000E+00 -0.00000000000E+00 -0.45593999997E+02  0.45594000000E+02  0.51100000000E-03 0.  1.
    9900012    2    1    2    0    0  0.13594320434E+02  0.70894224393E+01  0.10752248306E+02  0.72461646852E+02  0.70000099731E+02 0.  0.
         12    1    1    2    0    0 -0.13594320434E+02 -0.70894224393E+01 -0.10752248306E+02  0.18726353148E+02  0.00000000000E+00 0. -1.
         11    1    3    3    0    0 -0.11418732615E+02 -0.20418120242E+02  0.87424967657E+01  0.24974353620E+02  0.51100000000E-03 0. -1.
        -11    1    3    3    0    0  0.18705509155E+02  0.30883208609E+02 -0.61599016389E+01  0.36628036191E+02  0.51100000000E-03 0.  1.
        -12    1    3    3    0    0  0.63075438943E+01 -0.33756659272E+01  0.81696531789E+01  0.10859257042E+02  0.00000000000E+00 0.  1.
</event>
<event>
 7    1  0.1345786E-013  0.7246156E+02  0.7816164E-02  0.1226708E+00
        -11   -1    0    0    0    0  0.00000000000E+00  0.00000000000E+00  0.45593999997E+02  0.45594000000E+02  0.51100000000E-03 0. -1.
         11   -1    0    0    0    0 -0.00000000000E+00 -0.00000000000E+00 -0.45593999997E+02  0.45594000000E+02  0.51100000000E-03 0.  1.
    9900012    2    1    2    0    0 -0.65287633137E+01 -0.52190892467E+00 -0.17543729317E+02  0.72461559397E+02  0.69999985804E+02 0.  0.
         12    1    1    2    0    0  0.65287633137E+01  0.52190892467E+00  0.17543729317E+02  0.18726440603E+02  0.00000000000E+00 0. -1.
         11    1    3    3    0    0  0.79950771280E+01 -0.49674618427E+01  0.18847109699E+02  0.21066809908E+02  0.51100000000E-03 0. -1.
        -11    1    3    3    0    0 -0.19407799213E+02  0.14847236344E+02 -0.21222089068E+02  0.32364798192E+02  0.51100000000E-03 0.  1.
        -12    1    3    3    0    0  0.48839587711E+01 -0.10401683426E+02 -0.15168749948E+02  0.19029951296E+02  0.00000000000E+00 0.  1.
</event>
<event>
 7    1  0.1345786E-013  0.7246157E+02  0.7816164E-02  0.1226708E+00
        -11   -1    0    0    0    0  0.00000000000E+00  0.00000000000E+00  0.45593999997E+02  0.45594000000E+02  0.51100000000E-03 0.  1.
         11   -1    0    0    0    0 -0.00000000000E+00 -0.00000000000E+00 -0.45593999997E+02  0.45594000000E+02  0.51100000000E-03 0. -1.
    9900012    2    1    2    0    0 -0.63174433950E+01  0.13449998334E+02  0.11395909056E+02  0.72461567092E+02  0.69999995829E+02 0.  0.
         12    1    1    2    0    0  0.63174433950E+01 -0.13449998334E+02 -0.11395909056E+02  0.18726432908E+02  0.00000000000E+00 0. -1.
         11    1    3    3    0    0 -0.36990852672E+01 -0.18148165283E+02  0.14222266585E+02  0.23351916453E+02  0.51100000000E-03 0. -1.
        -11    1    3    3    0    0  0.12983361968E+02  0.30641538083E+02 -0.32855780420E+00  0.33280316925E+02  0.51100000000E-03 0.  1.
        -12    1    3    3    0    0 -0.15601720096E+02  0.95662553424E+00 -0.24977997250E+01  0.15829333714E+02  0.00000000000E+00 0.  1.
</event>
<event>
 7    1  0.1345786E-013  0.7246167E+02  0.7816164E-02  0.1226708E+00
        -11   -1    0    0    0    0  0.00000000000E+00  0.00000000000E+00  0.45593999997E+02  0.45594000000E+02  0.51100000000E-03 0. -1.
         11   -1    0    0    0    0 -0.00000000000E+00 -0.00000000000E+00 -0.45593999997E+02  0.45594000000E+02  0.51100000000E-03 0.  1.
    9900012    2    1    2    0    0  0.81948589457E+01  0.12317962752E+02 -0.11479866607E+02  0.72461674765E+02  0.70000136092E+02 0.  0.
         12    1    1    2    0    0 -0.81948589457E+01 -0.12317962752E+02  0.11479866607E+02  0.18726325235E+02  0.00000000000E+00 0. -1.
         11    1    3    3    0    0  0.10453819813E+02  0.12813736984E+01  0.21310690453E+02  0.23771196753E+02  0.51100000000E-03 0. -1.
        -11    1    3    3    0    0 -0.13976784601E+02  0.16469364776E+02 -0.26887326513E+02  0.34489401433E+02  0.51100000000E-03 0.  1.
        -12    1    3    3    0    0  0.11717823734E+02 -0.54327757224E+01 -0.59032305464E+01  0.14201076579E+02  0.00000000000E+00 0.  1.
</event>
<event>
 7    1  0.1345786E-013  0.7246155E+02  0.7816164E-02  0.1226708E+00
        -11   -1    0    0    0    0  0.00000000000E+00  0.00000000000E+00  0.45593999997E+02  0.45594000000E+02  0.51100000000E-03 0. -1.
         11   -1    0    0    0    0 -0.00000000000E+00 -0.00000000000E+00 -0.45593999997E+02  0.45594000000E+02  0.51100000000E-03 0.  1.
    9900012    2    1    2    0    0  0.17733561145E+02 -0.48049365861E+00  0.59974806009E+01  0.72461552430E+02  0.69999976728E+02 0.  0.
         12    1    1    2    0    0 -0.17733561145E+02  0.48049365861E+00 -0.59974806009E+01  0.18726447570E+02  0.00000000000E+00 0. -1.
         11    1    3    3    0    0  0.15684040887E+01 -0.25907666687E+02 -0.97452799969E+01  0.27724313644E+02  0.51100000000E-03 0. -1.
        -11    1    3    3    0    0  0.12937257793E+02  0.73111307961E+01  0.20883803392E+02  0.25631202022E+02  0.51100000000E-03 0.  1.
        -12    1    3    3    0    0  0.32278992633E+01  0.18116042232E+02 -0.51410427941E+01  0.19106036764E+02  0.00000000000E+00 0.  1.
</event>
<event>
 7    1  0.1345786E-013  0.7246157E+02  0.7816164E-02  0.1226708E+00
        -11   -1    0    0    0    0  0.00000000000E+00  0.00000000000E+00  0.45593999997E+02  0.45594000000E+02  0.51100000000E-03 0.  1.
         11   -1    0    0    0    0 -0.00000000000E+00 -0.00000000000E+00 -0.45593999997E+02  0.45594000000E+02  0.51100000000E-03 0. -1.
    9900012    2    1    2    0    0  0.12776444961E+02  0.32430617709E+01  0.13301283711E+02  0.72461570980E+02  0.70000000893E+02 0.  0.
         12    1    1    2    0    0 -0.12776444961E+02 -0.32430617709E+01 -0.13301283711E+02  0.18726429020E+02  0.00000000000E+00 0. -1.
         11    1    3    3    0    0 -0.19245647426E+02 -0.15934166143E+02 -0.37205280735E+01  0.25261332604E+02  0.51100000000E-03 0. -1.
        -11    1    3    3    0    0  0.26823640329E+02  0.23573108701E+02  0.92903765614E+01  0.36898648095E+02  0.51100000000E-03 0.  1.
        -12    1    3    3    0    0  0.51984520576E+01 -0.43958807874E+01  0.77314352235E+01  0.10301590281E+02  0.00000000000E+00 0.  1.
</event>
<event>
 7    1  0.1345786E-013  0.7246158E+02  0.7816164E-02  0.1226708E+00
        -11   -1    0    0    0    0  0.00000000000E+00  0.00000000000E+00  0.45593999997E+02  0.45594000000E+02  0.51100000000E-03 0.  1.
         11   -1    0    0    0    0 -0.00000000000E+00 -0.00000000000E+00 -0.45593999997E+02  0.45594000000E+02  0.51100000000E-03 0. -1.
    9900012    2    1    2    0    0 -0.12246600027E+01 -0.42080076271E+01  0.18206359873E+02  0.72461583895E+02  0.70000017718E+02 0.  0.
         12    1    1    2    0    0  0.12246600027E+01  0.42080076271E+01 -0.18206359873E+02  0.18726416105E+02  0.00000000000E+00 0. -1.
         11    1    3    3    0    0 -0.18848950082E+02 -0.23881090356E+02  0.18179292662E+02  0.35441163606E+02  0.51100000000E-03 0. -1.
        -11    1    3    3    0    0  0.21464700317E+02  0.18008080589E+02  0.70073818780E+01  0.28881269488E+02  0.51100000000E-03 0.  1.
        -12    1    3    3    0    0 -0.38404102371E+01  0.16650021397E+01 -0.69803146672E+01  0.81391508014E+01  0.00000000000E+00 0.  1.
</event>
<event>
 7    1  0.1345786E-013  0.7246158E+02  0.7816164E-02  0.1226708E+00
        -11   -1    0    0    0    0  0.00000000000E+00  0.00000000000E+00  0.45593999997E+02  0.45594000000E+02  0.51100000000E-03 0.  1.
         11   -1    0    0    0    0 -0.00000000000E+00 -0.00000000000E+00 -0.45593999997E+02  0.45594000000E+02  0.51100000000E-03 0. -1.
    9900012    2    1    2    0    0 -0.64454725338E+01  0.59357186690E+01  0.16549979384E+02  0.72461583100E+02  0.70000016682E+02 0.  0.
         12    1    1    2    0    0  0.64454725338E+01 -0.59357186690E+01 -0.16549979384E+02  0.18726416900E+02  0.00000000000E+00 0. -1.
         11    1    3    3    0    0  0.56998499118E+01 -0.27732460044E+02  0.29694584176E+01  0.28467443030E+02  0.51100000000E-03 0. -1.
        -11    1    3    3    0    0 -0.15865184224E+02  0.29146183799E+02  0.49305728531E+01  0.33548690726E+02  0.51100000000E-03 0.  1.
        -12    1    3    3    0    0  0.37198617786E+01  0.45219949136E+01  0.86499481131E+01  0.10445449345E+02  0.00000000000E+00 0.  1.
</event>
<event>
 7    1  0.1345786E-013  0.7246155E+02  0.7816164E-02  0.1226708E+00
        -11   -1    0    0    0    0  0.00000000000E+00  0.00000000000E+00  0.45593999997E+02  0.45594000000E+02  0.51100000000E-03 0. -1.
         11   -1    0    0    0    0 -0.00000000000E+00 -0.00000000000E+00 -0.45593999997E+02  0.45594000000E+02  0.51100000000E-03 0.  1.
    9900012    2    1    2    0    0 -0.16130240380E+02  0.84544059611E+01 -0.43610036843E+01  0.72461548440E+02  0.69999971531E+02 0.  0.
         12    1    1    2    0    0  0.16130240380E+02 -0.84544059611E+01  0.43610036843E+01  0.18726451560E+02  0.00000000000E+00 0. -1.
         11    1    3    3    0    0  0.22913295407E+02  0.23306698582E+01  0.98968267025E+01  0.25067874011E+02  0.51100000000E-03 0. -1.
        -11    1    3    3    0    0 -0.13901802854E+02 -0.48973457408E+00  0.52743065493E+01  0.14876769554E+02  0.51100000000E-03 0.  1.
         12    1    3    3    0    0 -0.25141732934E+02  0.66134706770E+01 -0.19532136936E+02  0.32516904874E+02  0.00000000000E+00 0. -1.
</event>
<event>
 7    1  0.1345786E-013  0.7246195E+02  0.7816164E-02  0.1226707E+00
        -11   -1    0    0    0    0  0.00000000000E+00  0.00000000000E+00  0.45593999997E+02  0.45594000000E+02  0.51100000000E-03 0. -1.
         11   -1    0    0    0    0 -0.00000000000E+00 -0.00000000000E+00 -0.45593999997E+02  0.45594000000E+02  0.51100000000E-03 0.  1.
    9900012    2    1    2    0    0  0.13279976148E+02 -0.12615310979E+02  0.38937491027E+01  0.72461945432E+02  0.70000488685E+02 0.  0.
         12    1    1    2    0    0 -0.13279976148E+02  0.12615310979E+02 -0.38937491027E+01  0.18726054568E+02  0.00000000000E+00 0. -1.
         11    1    3    3    0    0 -0.15347390898E+02 -0.52892413735E+01 -0.10264406404E+02  0.19206158408E+02  0.51100000000E-03 0. -1.
        -11    1    3    3    0    0 -0.53789903341E+00  0.14750774736E+02  0.40342126464E+01  0.15301946367E+02  0.51100000000E-03 0.  1.
         12    1    3    3    0    0  0.29165266080E+02 -0.22076844342E+02  0.10123942861E+02  0.37953840657E+02  0.00000000000E+00 0. -1.
</event>
<event>
 7    1  0.1345786E-013  0.7246153E+02  0.7816164E-02  0.1226708E+00
        -11   -1    0    0    0    0  0.00000000000E+00  0.00000000000E+00  0.45593999997E+02  0.45594000000E+02  0.51100000000E-03 0. -1.
         11   -1    0    0    0    0 -0.00000000000E+00 -0.00000000000E+00 -0.45593999997E+02  0.45594000000E+02  0.51100000000E-03 0.  1.
    9900012    2    1    2    0    0  0.10925792931E+02  0.23227862945E+01 -0.15030377792E+02  0.72461533598E+02  0.69999952196E+02 0.  0.
         12    1    1    2    0    0 -0.10925792931E+02 -0.23227862945E+01  0.15030377792E+02  0.18726466402E+02  0.00000000000E+00 0. -1.
         11    1    3    3    0    0  0.32762238054E+02 -0.65565727758E+01  0.12446306084E+02  0.35654781226E+02  0.51100000000E-03 0.  1.
        -11    1    3    3    0    0 -0.17284815858E+02  0.54887996362E+01 -0.16828817273E+02  0.24740672419E+02  0.51100000000E-03 0. -1.
        -12    1    3    3    0    0 -0.45516292653E+01  0.33905594341E+01 -0.10647866603E+02  0.12066079953E+02  0.00000000000E+00 0.  1.
</event>
<event>
 7    1  0.1345786E-013  0.7246159E+02  0.7816164E-02  0.1226708E+00
        -11   -1    0    0    0    0  0.00000000000E+00  0.00000000000E+00  0.45593999997E+02  0.45594000000E+02  0.51100000000E-03 0.  1.
         11   -1    0    0    0    0 -0.00000000000E+00 -0.00000000000E+00 -0.45593999997E+02  0.45594000000E+02  0.51100000000E-03 0. -1.
    9900012    2    1    2    0    0  0.97211981572E+01 -0.20767970317E+01  0.15870209782E+02  0.72461592495E+02  0.70000028921E+02 0.  0.
         12    1    1    2    0    0 -0.97211981572E+01  0.20767970317E+01 -0.15870209782E+02  0.18726407505E+02  0.00000000000E+00 0. -1.
         11    1    3    3    0    0  0.38501482680E+00  0.11315800715E+02 -0.18228425867E+02  0.21458590170E+02  0.51100000000E-03 0. -1.
        -11    1    3    3    0    0  0.21327503598E+01  0.53893934098E+01  0.29896045300E+02  0.30452712691E+02  0.51100000000E-03 0.  1.
        -12    1    3    3    0    0  0.72034329706E+01 -0.18781991157E+02  0.42025903492E+01  0.20550289633E+02  0.00000000000E+00 0.  1.
</event>
<event>
 7    1  0.1345786E-013  0.7246158E+02  0.7816164E-02  0.1226708E+00
        -11   -1    0    0    0    0  0.00000000000E+00  0.00000000000E+00  0.45593999997E+02  0.45594000000E+02  0.51100000000E-03 0.  1.
         11   -1    0    0    0    0 -0.00000000000E+00 -0.00000000000E+00 -0.45593999997E+02  0.45594000000E+02  0.51100000000E-03 0. -1.
    9900012    2    1    2    0    0  0.70677315153E+00  0.11235551008E+02  0.14964676362E+02  0.72461583542E+02  0.70000017257E+02 0.  0.
         12    1    1    2    0    0 -0.70677315153E+00 -0.11235551008E+02 -0.14964676362E+02  0.18726416458E+02  0.00000000000E+00 0. -1.
         11    1    3    3    0    0 -0.20823017287E+02  0.96853068207E+01  0.10526141734E+02  0.25262677554E+02  0.51100000000E-03 0. -1.
        -11    1    3    3    0    0  0.22856704397E+02  0.28178640967E+01  0.20621014871E+02  0.30912708528E+02  0.51100000000E-03 0.  1.
        -12    1    3    3    0    0 -0.13269139585E+01 -0.12676199094E+01 -0.16182480243E+02  0.16286197460E+02  0.00000000000E+00 0.  1.
</event>
<event>
 7    1  0.1345786E-013  0.7246154E+02  0.7816164E-02  0.1226708E+00
        -11   -1    0    0    0    0  0.00000000000E+00  0.00000000000E+00  0.45593999997E+02  0.45594000000E+02  0.51100000000E-03 0. -1.
         11   -1    0    0    0    0 -0.00000000000E+00 -0.00000000000E+00 -0.45593999997E+02  0.45594000000E+02  0.51100000000E-03 0.  1.
    9900012    2    1    2    0    0  0.26733934197E+01 -0.17629506868E+02 -0.57213441981E+01  0.72461539464E+02  0.69999959837E+02 0.  0.
         12    1    1    2    0    0 -0.26733934197E+01  0.17629506868E+02  0.57213441981E+01  0.18726460536E+02  0.00000000000E+00 0. -1.
         11    1    3    3    0    0 -0.14882215354E+02 -0.22691765817E+02  0.34939068810E+01  0.27360627830E+02  0.51100000000E-03 0.  1.
        -11    1    3    3    0    0  0.25928426227E+02  0.66220043411E+01  0.62180155688E+01  0.27473586333E+02  0.51100000000E-03 0. -1.
         12    1    3    3    0    0 -0.83728174543E+01 -0.15597453924E+01 -0.15433266648E+02  0.17627325300E+02  0.00000000000E+00 0. -1.
</event>
<event>
 7    1  0.1345786E-013  0.7246151E+02  0.7816164E-02  0.1226708E+00
        -11   -1    0    0    0    0  0.00000000000E+00  0.00000000000E+00  0.45593999997E+02  0.45594000000E+02  0.51100000000E-03 0. -1.
         11   -1    0    0    0    0 -0.00000000000E+00 -0.00000000000E+00 -0.45593999997E+02  0.45594000000E+02  0.51100000000E-03 0.  1.
    9900012    2    1    2    0    0 -0.13923743191E+02 -0.12942013635E+01 -0.12455359258E+02  0.72461506578E+02  0.69999916998E+02 0.  0.
         12    1    1    2    0    0  0.13923743191E+02  0.12942013635E+01  0.12455359258E+02  0.18726493422E+02  0.00000000000E+00 0. -1.
         11    1    3    3    0    0  0.91128175408E+01 -0.20147484462E+02  0.71696958460E+01  0.23245840756E+02  0.51100000000E-03 0. -1.
        -11    1    3    3    0    0 -0.20418232427E+02  0.25348145914E+01 -0.24491481376E+02  0.31986906082E+02  0.51100000000E-03 0.  1.
         12    1    3    3    0    0 -0.26183283047E+01  0.16318468507E+02  0.48664262714E+01  0.17228759740E+02  0.00000000000E+00 0. -1.
</event>
<event>
 7    1  0.1345786E-013  0.7246151E+02  0.7816164E-02  0.1226708E+00
        -11   -1    0    0    0    0  0.00000000000E+00  0.00000000000E+00  0.45593999997E+02  0.45594000000E+02  0.51100000000E-03 0.  1.
         11   -1    0    0    0    0 -0.00000000000E+00 -0.00000000000E+00 -0.45593999997E+02  0.45594000000E+02  0.51100000000E-03 0. -1.
    9900012    2    1    2    0    0  0.17058841966E+02 -0.27862543403E+01  0.72051441587E+01  0.72461510611E+02  0.69999922252E+02 0.  0.
         12    1    1    2    0    0 -0.17058841966E+02  0.27862543403E+01 -0.72051441587E+01  0.18726489389E+02  0.00000000000E+00 0. -1.
         11    1    3    3    0    0 -0.96191030868E+00  0.17944938424E+02  0.85493694542E+01  0.19900698601E+02  0.51100000000E-03 0. -1.
        -11    1    3    3    0    0  0.20530475895E+02 -0.10901874758E+02 -0.20429435084E+02  0.30946940589E+02  0.51100000000E-03 0.  1.
        -12    1    3    3    0    0 -0.25097236203E+01 -0.98293180065E+01  0.19085209789E+02  0.21613871421E+02  0.00000000000E+00 0.  1.
</event>
<event>
 7    1  0.1345786E-013  0.7246154E+02  0.7816164E-02  0.1226708E+00
        -11   -1    0    0    0    0  0.00000000000E+00  0.00000000000E+00  0.45593999997E+02  0.45594000000E+02  0.51100000000E-03 0.  1.
         11   -1    0    0    0    0 -0.00000000000E+00 -0.00000000000E+00 -0.45593999997E+02  0.45594000000E+02  0.51100000000E-03 0. -1.
    9900012    2    1    2    0    0  0.43985584606E+01  0.15582641835E+02  0.94082047546E+01  0.72461538514E+02  0.69999958600E+02 0.  0.
         12    1    1    2    0    0 -0.43985584606E+01 -0.15582641835E+02 -0.94082047546E+01  0.18726461486E+02  0.00000000000E+00 0. -1.
         11    1    3    3    0    0  0.10281139899E+02 -0.62647843428E+01  0.35119209207E+02  0.37125573613E+02  0.51100000000E-03 0.  1.
        -11    1    3    3    0    0 -0.37159587439E+01  0.19802812406E+02 -0.17808385219E+02  0.26890487406E+02  0.51100000000E-03 0. -1.
        -12    1    3    3    0    0 -0.21666226948E+01  0.20446137720E+01 -0.79026192335E+01  0.84454774955E+01  0.00000000000E+00 0.  1.
</event>
<event>
 7    1  0.1345786E-013  0.7246150E+02  0.7816164E-02  0.1226708E+00
        -11   -1    0    0    0    0  0.00000000000E+00  0.00000000000E+00  0.45593999997E+02  0.45594000000E+02  0.51100000000E-03 0.  1.
         11   -1    0    0    0    0 -0.00000000000E+00 -0.00000000000E+00 -0.45593999997E+02  0.45594000000E+02  0.51100000000E-03 0. -1.
    9900012    2    1    2    0    0  0.65781006008E+01 -0.65729812045E+01  0.16254426568E+02  0.72461498125E+02  0.69999905986E+02 0.  0.
         12    1    1    2    0    0 -0.65781006008E+01  0.65729812045E+01 -0.16254426568E+02  0.18726501875E+02  0.00000000000E+00 0. -1.
         11    1    3    3    0    0  0.13943988084E+02  0.15244355050E+02 -0.50127968283E+01  0.21259193232E+02  0.51100000000E-03 0. -1.
        -11    1    3    3    0    0  0.15672638306E+02 -0.23012501740E+01  0.11100933375E+02  0.19343165870E+02  0.51100000000E-03 0.  1.
         12    1    3    3    0    0 -0.23038525789E+02 -0.19516086080E+02  0.10166290022E+02  0.31859139022E+02  0.00000000000E+00 0. -1.
</event>
<event>
 7    1  0.1345786E-013  0.7246157E+02  0.7816164E-02  0.1226708E+00
        -11   -1    0    0    0    0  0.00000000000E+00  0.00000000000E+00  0.45593999997E+02  0.45594000000E+02  0.51100000000E-03 0.  1.
         11   -1    0    0    0    0 -0.00000000000E+00 -0.00000000000E+00 -0.45593999997E+02  0.45594000000E+02  0.51100000000E-03 0. -1.
    9900012    2    1    2    0    0  0.89634600568E+01 -0.13072136043E+02  0.99726998100E+01  0.72461572193E+02  0.70000002474E+02 0.  0.
         12    1    1    2    0    0 -0.89634600568E+01  0.13072136043E+02 -0.99726998100E+01  0.18726427807E+02  0.00000000000E+00 0. -1.
         11    1    3    3    0    0  0.14209243961E+02  0.48559637782E+01 -0.16574917038E+02  0.22365394547E+02  0.51100000000E-03 0. -1.
        -11    1    3    3    0    0  0.11287831490E+02 -0.20483074641E+02  0.23379071692E+02  0.33068905031E+02  0.51100000000E-03 0.  1.
        -12    1    3    3    0    0 -0.16533615394E+02  0.25549748201E+01  0.31685451562E+01  0.17027272616E+02  0.00000000000E+00 0.  1.
</event>
<event>
 7    1  0.1345786E-013  0.7246164E+02  0.7816164E-02  0.1226708E+00
        -11   -1    0    0    0    0  0.00000000000E+00  0.00000000000E+00  0.45593999997E+02  0.45594000000E+02  0.51100000000E-03 0.  1.
         11   -1    0    0    0    0 -0.00000000000E+00 -0.00000000000E+00 -0.45593999997E+02  0.45594000000E+02  0.51100000000E-03 0. -1.
    9900012    2    1    2    0    0 -0.11693422402E+02  0.13151117937E+02  0.64022343615E+01  0.72461637959E+02  0.70000088146E+02 0.  0.
         12    1    1    2    0    0  0.11693422402E+02 -0.13151117937E+02 -0.64022343615E+01  0.18726362041E+02  0.00000000000E+00 0. -1.
         11    1    3    3    0    0 -0.18366756470E+01 -0.10664278674E+02 -0.17225765528E+02  0.20342743555E+02  0.51100000000E-03 0. -1.
        -11    1    3    3    0    0  0.30395128688E+01  0.45152165504E+01  0.27977993318E+02  0.28502524965E+02  0.51100000000E-03 0.  1.
        -12    1    3    3    0    0 -0.12896259624E+02  0.19300180061E+02 -0.43499934287E+01  0.23616369439E+02  0.00000000000E+00 0.  1.
</event>
<event>
 7    1  0.1345786E-013  0.7246162E+02  0.7816164E-02  0.1226708E+00
        -11   -1    0    0    0    0  0.00000000000E+00  0.00000000000E+00  0.45593999997E+02  0.45594000000E+02  0.51100000000E-03 0.  1.
         11   -1    0    0    0    0 -0.00000000000E+00 -0.00000000000E+00 -0.45593999997E+02  0.45594000000E+02  0.51100000000E-03 0. -1.
    9900012    2    1    2    0    0  0.14041644426E+02  0.12269284899E+02  0.17245729567E+01  0.72461620691E+02  0.70000065652E+02 0.  0.
         12    1    1    2    0    0 -0.14041644426E+02 -0.12269284899E+02 -0.17245729567E+01  0.18726379309E+02  0.00000000000E+00 0. -1.
         11    1    3    3    0    0  0.10366911022E+02  0.14179270616E+02 -0.33851481599E+01  0.17888090666E+02  0.51100000000E-03 0.  1.
        -11    1    3    3    0    0  0.54933587469E+01 -0.20962295728E+02  0.20639710635E+02  0.29926451308E+02  0.51100000000E-03 0. -1.
        -12    1    3    3    0    0 -0.18186253426E+01  0.19052310011E+02 -0.15529989519E+02  0.24647078718E+02  0.00000000000E+00 0.  1.
</event>
<event>
 7    1  0.1345786E-013  0.7246157E+02  0.7816164E-02  0.1226708E+00
        -11   -1    0    0    0    0  0.00000000000E+00  0.00000000000E+00  0.45593999997E+02  0.45594000000E+02  0.51100000000E-03 0. -1.
         11   -1    0    0    0    0 -0.00000000000E+00 -0.00000000000E+00 -0.45593999997E+02  0.45594000000E+02  0.51100000000E-03 0.  1.
    9900012    2    1    2    0    0  0.18599530965E+02 -0.17833977670E+01  0.12473819032E+01  0.72461574251E+02  0.70000005155E+02 0.  0.
         12    1    1    2    0    0 -0.18599530965E+02  0.17833977670E+01 -0.12473819032E+01  0.18726425749E+02  0.00000000000E+00 0. -1.
         11    1    3    3    0    0 -0.18345692085E+02 -0.52117424187E+01 -0.40228240856E+01  0.19491274740E+02  0.51100000000E-03 0. -1.
        -11    1    3    3    0    0  0.35225839071E+02  0.38388942001E+01 -0.10612530523E+02  0.36989493796E+02  0.51100000000E-03 0.  1.
        -12    1    3    3    0    0  0.17193839784E+01 -0.41054954841E+00  0.15882736511E+02  0.15980805715E+02  0.00000000000E+00 0.  1.
</event>
<event>
 7    1  0.1345786E-013  0.7246157E+02  0.7816164E-02  0.1226708E+00
        -11   -1    0    0    0    0  0.00000000000E+00  0.00000000000E+00  0.45593999997E+02  0.45594000000E+02  0.51100000000E-03 0.  1.
         11   -1    0    0    0    0 -0.00000000000E+00 -0.00000000000E+00 -0.45593999997E+02  0.45594000000E+02  0.51100000000E-03 0. -1.
    9900012    2    1    2    0    0  0.11381675569E+02  0.19857008512E+01  0.14737494965E+02  0.72461566692E+02  0.69999995307E+02 0.  0.
         12    1    1    2    0    0 -0.11381675569E+02 -0.19857008512E+01 -0.14737494965E+02  0.18726433308E+02  0.00000000000E+00 0. -1.
         11    1    3    3    0    0  0.21094351898E+02  0.17798738414E+02 -0.14067967049E+02  0.30978613079E+02  0.51100000000E-03 0. -1.
        -11    1    3    3    0    0 -0.42565895407E+01  0.30975344095E+01  0.18563776371E+02  0.19295778485E+02  0.51100000000E-03 0.  1.
         12    1    3    3    0    0 -0.54560867883E+01 -0.18910571972E+02  0.10241685643E+02  0.22187175128E+02  0.00000000000E+00 0. -1.
</event>
<event>
 7    1  0.1345786E-013  0.7246157E+02  0.7816164E-02  0.1226708E+00
        -11   -1    0    0    0    0  0.00000000000E+00  0.00000000000E+00  0.45593999997E+02  0.45594000000E+02  0.51100000000E-03 0.  1.
         11   -1    0    0    0    0 -0.00000000000E+00 -0.00000000000E+00 -0.45593999997E+02  0.45594000000E+02  0.51100000000E-03 0. -1.
    9900012    2    1    2    0    0  0.19780311063E+01 -0.16153029207E+02  0.92653290486E+01  0.72461567291E+02  0.69999996087E+02 0.  0.
         12    1    1    2    0    0 -0.19780311063E+01  0.16153029207E+02 -0.92653290486E+01  0.18726432709E+02  0.00000000000E+00 0. -1.
         11    1    3    3    0    0  0.40816425371E+01  0.61883112748E+01  0.33319156070E+02  0.34133871209E+02  0.51100000000E-03 0. -1.
        -11    1    3    3    0    0  0.84462905010E+01 -0.82389319197E+01 -0.65420285038E+01  0.13491403174E+02  0.51100000000E-03 0.  1.
         12    1    3    3    0    0 -0.10549901932E+02 -0.14102408563E+02 -0.17511798518E+02  0.24836292907E+02  0.00000000000E+00 0. -1.
</event>
<event>
 7    1  0.1345786E-013  0.7246157E+02  0.7816164E-02  0.1226708E+00
        -11   -1    0    0    0    0  0.00000000000E+00  0.00000000000E+00  0.45593999997E+02  0.45594000000E+02  0.51100000000E-03 0. -1.
         11   -1    0    0    0    0 -0.00000000000E+00 -0.00000000000E+00 -0.45593999997E+02  0.45594000000E+02  0.51100000000E-03 0.  1.
    9900012    2    1    2    0    0 -0.11457633684E+02 -0.60956924398E+01 -0.13499791680E+02  0.72461569177E+02  0.69999998545E+02 0.  0.
         12    1    1    2    0    0  0.11457633684E+02  0.60956924398E+01  0.13499791680E+02  0.18726430823E+02  0.00000000000E+00 0. -1.
         11    1    3    3    0    0 -0.21291227891E+02  0.15915893732E+02  0.69614885645E+01  0.27478980725E+02  0.51100000000E-03 0. -1.
        -11    1    3    3    0    0  0.18086501251E+02 -0.22290516725E+02 -0.75926066969E+01  0.29692361645E+02  0.51100000000E-03 0.  1.
         12    1    3    3    0    0 -0.82529070438E+01  0.27893055298E+00 -0.12868673548E+02  0.15290226807E+02  0.00000000000E+00 0. -1.
</event>
<event>
 7    1  0.1345786E-013  0.7246154E+02  0.7816164E-02  0.1226708E+00
        -11   -1    0    0    0    0  0.00000000000E+00  0.00000000000E+00  0.45593999997E+02  0.45594000000E+02  0.51100000000E-03 0. -1.
         11   -1    0    0    0    0 -0.00000000000E+00 -0.00000000000E+00 -0.45593999997E+02  0.45594000000E+02  0.51100000000E-03 0.  1.
    9900012    2    1    2    0    0 -0.86187452650E+01 -0.22651616773E+01 -0.16470170349E+02  0.72461541748E+02  0.69999962813E+02 0.  0.
         12    1    1    2    0    0  0.86187452650E+01  0.22651616773E+01  0.16470170349E+02  0.18726458252E+02  0.00000000000E+00 0. -1.
         11    1    3    3    0    0  0.10161159203E+02 -0.34696968859E+01 -0.32904699600E+02  0.34612240737E+02  0.51100000000E-03 0. -1.
        -11    1    3    3    0    0 -0.25689059211E+02 -0.12782373100E+01  0.86196046912E+01  0.27126725550E+02  0.51100000000E-03 0.  1.
         12    1    3    3    0    0  0.69091547427E+01  0.24827725186E+01  0.78149245598E+01  0.10722575461E+02  0.00000000000E+00 0. -1.
</event>
<event>
 7    1  0.1345786E-013  0.7246151E+02  0.7816164E-02  0.1226708E+00
        -11   -1    0    0    0    0  0.00000000000E+00  0.00000000000E+00  0.45593999997E+02  0.45594000000E+02  0.51100000000E-03 0.  1.
         11   -1    0    0    0    0 -0.00000000000E+00 -0.00000000000E+00 -0.45593999997E+02  0.45594000000E+02  0.51100000000E-03 0. -1.
    9900012    2    1    2    0    0  0.67209509673E+00  0.86889150633E+01  0.16575055583E+02  0.72461510090E+02  0.69999921572E+02 0.  0.
         12    1    1    2    0    0 -0.67209509673E+00 -0.86889150633E+01 -0.16575055583E+02  0.18726489910E+02  0.00000000000E+00 0. -1.
         11    1    3    3    0    0  0.23915438377E+02  0.25844459002E+02  0.12150708173E+02  0.37249482724E+02  0.51100000000E-03 0. -1.
        -11    1    3    3    0    0 -0.60992849107E+00 -0.94123443124E+01  0.60989879498E+01  0.11232181110E+02  0.51100000000E-03 0.  1.
         12    1    3    3    0    0 -0.22633414789E+02 -0.77431996263E+01 -0.16746405404E+01  0.23979846255E+02  0.00000000000E+00 0. -1.
</event>
<event>
 7    1  0.1345786E-013  0.7246150E+02  0.7816164E-02  0.1226708E+00
        -11   -1    0    0    0    0  0.00000000000E+00  0.00000000000E+00  0.45593999997E+02  0.45594000000E+02  0.51100000000E-03 0. -1.
         11   -1    0    0    0    0 -0.00000000000E+00 -0.00000000000E+00 -0.45593999997E+02  0.45594000000E+02  0.51100000000E-03 0.  1.
    9900012    2    1    2    0    0  0.87246482103E+01  0.15764421209E+02  0.51034518522E+01  0.72461503177E+02  0.69999912568E+02 0.  0.
         12    1    1    2    0    0 -0.87246482103E+01 -0.15764421209E+02 -0.51034518522E+01  0.18726496823E+02  0.00000000000E+00 0. -1.
         11    1    3    3    0    0 -0.23019765091E+01 -0.74116979983E+01 -0.49865589654E+01  0.92248649661E+01  0.51100000000E-03 0. -1.
        -11    1    3    3    0    0 -0.11465704368E+01  0.18900877121E+02  0.32363557150E+02  0.37496101282E+02  0.51100000000E-03 0.  1.
        -12    1    3    3    0    0  0.12173195156E+02  0.42752420855E+01 -0.22273546332E+02  0.25740536929E+02  0.00000000000E+00 0.  1.
</event>
<event>
 7    1  0.1345786E-013  0.7246135E+02  0.7816164E-02  0.1226709E+00
        -11   -1    0    0    0    0  0.00000000000E+00  0.00000000000E+00  0.45593999997E+02  0.45594000000E+02  0.51100000000E-03 0.  1.
         11   -1    0    0    0    0 -0.00000000000E+00 -0.00000000000E+00 -0.45593999997E+02  0.45594000000E+02  0.51100000000E-03 0. -1.
    9900012    2    1    2    0    0  0.16480350008E+02 -0.58901966493E+01  0.66626693203E+01  0.72461347458E+02  0.69999709714E+02 0.  0.
         12    1    1    2    0    0 -0.16480350008E+02  0.58901966493E+01 -0.66626693203E+01  0.18726652542E+02  0.00000000000E+00 0. -1.
         11    1    3    3    0    0  0.29427265206E+02 -0.13025263014E+02 -0.15535779761E+02  0.35734883057E+02  0.51100000000E-03 0. -1.
        -11    1    3    3    0    0 -0.54917474192E+01 -0.95104356236E+01  0.92518950405E+01  0.14359848104E+02  0.51100000000E-03 0.  1.
         12    1    3    3    0    0 -0.74551677787E+01  0.16645501989E+02  0.12946554041E+02  0.22366616297E+02  0.00000000000E+00 0. -1.
</event>
<event>
 7    1  0.1345786E-013  0.7246155E+02  0.7816164E-02  0.1226708E+00
        -11   -1    0    0    0    0  0.00000000000E+00  0.00000000000E+00  0.45593999997E+02  0.45594000000E+02  0.51100000000E-03 0.  1.
         11   -1    0    0    0    0 -0.00000000000E+00 -0.00000000000E+00 -0.45593999997E+02  0.45594000000E+02  0.51100000000E-03 0. -1.
    9900012    2    1    2    0    0 -0.12940928015E+02  0.10959109045E+02  0.79441995853E+01  0.72461548227E+02  0.69999971253E+02 0.  0.
         12    1    1    2    0    0  0.12940928015E+02 -0.10959109045E+02 -0.79441995853E+01  0.18726451773E+02  0.00000000000E+00 0. -1.
         11    1    3    3    0    0  0.17963397673E+01  0.18622792536E+02  0.21520633351E+02  0.28516186604E+02  0.51100000000E-03 0. -1.
        -11    1    3    3    0    0 -0.95025653492E+01 -0.20204668371E+02  0.29801911210E+01  0.22525738868E+02  0.51100000000E-03 0.  1.
        -12    1    3    3    0    0 -0.52347024329E+01  0.12540984880E+02 -0.16556624886E+02  0.21419622754E+02  0.00000000000E+00 0.  1.
</event>
<event>
 7    1  0.1345786E-013  0.7246156E+02  0.7816164E-02  0.1226708E+00
        -11   -1    0    0    0    0  0.00000000000E+00  0.00000000000E+00  0.45593999997E+02  0.45594000000E+02  0.51100000000E-03 0. -1.
         11   -1    0    0    0    0 -0.00000000000E+00 -0.00000000000E+00 -0.45593999997E+02  0.45594000000E+02  0.51100000000E-03 0.  1.
    9900012    2    1    2    0    0 -0.15913650147E+02  0.35968622114E+01 -0.91922714902E+01  0.72461560565E+02  0.69999987326E+02 0.  0.
         12    1    1    2    0    0  0.15913650147E+02 -0.35968622114E+01  0.91922714902E+01  0.18726439435E+02  0.00000000000E+00 0. -1.
         11    1    3    3    0    0 -0.29842521592E+02 -0.62741484232E+01  0.19583556287E+01  0.30557751724E+02  0.51100000000E-03 0. -1.
        -11    1    3    3    0    0  0.13315723872E+02  0.20736091587E+02 -0.16620279306E+02  0.29724193531E+02  0.51100000000E-03 0.  1.
         12    1    3    3    0    0  0.61314757319E+00 -0.10865080953E+02  0.54696521876E+01  0.12179615310E+02  0.00000000000E+00 0. -1.
</event>
<event>
 7    1  0.1345786E-013  0.7246151E+02  0.7816164E-02  0.1226708E+00
        -11   -1    0    0    0    0  0.00000000000E+00  0.00000000000E+00  0.45593999997E+02  0.45594000000E+02  0.51100000000E-03 0. -1.
         11   -1    0    0    0    0 -0.00000000000E+00 -0.00000000000E+00 -0.45593999997E+02  0.45594000000E+02  0.51100000000E-03 0.  1.
    9900012    2    1    2    0    0 -0.10267325048E+02  0.12596343371E+02 -0.93056821094E+01  0.72461506749E+02  0.69999917220E+02 0.  0.
         12    1    1    2    0    0  0.10267325048E+02 -0.12596343371E+02  0.93056821094E+01  0.18726493251E+02  0.00000000000E+00 0. -1.
         11    1    3    3    0    0  0.64210010086E+01 -0.78059286151E+01  0.22874513601E+02  0.25008101652E+02  0.51100000000E-03 0. -1.
        -11    1    3    3    0    0 -0.81318521660E+01  0.69226505299E+01 -0.29357752312E+02  0.31239842047E+02  0.51100000000E-03 0.  1.
         12    1    3    3    0    0 -0.85564738904E+01  0.13479621457E+02 -0.28224433980E+01  0.16213563050E+02  0.00000000000E+00 0. -1.
</event>
<event>
 8    1  0.1345786E-013  0.7246155E+02  0.7816164E-02  0.1226708E+00
        -11   -1    0    0    0    0  0.00000000000E+00  0.00000000000E+00  0.45593999997E+02  0.45594000000E+02  0.51100000000E-03 0.  1.
         11   -1    0    0    0    0 -0.00000000000E+00 -0.00000000000E+00 -0.45593999997E+02  0.45594000000E+02  0.51100000000E-03 0. -1.
    9900012    2    1    2    0    0  0.54137565756E+01  0.10587924160E+02  0.14466067912E+02  0.72461547610E+02  0.69999970449E+02 0.  0.
         24    2    3    3    0    0  0.91759592625E+01 -0.21888615352E+01  0.24947001121E+02  0.55513085057E+02  0.48686347207E+02 0.  0.
         12    1    1    2    0    0 -0.54137565756E+01 -0.10587924160E+02 -0.14466067912E+02  0.18726452390E+02  0.00000000000E+00 0. -1.
         11    1    3    3    0    0 -0.37622026870E+01  0.12776785695E+02 -0.10480933208E+02  0.16948462553E+02  0.51100000000E-03 0. -1.
        -11    1    4    4    0    0  0.11851231059E+02  0.19269029929E+02  0.25230841690E+02  0.33887203554E+02  0.51100000000E-03 0.  1.
         12    1    4    4    0    0 -0.26752717969E+01 -0.21457891465E+02 -0.28384056955E+00  0.21625881503E+02  0.00000000000E+00 0. -1.
</event>
<event>
 7    1  0.1345786E-013  0.7246147E+02  0.7816164E-02  0.1226708E+00
        -11   -1    0    0    0    0  0.00000000000E+00  0.00000000000E+00  0.45593999997E+02  0.45594000000E+02  0.51100000000E-03 0.  1.
         11   -1    0    0    0    0 -0.00000000000E+00 -0.00000000000E+00 -0.45593999997E+02  0.45594000000E+02  0.51100000000E-03 0. -1.
    9900012    2    1    2    0    0 -0.46034431531E+01  0.56938284627E+01  0.17235764195E+02  0.72461469654E+02  0.69999868897E+02 0.  0.
         12    1    1    2    0    0  0.46034431531E+01 -0.56938284627E+01 -0.17235764195E+02  0.18726530346E+02  0.00000000000E+00 0. -1.
         11    1    3    3    0    0 -0.10864898592E+02 -0.59916570550E+01 -0.10272347743E+02  0.16107982620E+02  0.51100000000E-03 0. -1.
        -11    1    3    3    0    0 -0.76902359688E+01  0.89173216392E+01  0.37280695779E+02  0.39096146006E+02  0.51100000000E-03 0.  1.
        -12    1    3    3    0    0  0.13951691408E+02  0.27681638784E+01 -0.97725838415E+01  0.17257341027E+02  0.00000000000E+00 0.  1.
</event>
<event>
 7    1  0.1345786E-013  0.7246165E+02  0.7816164E-02  0.1226708E+00
        -11   -1    0    0    0    0  0.00000000000E+00  0.00000000000E+00  0.45593999997E+02  0.45594000000E+02  0.51100000000E-03 0. -1.
         11   -1    0    0    0    0 -0.00000000000E+00 -0.00000000000E+00 -0.45593999997E+02  0.45594000000E+02  0.51100000000E-03 0.  1.
    9900012    2    1    2    0    0  0.16609238319E+02  0.61630250598E+01 -0.60684850373E+01  0.72461649954E+02  0.70000103771E+02 0.  0.
         12    1    1    2    0    0 -0.16609238319E+02 -0.61630250598E+01  0.60684850373E+01  0.18726350046E+02  0.00000000000E+00 0. -1.
         11    1    3    3    0    0  0.18052429736E+02  0.15118062299E+02  0.39939242206E+01  0.23882995164E+02  0.51100000000E-03 0. -1.
        -11    1    3    3    0    0 -0.10358696750E+02 -0.25765174105E+02 -0.10103879903E+02  0.29550553030E+02  0.51100000000E-03 0.  1.
        -12    1    3    3    0    0  0.89155053330E+01  0.16810136865E+02  0.41470644752E-01  0.19028101760E+02  0.00000000000E+00 0.  1.
</event>
<event>
 7    1  0.1345786E-013  0.7246158E+02  0.7816164E-02  0.1226708E+00
        -11   -1    0    0    0    0  0.00000000000E+00  0.00000000000E+00  0.45593999997E+02  0.45594000000E+02  0.51100000000E-03 0.  1.
         11   -1    0    0    0    0 -0.00000000000E+00 -0.00000000000E+00 -0.45593999997E+02  0.45594000000E+02  0.51100000000E-03 0. -1.
    9900012    2    1    2    0    0 -0.12463083545E+02 -0.11476248238E+02 -0.79778551256E+01  0.72461577558E+02  0.70000009462E+02 0.  0.
         12    1    1    2    0    0  0.12463083545E+02  0.11476248238E+02  0.79778551256E+01  0.18726422442E+02  0.00000000000E+00 0. -1.
         11    1    3    3    0    0  0.21360245752E+02  0.77854085100E+01 -0.98104946297E+01  0.24761229561E+02  0.51100000000E-03 0. -1.
        -11    1    3    3    0    0 -0.20349890804E+02 -0.19382096175E+02  0.12261873399E+02  0.30661657610E+02  0.51100000000E-03 0.  1.
         12    1    3    3    0    0 -0.13473438493E+02  0.12043942769E+00 -0.10429233895E+02  0.17038690387E+02  0.00000000000E+00 0. -1.
</event>
<event>
 7    1  0.1345786E-013  0.7246157E+02  0.7816164E-02  0.1226708E+00
        -11   -1    0    0    0    0  0.00000000000E+00  0.00000000000E+00  0.45593999997E+02  0.45594000000E+02  0.51100000000E-03 0. -1.
         11   -1    0    0    0    0 -0.00000000000E+00 -0.00000000000E+00 -0.45593999997E+02  0.45594000000E+02  0.51100000000E-03 0.  1.
    9900012    2    1    2    0    0  0.18391047595E+02 -0.10607348504E+00 -0.35266397826E+01  0.72461572915E+02  0.70000003414E+02 0.  0.
         12    1    1    2    0    0 -0.18391047595E+02  0.10607348504E+00  0.35266397826E+01  0.18726427085E+02  0.00000000000E+00 0. -1.
         11    1    3    3    0    0 -0.72352778179E+01  0.13913399631E+02 -0.65510119339E+01  0.16995519763E+02  0.51100000000E-03 0. -1.
        -11    1    3    3    0    0  0.27015488475E+02 -0.24869221307E+02 -0.10386425174E+02  0.38160091904E+02  0.51100000000E-03 0.  1.
        -12    1    3    3    0    0 -0.13891630618E+01  0.10849748190E+02  0.13410797326E+02  0.17305961248E+02  0.00000000000E+00 0.  1.
</event>
<event>
 7    1  0.1345786E-013  0.7246201E+02  0.7816164E-02  0.1226707E+00
        -11   -1    0    0    0    0  0.00000000000E+00  0.00000000000E+00  0.45593999997E+02  0.45594000000E+02  0.51100000000E-03 0. -1.
         11   -1    0    0    0    0 -0.00000000000E+00 -0.00000000000E+00 -0.45593999997E+02  0.45594000000E+02  0.51100000000E-03 0.  1.
    9900012    2    1    2    0    0  0.36002294542E+01  0.59262761204E+01 -0.17394832590E+02  0.72462012666E+02  0.70000576269E+02 0.  0.
         12    1    1    2    0    0 -0.36002294542E+01 -0.59262761204E+01  0.17394832590E+02  0.18725987334E+02  0.00000000000E+00 0. -1.
         11    1    3    3    0    0 -0.93736443561E+01  0.51106448857E+01 -0.79238837016E+01  0.13295556883E+02  0.51100000000E-03 0. -1.
        -11    1    3    3    0    0  0.15867672934E+02 -0.20831313299E+02  0.11761968088E+02  0.28706629054E+02  0.51100000000E-03 0.  1.
        -12    1    3    3    0    0 -0.28937991236E+01  0.21646944533E+02 -0.21232916977E+02  0.30459826729E+02  0.00000000000E+00 0.  1.
</event>
<event>
 7    1  0.1345786E-013  0.7246158E+02  0.7816164E-02  0.1226708E+00
        -11   -1    0    0    0    0  0.00000000000E+00  0.00000000000E+00  0.45593999997E+02  0.45594000000E+02  0.51100000000E-03 0. -1.
         11   -1    0    0    0    0 -0.00000000000E+00 -0.00000000000E+00 -0.45593999997E+02  0.45594000000E+02  0.51100000000E-03 0.  1.
    9900012    2    1    2    0    0  0.20830689344E+00 -0.17035137445E+02 -0.77742893576E+01  0.72461578170E+02  0.70000010260E+02 0.  0.
         12    1    1    2    0    0 -0.20830689344E+00  0.17035137445E+02  0.77742893576E+01  0.18726421830E+02  0.00000000000E+00 0. -1.
         11    1    3    3    0    0 -0.20074808969E+02 -0.29643776871E+00 -0.20251053262E+02  0.28516503800E+02  0.51100000000E-03 0.  1.
        -11    1    3    3    0    0  0.23226080918E+02  0.18370620645E+01  0.60701083903E+01  0.24076375308E+02  0.51100000000E-03 0. -1.
        -12    1    3    3    0    0 -0.29429650548E+01 -0.18575761741E+02  0.64066555140E+01  0.19868699062E+02  0.00000000000E+00 0.  1.
</event>
<event>
 7    1  0.1345786E-013  0.7246149E+02  0.7816164E-02  0.1226708E+00
        -11   -1    0    0    0    0  0.00000000000E+00  0.00000000000E+00  0.45593999997E+02  0.45594000000E+02  0.51100000000E-03 0.  1.
         11   -1    0    0    0    0 -0.00000000000E+00 -0.00000000000E+00 -0.45593999997E+02  0.45594000000E+02  0.51100000000E-03 0. -1.
    9900012    2    1    2    0    0 -0.60581665701E+00 -0.14557349733E+01  0.18660006833E+02  0.72461493835E+02  0.69999900398E+02 0.  0.
         12    1    1    2    0    0  0.60581665701E+00  0.14557349733E+01 -0.18660006833E+02  0.18726506165E+02  0.00000000000E+00 0. -1.
         11    1    3    3    0    0 -0.11232711731E+01  0.20233471601E+01 -0.18819366447E+02  0.18961124059E+02  0.51100000000E-03 0. -1.
        -11    1    3    3    0    0 -0.16463788269E+02 -0.10740080794E+02  0.17918483415E+02  0.26598453109E+02  0.51100000000E-03 0.  1.
        -12    1    3    3    0    0  0.16981242785E+02  0.72609986605E+01  0.19560889865E+02  0.26901916667E+02  0.00000000000E+00 0.  1.
</event>
<event>
 7    1  0.1345786E-013  0.7246163E+02  0.7816164E-02  0.1226708E+00
        -11   -1    0    0    0    0  0.00000000000E+00  0.00000000000E+00  0.45593999997E+02  0.45594000000E+02  0.51100000000E-03 0.  1.
         11   -1    0    0    0    0 -0.00000000000E+00 -0.00000000000E+00 -0.45593999997E+02  0.45594000000E+02  0.51100000000E-03 0. -1.
    9900012    2    1    2    0    0 -0.75367542091E+01  0.16802136960E+02  0.34003419816E+01  0.72461633667E+02  0.70000082555E+02 0.  0.
         12    1    1    2    0    0  0.75367542091E+01 -0.16802136960E+02 -0.34003419816E+01  0.18726366333E+02  0.00000000000E+00 0. -1.
         11    1    3    3    0    0  0.90852295875E+01  0.72457344984E+01 -0.14142146616E+02  0.18304162812E+02  0.51100000000E-03 0. -1.
        -11    1    3    3    0    0 -0.13475418017E+02  0.28268329985E+02  0.15874607175E+02  0.35109664255E+02  0.51100000000E-03 0.  1.
        -12    1    3    3    0    0 -0.31465657793E+01 -0.18711927523E+02  0.16678814229E+01  0.19047806600E+02  0.00000000000E+00 0.  1.
</event>
<event>
 7    1  0.1345786E-013  0.7246158E+02  0.7816164E-02  0.1226708E+00
        -11   -1    0    0    0    0  0.00000000000E+00  0.00000000000E+00  0.45593999997E+02  0.45594000000E+02  0.51100000000E-03 0.  1.
         11   -1    0    0    0    0 -0.00000000000E+00 -0.00000000000E+00 -0.45593999997E+02  0.45594000000E+02  0.51100000000E-03 0. -1.
    9900012    2    1    2    0    0 -0.16569862283E+02  0.21006756008E+01  0.84679069205E+01  0.72461584922E+02  0.70000019056E+02 0.  0.
         12    1    1    2    0    0  0.16569862283E+02 -0.21006756008E+01 -0.84679069205E+01  0.18726415078E+02  0.00000000000E+00 0. -1.
         11    1    3    3    0    0  0.28603783861E+01  0.18081164460E+02  0.18667745800E+02  0.26145649853E+02  0.51100000000E-03 0. -1.
        -11    1    3    3    0    0 -0.21455957933E+02 -0.13560729816E+02  0.89454439918E+01  0.26912311169E+02  0.51100000000E-03 0.  1.
         12    1    3    3    0    0  0.20257172646E+01 -0.24197590425E+01 -0.19145282871E+02  0.19403623901E+02  0.00000000000E+00 0. -1.
</event>
<event>
 7    1  0.1345786E-013  0.7246158E+02  0.7816164E-02  0.1226708E+00
        -11   -1    0    0    0    0  0.00000000000E+00  0.00000000000E+00  0.45593999997E+02  0.45594000000E+02  0.51100000000E-03 0.  1.
         11   -1    0    0    0    0 -0.00000000000E+00 -0.00000000000E+00 -0.45593999997E+02  0.45594000000E+02  0.51100000000E-03 0. -1.
    9900012    2    1    2    0    0  0.16872912863E+02 -0.18792268345E+01  0.79026698844E+01  0.72461578204E+02  0.70000010304E+02 0.  0.
         12    1    1    2    0    0 -0.16872912863E+02  0.18792268345E+01 -0.79026698844E+01  0.18726421796E+02  0.00000000000E+00 0. -1.
         11    1    3    3    0    0  0.21240955506E+02 -0.15124013787E+02 -0.13668070424E+01  0.26110958343E+02  0.51100000000E-03 0. -1.
        -11    1    3    3    0    0 -0.21142233253E+02  0.66718732006E+01  0.15760302461E+02  0.27201011982E+02  0.51100000000E-03 0.  1.
        -12    1    3    3    0    0  0.16774190610E+02  0.65729137521E+01 -0.64908255343E+01  0.19149607879E+02  0.00000000000E+00 0.  1.
</event>
<event>
 7    1  0.1345786E-013  0.7246163E+02  0.7816164E-02  0.1226708E+00
        -11   -1    0    0    0    0  0.00000000000E+00  0.00000000000E+00  0.45593999997E+02  0.45594000000E+02  0.51100000000E-03 0.  1.
         11   -1    0    0    0    0 -0.00000000000E+00 -0.00000000000E+00 -0.45593999997E+02  0.45594000000E+02  0.51100000000E-03 0. -1.
    9900012    2    1    2    0    0 -0.48142583445E+01 -0.16369474072E+02  0.77162292970E+01  0.72461629306E+02  0.70000076874E+02 0.  0.
         12    1    1    2    0    0  0.48142583445E+01  0.16369474072E+02 -0.77162292970E+01  0.18726370694E+02  0.00000000000E+00 0. -1.
         11    1    3    3    0    0 -0.55027751871E+01 -0.25877362395E+02 -0.20679020146E+02  0.33578866772E+02  0.51100000000E-03 0. -1.
        -11    1    3    3    0    0  0.23111013088E+01  0.73393604971E+01  0.32811777675E+02  0.33701931046E+02  0.51100000000E-03 0.  1.
        -12    1    3    3    0    0 -0.16225844663E+01  0.21685278261E+01 -0.44165282322E+01  0.51808314882E+01  0.00000000000E+00 0.  1.
</event>
<event>
 7    1  0.1345786E-013  0.7246182E+02  0.7816164E-02  0.1226707E+00
        -11   -1    0    0    0    0  0.00000000000E+00  0.00000000000E+00  0.45593999997E+02  0.45594000000E+02  0.51100000000E-03 0.  1.
         11   -1    0    0    0    0 -0.00000000000E+00 -0.00000000000E+00 -0.45593999997E+02  0.45594000000E+02  0.51100000000E-03 0. -1.
    9900012    2    1    2    0    0 -0.69614749399E+00 -0.17819020076E+02  0.57155623153E+01  0.72461821789E+02  0.70000327618E+02 0.  0.
         12    1    1    2    0    0  0.69614749399E+00  0.17819020076E+02 -0.57155623153E+01  0.18726178211E+02  0.00000000000E+00 0. -1.
         11    1    3    3    0    0 -0.19489512268E+02 -0.16144813617E+02  0.20690653419E+02  0.32689436128E+02  0.51100000000E-03 0.  1.
        -11    1    3    3    0    0  0.19580695059E+02  0.69954308578E+01 -0.20710684473E+02  0.29347438108E+02  0.51100000000E-03 0. -1.
         12    1    3    3    0    0 -0.78733028495E+00 -0.86696373173E+01  0.57355933693E+01  0.10424947553E+02  0.00000000000E+00 0. -1.
</event>
<event>
 7    1  0.1345786E-013  0.7246155E+02  0.7816164E-02  0.1226708E+00
        -11   -1    0    0    0    0  0.00000000000E+00  0.00000000000E+00  0.45593999997E+02  0.45594000000E+02  0.51100000000E-03 0.  1.
         11   -1    0    0    0    0 -0.00000000000E+00 -0.00000000000E+00 -0.45593999997E+02  0.45594000000E+02  0.51100000000E-03 0. -1.
    9900012    2    1    2    0    0 -0.17746180397E+02 -0.40867718457E+01 -0.43647644931E+01  0.72461553678E+02  0.69999978354E+02 0.  0.
         12    1    1    2    0    0  0.17746180397E+02  0.40867718457E+01  0.43647644931E+01  0.18726446322E+02  0.00000000000E+00 0. -1.
         11    1    3    3    0    0 -0.12980152245E+02  0.66544194293E+01 -0.58815986919E+01  0.15727646158E+02  0.51100000000E-03 0. -1.
        -11    1    3    3    0    0  0.74950603075E+01 -0.10314047946E+02  0.26218027701E+02  0.29153738882E+02  0.51100000000E-03 0.  1.
        -12    1    3    3    0    0 -0.12261088459E+02 -0.42714332904E+00 -0.24701193502E+02  0.27580168637E+02  0.00000000000E+00 0.  1.
</event>
<event>
 7    1  0.1345786E-013  0.7246159E+02  0.7816164E-02  0.1226708E+00
        -11   -1    0    0    0    0  0.00000000000E+00  0.00000000000E+00  0.45593999997E+02  0.45594000000E+02  0.51100000000E-03 0. -1.
         11   -1    0    0    0    0 -0.00000000000E+00 -0.00000000000E+00 -0.45593999997E+02  0.45594000000E+02  0.51100000000E-03 0.  1.
    9900012    2    1    2    0    0 -0.25006863068E+01 -0.69729819418E+01 -0.17198906433E+02  0.72461593734E+02  0.70000030534E+02 0.  0.
         12    1    1    2    0    0  0.25006863068E+01  0.69729819418E+01  0.17198906433E+02  0.18726406266E+02  0.00000000000E+00 0. -1.
         11    1    3    3    0    0 -0.20525449474E+02 -0.21393809914E+02 -0.24741634863E-01  0.29647761992E+02  0.51100000000E-03 0. -1.
        -11    1    3    3    0    0  0.16140848281E+02  0.56009479765E+01  0.58718921280E+01  0.18065899338E+02  0.51100000000E-03 0.  1.
         12    1    3    3    0    0  0.18839148863E+01  0.88198799954E+01 -0.23046056926E+02  0.24747932404E+02  0.00000000000E+00 0. -1.
</event>
<event>
 7    1  0.1345786E-013  0.7246159E+02  0.7816164E-02  0.1226708E+00
        -11   -1    0    0    0    0  0.00000000000E+00  0.00000000000E+00  0.45593999997E+02  0.45594000000E+02  0.51100000000E-03 0.  1.
         11   -1    0    0    0    0 -0.00000000000E+00 -0.00000000000E+00 -0.45593999997E+02  0.45594000000E+02  0.51100000000E-03 0. -1.
    9900012    2    1    2    0    0  0.23109129737E+01  0.13379260235E+02 -0.12897031370E+02  0.72461592407E+02  0.70000028806E+02 0.  0.
         12    1    1    2    0    0 -0.23109129737E+01 -0.13379260235E+02  0.12897031370E+02  0.18726407593E+02  0.00000000000E+00 0. -1.
         11    1    3    3    0    0 -0.15142854988E+02  0.14957638162E+02  0.14235502080E+02  0.25606376478E+02  0.51100000000E-03 0.  1.
        -11    1    3    3    0    0  0.22678483533E+02  0.10127684228E+02 -0.14034960167E+02  0.28528296660E+02  0.51100000000E-03 0. -1.
        -12    1    3    3    0    0 -0.52247155715E+01 -0.11706062156E+02 -0.13097573282E+02  0.18326919269E+02  0.00000000000E+00 0.  1.
</event>
<event>
 7    1  0.1345786E-013  0.7246159E+02  0.7816164E-02  0.1226708E+00
        -11   -1    0    0    0    0  0.00000000000E+00  0.00000000000E+00  0.45593999997E+02  0.45594000000E+02  0.51100000000E-03 0.  1.
         11   -1    0    0    0    0 -0.00000000000E+00 -0.00000000000E+00 -0.45593999997E+02  0.45594000000E+02  0.51100000000E-03 0. -1.
    9900012    2    1    2    0    0 -0.16732574027E+02 -0.83953725114E+01  0.46589941466E+00  0.72461591496E+02  0.70000027620E+02 0.  0.
         12    1    1    2    0    0  0.16732574027E+02  0.83953725114E+01 -0.46589941466E+00  0.18726408504E+02  0.00000000000E+00 0. -1.
         11    1    3    3    0    0 -0.10376680360E+02 -0.76707245902E+01 -0.46436980540E+01  0.13714205880E+02  0.51100000000E-03 0. -1.
        -11    1    3    3    0    0  0.23626283028E+02 -0.11653200364E+02 -0.48792707929E+00  0.26348366203E+02  0.51100000000E-03 0.  1.
        -12    1    3    3    0    0 -0.29982176696E+02  0.10928552443E+02  0.55975245480E+01  0.32399019414E+02  0.00000000000E+00 0.  1.
</event>
<event>
 7    1  0.1345786E-013  0.7246156E+02  0.7816164E-02  0.1226708E+00
        -11   -1    0    0    0    0  0.00000000000E+00  0.00000000000E+00  0.45593999997E+02  0.45594000000E+02  0.51100000000E-03 0. -1.
         11   -1    0    0    0    0 -0.00000000000E+00 -0.00000000000E+00 -0.45593999997E+02  0.45594000000E+02  0.51100000000E-03 0.  1.
    9900012    2    1    2    0    0 -0.15363292574E+02  0.10071216319E+02 -0.36358606082E+01  0.72461557753E+02  0.69999983663E+02 0.  0.
         12    1    1    2    0    0  0.15363292574E+02 -0.10071216319E+02  0.36358606082E+01  0.18726442247E+02  0.00000000000E+00 0. -1.
         11    1    3    3    0    0  0.95343524850E+01  0.18522072975E+02 -0.81877448482E+00  0.20848056421E+02  0.51100000000E-03 0. -1.
        -11    1    3    3    0    0 -0.25465925492E+02  0.90508943276E+01 -0.14395026203E+02  0.30621052055E+02  0.51100000000E-03 0.  1.
         12    1    3    3    0    0  0.56828043321E+00 -0.17501750984E+02  0.11577940080E+02  0.20992449277E+02  0.00000000000E+00 0. -1.
</event>
<event>
 7    1  0.1345786E-013  0.7246163E+02  0.7816164E-02  0.1226708E+00
        -11   -1    0    0    0    0  0.00000000000E+00  0.00000000000E+00  0.45593999997E+02  0.45594000000E+02  0.51100000000E-03 0. -1.
         11   -1    0    0    0    0 -0.00000000000E+00 -0.00000000000E+00 -0.45593999997E+02  0.45594000000E+02  0.51100000000E-03 0.  1.
    9900012    2    1    2    0    0  0.10478001471E+02 -0.13414168541E+02 -0.78069535564E+01  0.72461629388E+02  0.70000076980E+02 0.  0.
         12    1    1    2    0    0 -0.10478001471E+02  0.13414168541E+02  0.78069535564E+01  0.18726370612E+02  0.00000000000E+00 0. -1.
         11    1    3    3    0    0  0.38243058258E+02 -0.10662451453E+02 -0.58281537990E+01  0.40127132378E+02  0.51100000000E-03 0. -1.
        -11    1    3    3    0    0 -0.21284944420E+02 -0.40169938055E+01 -0.82975820130E+01  0.23195580737E+02  0.51100000000E-03 0.  1.
        -12    1    3    3    0    0 -0.64801123661E+01  0.12652767175E+01  0.63187822556E+01  0.91389162729E+01  0.00000000000E+00 0.  1.
</event>
<event>
 7    1  0.1345786E-013  0.7246152E+02  0.7816164E-02  0.1226708E+00
        -11   -1    0    0    0    0  0.00000000000E+00  0.00000000000E+00  0.45593999997E+02  0.45594000000E+02  0.51100000000E-03 0. -1.
         11   -1    0    0    0    0 -0.00000000000E+00 -0.00000000000E+00 -0.45593999997E+02  0.45594000000E+02  0.51100000000E-03 0.  1.
    9900012    2    1    2    0    0 -0.16966221567E+02 -0.34372833022E+01  0.71423775355E+01  0.72461517479E+02  0.69999931198E+02 0.  0.
         12    1    1    2    0    0  0.16966221567E+02  0.34372833022E+01 -0.71423775355E+01  0.18726482521E+02  0.00000000000E+00 0. -1.
         11    1    3    3    0    0 -0.13721020771E+02 -0.28380855489E+00  0.13524480638E+02  0.19268070352E+02  0.51100000000E-03 0. -1.
        -11    1    3    3    0    0  0.23102500192E+02 -0.24049900297E+01  0.61205421648E+01  0.24020210841E+02  0.51100000000E-03 0.  1.
        -12    1    3    3    0    0 -0.26347700988E+02 -0.74848471756E+00 -0.12502645267E+02  0.29173236286E+02  0.00000000000E+00 0.  1.
</event>
<event>
 7    1  0.1345786E-013  0.7246160E+02  0.7816164E-02  0.1226708E+00
        -11   -1    0    0    0    0  0.00000000000E+00  0.00000000000E+00  0.45593999997E+02  0.45594000000E+02  0.51100000000E-03 0.  1.
         11   -1    0    0    0    0 -0.00000000000E+00 -0.00000000000E+00 -0.45593999997E+02  0.45594000000E+02  0.51100000000E-03 0. -1.
    9900012    2    1    2    0    0  0.90714345244E+00  0.59514524415E+01  0.17732326467E+02  0.72461598922E+02  0.70000037293E+02 0.  0.
         12    1    1    2    0    0 -0.90714345244E+00 -0.59514524415E+01 -0.17732326467E+02  0.18726401078E+02  0.00000000000E+00 0. -1.
         11    1    3    3    0    0  0.15108859201E+02  0.10028787799E+02 -0.39251945839E+01  0.18554281551E+02  0.51100000000E-03 0. -1.
        -11    1    3    3    0    0 -0.28799603747E+02  0.84780002020E+01  0.11603496709E+02  0.32185941023E+02  0.51100000000E-03 0.  1.
        -12    1    3    3    0    0  0.14597887998E+02 -0.12555335559E+02  0.10054024341E+02  0.21721376349E+02  0.00000000000E+00 0.  1.
</event>
<event>
 7    1  0.1345786E-013  0.7246154E+02  0.7816164E-02  0.1226708E+00
        -11   -1    0    0    0    0  0.00000000000E+00  0.00000000000E+00  0.45593999997E+02  0.45594000000E+02  0.51100000000E-03 0. -1.
         11   -1    0    0    0    0 -0.00000000000E+00 -0.00000000000E+00 -0.45593999997E+02  0.45594000000E+02  0.51100000000E-03 0.  1.
    9900012    2    1    2    0    0 -0.18022443199E+02  0.45673457936E+01 -0.22385450400E+01  0.72461543038E+02  0.69999964494E+02 0.  0.
         12    1    1    2    0    0  0.18022443199E+02 -0.45673457936E+01  0.22385450400E+01  0.18726456962E+02  0.00000000000E+00 0. -1.
         11    1    3    3    0    0 -0.27297198833E+02  0.17429973981E+02  0.48805971455E+01  0.32753034759E+02  0.51100000000E-03 0. -1.
        -11    1    3    3    0    0  0.83035518562E+01  0.98950835120E+01 -0.10543474440E+02  0.16674126804E+02  0.51100000000E-03 0.  1.
         12    1    3    3    0    0  0.97120377861E+00 -0.22757711700E+02  0.34243322543E+01  0.23034381476E+02  0.00000000000E+00 0. -1.
</event>
<event>
 7    1  0.1345786E-013  0.7246162E+02  0.7816164E-02  0.1226708E+00
        -11   -1    0    0    0    0  0.00000000000E+00  0.00000000000E+00  0.45593999997E+02  0.45594000000E+02  0.51100000000E-03 0. -1.
         11   -1    0    0    0    0 -0.00000000000E+00 -0.00000000000E+00 -0.45593999997E+02  0.45594000000E+02  0.51100000000E-03 0.  1.
    9900012    2    1    2    0    0  0.37605082028E+01 -0.14955442627E+02  0.10624059926E+02  0.72461619265E+02  0.70000063793E+02 0.  0.
         12    1    1    2    0    0 -0.37605082028E+01  0.14955442627E+02 -0.10624059926E+02  0.18726380735E+02  0.00000000000E+00 0. -1.
         11    1    3    3    0    0 -0.84048390936E+01 -0.26610561157E+02  0.25784592372E+02  0.37994848195E+02  0.51100000000E-03 0. -1.
        -11    1    3    3    0    0  0.48707261084E+01 -0.38179059958E+01 -0.16186963197E+02  0.17329690038E+02  0.51100000000E-03 0.  1.
         12    1    3    3    0    0  0.72946211880E+01  0.15473024525E+02  0.10264307505E+01  0.17137081032E+02  0.00000000000E+00 0. -1.
</event>
<event>
 7    1  0.1345786E-013  0.7246162E+02  0.7816164E-02  0.1226708E+00
        -11   -1    0    0    0    0  0.00000000000E+00  0.00000000000E+00  0.45593999997E+02  0.45594000000E+02  0.51100000000E-03 0. -1.
         11   -1    0    0    0    0 -0.00000000000E+00 -0.00000000000E+00 -0.45593999997E+02  0.45594000000E+02  0.51100000000E-03 0.  1.
    9900012    2    1    2    0    0  0.19385474742E+01  0.18521557710E+02  0.19675870606E+01  0.72461615801E+02  0.70000059281E+02 0.  0.
         12    1    1    2    0    0 -0.19385474742E+01 -0.18521557710E+02 -0.19675870606E+01  0.18726384199E+02  0.00000000000E+00 0. -1.
         11    1    3    3    0    0  0.10372255101E+02  0.15049614605E+02  0.12267439046E+01  0.18318828470E+02  0.51100000000E-03 0. -1.
        -11    1    3    3    0    0 -0.88835475831E+01 -0.11411830866E+02 -0.22377494081E+02  0.26643940080E+02  0.51100000000E-03 0.  1.
        -12    1    3    3    0    0  0.44983995602E+00  0.14883773971E+02  0.23118337237E+02  0.27498847252E+02  0.00000000000E+00 0.  1.
</event>
<event>
 7    1  0.1345786E-013  0.7246148E+02  0.7816164E-02  0.1226708E+00
        -11   -1    0    0    0    0  0.00000000000E+00  0.00000000000E+00  0.45593999997E+02  0.45594000000E+02  0.51100000000E-03 0.  1.
         11   -1    0    0    0    0 -0.00000000000E+00 -0.00000000000E+00 -0.45593999997E+02  0.45594000000E+02  0.51100000000E-03 0. -1.
    9900012    2    1    2    0    0  0.16736885530E+02 -0.26091418095E+01  0.79844545626E+01  0.72461482094E+02  0.69999885103E+02 0.  0.
         12    1    1    2    0    0 -0.16736885530E+02  0.26091418095E+01 -0.79844545626E+01  0.18726517906E+02  0.00000000000E+00 0. -1.
         11    1    3    3    0    0  0.54385348445E+01  0.21530470042E+02  0.74462592508E+00  0.22219209471E+02  0.51100000000E-03 0. -1.
        -11    1    3    3    0    0  0.20141231020E+02 -0.25612413428E+02  0.17197967231E+02  0.36843384559E+02  0.51100000000E-03 0.  1.
        -12    1    3    3    0    0 -0.88428803346E+01  0.14728015765E+01 -0.99581385938E+01  0.13398888064E+02  0.00000000000E+00 0.  1.
</event>
<event>
 7    1  0.1345786E-013  0.7246163E+02  0.7816164E-02  0.1226708E+00
        -11   -1    0    0    0    0  0.00000000000E+00  0.00000000000E+00  0.45593999997E+02  0.45594000000E+02  0.51100000000E-03 0.  1.
         11   -1    0    0    0    0 -0.00000000000E+00 -0.00000000000E+00 -0.45593999997E+02  0.45594000000E+02  0.51100000000E-03 0. -1.
    9900012    2    1    2    0    0 -0.17833293806E+02  0.14888238090E+00  0.57121314950E+01  0.72461628751E+02  0.70000076150E+02 0.  0.
         12    1    1    2    0    0  0.17833293806E+02 -0.14888238090E+00 -0.57121314950E+01  0.18726371249E+02  0.00000000000E+00 0. -1.
         11    1    3    3    0    0  0.12000896551E+02 -0.34680369952E+00  0.26852216424E+02  0.29413998673E+02  0.51100000000E-03 0. -1.
        -11    1    3    3    0    0 -0.21014099307E+02  0.44734230950E+01 -0.24701108632E+02  0.32737572479E+02  0.51100000000E-03 0.  1.
        -12    1    3    3    0    0 -0.88200910495E+01 -0.39777370146E+01  0.35610237028E+01  0.10310057599E+02  0.00000000000E+00 0.  1.
</event>
<event>
 7    1  0.1345786E-013  0.7246156E+02  0.7816164E-02  0.1226708E+00
        -11   -1    0    0    0    0  0.00000000000E+00  0.00000000000E+00  0.45593999997E+02  0.45594000000E+02  0.51100000000E-03 0.  1.
         11   -1    0    0    0    0 -0.00000000000E+00 -0.00000000000E+00 -0.45593999997E+02  0.45594000000E+02  0.51100000000E-03 0. -1.
    9900012    2    1    2    0    0  0.97780849730E+00 -0.13736778417E+02 -0.12689534635E+02  0.72461562005E+02  0.69999989201E+02 0.  0.
         12    1    1    2    0    0 -0.97780849730E+00  0.13736778417E+02  0.12689534635E+02  0.18726437995E+02  0.00000000000E+00 0. -1.
         11    1    3    3    0    0  0.18780199536E+01 -0.44406624757E+01 -0.20727566651E+02  0.21280941279E+02  0.51100000000E-03 0. -1.
        -11    1    3    3    0    0  0.10818425952E+02  0.10120519295E+02  0.20508359414E+02  0.25299329181E+02  0.51100000000E-03 0.  1.
        -12    1    3    3    0    0 -0.11718637408E+02 -0.19416635236E+02 -0.12470327398E+02  0.25881291545E+02  0.00000000000E+00 0.  1.
</event>
<event>
 7    1  0.1345786E-013  0.7246160E+02  0.7816164E-02  0.1226708E+00
        -11   -1    0    0    0    0  0.00000000000E+00  0.00000000000E+00  0.45593999997E+02  0.45594000000E+02  0.51100000000E-03 0. -1.
         11   -1    0    0    0    0 -0.00000000000E+00 -0.00000000000E+00 -0.45593999997E+02  0.45594000000E+02  0.51100000000E-03 0.  1.
    9900012    2    1    2    0    0  0.58931160038E+00  0.11241162540E+02 -0.14965528775E+02  0.72461599520E+02  0.70000038072E+02 0.  0.
         12    1    1    2    0    0 -0.58931160038E+00 -0.11241162540E+02  0.14965528775E+02  0.18726400480E+02  0.00000000000E+00 0. -1.
         11    1    3    3    0    0 -0.40326713476E+01 -0.97461969368E+01 -0.35295760598E+00  0.10553453097E+02  0.51100000000E-03 0. -1.
        -11    1    3    3    0    0  0.26591425968E+02 -0.52134708875E-01 -0.16728290919E+02  0.31415638946E+02  0.51100000000E-03 0.  1.
        -12    1    3    3    0    0 -0.21969443020E+02  0.21039494186E+02  0.21157197507E+01  0.30492507478E+02  0.00000000000E+00 0.  1.
</event>
<event>
 7    1  0.1345786E-013  0.7246158E+02  0.7816164E-02  0.1226708E+00
        -11   -1    0    0    0    0  0.00000000000E+00  0.00000000000E+00  0.45593999997E+02  0.45594000000E+02  0.51100000000E-03 0. -1.
         11   -1    0    0    0    0 -0.00000000000E+00 -0.00000000000E+00 -0.45593999997E+02  0.45594000000E+02  0.51100000000E-03 0.  1.
    9900012    2    1    2    0    0  0.38003704041E+01 -0.46714569458E+01 -0.17731704781E+02  0.72461583374E+02  0.70000017039E+02 0.  0.
         12    1    1    2    0    0 -0.38003704041E+01  0.46714569458E+01  0.17731704781E+02  0.18726416626E+02  0.00000000000E+00 0. -1.
         11    1    3    3    0    0  0.71852899174E+01 -0.15153954750E+02  0.17916503089E+02  0.24541226924E+02  0.51100000000E-03 0. -1.
        -11    1    3    3    0    0  0.12628535011E+01 -0.11968085757E+01 -0.35302635952E+02  0.35345484226E+02  0.51100000000E-03 0.  1.
         12    1    3    3    0    0 -0.46477730143E+01  0.11679306380E+02 -0.34557191761E+00  0.12574872224E+02  0.00000000000E+00 0. -1.
</event>
<event>
 8    1  0.1345786E-013  0.7246152E+02  0.7816164E-02  0.1226708E+00
        -11   -1    0    0    0    0  0.00000000000E+00  0.00000000000E+00  0.45593999997E+02  0.45594000000E+02  0.51100000000E-03 0.  1.
         11   -1    0    0    0    0 -0.00000000000E+00 -0.00000000000E+00 -0.45593999997E+02  0.45594000000E+02  0.51100000000E-03 0. -1.
    9900012    2    1    2    0    0  0.13968852358E+02 -0.50243819056E+01  0.11415249898E+02  0.72461516616E+02  0.69999930073E+02 0.  0.
         24    2    3    3    0    0  0.18101196540E+02 -0.18923681527E+02  0.63163966965E+01  0.57090599186E+02  0.50335679288E+02 0.  0.
         12    1    1    2    0    0 -0.13968852358E+02  0.50243819056E+01 -0.11415249898E+02  0.18726483384E+02  0.00000000000E+00 0. -1.
         11    1    3    3    0    0 -0.41323441824E+01  0.13899299622E+02  0.50988532010E+01  0.15370917430E+02  0.51100000000E-03 0. -1.
        -11    1    4    4    0    0 -0.14451185347E+01 -0.27275238484E+02 -0.11226299384E+02  0.29530607851E+02  0.51100000000E-03 0.  1.
         12    1    4    4    0    0  0.19546315075E+02  0.83515569568E+01  0.17542696080E+02  0.27559991335E+02  0.00000000000E+00 0. -1.
</event>
<event>
 7    1  0.1345786E-013  0.7246155E+02  0.7816164E-02  0.1226708E+00
        -11   -1    0    0    0    0  0.00000000000E+00  0.00000000000E+00  0.45593999997E+02  0.45594000000E+02  0.51100000000E-03 0. -1.
         11   -1    0    0    0    0 -0.00000000000E+00 -0.00000000000E+00 -0.45593999997E+02  0.45594000000E+02  0.51100000000E-03 0.  1.
    9900012    2    1    2    0    0 -0.14153043725E+02  0.11465474196E+02 -0.43490467821E+01  0.72461549372E+02  0.69999972745E+02 0.  0.
         12    1    1    2    0    0  0.14153043725E+02 -0.11465474196E+02  0.43490467821E+01  0.18726450628E+02  0.00000000000E+00 0. -1.
         11    1    3    3    0    0  0.11568332961E+02 -0.12445393752E+02  0.12186440536E+02  0.20909889678E+02  0.51100000000E-03 0. -1.
        -11    1    3    3    0    0 -0.31780387432E+02  0.96096475062E+01 -0.97596260229E+01  0.34606193822E+02  0.51100000000E-03 0.  1.
         12    1    3    3    0    0  0.60590107454E+01  0.14301220441E+02 -0.67758612951E+01  0.16945465872E+02  0.00000000000E+00 0. -1.
</event>
<event>
 7    1  0.1345786E-013  0.7246158E+02  0.7816164E-02  0.1226708E+00
        -11   -1    0    0    0    0  0.00000000000E+00  0.00000000000E+00  0.45593999997E+02  0.45594000000E+02  0.51100000000E-03 0. -1.
         11   -1    0    0    0    0 -0.00000000000E+00 -0.00000000000E+00 -0.45593999997E+02  0.45594000000E+02  0.51100000000E-03 0.  1.
    9900012    2    1    2    0    0  0.26478518905E+01  0.15080004039E+02  0.10782452400E+02  0.72461576924E+02  0.70000008637E+02 0.  0.
         12    1    1    2    0    0 -0.26478518905E+01 -0.15080004039E+02 -0.10782452400E+02  0.18726423076E+02  0.00000000000E+00 0. -1.
         11    1    3    3    0    0  0.98705504090E+00 -0.11598789106E+02 -0.34800920802E+00  0.11645913319E+02  0.51100000000E-03 0. -1.
        -11    1    3    3    0    0  0.15562368031E+02  0.21670264050E+02 -0.15139182009E+02  0.30675437648E+02  0.51100000000E-03 0.  1.
        -12    1    3    3    0    0 -0.13901571181E+02  0.50085290951E+01  0.26269643617E+02  0.30140225957E+02  0.00000000000E+00 0.  1.
</event>
<event>
 7    1  0.1345786E-013  0.7246153E+02  0.7816164E-02  0.1226708E+00
        -11   -1    0    0    0    0  0.00000000000E+00  0.00000000000E+00  0.45593999997E+02  0.45594000000E+02  0.51100000000E-03 0.  1.
         11   -1    0    0    0    0 -0.00000000000E+00 -0.00000000000E+00 -0.45593999997E+02  0.45594000000E+02  0.51100000000E-03 0. -1.
    9900012    2    1    2    0    0  0.52880168138E+01  0.11372236977E+02  0.13906459415E+02  0.72461534527E+02  0.69999953406E+02 0.  0.
         12    1    1    2    0    0 -0.52880168138E+01 -0.11372236977E+02 -0.13906459415E+02  0.18726465473E+02  0.00000000000E+00 0. -1.
         11    1    3    3    0    0  0.24508364268E+02 -0.27778029637E+01  0.16589678719E+02  0.29725301489E+02  0.51100000000E-03 0.  1.
        -11    1    3    3    0    0 -0.16662309005E+02  0.59711784882E+01  0.14925525042E+02  0.23152943916E+02  0.51100000000E-03 0. -1.
         12    1    3    3    0    0 -0.25580384487E+01  0.81788614524E+01 -0.17608744346E+02  0.19583289121E+02  0.00000000000E+00 0. -1.
</event>
<event>
 8    1  0.1345786E-013  0.7246153E+02  0.7816164E-02  0.1226708E+00
        -11   -1    0    0    0    0  0.00000000000E+00  0.00000000000E+00  0.45593999997E+02  0.45594000000E+02  0.51100000000E-03 0.  1.
         11   -1    0    0    0    0 -0.00000000000E+00 -0.00000000000E+00 -0.45593999997E+02  0.45594000000E+02  0.51100000000E-03 0. -1.
    9900012    2    1    2    0    0  0.16703549724E+02 -0.82747933786E+01  0.17887782844E+01  0.72461534594E+02  0.69999953494E+02 0.  0.
        -24    2    3    3    0    0  0.23417025217E+01 -0.51203320916E+01 -0.46457751235E+01  0.56411090398E+02  0.55936808292E+02 0.  0.
         12    1    1    2    0    0 -0.16703549724E+02  0.82747933786E+01 -0.17887782844E+01  0.18726465406E+02  0.00000000000E+00 0. -1.
         11    1    4    4    0    0  0.13527696591E+01 -0.14549826849E+01 -0.30356574978E+02  0.30421515495E+02  0.51100000000E-03 0. -1.
        -11    1    3    3    0    0  0.14361847203E+02 -0.31544612870E+01  0.64345534078E+01  0.16050444196E+02  0.51100000000E-03 0.  1.
        -12    1    4    4    0    0  0.98893286261E+00 -0.36653494067E+01  0.25710799854E+02  0.25989574903E+02  0.00000000000E+00 0.  1.
</event>
<event>
 7    1  0.1345786E-013  0.7246161E+02  0.7816164E-02  0.1226708E+00
        -11   -1    0    0    0    0  0.00000000000E+00  0.00000000000E+00  0.45593999997E+02  0.45594000000E+02  0.51100000000E-03 0.  1.
         11   -1    0    0    0    0 -0.00000000000E+00 -0.00000000000E+00 -0.45593999997E+02  0.45594000000E+02  0.51100000000E-03 0. -1.
    9900012    2    1    2    0    0  0.93698381280E+01  0.56736012084E+00  0.16203759504E+02  0.72461612572E+02  0.70000055074E+02 0.  0.
         12    1    1    2    0    0 -0.93698381280E+01 -0.56736012084E+00 -0.16203759504E+02  0.18726387428E+02  0.00000000000E+00 0. -1.
         11    1    3    3    0    0  0.10428650363E+02  0.22161192003E+02  0.85926794885E+01  0.25955911089E+02  0.51100000000E-03 0. -1.
        -11    1    3    3    0    0  0.10625824151E+02 -0.15357458632E+02  0.20703783966E+02  0.27882007555E+02  0.51100000000E-03 0.  1.
         12    1    3    3    0    0 -0.11684636386E+02 -0.62363732499E+01 -0.13092703950E+02  0.18623693928E+02  0.00000000000E+00 0. -1.
</event>
<event>
 7    1  0.1345786E-013  0.7246155E+02  0.7816164E-02  0.1226708E+00
        -11   -1    0    0    0    0  0.00000000000E+00  0.00000000000E+00  0.45593999997E+02  0.45594000000E+02  0.51100000000E-03 0.  1.
         11   -1    0    0    0    0 -0.00000000000E+00 -0.00000000000E+00 -0.45593999997E+02  0.45594000000E+02  0.51100000000E-03 0. -1.
    9900012    2    1    2    0    0 -0.75367508135E+01 -0.16980825869E+02  0.23513934393E+01  0.72461545154E+02  0.69999967250E+02 0.  0.
         12    1    1    2    0    0  0.75367508135E+01  0.16980825869E+02 -0.23513934393E+01  0.18726454846E+02  0.00000000000E+00 0. -1.
         11    1    3    3    0    0  0.24321825869E+02 -0.10250891493E+02  0.57439958607E+01  0.27011580455E+02  0.51100000000E-03 0. -1.
        -11    1    3    3    0    0 -0.81110594284E+01 -0.54999549242E+01  0.13209990194E+02  0.16448180155E+02  0.51100000000E-03 0.  1.
         12    1    3    3    0    0 -0.23747517254E+02 -0.12299794513E+01 -0.16602592615E+02  0.29001784544E+02  0.00000000000E+00 0. -1.
</event>
<event>
 7    1  0.1345786E-013  0.7246148E+02  0.7816164E-02  0.1226708E+00
        -11   -1    0    0    0    0  0.00000000000E+00  0.00000000000E+00  0.45593999997E+02  0.45594000000E+02  0.51100000000E-03 0.  1.
         11   -1    0    0    0    0 -0.00000000000E+00 -0.00000000000E+00 -0.45593999997E+02  0.45594000000E+02  0.51100000000E-03 0. -1.
    9900012    2    1    2    0    0 -0.52799753414E+01 -0.17278843204E+02  0.49240031856E+01  0.72461484856E+02  0.69999888700E+02 0.  0.
         12    1    1    2    0    0  0.52799753414E+01  0.17278843204E+02 -0.49240031856E+01  0.18726515144E+02  0.00000000000E+00 0. -1.
         11    1    3    3    0    0 -0.45534426230E+01 -0.26727978366E+02  0.22849791397E+02  0.35457462323E+02  0.51100000000E-03 0.  1.
        -11    1    3    3    0    0  0.62455330481E+01  0.71269003598E+00 -0.23632371146E+02  0.24454111646E+02  0.51100000000E-03 0. -1.
        -12    1    3    3    0    0 -0.69720657665E+01  0.87364451253E+01  0.57065829346E+01  0.12549910887E+02  0.00000000000E+00 0.  1.
</event>
<event>
 7    1  0.1345786E-013  0.7246155E+02  0.7816164E-02  0.1226708E+00
        -11   -1    0    0    0    0  0.00000000000E+00  0.00000000000E+00  0.45593999997E+02  0.45594000000E+02  0.51100000000E-03 0.  1.
         11   -1    0    0    0    0 -0.00000000000E+00 -0.00000000000E+00 -0.45593999997E+02  0.45594000000E+02  0.51100000000E-03 0. -1.
    9900012    2    1    2    0    0 -0.35484445031E+01  0.16869938900E+02  0.73139374978E+01  0.72461548692E+02  0.69999971859E+02 0.  0.
         12    1    1    2    0    0  0.35484445031E+01 -0.16869938900E+02 -0.73139374978E+01  0.18726451308E+02  0.00000000000E+00 0. -1.
         11    1    3    3    0    0 -0.25599537585E+01  0.22137198100E+02  0.11451743354E+02  0.25054966156E+02  0.51100000000E-03 0. -1.
        -11    1    3    3    0    0 -0.87800106558E+00  0.14836966792E+01 -0.25215246430E+02  0.25274115109E+02  0.51100000000E-03 0.  1.
        -12    1    3    3    0    0 -0.11048967910E+00 -0.67509558794E+01  0.21077440575E+02  0.22132467428E+02  0.00000000000E+00 0.  1.
</event>
<event>
 7    1  0.1345786E-013  0.7246158E+02  0.7816164E-02  0.1226708E+00
        -11   -1    0    0    0    0  0.00000000000E+00  0.00000000000E+00  0.45593999997E+02  0.45594000000E+02  0.51100000000E-03 0.  1.
         11   -1    0    0    0    0 -0.00000000000E+00 -0.00000000000E+00 -0.45593999997E+02  0.45594000000E+02  0.51100000000E-03 0. -1.
    9900012    2    1    2    0    0 -0.26125869068E+00  0.11676795160E+02  0.14637728652E+02  0.72461577453E+02  0.70000009325E+02 0.  0.
         12    1    1    2    0    0  0.26125869068E+00 -0.11676795160E+02 -0.14637728652E+02  0.18726422547E+02  0.00000000000E+00 0. -1.
         11    1    3    3    0    0  0.65416352853E+01 -0.41546394854E+01 -0.48155086884E+01  0.91237681715E+01  0.51100000000E-03 0. -1.
        -11    1    3    3    0    0  0.16633150370E+01  0.26567268174E+01  0.38529493590E+02  0.38656780658E+02  0.51100000000E-03 0.  1.
        -12    1    3    3    0    0 -0.84662090129E+01  0.13174707828E+02 -0.19076256249E+02  0.24681028623E+02  0.00000000000E+00 0.  1.
</event>
<event>
 7    1  0.1345786E-013  0.7246155E+02  0.7816164E-02  0.1226708E+00
        -11   -1    0    0    0    0  0.00000000000E+00  0.00000000000E+00  0.45593999997E+02  0.45594000000E+02  0.51100000000E-03 0. -1.
         11   -1    0    0    0    0 -0.00000000000E+00 -0.00000000000E+00 -0.45593999997E+02  0.45594000000E+02  0.51100000000E-03 0.  1.
    9900012    2    1    2    0    0 -0.80227726778E+01  0.10976762591E+02 -0.12877330041E+02  0.72461552729E+02  0.69999977117E+02 0.  0.
         12    1    1    2    0    0  0.80227726778E+01 -0.10976762591E+02  0.12877330041E+02  0.18726447271E+02  0.00000000000E+00 0. -1.
         11    1    3    3    0    0  0.27670274101E+02  0.11386526318E+02 -0.19533142398E+02  0.35732907838E+02  0.51100000000E-03 0. -1.
        -11    1    3    3    0    0 -0.91801400243E+01 -0.40602591221E+00 -0.69564626592E+00  0.92154083955E+01  0.51100000000E-03 0.  1.
         12    1    3    3    0    0 -0.26512906754E+02 -0.37378144370E-02  0.73514586229E+01  0.27513236495E+02  0.00000000000E+00 0. -1.
</event>
<event>
 7    1  0.1345786E-013  0.7246156E+02  0.7816164E-02  0.1226708E+00
        -11   -1    0    0    0    0  0.00000000000E+00  0.00000000000E+00  0.45593999997E+02  0.45594000000E+02  0.51100000000E-03 0.  1.
         11   -1    0    0    0    0 -0.00000000000E+00 -0.00000000000E+00 -0.45593999997E+02  0.45594000000E+02  0.51100000000E-03 0. -1.
    9900012    2    1    2    0    0  0.95884500242E+01  0.16085396340E+02 -0.33562209706E-01  0.72461562119E+02  0.69999989350E+02 0.  0.
         12    1    1    2    0    0 -0.95884500242E+01 -0.16085396340E+02  0.33562209706E-01  0.18726437881E+02  0.00000000000E+00 0. -1.
         11    1    3    3    0    0 -0.10850651157E+02  0.33795096957E+02 -0.17300278737E+01  0.35536434903E+02  0.51100000000E-03 0.  1.
        -11    1    3    3    0    0  0.19426300520E+02 -0.14107687406E+02  0.11361501615E+02  0.26561094011E+02  0.51100000000E-03 0. -1.
        -12    1    3    3    0    0  0.10128006616E+01 -0.36020132107E+01 -0.96650359512E+01  0.10364033206E+02  0.00000000000E+00 0.  1.
</event>
<event>
 7    1  0.1345786E-013  0.7246158E+02  0.7816164E-02  0.1226708E+00
        -11   -1    0    0    0    0  0.00000000000E+00  0.00000000000E+00  0.45593999997E+02  0.45594000000E+02  0.51100000000E-03 0. -1.
         11   -1    0    0    0    0 -0.00000000000E+00 -0.00000000000E+00 -0.45593999997E+02  0.45594000000E+02  0.51100000000E-03 0.  1.
    9900012    2    1    2    0    0  0.13012422938E+02 -0.12086248852E+02 -0.59395425673E+01  0.72461582085E+02  0.70000015359E+02 0.  0.
         12    1    1    2    0    0 -0.13012422938E+02  0.12086248852E+02  0.59395425673E+01  0.18726417915E+02  0.00000000000E+00 0. -1.
         11    1    3    3    0    0  0.12791231644E+02 -0.20205965959E+02  0.80583156905E+01  0.25235552685E+02  0.51100000000E-03 0. -1.
        -11    1    3    3    0    0 -0.48079788669E+00  0.21082209536E+02  0.72731082904E+01  0.22306699218E+02  0.51100000000E-03 0.  1.
         12    1    3    3    0    0  0.70198918027E+00 -0.12962492430E+02 -0.21270966548E+02  0.24919330182E+02  0.00000000000E+00 0. -1.
</event>
<event>
 7    1  0.1345786E-013  0.7246157E+02  0.7816164E-02  0.1226708E+00
        -11   -1    0    0    0    0  0.00000000000E+00  0.00000000000E+00  0.45593999997E+02  0.45594000000E+02  0.51100000000E-03 0.  1.
         11   -1    0    0    0    0 -0.00000000000E+00 -0.00000000000E+00 -0.45593999997E+02  0.45594000000E+02  0.51100000000E-03 0. -1.
    9900012    2    1    2    0    0 -0.22086786746E+01  0.12112994271E+02  0.14109438441E+02  0.72461570954E+02  0.70000000859E+02 0.  0.
         12    1    1    2    0    0  0.22086786746E+01 -0.12112994271E+02 -0.14109438441E+02  0.18726429046E+02  0.00000000000E+00 0. -1.
         11    1    3    3    0    0 -0.62004112178E+00  0.17834382723E+02 -0.25267075559E+02  0.30933392405E+02  0.51100000000E-03 0. -1.
        -11    1    3    3    0    0 -0.40211745314E+01  0.19600210784E+01  0.20864604536E+02  0.21338773393E+02  0.51100000000E-03 0.  1.
         12    1    3    3    0    0  0.24325369785E+01 -0.76814095305E+01  0.18511909464E+02  0.20189405156E+02  0.00000000000E+00 0. -1.
</event>
<event>
 7    1  0.1345786E-013  0.7246153E+02  0.7816164E-02  0.1226708E+00
        -11   -1    0    0    0    0  0.00000000000E+00  0.00000000000E+00  0.45593999997E+02  0.45594000000E+02  0.51100000000E-03 0. -1.
         11   -1    0    0    0    0 -0.00000000000E+00 -0.00000000000E+00 -0.45593999997E+02  0.45594000000E+02  0.51100000000E-03 0.  1.
    9900012    2    1    2    0    0  0.13220798631E+02 -0.36635556360E+00  0.13257333360E+02  0.72461531548E+02  0.69999949526E+02 0.  0.
         12    1    1    2    0    0 -0.13220798631E+02  0.36635556360E+00 -0.13257333360E+02  0.18726468452E+02  0.00000000000E+00 0. -1.
         11    1    3    3    0    0 -0.28737279431E+01 -0.47717680456E+01 -0.99498532059E+01  0.11402967230E+02  0.51100000000E-03 0. -1.
        -11    1    3    3    0    0  0.32112295184E+02 -0.23150731809E+01  0.15696693645E+00  0.32196020013E+02  0.51100000000E-03 0.  1.
        -12    1    3    3    0    0 -0.16017768610E+02  0.67204856630E+01  0.23050219630E+02  0.28862544305E+02  0.00000000000E+00 0.  1.
</event>
<event>
 7    1  0.1345786E-013  0.7246158E+02  0.7816164E-02  0.1226708E+00
        -11   -1    0    0    0    0  0.00000000000E+00  0.00000000000E+00  0.45593999997E+02  0.45594000000E+02  0.51100000000E-03 0. -1.
         11   -1    0    0    0    0 -0.00000000000E+00 -0.00000000000E+00 -0.45593999997E+02  0.45594000000E+02  0.51100000000E-03 0.  1.
    9900012    2    1    2    0    0 -0.85388812778E+01  0.12739608210E+02 -0.10745634658E+02  0.72461580828E+02  0.70000013721E+02 0.  0.
         12    1    1    2    0    0  0.85388812778E+01 -0.12739608210E+02  0.10745634658E+02  0.18726419172E+02  0.00000000000E+00 0. -1.
         11    1    3    3    0    0  0.87130316261E+01  0.10733193679E+02  0.74892866235E+01  0.15722842652E+02  0.51100000000E-03 0. -1.
        -11    1    3    3    0    0 -0.40717234313E+01 -0.92496840723E+01 -0.32660571701E+02  0.34188426861E+02  0.51100000000E-03 0.  1.
        -12    1    3    3    0    0 -0.13180189473E+02  0.11256098603E+02  0.14425650420E+02  0.22550311314E+02  0.00000000000E+00 0.  1.
</event>
<event>
 7    1  0.1345786E-013  0.7246160E+02  0.7816164E-02  0.1226708E+00
        -11   -1    0    0    0    0  0.00000000000E+00  0.00000000000E+00  0.45593999997E+02  0.45594000000E+02  0.51100000000E-03 0.  1.
         11   -1    0    0    0    0 -0.00000000000E+00 -0.00000000000E+00 -0.45593999997E+02  0.45594000000E+02  0.51100000000E-03 0. -1.
    9900012    2    1    2    0    0  0.14985503561E+02  0.66701391595E+01 -0.90344818490E+01  0.72461603239E+02  0.70000042916E+02 0.  0.
         12    1    1    2    0    0 -0.14985503561E+02 -0.66701391595E+01  0.90344818490E+01  0.18726396761E+02  0.00000000000E+00 0. -1.
         11    1    3    3    0    0  0.30127171837E+02 -0.65900144978E+01 -0.82024844963E+01  0.31911683223E+02  0.51100000000E-03 0. -1.
        -11    1    3    3    0    0 -0.17901841072E+02  0.86566874790E+00  0.12720518422E+02  0.21978100130E+02  0.51100000000E-03 0.  1.
         12    1    3    3    0    0  0.27601727966E+01  0.12394484909E+02 -0.13552515774E+02  0.18571819885E+02  0.00000000000E+00 0. -1.
</event>
<event>
 7    1  0.1345786E-013  0.7246169E+02  0.7816164E-02  0.1226708E+00
        -11   -1    0    0    0    0  0.00000000000E+00  0.00000000000E+00  0.45593999997E+02  0.45594000000E+02  0.51100000000E-03 0. -1.
         11   -1    0    0    0    0 -0.00000000000E+00 -0.00000000000E+00 -0.45593999997E+02  0.45594000000E+02  0.51100000000E-03 0.  1.
    9900012    2    1    2    0    0  0.71652229447E+01 -0.45862852320E+01 -0.16682330355E+02  0.72461692886E+02  0.70000159698E+02 0.  0.
         12    1    1    2    0    0 -0.71652229447E+01  0.45862852320E+01  0.16682330355E+02  0.18726307114E+02  0.00000000000E+00 0. -1.
         11    1    3    3    0    0  0.10804670675E+02 -0.17649948163E+02 -0.60745903763E+01  0.21567619874E+02  0.51100000000E-03 0. -1.
        -11    1    3    3    0    0 -0.19212508136E+02  0.70214621306E+01 -0.22485360096E+02  0.30397579151E+02  0.51100000000E-03 0.  1.
         12    1    3    3    0    0  0.15573060405E+02  0.60422008000E+01  0.11877620118E+02  0.20496493860E+02  0.00000000000E+00 0. -1.
</event>
<event>
 7    1  0.1345786E-013  0.7246141E+02  0.7816164E-02  0.1226708E+00
        -11   -1    0    0    0    0  0.00000000000E+00  0.00000000000E+00  0.45593999997E+02  0.45594000000E+02  0.51100000000E-03 0.  1.
         11   -1    0    0    0    0 -0.00000000000E+00 -0.00000000000E+00 -0.45593999997E+02  0.45594000000E+02  0.51100000000E-03 0. -1.
    9900012    2    1    2    0    0 -0.13677953871E+01  0.11265400180E+02  0.14896478019E+02  0.72461410273E+02  0.69999791542E+02 0.  0.
         12    1    1    2    0    0  0.13677953871E+01 -0.11265400180E+02 -0.14896478019E+02  0.18726589727E+02  0.00000000000E+00 0. -1.
         11    1    3    3    0    0  0.82751569021E+01 -0.20297343469E+02  0.14403158941E+02  0.26228064385E+02  0.51100000000E-03 0.  1.
        -11    1    3    3    0    0 -0.16118219901E+02  0.31281730314E+02 -0.74614325411E+01  0.35972442787E+02  0.51100000000E-03 0. -1.
         12    1    3    3    0    0  0.64752676121E+01  0.28101333491E+00  0.79547516192E+01  0.10260903102E+02  0.00000000000E+00 0. -1.
</event>
<event>
 7    1  0.1345786E-013  0.7246223E+02  0.7816164E-02  0.1226706E+00
        -11   -1    0    0    0    0  0.00000000000E+00  0.00000000000E+00  0.45593999997E+02  0.45594000000E+02  0.51100000000E-03 0. -1.
         11   -1    0    0    0    0 -0.00000000000E+00 -0.00000000000E+00 -0.45593999997E+02  0.45594000000E+02  0.51100000000E-03 0.  1.
    9900012    2    1    2    0    0  0.17418784356E+02 -0.33552631649E+01 -0.59985398473E+01  0.72462233804E+02  0.70000864339E+02 0.  0.
         12    1    1    2    0    0 -0.17418784356E+02  0.33552631649E+01  0.59985398473E+01  0.18725766196E+02  0.00000000000E+00 0. -1.
         11    1    3    3    0    0  0.15120899429E+01  0.41515456068E+01  0.74070834619E+01  0.86247685530E+01  0.51100000000E-03 0. -1.
        -11    1    3    3    0    0 -0.18191730916E+02 -0.12994010655E+02 -0.18383227023E+02  0.28943503980E+02  0.51100000000E-03 0.  1.
        -12    1    3    3    0    0  0.34098425329E+02  0.54872018835E+01  0.49776037138E+01  0.34893961270E+02  0.00000000000E+00 0.  1.
</event>
<event>
 7    1  0.1345786E-013  0.7246178E+02  0.7816164E-02  0.1226707E+00
        -11   -1    0    0    0    0  0.00000000000E+00  0.00000000000E+00  0.45593999997E+02  0.45594000000E+02  0.51100000000E-03 0. -1.
         11   -1    0    0    0    0 -0.00000000000E+00 -0.00000000000E+00 -0.45593999997E+02  0.45594000000E+02  0.51100000000E-03 0.  1.
    9900012    2    1    2    0    0  0.24354895219E+01 -0.16901975497E+01 -0.18490080903E+02  0.72461775908E+02  0.70000267849E+02 0.  0.
         12    1    1    2    0    0 -0.24354895219E+01  0.16901975497E+01  0.18490080903E+02  0.18726224092E+02  0.00000000000E+00 0. -1.
         11    1    3    3    0    0 -0.38130973186E+01 -0.22714070645E+02  0.43777335646E+01  0.23444258740E+02  0.51100000000E-03 0. -1.
        -11    1    3    3    0    0 -0.61441199564E+01  0.15926265810E+01 -0.25074501310E+02  0.25865368462E+02  0.51100000000E-03 0.  1.
         12    1    3    3    0    0  0.12392706797E+02  0.19431246515E+02  0.22066868427E+01  0.23152148706E+02  0.00000000000E+00 0. -1.
</event>
<event>
 7    1  0.1345786E-013  0.7246166E+02  0.7816164E-02  0.1226708E+00
        -11   -1    0    0    0    0  0.00000000000E+00  0.00000000000E+00  0.45593999997E+02  0.45594000000E+02  0.51100000000E-03 0.  1.
         11   -1    0    0    0    0 -0.00000000000E+00 -0.00000000000E+00 -0.45593999997E+02  0.45594000000E+02  0.51100000000E-03 0. -1.
    9900012    2    1    2    0    0 -0.15929731843E+02 -0.97897684096E+01 -0.10391958268E+01  0.72461658925E+02  0.70000115458E+02 0.  0.
         12    1    1    2    0    0  0.15929731843E+02  0.97897684096E+01  0.10391958268E+01  0.18726341075E+02  0.00000000000E+00 0. -1.
         11    1    3    3    0    0 -0.48732466853E+01  0.17398124170E+02 -0.85811666628E+01  0.20001991887E+02  0.51100000000E-03 0. -1.
        -11    1    3    3    0    0 -0.13636142931E+02 -0.16164339435E+02  0.24313979389E+02  0.32224212285E+02  0.51100000000E-03 0.  1.
        -12    1    3    3    0    0  0.25796577732E+01 -0.11023553145E+02 -0.16772008553E+02  0.20235454753E+02  0.00000000000E+00 0.  1.
</event>
<event>
 7    1  0.1345786E-013  0.7246157E+02  0.7816164E-02  0.1226708E+00
        -11   -1    0    0    0    0  0.00000000000E+00  0.00000000000E+00  0.45593999997E+02  0.45594000000E+02  0.51100000000E-03 0. -1.
         11   -1    0    0    0    0 -0.00000000000E+00 -0.00000000000E+00 -0.45593999997E+02  0.45594000000E+02  0.51100000000E-03 0.  1.
    9900012    2    1    2    0    0  0.23532579323E+01  0.14392976966E+02 -0.11746636094E+02  0.72461572996E+02  0.70000003519E+02 0.  0.
         12    1    1    2    0    0 -0.23532579323E+01 -0.14392976966E+02  0.11746636094E+02  0.18726427004E+02  0.00000000000E+00 0. -1.
         11    1    3    3    0    0  0.29027576163E+01  0.64840818012E+01  0.65599790382E+01  0.96696765109E+01  0.51100000000E-03 0. -1.
        -11    1    3    3    0    0 -0.27768767669E+02 -0.70605861378E+01 -0.12158412895E+02  0.31125284559E+02  0.51100000000E-03 0.  1.
        -12    1    3    3    0    0  0.27219267985E+02  0.14969481302E+02 -0.61482022366E+01  0.31666611926E+02  0.00000000000E+00 0.  1.
</event>
<event>
 7    1  0.1345786E-013  0.7246158E+02  0.7816164E-02  0.1226708E+00
        -11   -1    0    0    0    0  0.00000000000E+00  0.00000000000E+00  0.45593999997E+02  0.45594000000E+02  0.51100000000E-03 0. -1.
         11   -1    0    0    0    0 -0.00000000000E+00 -0.00000000000E+00 -0.45593999997E+02  0.45594000000E+02  0.51100000000E-03 0.  1.
    9900012    2    1    2    0    0 -0.12075973052E+02 -0.46701274209E+01 -0.13529216006E+02  0.72461577464E+02  0.70000009339E+02 0.  0.
         12    1    1    2    0    0  0.12075973052E+02  0.46701274209E+01  0.13529216006E+02  0.18726422536E+02  0.00000000000E+00 0. -1.
         11    1    3    3    0    0  0.13653148042E+02 -0.18561130882E+02 -0.66718056989E-01  0.23041885397E+02  0.51100000000E-03 0. -1.
        -11    1    3    3    0    0 -0.47717885632E+01  0.23600835639E+02 -0.99649607494E+01  0.26058968743E+02  0.51100000000E-03 0.  1.
        -12    1    3    3    0    0 -0.20957332531E+02 -0.97098321771E+01 -0.34975371995E+01  0.23360723323E+02  0.00000000000E+00 0.  1.
</event>
<event>
 7    1  0.1345786E-013  0.7246157E+02  0.7816164E-02  0.1226708E+00
        -11   -1    0    0    0    0  0.00000000000E+00  0.00000000000E+00  0.45593999997E+02  0.45594000000E+02  0.51100000000E-03 0.  1.
         11   -1    0    0    0    0 -0.00000000000E+00 -0.00000000000E+00 -0.45593999997E+02  0.45594000000E+02  0.51100000000E-03 0. -1.
    9900012    2    1    2    0    0 -0.14934392175E+02  0.61329502221E+01  0.94884147445E+01  0.72461570483E+02  0.70000000246E+02 0.  0.
         12    1    1    2    0    0  0.14934392175E+02 -0.61329502221E+01 -0.94884147445E+01  0.18726429517E+02  0.00000000000E+00 0. -1.
         11    1    3    3    0    0  0.64857948895E+01 -0.12324487803E+02  0.31349629067E+02  0.34303903246E+02  0.51100000000E-03 0. -1.
        -11    1    3    3    0    0 -0.23969616126E+01  0.71479469330E+01 -0.75703147171E+00  0.75770487157E+01  0.51100000000E-03 0.  1.
         12    1    3    3    0    0 -0.19023225452E+02  0.11309491093E+02 -0.21104182851E+02  0.30580618522E+02  0.00000000000E+00 0. -1.
</event>
<event>
 7    1  0.1345786E-013  0.7246155E+02  0.7816164E-02  0.1226708E+00
        -11   -1    0    0    0    0  0.00000000000E+00  0.00000000000E+00  0.45593999997E+02  0.45594000000E+02  0.51100000000E-03 0. -1.
         11   -1    0    0    0    0 -0.00000000000E+00 -0.00000000000E+00 -0.45593999997E+02  0.45594000000E+02  0.51100000000E-03 0.  1.
    9900012    2    1    2    0    0  0.13991957703E+02  0.95821953800E+01 -0.79427015843E+01  0.72461551936E+02  0.69999976084E+02 0.  0.
         12    1    1    2    0    0 -0.13991957703E+02 -0.95821953800E+01  0.79427015843E+01  0.18726448064E+02  0.00000000000E+00 0. -1.
         11    1    3    3    0    0  0.18306448525E+02  0.21114787818E+02  0.20305568541E+02  0.34543833549E+02  0.51100000000E-03 0. -1.
        -11    1    3    3    0    0 -0.13006851473E+02 -0.35264052512E+01 -0.15065764255E+02  0.20213633322E+02  0.51100000000E-03 0.  1.
         12    1    3    3    0    0  0.86923606506E+01 -0.80061871868E+01 -0.13182505871E+02  0.17704085065E+02  0.00000000000E+00 0. -1.
</event>
<event>
 7    1  0.1345786E-013  0.7246160E+02  0.7816164E-02  0.1226708E+00
        -11   -1    0    0    0    0  0.00000000000E+00  0.00000000000E+00  0.45593999997E+02  0.45594000000E+02  0.51100000000E-03 0.  1.
         11   -1    0    0    0    0 -0.00000000000E+00 -0.00000000000E+00 -0.45593999997E+02  0.45594000000E+02  0.51100000000E-03 0. -1.
    9900012    2    1    2    0    0  0.10618813308E+02 -0.10054105657E+02  0.11697600607E+02  0.72461598942E+02  0.70000037319E+02 0.  0.
         12    1    1    2    0    0 -0.10618813308E+02  0.10054105657E+02 -0.11697600607E+02  0.18726401058E+02  0.00000000000E+00 0. -1.
         11    1    3    3    0    0  0.13128212727E+02 -0.26045298033E+02  0.14705877464E+02  0.32664512108E+02  0.51100000000E-03 0. -1.
        -11    1    3    3    0    0  0.15874932141E+02  0.12980059712E+02  0.17173449451E+01  0.20577771855E+02  0.51100000000E-03 0.  1.
         12    1    3    3    0    0 -0.18384331559E+02  0.30111326635E+01 -0.47256218027E+01  0.19219314978E+02  0.00000000000E+00 0. -1.
</event>
<event>
 7    1  0.1345786E-013  0.7246139E+02  0.7816164E-02  0.1226709E+00
        -11   -1    0    0    0    0  0.00000000000E+00  0.00000000000E+00  0.45593999997E+02  0.45594000000E+02  0.51100000000E-03 0. -1.
         11   -1    0    0    0    0 -0.00000000000E+00 -0.00000000000E+00 -0.45593999997E+02  0.45594000000E+02  0.51100000000E-03 0.  1.
    9900012    2    1    2    0    0 -0.39919706213E+01 -0.17609278755E+02  0.49662434532E+01  0.72461385203E+02  0.69999758884E+02 0.  0.
         12    1    1    2    0    0  0.39919706213E+01  0.17609278755E+02 -0.49662434532E+01  0.18726614797E+02  0.00000000000E+00 0. -1.
         11    1    3    3    0    0  0.25378882918E+02 -0.25499896012E+02 -0.82701918257E+01  0.36915152280E+02  0.51100000000E-03 0. -1.
        -11    1    3    3    0    0 -0.29409536845E+01 -0.30187238968E+01  0.49685673593E+00  0.42436740469E+01  0.51100000000E-03 0.  1.
         12    1    3    3    0    0 -0.26429899854E+02  0.10909341154E+02  0.12739578543E+02  0.31302558876E+02  0.00000000000E+00 0. -1.
</event>
<event>
 7    1  0.1345786E-013  0.7246169E+02  0.7816164E-02  0.1226708E+00
        -11   -1    0    0    0    0  0.00000000000E+00  0.00000000000E+00  0.45593999997E+02  0.45594000000E+02  0.51100000000E-03 0.  1.
         11   -1    0    0    0    0 -0.00000000000E+00 -0.00000000000E+00 -0.45593999997E+02  0.45594000000E+02  0.51100000000E-03 0. -1.
    9900012    2    1    2    0    0  0.18403429464E+02  0.34597299477E+01  0.13685456467E+00  0.72461690259E+02  0.70000156275E+02 0.  0.
         12    1    1    2    0    0 -0.18403429464E+02 -0.34597299477E+01 -0.13685456467E+00  0.18726309741E+02  0.00000000000E+00 0. -1.
         11    1    3    3    0    0  0.23057081021E+02  0.11253138358E+02 -0.89401573215E+01  0.27169624975E+02  0.51100000000E-03 0. -1.
        -11    1    3    3    0    0  0.13533401245E+01 -0.16598674424E+00  0.25863875900E+02  0.25899790693E+02  0.51100000000E-03 0.  1.
        -12    1    3    3    0    0 -0.60069916809E+01 -0.76274216665E+01 -0.16786864014E+02  0.19392274590E+02  0.00000000000E+00 0.  1.
</event>
<event>
 7    1  0.1345786E-013  0.7246163E+02  0.7816164E-02  0.1226708E+00
        -11   -1    0    0    0    0  0.00000000000E+00  0.00000000000E+00  0.45593999997E+02  0.45594000000E+02  0.51100000000E-03 0. -1.
         11   -1    0    0    0    0 -0.00000000000E+00 -0.00000000000E+00 -0.45593999997E+02  0.45594000000E+02  0.51100000000E-03 0.  1.
    9900012    2    1    2    0    0 -0.17671826531E+02 -0.59618652878E+01 -0.16851186884E+01  0.72461630473E+02  0.70000078394E+02 0.  0.
         12    1    1    2    0    0  0.17671826531E+02  0.59618652878E+01  0.16851186884E+01  0.18726369527E+02  0.00000000000E+00 0. -1.
         11    1    3    3    0    0  0.12427563518E+00  0.19063618995E+02  0.56310499951E+01  0.19878273012E+02  0.51100000000E-03 0. -1.
        -11    1    3    3    0    0 -0.15824585121E+02 -0.10668391628E+02  0.16151299959E+02  0.25001931222E+02  0.51100000000E-03 0.  1.
        -12    1    3    3    0    0 -0.19715170449E+01 -0.14357092654E+02 -0.23467468642E+02  0.27581426240E+02  0.00000000000E+00 0.  1.
</event>
<event>
 7    1  0.1345786E-013  0.7246162E+02  0.7816164E-02  0.1226708E+00
        -11   -1    0    0    0    0  0.00000000000E+00  0.00000000000E+00  0.45593999997E+02  0.45594000000E+02  0.51100000000E-03 0. -1.
         11   -1    0    0    0    0 -0.00000000000E+00 -0.00000000000E+00 -0.45593999997E+02  0.45594000000E+02  0.51100000000E-03 0.  1.
    9900012    2    1    2    0    0 -0.12986275452E+02  0.12835723883E+02 -0.41567112771E+01  0.72461617371E+02  0.70000061327E+02 0.  0.
         12    1    1    2    0    0  0.12986275452E+02 -0.12835723883E+02  0.41567112771E+01  0.18726382629E+02  0.00000000000E+00 0. -1.
         11    1    3    3    0    0  0.12801033585E+02  0.13707511386E+02 -0.38334056861E+01  0.19143075214E+02  0.51100000000E-03 0. -1.
        -11    1    3    3    0    0 -0.19430336910E+02 -0.11539103657E+02 -0.19916033427E+02  0.30122039994E+02  0.51100000000E-03 0.  1.
        -12    1    3    3    0    0 -0.63569721268E+01  0.10667316154E+02  0.19592727836E+02  0.23196502163E+02  0.00000000000E+00 0.  1.
</event>
<event>
 7    1  0.1345786E-013  0.7246154E+02  0.7816164E-02  0.1226708E+00
        -11   -1    0    0    0    0  0.00000000000E+00  0.00000000000E+00  0.45593999997E+02  0.45594000000E+02  0.51100000000E-03 0. -1.
         11   -1    0    0    0    0 -0.00000000000E+00 -0.00000000000E+00 -0.45593999997E+02  0.45594000000E+02  0.51100000000E-03 0.  1.
    9900012    2    1    2    0    0  0.16635896922E+02  0.59671662000E+01 -0.61903322010E+01  0.72461538732E+02  0.69999958885E+02 0.  0.
         12    1    1    2    0    0 -0.16635896922E+02 -0.59671662000E+01  0.61903322010E+01  0.18726461268E+02  0.00000000000E+00 0. -1.
         11    1    3    3    0    0  0.25445933549E+02 -0.21075093284E+02  0.29265986466E+00  0.33041500287E+02  0.51100000000E-03 0. -1.
        -11    1    3    3    0    0 -0.17116466114E+02  0.11591008242E+02  0.13074979578E+00  0.20672251452E+02  0.51100000000E-03 0.  1.
         12    1    3    3    0    0  0.83064294867E+01  0.15451251242E+02 -0.66137418614E+01  0.18747786994E+02  0.00000000000E+00 0. -1.
</event>
<event>
 7    1  0.1345786E-013  0.7246121E+02  0.7816164E-02  0.1226709E+00
        -11   -1    0    0    0    0  0.00000000000E+00  0.00000000000E+00  0.45593999997E+02  0.45594000000E+02  0.51100000000E-03 0.  1.
         11   -1    0    0    0    0 -0.00000000000E+00 -0.00000000000E+00 -0.45593999997E+02  0.45594000000E+02  0.51100000000E-03 0. -1.
    9900012    2    1    2    0    0  0.64151087405E+01  0.35821452003E+01  0.17225197132E+02  0.72461206345E+02  0.69999525886E+02 0.  0.
         12    1    1    2    0    0 -0.64151087405E+01 -0.35821452003E+01 -0.17225197132E+02  0.18726793655E+02  0.00000000000E+00 0. -1.
         11    1    3    3    0    0 -0.95568539577E+01 -0.13637098682E+02 -0.88213669712E+01  0.18844639385E+02  0.51100000000E-03 0. -1.
        -11    1    3    3    0    0  0.15826471599E+02  0.19663339859E+00  0.31903550819E+02  0.35613935798E+02  0.51100000000E-03 0.  1.
         12    1    3    3    0    0  0.14549109970E+00  0.17022610484E+02 -0.58569867158E+01  0.18002631162E+02  0.00000000000E+00 0. -1.
</event>
<event>
 7    1  0.1345786E-013  0.7246158E+02  0.7816164E-02  0.1226708E+00
        -11   -1    0    0    0    0  0.00000000000E+00  0.00000000000E+00  0.45593999997E+02  0.45594000000E+02  0.51100000000E-03 0.  1.
         11   -1    0    0    0    0 -0.00000000000E+00 -0.00000000000E+00 -0.45593999997E+02  0.45594000000E+02  0.51100000000E-03 0. -1.
    9900012    2    1    2    0    0  0.56266753585E+01  0.17850266309E+02  0.62223426452E+00  0.72461583942E+02  0.70000017779E+02 0.  0.
         12    1    1    2    0    0 -0.56266753585E+01 -0.17850266309E+02 -0.62223426452E+00  0.18726416058E+02  0.00000000000E+00 0. -1.
         11    1    3    3    0    0  0.53734674182E+01 -0.66490904076E+01 -0.26545505879E+00  0.85530709101E+01  0.51100000000E-03 0.  1.
        -11    1    3    3    0    0 -0.23823400675E+02  0.56880910874E+01 -0.15748375840E+02  0.29119068353E+02  0.51100000000E-03 0. -1.
        -12    1    3    3    0    0  0.24076608615E+02  0.18811265629E+02  0.16636065163E+02  0.34789444679E+02  0.00000000000E+00 0.  1.
</event>
<event>
 7    1  0.1345786E-013  0.7246158E+02  0.7816164E-02  0.1226708E+00
        -11   -1    0    0    0    0  0.00000000000E+00  0.00000000000E+00  0.45593999997E+02  0.45594000000E+02  0.51100000000E-03 0. -1.
         11   -1    0    0    0    0 -0.00000000000E+00 -0.00000000000E+00 -0.45593999997E+02  0.45594000000E+02  0.51100000000E-03 0.  1.
    9900012    2    1    2    0    0 -0.46770887561E+01 -0.18126993448E+02 -0.46441275750E+00  0.72461582032E+02  0.70000015290E+02 0.  0.
         12    1    1    2    0    0  0.46770887561E+01  0.18126993448E+02  0.46441275750E+00  0.18726417968E+02  0.00000000000E+00 0. -1.
         11    1    3    3    0    0  0.12941381171E+02  0.38288988143E+01  0.12245920396E+01  0.13551362981E+02  0.51100000000E-03 0. -1.
        -11    1    3    3    0    0 -0.31996744178E+02 -0.25740959012E+02  0.70464249425E+01  0.41665821888E+02  0.51100000000E-03 0.  1.
        -12    1    3    3    0    0  0.14378274252E+02  0.37850667497E+01 -0.87354297396E+01  0.17244397162E+02  0.00000000000E+00 0.  1.
</event>
<event>
 7    1  0.1345786E-013  0.7246156E+02  0.7816164E-02  0.1226708E+00
        -11   -1    0    0    0    0  0.00000000000E+00  0.00000000000E+00  0.45593999997E+02  0.45594000000E+02  0.51100000000E-03 0.  1.
         11   -1    0    0    0    0 -0.00000000000E+00 -0.00000000000E+00 -0.45593999997E+02  0.45594000000E+02  0.51100000000E-03 0. -1.
    9900012    2    1    2    0    0 -0.54632589865E+01  0.16623200488E+02 -0.66709555746E+01  0.72461557693E+02  0.69999983584E+02 0.  0.
         12    1    1    2    0    0  0.54632589865E+01 -0.16623200488E+02  0.66709555746E+01  0.18726442307E+02  0.00000000000E+00 0. -1.
         11    1    3    3    0    0 -0.90471977488E+01 -0.71781201514E+01 -0.84323554568E+01  0.14299713802E+02  0.51100000000E-03 0. -1.
        -11    1    3    3    0    0  0.22909551209E+02  0.30019617447E+02 -0.22584447660E+00  0.37763421114E+02  0.51100000000E-03 0.  1.
        -12    1    3    3    0    0 -0.19325612446E+02 -0.62182968082E+01  0.19872443588E+01  0.20398422776E+02  0.00000000000E+00 0.  1.
</event>
<event>
 7    1  0.1345786E-013  0.7246168E+02  0.7816164E-02  0.1226708E+00
        -11   -1    0    0    0    0  0.00000000000E+00  0.00000000000E+00  0.45593999997E+02  0.45594000000E+02  0.51100000000E-03 0. -1.
         11   -1    0    0    0    0 -0.00000000000E+00 -0.00000000000E+00 -0.45593999997E+02  0.45594000000E+02  0.51100000000E-03 0.  1.
    9900012    2    1    2    0    0 -0.12310182645E+02  0.13212800613E+02 -0.49554422790E+01  0.72461678819E+02  0.70000141373E+02 0.  0.
         12    1    1    2    0    0  0.12310182645E+02 -0.13212800613E+02  0.49554422790E+01  0.18726321181E+02  0.00000000000E+00 0. -1.
         11    1    3    3    0    0 -0.23729086529E+01 -0.55059409999E+01 -0.18101037703E+02  0.19068131737E+02  0.51100000000E-03 0. -1.
        -11    1    3    3    0    0 -0.10152723630E+02  0.34309131882E+02  0.61511662686E+01  0.36304699066E+02  0.51100000000E-03 0.  1.
         12    1    3    3    0    0  0.21544963710E+00 -0.15590390269E+02  0.69944291552E+01  0.17088848015E+02  0.00000000000E+00 0. -1.
</event>
<event>
 7    1  0.1345786E-013  0.7246177E+02  0.7816164E-02  0.1226707E+00
        -11   -1    0    0    0    0  0.00000000000E+00  0.00000000000E+00  0.45593999997E+02  0.45594000000E+02  0.51100000000E-03 0. -1.
         11   -1    0    0    0    0 -0.00000000000E+00 -0.00000000000E+00 -0.45593999997E+02  0.45594000000E+02  0.51100000000E-03 0.  1.
    9900012    2    1    2    0    0  0.17384229215E+02  0.49575794711E+01  0.48870084089E+01  0.72461765173E+02  0.70000253865E+02 0.  0.
         12    1    1    2    0    0 -0.17384229215E+02 -0.49575794711E+01 -0.48870084089E+01  0.18726234827E+02  0.00000000000E+00 0. -1.
         11    1    3    3    0    0 -0.13647936345E+02  0.10325244253E+02  0.25886706378E+02  0.31032215563E+02  0.51100000000E-03 0. -1.
        -11    1    3    3    0    0  0.20543106287E+02  0.43419027261E+01 -0.15569267016E+02  0.26139499056E+02  0.51100000000E-03 0.  1.
        -12    1    3    3    0    0  0.10489059273E+02 -0.97095675083E+01 -0.54304309527E+01  0.15290050555E+02  0.00000000000E+00 0.  1.
</event>
<event>
 7    1  0.1345786E-013  0.7246158E+02  0.7816164E-02  0.1226708E+00
        -11   -1    0    0    0    0  0.00000000000E+00  0.00000000000E+00  0.45593999997E+02  0.45594000000E+02  0.51100000000E-03 0.  1.
         11   -1    0    0    0    0 -0.00000000000E+00 -0.00000000000E+00 -0.45593999997E+02  0.45594000000E+02  0.51100000000E-03 0. -1.
    9900012    2    1    2    0    0  0.55281216946E+01  0.17142208563E+01  0.17809552278E+02  0.72461579227E+02  0.70000011637E+02 0.  0.
         12    1    1    2    0    0 -0.55281216946E+01 -0.17142208563E+01 -0.17809552278E+02  0.18726420773E+02  0.00000000000E+00 0. -1.
         11    1    3    3    0    0  0.36130544582E+01 -0.22015378518E+02  0.15946502900E+02  0.27423019688E+02  0.51100000000E-03 0. -1.
        -11    1    3    3    0    0  0.19215693764E+02  0.10132859546E+02  0.62425348840E+01  0.22602808928E+02  0.51100000000E-03 0.  1.
         12    1    3    3    0    0 -0.17300626528E+02  0.13596739828E+02 -0.43794855064E+01  0.22435750611E+02  0.00000000000E+00 0. -1.
</event>
<event>
 7    1  0.1345786E-013  0.7246157E+02  0.7816164E-02  0.1226708E+00
        -11   -1    0    0    0    0  0.00000000000E+00  0.00000000000E+00  0.45593999997E+02  0.45594000000E+02  0.51100000000E-03 0.  1.
         11   -1    0    0    0    0 -0.00000000000E+00 -0.00000000000E+00 -0.45593999997E+02  0.45594000000E+02  0.51100000000E-03 0. -1.
    9900012    2    1    2    0    0 -0.83633593676E+01  0.90518335211E+01  0.14099563933E+02  0.72461570198E+02  0.69999999875E+02 0.  0.
         12    1    1    2    0    0  0.83633593676E+01 -0.90518335211E+01 -0.14099563933E+02  0.18726429802E+02  0.00000000000E+00 0. -1.
         11    1    3    3    0    0 -0.99424007348E+01  0.23995016636E+02 -0.16985924788E+02  0.31034396996E+02  0.51100000000E-03 0. -1.
        -11    1    3    3    0    0  0.84303190707E+01 -0.56492166049E+01  0.27537716646E+02  0.29348079430E+02  0.51100000000E-03 0.  1.
        -12    1    3    3    0    0 -0.68512777035E+01 -0.92939665102E+01  0.35477720750E+01  0.12079093772E+02  0.00000000000E+00 0.  1.
</event>
<event>
 7    1  0.1345786E-013  0.7246164E+02  0.7816164E-02  0.1226708E+00
        -11   -1    0    0    0    0  0.00000000000E+00  0.00000000000E+00  0.45593999997E+02  0.45594000000E+02  0.51100000000E-03 0. -1.
         11   -1    0    0    0    0 -0.00000000000E+00 -0.00000000000E+00 -0.45593999997E+02  0.45594000000E+02  0.51100000000E-03 0.  1.
    9900012    2    1    2    0    0  0.27577503834E+00  0.14795519091E+01 -0.18665778291E+02  0.72461644109E+02  0.70000096158E+02 0.  0.
         12    1    1    2    0    0 -0.27577503834E+00 -0.14795519091E+01  0.18665778291E+02  0.18726355891E+02  0.00000000000E+00 0. -1.
         11    1    3    3    0    0  0.79630109218E+01 -0.13764504310E+02  0.26772371709E+01  0.16125716138E+02  0.51100000000E-03 0. -1.
        -11    1    3    3    0    0  0.12635446373E+02  0.23302090782E+02 -0.10827093191E+01  0.26529496783E+02  0.51100000000E-03 0.  1.
        -12    1    3    3    0    0 -0.20322682257E+02 -0.80580345624E+01 -0.20260306143E+02  0.29806431187E+02  0.00000000000E+00 0.  1.
</event>
<event>
 7    1  0.1345786E-013  0.7246218E+02  0.7816164E-02  0.1226706E+00
        -11   -1    0    0    0    0  0.00000000000E+00  0.00000000000E+00  0.45593999997E+02  0.45594000000E+02  0.51100000000E-03 0. -1.
         11   -1    0    0    0    0 -0.00000000000E+00 -0.00000000000E+00 -0.45593999997E+02  0.45594000000E+02  0.51100000000E-03 0.  1.
    9900012    2    1    2    0    0  0.14685957254E+01  0.74633838435E+01 -0.17111327574E+02  0.72462178172E+02  0.70000791869E+02 0.  0.
         12    1    1    2    0    0 -0.14685957254E+01 -0.74633838435E+01  0.17111327574E+02  0.18725821828E+02  0.00000000000E+00 0. -1.
         11    1    3    3    0    0 -0.14425586043E+02  0.72166121401E+01 -0.12652478007E+02  0.20500298130E+02  0.51100000000E-03 0. -1.
        -11    1    3    3    0    0  0.21202114784E+02  0.13314617783E+02  0.14036152322E+02  0.28702304617E+02  0.51100000000E-03 0.  1.
        -12    1    3    3    0    0 -0.53079330161E+01 -0.13067846080E+02 -0.18495001889E+02  0.23259575425E+02  0.00000000000E+00 0.  1.
</event>
<event>
 7    1  0.1345786E-013  0.7246157E+02  0.7816164E-02  0.1226708E+00
        -11   -1    0    0    0    0  0.00000000000E+00  0.00000000000E+00  0.45593999997E+02  0.45594000000E+02  0.51100000000E-03 0. -1.
         11   -1    0    0    0    0 -0.00000000000E+00 -0.00000000000E+00 -0.45593999997E+02  0.45594000000E+02  0.51100000000E-03 0.  1.
    9900012    2    1    2    0    0 -0.25313775483E+01  0.18554527736E+02  0.29470368264E-01  0.72461568405E+02  0.69999997539E+02 0.  0.
         12    1    1    2    0    0  0.25313775483E+01 -0.18554527736E+02 -0.29470368264E-01  0.18726431595E+02  0.00000000000E+00 0. -1.
         11    1    3    3    0    0 -0.12736501490E+02  0.24154873028E+02  0.16697158707E+02  0.32007365877E+02  0.51100000000E-03 0. -1.
        -11    1    3    3    0    0  0.21991917942E+02 -0.49206272654E+01 -0.35631638062E+01  0.22815634201E+02  0.51100000000E-03 0.  1.
         12    1    3    3    0    0 -0.11786794000E+02 -0.67971802714E+00 -0.13104524533E+02  0.17638568327E+02  0.00000000000E+00 0. -1.
</event>
<event>
 8    1  0.1345786E-013  0.7246157E+02  0.7816164E-02  0.1226708E+00
        -11   -1    0    0    0    0  0.00000000000E+00  0.00000000000E+00  0.45593999997E+02  0.45594000000E+02  0.51100000000E-03 0.  1.
         11   -1    0    0    0    0 -0.00000000000E+00 -0.00000000000E+00 -0.45593999997E+02  0.45594000000E+02  0.51100000000E-03 0. -1.
    9900012    2    1    2    0    0 -0.76862292132E+01 -0.28774357775E+00  0.17073901838E+02  0.72461573756E+02  0.70000004510E+02 0.  0.
        -24    2    3    3    0    0  0.23519988018E+01 -0.15362568385E+02  0.12485574758E+02  0.53778182461E+02  0.49946600745E+02 0.  0.
         12    1    1    2    0    0  0.76862292132E+01  0.28774357775E+00 -0.17073901838E+02  0.18726426244E+02  0.00000000000E+00 0. -1.
         11    1    4    4    0    0 -0.15366079933E+02 -0.12340613984E+02 -0.12247693027E+02  0.23203731397E+02  0.51100000000E-03 0. -1.
        -11    1    3    3    0    0 -0.10038228015E+02  0.15074824807E+02  0.45883270800E+01  0.18683391295E+02  0.51100000000E-03 0.  1.
        -12    1    4    4    0    0  0.17718078735E+02 -0.30219544011E+01  0.24733267785E+02  0.30574451063E+02  0.00000000000E+00 0.  1.
</event>
<event>
 7    1  0.1345786E-013  0.7246157E+02  0.7816164E-02  0.1226708E+00
        -11   -1    0    0    0    0  0.00000000000E+00  0.00000000000E+00  0.45593999997E+02  0.45594000000E+02  0.51100000000E-03 0. -1.
         11   -1    0    0    0    0 -0.00000000000E+00 -0.00000000000E+00 -0.45593999997E+02  0.45594000000E+02  0.51100000000E-03 0.  1.
    9900012    2    1    2    0    0 -0.12254576828E+02 -0.10442485994E+02 -0.95634206460E+01  0.72461569977E+02  0.69999999586E+02 0.  0.
         12    1    1    2    0    0  0.12254576828E+02  0.10442485994E+02  0.95634206460E+01  0.18726430023E+02  0.00000000000E+00 0. -1.
         11    1    3    3    0    0 -0.67345553894E+01 -0.42322281057E+01  0.17864447324E+02  0.19555164778E+02  0.51100000000E-03 0.  1.
        -11    1    3    3    0    0  0.12513319089E+02  0.53601696092E+01 -0.28362223556E+02  0.31459979310E+02  0.51100000000E-03 0. -1.
        -12    1    3    3    0    0 -0.18033340528E+02 -0.11570427498E+02  0.93435558570E+00  0.21446425889E+02  0.00000000000E+00 0.  1.
</event>
<event>
 7    1  0.1345786E-013  0.7246158E+02  0.7816164E-02  0.1226708E+00
        -11   -1    0    0    0    0  0.00000000000E+00  0.00000000000E+00  0.45593999997E+02  0.45594000000E+02  0.51100000000E-03 0.  1.
         11   -1    0    0    0    0 -0.00000000000E+00 -0.00000000000E+00 -0.45593999997E+02  0.45594000000E+02  0.51100000000E-03 0. -1.
    9900012    2    1    2    0    0 -0.81985201265E+01 -0.13834826009E+01  0.16779418879E+02  0.72461584051E+02  0.70000017921E+02 0.  0.
         12    1    1    2    0    0  0.81985201265E+01  0.13834826009E+01 -0.16779418879E+02  0.18726415949E+02  0.00000000000E+00 0. -1.
         11    1    3    3    0    0 -0.97096214560E+01 -0.80646818374E+01 -0.30834318242E+00  0.12625803647E+02  0.51100000000E-03 0. -1.
        -11    1    3    3    0    0  0.11183981733E+02  0.80772595556E+01  0.35997112982E+02  0.38550171370E+02  0.51100000000E-03 0.  1.
        -12    1    3    3    0    0 -0.96728804031E+01 -0.13960603191E+01 -0.18909350921E+02  0.21285609034E+02  0.00000000000E+00 0.  1.
</event>
<event>
 7    1  0.1345786E-013  0.7246157E+02  0.7816164E-02  0.1226708E+00
        -11   -1    0    0    0    0  0.00000000000E+00  0.00000000000E+00  0.45593999997E+02  0.45594000000E+02  0.51100000000E-03 0. -1.
         11   -1    0    0    0    0 -0.00000000000E+00 -0.00000000000E+00 -0.45593999997E+02  0.45594000000E+02  0.51100000000E-03 0.  1.
    9900012    2    1    2    0    0  0.13341288628E+02 -0.95681977309E+01 -0.90077033655E+01  0.72461571884E+02  0.70000002071E+02 0.  0.
         12    1    1    2    0    0 -0.13341288628E+02  0.95681977309E+01  0.90077033655E+01  0.18726428116E+02  0.00000000000E+00 0. -1.
         11    1    3    3    0    0  0.25341153106E+02  0.26074290494E+01  0.59112777795E+01  0.26151786406E+02  0.51100000000E-03 0. -1.
        -11    1    3    3    0    0 -0.22845844246E+02 -0.70134811508E+01  0.36692982725E+01  0.24178198180E+02  0.51100000000E-03 0.  1.
        -12    1    3    3    0    0  0.10845979768E+02 -0.51621456295E+01 -0.18588279417E+02  0.22131587298E+02  0.00000000000E+00 0.  1.
</event>
<event>
 7    1  0.1345786E-013  0.7246162E+02  0.7816164E-02  0.1226708E+00
        -11   -1    0    0    0    0  0.00000000000E+00  0.00000000000E+00  0.45593999997E+02  0.45594000000E+02  0.51100000000E-03 0. -1.
         11   -1    0    0    0    0 -0.00000000000E+00 -0.00000000000E+00 -0.45593999997E+02  0.45594000000E+02  0.51100000000E-03 0.  1.
    9900012    2    1    2    0    0 -0.80492297366E+01 -0.19735834494E+01 -0.16792623101E+02  0.72461619634E+02  0.70000064274E+02 0.  0.
         12    1    1    2    0    0  0.80492297366E+01  0.19735834494E+01  0.16792623101E+02  0.18726380366E+02  0.00000000000E+00 0. -1.
         11    1    3    3    0    0 -0.11881683102E+02  0.26257034083E+02 -0.13502701094E+02  0.31826548184E+02  0.51100000000E-03 0. -1.
        -11    1    3    3    0    0 -0.86118012928E+01 -0.40446698744E+01  0.67241114600E+01  0.11650585869E+02  0.51100000000E-03 0.  1.
         12    1    3    3    0    0  0.12444254659E+02 -0.24185947658E+02 -0.10014033467E+02  0.28984485581E+02  0.00000000000E+00 0. -1.
</event>
<event>
 7    1  0.1345786E-013  0.7246141E+02  0.7816164E-02  0.1226708E+00
        -11   -1    0    0    0    0  0.00000000000E+00  0.00000000000E+00  0.45593999997E+02  0.45594000000E+02  0.51100000000E-03 0.  1.
         11   -1    0    0    0    0 -0.00000000000E+00 -0.00000000000E+00 -0.45593999997E+02  0.45594000000E+02  0.51100000000E-03 0. -1.
    9900012    2    1    2    0    0  0.12434318277E+02  0.13983745344E+02  0.72642076429E+00  0.72461412164E+02  0.69999794006E+02 0.  0.
         12    1    1    2    0    0 -0.12434318277E+02 -0.13983745344E+02 -0.72642076429E+00  0.18726587836E+02  0.00000000000E+00 0. -1.
         11    1    3    3    0    0 -0.15296105821E+01 -0.18437334500E+02 -0.22425867677E+02  0.29072229934E+02  0.51100000000E-03 0. -1.
        -11    1    3    3    0    0 -0.19498843669E-01  0.42520474020E+01  0.65979002674E+01  0.78493678416E+01  0.51100000000E-03 0.  1.
         12    1    3    3    0    0  0.13983427703E+02  0.28169032441E+02  0.16554388174E+02  0.35539814389E+02  0.00000000000E+00 0. -1.
</event>
<event>
 7    1  0.1345786E-013  0.7246157E+02  0.7816164E-02  0.1226708E+00
        -11   -1    0    0    0    0  0.00000000000E+00  0.00000000000E+00  0.45593999997E+02  0.45594000000E+02  0.51100000000E-03 0. -1.
         11   -1    0    0    0    0 -0.00000000000E+00 -0.00000000000E+00 -0.45593999997E+02  0.45594000000E+02  0.51100000000E-03 0.  1.
    9900012    2    1    2    0    0  0.67045450011E+01  0.46263659827E+01 -0.16861937974E+02  0.72461571133E+02  0.70000001093E+02 0.  0.
         12    1    1    2    0    0 -0.67045450011E+01 -0.46263659827E+01  0.16861937974E+02  0.18726428867E+02  0.00000000000E+00 0. -1.
         11    1    3    3    0    0  0.73066003006E+01 -0.19772451915E+02 -0.32923583869E+02  0.39093460294E+02  0.51100000000E-03 0.  1.
        -11    1    3    3    0    0  0.73186563901E+01  0.14293776306E+02  0.11462914947E+02  0.19730007394E+02  0.51100000000E-03 0. -1.
         12    1    3    3    0    0 -0.79207116896E+01  0.10105041592E+02  0.45987309481E+01  0.13638103445E+02  0.00000000000E+00 0. -1.
</event>
<event>
 7    1  0.1345786E-013  0.7246156E+02  0.7816164E-02  0.1226708E+00
        -11   -1    0    0    0    0  0.00000000000E+00  0.00000000000E+00  0.45593999997E+02  0.45594000000E+02  0.51100000000E-03 0.  1.
         11   -1    0    0    0    0 -0.00000000000E+00 -0.00000000000E+00 -0.45593999997E+02  0.45594000000E+02  0.51100000000E-03 0. -1.
    9900012    2    1    2    0    0  0.12882735393E+01 -0.13248045678E+02  0.13172291448E+02  0.72461558133E+02  0.69999984158E+02 0.  0.
         12    1    1    2    0    0 -0.12882735393E+01  0.13248045678E+02 -0.13172291448E+02  0.18726441867E+02  0.00000000000E+00 0. -1.
         11    1    3    3    0    0 -0.92378566723E+01  0.91547196803E+01 -0.78759870646E+01  0.15204540796E+02  0.51100000000E-03 0. -1.
        -11    1    3    3    0    0  0.21753289852E+02  0.48897926607E+00  0.23030278494E+02  0.31683409663E+02  0.51100000000E-03 0.  1.
        -12    1    3    3    0    0 -0.11227159640E+02 -0.22891744624E+02 -0.19819999812E+01  0.25573607674E+02  0.00000000000E+00 0.  1.
</event>
<event>
 7    1  0.1345786E-013  0.7246155E+02  0.7816164E-02  0.1226708E+00
        -11   -1    0    0    0    0  0.00000000000E+00  0.00000000000E+00  0.45593999997E+02  0.45594000000E+02  0.51100000000E-03 0.  1.
         11   -1    0    0    0    0 -0.00000000000E+00 -0.00000000000E+00 -0.45593999997E+02  0.45594000000E+02  0.51100000000E-03 0. -1.
    9900012    2    1    2    0    0 -0.14972319943E+02  0.11088064230E+02 -0.18880049038E+01  0.72461545574E+02  0.69999967798E+02 0.  0.
         12    1    1    2    0    0  0.14972319943E+02 -0.11088064230E+02  0.18880049038E+01  0.18726454426E+02  0.00000000000E+00 0. -1.
         11    1    3    3    0    0 -0.14248195619E+02  0.14278877083E+01 -0.19817148161E+02  0.24449321119E+02  0.51100000000E-03 0. -1.
        -11    1    3    3    0    0 -0.12525170220E+02 -0.64721143968E+01  0.23373338423E+02  0.27296173781E+02  0.51100000000E-03 0.  1.
        -12    1    3    3    0    0  0.11801045896E+02  0.16132290918E+02 -0.54441951653E+01  0.20716050674E+02  0.00000000000E+00 0.  1.
</event>
<event>
 7    1  0.1345786E-013  0.7246137E+02  0.7816164E-02  0.1226709E+00
        -11   -1    0    0    0    0  0.00000000000E+00  0.00000000000E+00  0.45593999997E+02  0.45594000000E+02  0.51100000000E-03 0.  1.
         11   -1    0    0    0    0 -0.00000000000E+00 -0.00000000000E+00 -0.45593999997E+02  0.45594000000E+02  0.51100000000E-03 0. -1.
    9900012    2    1    2    0    0  0.16165911836E+02  0.30659827934E+01 -0.89414679369E+01  0.72461366430E+02  0.69999734429E+02 0.  0.
         12    1    1    2    0    0 -0.16165911836E+02 -0.30659827934E+01  0.89414679369E+01  0.18726633570E+02  0.00000000000E+00 0. -1.
         11    1    3    3    0    0 -0.13896603570E+02 -0.19797857805E+02  0.55239246193E+01  0.24810975554E+02  0.51100000000E-03 0. -1.
        -11    1    3    3    0    0  0.23165019064E+02  0.21297933834E+02 -0.21152786615E+02  0.37916493451E+02  0.51100000000E-03 0.  1.
         12    1    3    3    0    0  0.68974963427E+01  0.15659067652E+01  0.66873940588E+01  0.97338974256E+01  0.00000000000E+00 0. -1.
</event>
<event>
 7    1  0.1345786E-013  0.7246156E+02  0.7816164E-02  0.1226708E+00
        -11   -1    0    0    0    0  0.00000000000E+00  0.00000000000E+00  0.45593999997E+02  0.45594000000E+02  0.51100000000E-03 0.  1.
         11   -1    0    0    0    0 -0.00000000000E+00 -0.00000000000E+00 -0.45593999997E+02  0.45594000000E+02  0.51100000000E-03 0. -1.
    9900012    2    1    2    0    0 -0.67088159964E+01  0.13254807346E+01  0.17433137578E+02  0.72461564219E+02  0.69999992086E+02 0.  0.
         12    1    1    2    0    0  0.67088159964E+01 -0.13254807346E+01 -0.17433137578E+02  0.18726435781E+02  0.00000000000E+00 0. -1.
         11    1    3    3    0    0  0.62749881111E+01 -0.21586414807E+02  0.27352697470E+02  0.35405067987E+02  0.51100000000E-03 0. -1.
        -11    1    3    3    0    0 -0.11280505250E+02  0.26784063639E+02 -0.33669068786E+01  0.29256997897E+02  0.51100000000E-03 0.  1.
        -12    1    3    3    0    0 -0.17032988576E+01 -0.38721680981E+01 -0.65526530133E+01  0.77994983358E+01  0.00000000000E+00 0.  1.
</event>
<event>
 7    1  0.1345786E-013  0.7246154E+02  0.7816164E-02  0.1226708E+00
        -11   -1    0    0    0    0  0.00000000000E+00  0.00000000000E+00  0.45593999997E+02  0.45594000000E+02  0.51100000000E-03 0.  1.
         11   -1    0    0    0    0 -0.00000000000E+00 -0.00000000000E+00 -0.45593999997E+02  0.45594000000E+02  0.51100000000E-03 0. -1.
    9900012    2    1    2    0    0  0.72873808799E+00 -0.74948255063E+01  0.17145755927E+02  0.72461537043E+02  0.69999956684E+02 0.  0.
         12    1    1    2    0    0 -0.72873808799E+00  0.74948255063E+01 -0.17145755927E+02  0.18726462957E+02  0.00000000000E+00 0. -1.
         11    1    3    3    0    0 -0.33521841597E+00 -0.11475906244E+02 -0.17451966118E+02  0.20889708403E+02  0.51100000000E-03 0. -1.
        -11    1    3    3    0    0 -0.14397755203E+02 -0.11692433084E+01  0.31946635677E+02  0.35060661946E+02  0.51100000000E-03 0.  1.
         12    1    3    3    0    0  0.15461711707E+02  0.51503240463E+01  0.26510863679E+01  0.16511166694E+02  0.00000000000E+00 0. -1.
</event>
<event>
 7    1  0.1345786E-013  0.7246154E+02  0.7816164E-02  0.1226708E+00
        -11   -1    0    0    0    0  0.00000000000E+00  0.00000000000E+00  0.45593999997E+02  0.45594000000E+02  0.51100000000E-03 0.  1.
         11   -1    0    0    0    0 -0.00000000000E+00 -0.00000000000E+00 -0.45593999997E+02  0.45594000000E+02  0.51100000000E-03 0. -1.
    9900012    2    1    2    0    0  0.17458150802E+02  0.56660502360E+01  0.37133601655E+01  0.72461542823E+02  0.69999964213E+02 0.  0.
         12    1    1    2    0    0 -0.17458150802E+02 -0.56660502360E+01 -0.37133601655E+01  0.18726457177E+02  0.00000000000E+00 0. -1.
         11    1    3    3    0    0  0.22908086526E+02 -0.11822241602E+02 -0.13465975324E+02  0.29083987286E+02  0.51100000000E-03 0. -1.
        -11    1    3    3    0    0 -0.18071997457E+02  0.10149046211E+01  0.12795731301E+02  0.22166593407E+02  0.51100000000E-03 0.  1.
         12    1    3    3    0    0  0.12622061733E+02  0.16473387217E+02  0.43836041894E+01  0.21210962130E+02  0.00000000000E+00 0. -1.
</event>
<event>
 7    1  0.1345786E-013  0.7246159E+02  0.7816164E-02  0.1226708E+00
        -11   -1    0    0    0    0  0.00000000000E+00  0.00000000000E+00  0.45593999997E+02  0.45594000000E+02  0.51100000000E-03 0.  1.
         11   -1    0    0    0    0 -0.00000000000E+00 -0.00000000000E+00 -0.45593999997E+02  0.45594000000E+02  0.51100000000E-03 0. -1.
    9900012    2    1    2    0    0 -0.15437276465E+02 -0.93046348439E+01 -0.50786581780E+01  0.72461588087E+02  0.70000023179E+02 0.  0.
         12    1    1    2    0    0  0.15437276465E+02  0.93046348439E+01  0.50786581780E+01  0.18726411913E+02  0.00000000000E+00 0. -1.
         11    1    3    3    0    0 -0.23233359154E+02 -0.12543854524E+01 -0.61806960537E+01  0.24074124375E+02  0.51100000000E-03 0. -1.
        -11    1    3    3    0    0  0.10079577078E+02  0.15244238828E+02  0.12710512218E+02  0.22260768464E+02  0.51100000000E-03 0.  1.
        -12    1    3    3    0    0 -0.22834943892E+01 -0.23294488219E+02 -0.11608474342E+02  0.26126695248E+02  0.00000000000E+00 0.  1.
</event>
<event>
 7    1  0.1345786E-013  0.7246156E+02  0.7816164E-02  0.1226708E+00
        -11   -1    0    0    0    0  0.00000000000E+00  0.00000000000E+00  0.45593999997E+02  0.45594000000E+02  0.51100000000E-03 0.  1.
         11   -1    0    0    0    0 -0.00000000000E+00 -0.00000000000E+00 -0.45593999997E+02  0.45594000000E+02  0.51100000000E-03 0. -1.
    9900012    2    1    2    0    0  0.33489564878E+00  0.17653446193E+02 -0.62388341574E+01  0.72461564962E+02  0.69999993054E+02 0.  0.
         12    1    1    2    0    0 -0.33489564878E+00 -0.17653446193E+02  0.62388341574E+01  0.18726435038E+02  0.00000000000E+00 0. -1.
         11    1    3    3    0    0 -0.22787055710E+02 -0.79175970835E+01  0.51877374399E+01  0.24674903678E+02  0.51100000000E-03 0. -1.
        -11    1    3    3    0    0  0.22652653869E+02  0.30753239062E+02 -0.15457239162E+02  0.41204741024E+02  0.51100000000E-03 0.  1.
         12    1    3    3    0    0  0.46929748961E+00 -0.51821957854E+01  0.40306675650E+01  0.65819202601E+01  0.00000000000E+00 0. -1.
</event>
<event>
 7    1  0.1345786E-013  0.7246161E+02  0.7816164E-02  0.1226708E+00
        -11   -1    0    0    0    0  0.00000000000E+00  0.00000000000E+00  0.45593999997E+02  0.45594000000E+02  0.51100000000E-03 0.  1.
         11   -1    0    0    0    0 -0.00000000000E+00 -0.00000000000E+00 -0.45593999997E+02  0.45594000000E+02  0.51100000000E-03 0. -1.
    9900012    2    1    2    0    0  0.15454560652E+02 -0.73927612412E+01  0.75618238628E+01  0.72461613701E+02  0.70000056545E+02 0.  0.
         12    1    1    2    0    0 -0.15454560652E+02  0.73927612412E+01 -0.75618238628E+01  0.18726386299E+02  0.00000000000E+00 0. -1.
         11    1    3    3    0    0  0.12771937285E+02 -0.12776585525E+02 -0.17171624005E+02  0.24924449661E+02  0.51100000000E-03 0. -1.
        -11    1    3    3    0    0 -0.15393309697E+02 -0.73191388586E+01  0.17148276492E+02  0.24178237404E+02  0.51100000000E-03 0.  1.
         12    1    3    3    0    0  0.18075933064E+02  0.12702963142E+02  0.75851713765E+01  0.23358926635E+02  0.00000000000E+00 0. -1.
</event>
<event>
 7    1  0.1345786E-013  0.7246172E+02  0.7816164E-02  0.1226708E+00
        -11   -1    0    0    0    0  0.00000000000E+00  0.00000000000E+00  0.45593999997E+02  0.45594000000E+02  0.51100000000E-03 0.  1.
         11   -1    0    0    0    0 -0.00000000000E+00 -0.00000000000E+00 -0.45593999997E+02  0.45594000000E+02  0.51100000000E-03 0. -1.
    9900012    2    1    2    0    0 -0.91667812878E+01  0.16325941399E+02 -0.32775082352E+00  0.72461717338E+02  0.70000191551E+02 0.  0.
         12    1    1    2    0    0  0.91667812878E+01 -0.16325941399E+02  0.32775082352E+00  0.18726282662E+02  0.00000000000E+00 0. -1.
         11    1    3    3    0    0  0.12913372067E+02 -0.16758029412E+02 -0.10713517664E+02  0.23714261298E+02  0.51100000000E-03 0.  1.
        -11    1    3    3    0    0 -0.26307258424E+02  0.33091668060E+02  0.60728314983E+01  0.42708425673E+02  0.51100000000E-03 0. -1.
        -12    1    3    3    0    0  0.42271050688E+01 -0.76972487718E-02  0.43129353417E+01  0.60390303669E+01  0.00000000000E+00 0.  1.
</event>
<event>
 8    1  0.1345786E-013  0.7246156E+02  0.7816164E-02  0.1226708E+00
        -11   -1    0    0    0    0  0.00000000000E+00  0.00000000000E+00  0.45593999997E+02  0.45594000000E+02  0.51100000000E-03 0. -1.
         11   -1    0    0    0    0 -0.00000000000E+00 -0.00000000000E+00 -0.45593999997E+02  0.45594000000E+02  0.51100000000E-03 0.  1.
    9900012    2    1    2    0    0 -0.29586598075E+01 -0.17883771440E+02  0.47007002195E+01  0.72461560634E+02  0.69999987416E+02 0.  0.
         24    2    3    3    0    0 -0.17413343417E+00 -0.20127162963E+02  0.19636483383E+02  0.57103695821E+02  0.49700176915E+02 0.  0.
         12    1    1    2    0    0  0.29586598075E+01  0.17883771440E+02 -0.47007002195E+01  0.18726439366E+02  0.00000000000E+00 0. -1.
         11    1    3    3    0    0 -0.27845263733E+01  0.22433915237E+01 -0.14935783163E+02  0.15357864813E+02  0.51100000000E-03 0.  1.
        -11    1    4    4    0    0 -0.13666163547E+02 -0.20425821603E+02  0.30930944353E+02  0.39505715195E+02  0.51100000000E-03 0. -1.
         12    1    4    4    0    0  0.13492030112E+02  0.29865863943E+00 -0.11294460970E+02  0.17597980627E+02  0.00000000000E+00 0. -1.
</event>
<event>
 7    1  0.1345786E-013  0.7246156E+02  0.7816164E-02  0.1226708E+00
        -11   -1    0    0    0    0  0.00000000000E+00  0.00000000000E+00  0.45593999997E+02  0.45594000000E+02  0.51100000000E-03 0.  1.
         11   -1    0    0    0    0 -0.00000000000E+00 -0.00000000000E+00 -0.45593999997E+02  0.45594000000E+02  0.51100000000E-03 0. -1.
    9900012    2    1    2    0    0 -0.66370911733E+01 -0.17454847816E+02  0.13988422823E+01  0.72461562772E+02  0.69999990200E+02 0.  0.
         12    1    1    2    0    0  0.66370911733E+01  0.17454847816E+02 -0.13988422823E+01  0.18726437228E+02  0.00000000000E+00 0. -1.
         11    1    3    3    0    0  0.10335987280E+01 -0.18399109304E+02  0.18459233099E+02  0.26083305703E+02  0.51100000000E-03 0.  1.
        -11    1    3    3    0    0 -0.84897278833E+01  0.12718583626E+02 -0.26945868562E+02  0.30982538337E+02  0.51100000000E-03 0. -1.
         12    1    3    3    0    0  0.81903798195E+00 -0.11774322138E+02  0.98854777448E+01  0.15395718732E+02  0.00000000000E+00 0. -1.
</event>
<event>
 7    1  0.1345786E-013  0.7246154E+02  0.7816164E-02  0.1226708E+00
        -11   -1    0    0    0    0  0.00000000000E+00  0.00000000000E+00  0.45593999997E+02  0.45594000000E+02  0.51100000000E-03 0.  1.
         11   -1    0    0    0    0 -0.00000000000E+00 -0.00000000000E+00 -0.45593999997E+02  0.45594000000E+02  0.51100000000E-03 0. -1.
    9900012    2    1    2    0    0  0.11953636021E+01  0.57096435895E+01  0.17794697513E+02  0.72461543217E+02  0.69999964727E+02 0.  0.
         12    1    1    2    0    0 -0.11953636021E+01 -0.57096435895E+01 -0.17794697513E+02  0.18726456783E+02  0.00000000000E+00 0. -1.
         11    1    3    3    0    0 -0.81897155730E+01 -0.19333441202E+02  0.26589875406E+01  0.21164205747E+02  0.51100000000E-03 0. -1.
        -11    1    3    3    0    0  0.23613359671E+02  0.17152379787E+02  0.18672388982E+02  0.34647553996E+02  0.51100000000E-03 0.  1.
         12    1    3    3    0    0 -0.14228280496E+02  0.78907050047E+01 -0.35366790099E+01  0.16649783475E+02  0.00000000000E+00 0. -1.
</event>
<event>
 7    1  0.1345786E-013  0.7246118E+02  0.7816164E-02  0.1226709E+00
        -11   -1    0    0    0    0  0.00000000000E+00  0.00000000000E+00  0.45593999997E+02  0.45594000000E+02  0.51100000000E-03 0. -1.
         11   -1    0    0    0    0 -0.00000000000E+00 -0.00000000000E+00 -0.45593999997E+02  0.45594000000E+02  0.51100000000E-03 0.  1.
    9900012    2    1    2    0    0 -0.10944935406E+02 -0.12657931368E+02 -0.84070687574E+01  0.72461183863E+02  0.69999496600E+02 0.  0.
         12    1    1    2    0    0  0.10944935406E+02  0.12657931368E+02  0.84070687574E+01  0.18726816137E+02  0.00000000000E+00 0. -1.
         11    1    3    3    0    0 -0.19961725489E+02 -0.24951164624E+02 -0.53152255079E+01  0.32392633778E+02  0.51100000000E-03 0. -1.
        -11    1    3    3    0    0  0.18906452665E+02  0.62657108366E+01  0.10250563208E+02  0.22400605594E+02  0.51100000000E-03 0.  1.
         12    1    3    3    0    0 -0.98896625806E+01  0.60275224194E+01 -0.13342406457E+02  0.17667944491E+02  0.00000000000E+00 0. -1.
</event>
<event>
 7    1  0.1345786E-013  0.7246162E+02  0.7816164E-02  0.1226708E+00
        -11   -1    0    0    0    0  0.00000000000E+00  0.00000000000E+00  0.45593999997E+02  0.45594000000E+02  0.51100000000E-03 0.  1.
         11   -1    0    0    0    0 -0.00000000000E+00 -0.00000000000E+00 -0.45593999997E+02  0.45594000000E+02  0.51100000000E-03 0. -1.
    9900012    2    1    2    0    0 -0.72581646375E+01  0.14866464197E+02  0.87740811279E+01  0.72461622581E+02  0.70000068113E+02 0.  0.
         12    1    1    2    0    0  0.72581646375E+01 -0.14866464197E+02 -0.87740811279E+01  0.18726377419E+02  0.00000000000E+00 0. -1.
         11    1    3    3    0    0 -0.18078877815E+02  0.34507016497E+02 -0.37543462822E+01  0.39136621301E+02  0.51100000000E-03 0. -1.
        -11    1    3    3    0    0  0.15006999068E+02 -0.52669598233E+01  0.61514524824E+01  0.17052602579E+02  0.51100000000E-03 0.  1.
         12    1    3    3    0    0 -0.41862858905E+01 -0.14373592477E+02  0.63769749277E+01  0.16272398701E+02  0.00000000000E+00 0. -1.
</event>
<event>
 7    1  0.1520325E-013  0.7246161E+02  0.7816164E-02  0.1226708E+00
        -11   -1    0    0    0    0  0.00000000000E+00  0.00000000000E+00  0.45593999997E+02  0.45594000000E+02  0.51100000000E-03 0. -1.
         11   -1    0    0    0    0 -0.00000000000E+00 -0.00000000000E+00 -0.45593999997E+02  0.45594000000E+02  0.51100000000E-03 0.  1.
    9900012    2    1    2    0    0  0.11834562935E+02  0.26429209014E+00 -0.14510375284E+02  0.72461608968E+02  0.70000050380E+02 0.  0.
         12    1    1    2    0    0 -0.11834562935E+02 -0.26429209014E+00  0.14510375284E+02  0.18726391032E+02  0.00000000000E+00 0. -1.
         11    1    3    3    0    0  0.10894682733E+02  0.11375355161E+02  0.13220336537E+02  0.20563805954E+02  0.51100000000E-03 0. -1.
        -11    1    3    3    0    0 -0.24713803125E+00  0.66149488188E+01 -0.32769456920E+02  0.33431361507E+02  0.51100000000E-03 0.  1.
        -12    1    3    3    0    0  0.11870182330E+01 -0.17726011890E+02  0.50387450985E+01  0.18466441508E+02  0.00000000000E+00 0.  1.
</event>
<event>
 7    1  0.1345786E-013  0.7246154E+02  0.7816164E-02  0.1226708E+00
        -11   -1    0    0    0    0  0.00000000000E+00  0.00000000000E+00  0.45593999997E+02  0.45594000000E+02  0.51100000000E-03 0. -1.
         11   -1    0    0    0    0 -0.00000000000E+00 -0.00000000000E+00 -0.45593999997E+02  0.45594000000E+02  0.51100000000E-03 0.  1.
    9900012    2    1    2    0    0 -0.41270011101E+01 -0.42928548611E+01 -0.17754423044E+02  0.72461540680E+02  0.69999961422E+02 0.  0.
         12    1    1    2    0    0  0.41270011101E+01  0.42928548611E+01  0.17754423044E+02  0.18726459320E+02  0.00000000000E+00 0. -1.
         11    1    3    3    0    0 -0.17025195745E+02  0.12315794141E+02  0.15791096619E+02  0.26284877937E+02  0.51100000000E-03 0. -1.
        -11    1    3    3    0    0  0.18762832629E+02 -0.16049584664E+02 -0.31313201617E+02  0.39876680553E+02  0.51100000000E-03 0.  1.
        -12    1    3    3    0    0 -0.58646379945E+01 -0.55906433749E+00 -0.22323180465E+01  0.62999821905E+01  0.00000000000E+00 0.  1.
</event>
<event>
 7    1  0.1345786E-013  0.7246156E+02  0.7816164E-02  0.1226708E+00
        -11   -1    0    0    0    0  0.00000000000E+00  0.00000000000E+00  0.45593999997E+02  0.45594000000E+02  0.51100000000E-03 0. -1.
         11   -1    0    0    0    0 -0.00000000000E+00 -0.00000000000E+00 -0.45593999997E+02  0.45594000000E+02  0.51100000000E-03 0.  1.
    9900012    2    1    2    0    0  0.12918751200E+01  0.15754643935E+01 -0.18615277096E+02  0.72461559582E+02  0.69999986045E+02 0.  0.
         12    1    1    2    0    0 -0.12918751200E+01 -0.15754643935E+01  0.18615277096E+02  0.18726440418E+02  0.00000000000E+00 0. -1.
         11    1    3    3    0    0  0.23355396282E+02  0.15792590344E+02  0.11449707151E+02  0.30429857695E+02  0.51100000000E-03 0. -1.
        -11    1    3    3    0    0 -0.96071008149E+01 -0.86294437887E-01 -0.15433595268E+02  0.18179650600E+02  0.51100000000E-03 0.  1.
         12    1    3    3    0    0 -0.12456420347E+02 -0.14130831513E+02 -0.14631388979E+02  0.23852051286E+02  0.00000000000E+00 0. -1.
</event>
<event>
 7    1  0.1345786E-013  0.7246157E+02  0.7816164E-02  0.1226708E+00
        -11   -1    0    0    0    0  0.00000000000E+00  0.00000000000E+00  0.45593999997E+02  0.45594000000E+02  0.51100000000E-03 0.  1.
         11   -1    0    0    0    0 -0.00000000000E+00 -0.00000000000E+00 -0.45593999997E+02  0.45594000000E+02  0.51100000000E-03 0. -1.
    9900012    2    1    2    0    0  0.10444810395E+02  0.14125084011E+02  0.64859123884E+01  0.72461571563E+02  0.70000001653E+02 0.  0.
         12    1    1    2    0    0 -0.10444810395E+02 -0.14125084011E+02 -0.64859123884E+01  0.18726428437E+02  0.00000000000E+00 0. -1.
         11    1    3    3    0    0 -0.13345862642E+02 -0.18237420276E+02 -0.15130082803E+01  0.22649607994E+02  0.51100000000E-03 0. -1.
        -11    1    3    3    0    0 -0.18495475379E+01  0.32126026614E+01  0.10275183612E+02  0.10923417070E+02  0.51100000000E-03 0.  1.
         12    1    3    3    0    0  0.25640220575E+02  0.29149901625E+02 -0.22762629434E+01  0.38888546499E+02  0.00000000000E+00 0. -1.
</event>
<event>
 7    1  0.1345786E-013  0.7246160E+02  0.7816164E-02  0.1226708E+00
        -11   -1    0    0    0    0  0.00000000000E+00  0.00000000000E+00  0.45593999997E+02  0.45594000000E+02  0.51100000000E-03 0.  1.
         11   -1    0    0    0    0 -0.00000000000E+00 -0.00000000000E+00 -0.45593999997E+02  0.45594000000E+02  0.51100000000E-03 0. -1.
    9900012    2    1    2    0    0  0.55553923356E+01  0.14415119060E+02 -0.10583959078E+02  0.72461595346E+02  0.70000032634E+02 0.  0.
         12    1    1    2    0    0 -0.55553923356E+01 -0.14415119060E+02  0.10583959078E+02  0.18726404654E+02  0.00000000000E+00 0. -1.
         11    1    3    3    0    0 -0.19135130906E+02  0.92362849938E+01  0.16559354263E+02  0.26938344588E+02  0.51100000000E-03 0. -1.
        -11    1    3    3    0    0  0.23224557889E+02  0.12006172633E+02 -0.11836726499E+02  0.28699065576E+02  0.51100000000E-03 0.  1.
         12    1    3    3    0    0  0.14659653524E+01 -0.68273385669E+01 -0.15306586841E+02  0.16824185183E+02  0.00000000000E+00 0. -1.
</event>
<event>
 7    1  0.1345786E-013  0.7246150E+02  0.7816164E-02  0.1226708E+00
        -11   -1    0    0    0    0  0.00000000000E+00  0.00000000000E+00  0.45593999997E+02  0.45594000000E+02  0.51100000000E-03 0.  1.
         11   -1    0    0    0    0 -0.00000000000E+00 -0.00000000000E+00 -0.45593999997E+02  0.45594000000E+02  0.51100000000E-03 0. -1.
    9900012    2    1    2    0    0 -0.47016611337E+01 -0.12560642799E+02  0.13069296318E+02  0.72461498159E+02  0.69999906030E+02 0.  0.
         12    1    1    2    0    0  0.47016611337E+01  0.12560642799E+02 -0.13069296318E+02  0.18726501841E+02  0.00000000000E+00 0. -1.
         11    1    3    3    0    0 -0.51326797828E+01 -0.31672956314E+00 -0.19166418388E+00  0.51460134852E+01  0.51100000000E-03 0. -1.
        -11    1    3    3    0    0 -0.96073144366E+01 -0.15797435471E+02  0.36963980488E+02  0.41330319524E+02  0.51100000000E-03 0.  1.
        -12    1    3    3    0    0  0.10038333086E+02  0.35535222353E+01 -0.23703019986E+02  0.25985165150E+02  0.00000000000E+00 0.  1.
</event>
<event>
 7    1  0.1345786E-013  0.7246166E+02  0.7816164E-02  0.1226708E+00
        -11   -1    0    0    0    0  0.00000000000E+00  0.00000000000E+00  0.45593999997E+02  0.45594000000E+02  0.51100000000E-03 0. -1.
         11   -1    0    0    0    0 -0.00000000000E+00 -0.00000000000E+00 -0.45593999997E+02  0.45594000000E+02  0.51100000000E-03 0.  1.
    9900012    2    1    2    0    0  0.15478086499E+02  0.83879724233E+01 -0.63833117894E+01  0.72461657259E+02  0.70000113288E+02 0.  0.
         12    1    1    2    0    0 -0.15478086499E+02 -0.83879724233E+01  0.63833117894E+01  0.18726342741E+02  0.00000000000E+00 0. -1.
         11    1    3    3    0    0 -0.53792645564E+01 -0.20137709976E+02  0.94545437376E+01  0.22887818764E+02  0.51100000000E-03 0. -1.
        -11    1    3    3    0    0  0.26143244271E+02  0.18113084796E+02 -0.19534892552E+02  0.37325126779E+02  0.51100000000E-03 0.  1.
        -12    1    3    3    0    0 -0.52858932153E+01  0.10412597604E+02  0.36970370246E+01  0.12248711716E+02  0.00000000000E+00 0.  1.
</event>
<event>
 7    1  0.1345786E-013  0.7246158E+02  0.7816164E-02  0.1226708E+00
        -11   -1    0    0    0    0  0.00000000000E+00  0.00000000000E+00  0.45593999997E+02  0.45594000000E+02  0.51100000000E-03 0.  1.
         11   -1    0    0    0    0 -0.00000000000E+00 -0.00000000000E+00 -0.45593999997E+02  0.45594000000E+02  0.51100000000E-03 0. -1.
    9900012    2    1    2    0    0  0.16663952428E+02  0.28940574236E+01  0.80384010028E+01  0.72461580973E+02  0.70000013911E+02 0.  0.
         12    1    1    2    0    0 -0.16663952428E+02 -0.28940574236E+01 -0.80384010028E+01  0.18726419027E+02  0.00000000000E+00 0. -1.
         11    1    3    3    0    0 -0.10281653910E+02 -0.93237691135E+01  0.32777180917E+01  0.14261434491E+02  0.51100000000E-03 0. -1.
        -11    1    3    3    0    0  0.40631437730E+02  0.16677710299E+01  0.21356723208E+01  0.40721693098E+02  0.51100000000E-03 0.  1.
        -12    1    3    3    0    0 -0.13685831393E+02  0.10550055507E+02  0.26250105903E+01  0.17478453384E+02  0.00000000000E+00 0.  1.
</event>
<event>
 7    1  0.1345786E-013  0.7246157E+02  0.7816164E-02  0.1226708E+00
        -11   -1    0    0    0    0  0.00000000000E+00  0.00000000000E+00  0.45593999997E+02  0.45594000000E+02  0.51100000000E-03 0. -1.
         11   -1    0    0    0    0 -0.00000000000E+00 -0.00000000000E+00 -0.45593999997E+02  0.45594000000E+02  0.51100000000E-03 0.  1.
    9900012    2    1    2    0    0 -0.11368525559E+01  0.69807166817E+01 -0.17339441508E+02  0.72461572927E+02  0.70000003429E+02 0.  0.
         12    1    1    2    0    0  0.11368525559E+01 -0.69807166817E+01  0.17339441508E+02  0.18726427073E+02  0.00000000000E+00 0. -1.
         11    1    3    3    0    0 -0.28480090682E+01  0.49759798738E+01  0.26766470508E+02  0.27373627364E+02  0.51100000000E-03 0. -1.
        -11    1    3    3    0    0  0.49560276945E+01 -0.25834490274E+00 -0.31106161411E+02  0.31499559212E+02  0.51100000000E-03 0.  1.
         12    1    3    3    0    0 -0.32448711821E+01  0.22630817106E+01 -0.12999750605E+02  0.13588386350E+02  0.00000000000E+00 0. -1.
</event>
<event>
 7    1  0.1345786E-013  0.7246159E+02  0.7816164E-02  0.1226708E+00
        -11   -1    0    0    0    0  0.00000000000E+00  0.00000000000E+00  0.45593999997E+02  0.45594000000E+02  0.51100000000E-03 0. -1.
         11   -1    0    0    0    0 -0.00000000000E+00 -0.00000000000E+00 -0.45593999997E+02  0.45594000000E+02  0.51100000000E-03 0.  1.
    9900012    2    1    2    0    0  0.14885763165E+02 -0.33602807792E+00 -0.11356924296E+02  0.72461585785E+02  0.70000020180E+02 0.  0.
         12    1    1    2    0    0 -0.14885763165E+02  0.33602807792E+00  0.11356924296E+02  0.18726414215E+02  0.00000000000E+00 0. -1.
         11    1    3    3    0    0 -0.17779918639E+02  0.73565741740E+01  0.13339498152E+02  0.23413391501E+02  0.51100000000E-03 0. -1.
        -11    1    3    3    0    0  0.22556796103E+02  0.71312266040E+01 -0.18615607183E+02  0.30103226976E+02  0.51100000000E-03 0.  1.
         12    1    3    3    0    0  0.10108885700E+02 -0.14823828856E+02 -0.60808152652E+01  0.18944967309E+02  0.00000000000E+00 0. -1.
</event>
<event>
 7    1  0.1345786E-013  0.7246152E+02  0.7816164E-02  0.1226708E+00
        -11   -1    0    0    0    0  0.00000000000E+00  0.00000000000E+00  0.45593999997E+02  0.45594000000E+02  0.51100000000E-03 0.  1.
         11   -1    0    0    0    0 -0.00000000000E+00 -0.00000000000E+00 -0.45593999997E+02  0.45594000000E+02  0.51100000000E-03 0. -1.
    9900012    2    1    2    0    0 -0.63769343418E+01  0.25956266432E+01  0.17414893751E+02  0.72461518920E+02  0.69999933076E+02 0.  0.
         12    1    1    2    0    0  0.63769343418E+01 -0.25956266432E+01 -0.17414893751E+02  0.18726481080E+02  0.00000000000E+00 0. -1.
         11    1    3    3    0    0 -0.32284683867E+01  0.10931710109E+01 -0.12450221785E+02  0.12908371459E+02  0.51100000000E-03 0. -1.
        -11    1    3    3    0    0  0.23884239966E+02  0.28187091213E+01  0.17801923284E+02  0.29921739801E+02  0.51100000000E-03 0.  1.
        -12    1    3    3    0    0 -0.27032705921E+02 -0.13162534890E+01  0.12063192251E+02  0.29631407660E+02  0.00000000000E+00 0.  1.
</event>
<event>
 7    1  0.1345786E-013  0.7246158E+02  0.7816164E-02  0.1226708E+00
        -11   -1    0    0    0    0  0.00000000000E+00  0.00000000000E+00  0.45593999997E+02  0.45594000000E+02  0.51100000000E-03 0. -1.
         11   -1    0    0    0    0 -0.00000000000E+00 -0.00000000000E+00 -0.45593999997E+02  0.45594000000E+02  0.51100000000E-03 0.  1.
    9900012    2    1    2    0    0  0.12745928277E+02  0.23938382297E+00 -0.13717239449E+02  0.72461584156E+02  0.70000018058E+02 0.  0.
         12    1    1    2    0    0 -0.12745928277E+02 -0.23938382297E+00  0.13717239449E+02  0.18726415844E+02  0.00000000000E+00 0. -1.
         11    1    3    3    0    0 -0.19576970105E+02 -0.12035265504E+02  0.97807225828E+01  0.24975346018E+02  0.51100000000E-03 0. -1.
        -11    1    3    3    0    0  0.27455307772E+02 -0.62533205537E+00 -0.15044230176E+02  0.31313157408E+02  0.51100000000E-03 0.  1.
        -12    1    3    3    0    0  0.48675906097E+01  0.12899981382E+02 -0.84537318560E+01  0.16173080730E+02  0.00000000000E+00 0.  1.
</event>
<event>
 7    1  0.1345786E-013  0.7246161E+02  0.7816164E-02  0.1226708E+00
        -11   -1    0    0    0    0  0.00000000000E+00  0.00000000000E+00  0.45593999997E+02  0.45594000000E+02  0.51100000000E-03 0.  1.
         11   -1    0    0    0    0 -0.00000000000E+00 -0.00000000000E+00 -0.45593999997E+02  0.45594000000E+02  0.51100000000E-03 0. -1.
    9900012    2    1    2    0    0  0.76860191493E+01  0.56388510347E+01  0.16118498064E+02  0.72461614572E+02  0.70000057680E+02 0.  0.
         12    1    1    2    0    0 -0.76860191493E+01 -0.56388510347E+01 -0.16118498064E+02  0.18726385428E+02  0.00000000000E+00 0. -1.
         11    1    3    3    0    0  0.29362995977E+02 -0.35133484194E+01  0.61799477045E+01  0.30211271138E+02  0.51100000000E-03 0. -1.
        -11    1    3    3    0    0 -0.20356088460E+02  0.58580512811E+01  0.21484817466E+02  0.30170921166E+02  0.51100000000E-03 0.  1.
         12    1    3    3    0    0 -0.13208883680E+01  0.32941481730E+01 -0.11546267106E+02  0.12079422269E+02  0.00000000000E+00 0. -1.
</event>
<event>
 7    1  0.1345786E-013  0.7246158E+02  0.7816164E-02  0.1226708E+00
        -11   -1    0    0    0    0  0.00000000000E+00  0.00000000000E+00  0.45593999997E+02  0.45594000000E+02  0.51100000000E-03 0. -1.
         11   -1    0    0    0    0 -0.00000000000E+00 -0.00000000000E+00 -0.45593999997E+02  0.45594000000E+02  0.51100000000E-03 0.  1.
    9900012    2    1    2    0    0 -0.72001080349E+00 -0.18604419535E+02  0.20089855500E+01  0.72461578432E+02  0.70000010601E+02 0.  0.
         12    1    1    2    0    0  0.72001080349E+00  0.18604419535E+02 -0.20089855500E+01  0.18726421568E+02  0.00000000000E+00 0. -1.
         11    1    3    3    0    0  0.11040484577E+02 -0.12872715291E+02  0.31890106288E+02  0.36118942094E+02  0.51100000000E-03 0. -1.
        -11    1    3    3    0    0 -0.12443885515E+01 -0.94103746943E+01 -0.15044039156E+02  0.17788388605E+02  0.51100000000E-03 0.  1.
         12    1    3    3    0    0 -0.10516106829E+02  0.36786704504E+01 -0.14837081581E+02  0.18554247734E+02  0.00000000000E+00 0. -1.
</event>
<event>
 7    1  0.1345786E-013  0.7246155E+02  0.7816164E-02  0.1226708E+00
        -11   -1    0    0    0    0  0.00000000000E+00  0.00000000000E+00  0.45593999997E+02  0.45594000000E+02  0.51100000000E-03 0. -1.
         11   -1    0    0    0    0 -0.00000000000E+00 -0.00000000000E+00 -0.45593999997E+02  0.45594000000E+02  0.51100000000E-03 0.  1.
    9900012    2    1    2    0    0  0.37635470613E+01 -0.10610503850E+02 -0.14964389323E+02  0.72461547420E+02  0.69999970202E+02 0.  0.
         12    1    1    2    0    0 -0.37635470613E+01  0.10610503850E+02  0.14964389323E+02  0.18726452580E+02  0.00000000000E+00 0. -1.
         11    1    3    3    0    0 -0.23905445445E+02  0.39529538992E+01 -0.18547351426E+02  0.30513937990E+02  0.51100000000E-03 0. -1.
        -11    1    3    3    0    0  0.21205679401E+02 -0.22900077048E+02  0.19283681948E+01  0.31270001148E+02  0.51100000000E-03 0.  1.
        -12    1    3    3    0    0  0.64633131060E+01  0.83366192984E+01  0.16545939083E+01  0.10677608282E+02  0.00000000000E+00 0.  1.
</event>
<event>
 7    1  0.1345786E-013  0.7246157E+02  0.7816164E-02  0.1226708E+00
        -11   -1    0    0    0    0  0.00000000000E+00  0.00000000000E+00  0.45593999997E+02  0.45594000000E+02  0.51100000000E-03 0.  1.
         11   -1    0    0    0    0 -0.00000000000E+00 -0.00000000000E+00 -0.45593999997E+02  0.45594000000E+02  0.51100000000E-03 0. -1.
    9900012    2    1    2    0    0 -0.31849139134E+01 -0.18002251229E+02  0.40564307399E+01  0.72461565308E+02  0.69999993504E+02 0.  0.
         12    1    1    2    0    0  0.31849139134E+01  0.18002251229E+02 -0.40564307399E+01  0.18726434692E+02  0.00000000000E+00 0. -1.
         11    1    3    3    0    0 -0.16570955408E+02 -0.23515542725E+02  0.15667865415E+02  0.32757584155E+02  0.51100000000E-03 0. -1.
        -11    1    3    3    0    0  0.12692561249E+02  0.14204487749E+02  0.60674287835E+01  0.19992055312E+02  0.51100000000E-03 0.  1.
         12    1    3    3    0    0  0.69348024536E+00 -0.86911962530E+01 -0.17678863459E+02  0.19711925841E+02  0.00000000000E+00 0. -1.
</event>
<event>
 7    1  0.1345786E-013  0.7246158E+02  0.7816164E-02  0.1226708E+00
        -11   -1    0    0    0    0  0.00000000000E+00  0.00000000000E+00  0.45593999997E+02  0.45594000000E+02  0.51100000000E-03 0. -1.
         11   -1    0    0    0    0 -0.00000000000E+00 -0.00000000000E+00 -0.45593999997E+02  0.45594000000E+02  0.51100000000E-03 0.  1.
    9900012    2    1    2    0    0  0.65426235631E+01  0.17043593563E+02  0.41699819422E+01  0.72461581388E+02  0.70000014452E+02 0.  0.
         12    1    1    2    0    0 -0.65426235631E+01 -0.17043593563E+02 -0.41699819422E+01  0.18726418612E+02  0.00000000000E+00 0. -1.
         11    1    3    3    0    0  0.15577227492E+01  0.33949365963E+02  0.18069809800E+02  0.38490310156E+02  0.51100000000E-03 0. -1.
        -11    1    3    3    0    0 -0.55842409199E+01  0.28573117803E+01 -0.90980459137E+01  0.11050901184E+02  0.51100000000E-03 0.  1.
         12    1    3    3    0    0  0.10569141734E+02 -0.19763084181E+02 -0.48017819437E+01  0.22920370048E+02  0.00000000000E+00 0. -1.
</event>
<event>
 7    1  0.1345786E-013  0.7246159E+02  0.7816164E-02  0.1226708E+00
        -11   -1    0    0    0    0  0.00000000000E+00  0.00000000000E+00  0.45593999997E+02  0.45594000000E+02  0.51100000000E-03 0.  1.
         11   -1    0    0    0    0 -0.00000000000E+00 -0.00000000000E+00 -0.45593999997E+02  0.45594000000E+02  0.51100000000E-03 0. -1.
    9900012    2    1    2    0    0  0.79702013355E+01 -0.14143992513E+02  0.93328325079E+01  0.72461590943E+02  0.70000026899E+02 0.  0.
         12    1    1    2    0    0 -0.79702013355E+01  0.14143992513E+02 -0.93328325079E+01  0.18726409057E+02  0.00000000000E+00 0. -1.
         11    1    3    3    0    0  0.24853007093E+02 -0.26949254483E+01 -0.15383826090E+02  0.29352967314E+02  0.51100000000E-03 0. -1.
        -11    1    3    3    0    0 -0.11597057523E+02  0.86756166861E+01  0.92905546118E+01  0.17206756618E+02  0.51100000000E-03 0.  1.
        -12    1    3    3    0    0 -0.52857482345E+01 -0.20124683751E+02  0.15426103986E+02  0.25901867011E+02  0.00000000000E+00 0.  1.
</event>
<event>
 7    1  0.1345786E-013  0.7246154E+02  0.7816164E-02  0.1226708E+00
        -11   -1    0    0    0    0  0.00000000000E+00  0.00000000000E+00  0.45593999997E+02  0.45594000000E+02  0.51100000000E-03 0. -1.
         11   -1    0    0    0    0 -0.00000000000E+00 -0.00000000000E+00 -0.45593999997E+02  0.45594000000E+02  0.51100000000E-03 0.  1.
    9900012    2    1    2    0    0  0.78959890362E+00 -0.92445659324E+01 -0.16266374825E+02  0.72461537022E+02  0.69999956657E+02 0.  0.
         12    1    1    2    0    0 -0.78959890362E+00  0.92445659324E+01  0.16266374825E+02  0.18726462978E+02  0.00000000000E+00 0. -1.
         11    1    3    3    0    0  0.19033852599E+02 -0.93986360261E+01  0.13122164530E+02  0.24956223795E+02  0.51100000000E-03 0. -1.
        -11    1    3    3    0    0 -0.54731411532E+01  0.13806176082E+02 -0.23692321596E+02  0.27962329570E+02  0.51100000000E-03 0.  1.
         12    1    3    3    0    0 -0.12771112542E+02 -0.13652105988E+02 -0.56962177591E+01  0.19542983657E+02  0.00000000000E+00 0. -1.
</event>
<event>
 7    1  0.1345786E-013  0.7246160E+02  0.7816164E-02  0.1226708E+00
        -11   -1    0    0    0    0  0.00000000000E+00  0.00000000000E+00  0.45593999997E+02  0.45594000000E+02  0.51100000000E-03 0.  1.
         11   -1    0    0    0    0 -0.00000000000E+00 -0.00000000000E+00 -0.45593999997E+02  0.45594000000E+02  0.51100000000E-03 0. -1.
    9900012    2    1    2    0    0  0.20170964886E+01 -0.13642457737E+02  0.12668578990E+02  0.72461595513E+02  0.70000032852E+02 0.  0.
         12    1    1    2    0    0 -0.20170964886E+01  0.13642457737E+02 -0.12668578990E+02  0.18726404487E+02  0.00000000000E+00 0. -1.
         11    1    3    3    0    0  0.49188629254E+01 -0.23221463183E+02  0.26731085641E+01  0.23886755211E+02  0.51100000000E-03 0. -1.
        -11    1    3    3    0    0  0.12296393436E+02  0.22323470556E+02 -0.17109832619E+01  0.25543415848E+02  0.51100000000E-03 0.  1.
         12    1    3    3    0    0 -0.15198159872E+02 -0.12744465110E+02  0.11706453688E+02  0.23031424455E+02  0.00000000000E+00 0. -1.
</event>
<event>
 7    1  0.1345786E-013  0.7246159E+02  0.7816164E-02  0.1226708E+00
        -11   -1    0    0    0    0  0.00000000000E+00  0.00000000000E+00  0.45593999997E+02  0.45594000000E+02  0.51100000000E-03 0. -1.
         11   -1    0    0    0    0 -0.00000000000E+00 -0.00000000000E+00 -0.45593999997E+02  0.45594000000E+02  0.51100000000E-03 0.  1.
    9900012    2    1    2    0    0 -0.14540323406E+02  0.11285159025E+02 -0.34500324440E+01  0.72461587027E+02  0.70000021798E+02 0.  0.
         12    1    1    2    0    0  0.14540323406E+02 -0.11285159025E+02  0.34500324440E+01  0.18726412973E+02  0.00000000000E+00 0. -1.
         11    1    3    3    0    0 -0.16817359672E+02 -0.18356636894E+02 -0.66647375284E+01  0.25772241482E+02  0.51100000000E-03 0. -1.
        -11    1    3    3    0    0  0.15203375637E+02  0.26359891816E+02  0.95927484141E+01  0.31906227444E+02  0.51100000000E-03 0.  1.
         12    1    3    3    0    0 -0.12926339371E+02  0.32819041033E+01 -0.63780433297E+01  0.14783118101E+02  0.00000000000E+00 0. -1.
</event>
<event>
 7    1  0.1345786E-013  0.7246158E+02  0.7816164E-02  0.1226708E+00
        -11   -1    0    0    0    0  0.00000000000E+00  0.00000000000E+00  0.45593999997E+02  0.45594000000E+02  0.51100000000E-03 0. -1.
         11   -1    0    0    0    0 -0.00000000000E+00 -0.00000000000E+00 -0.45593999997E+02  0.45594000000E+02  0.51100000000E-03 0.  1.
    9900012    2    1    2    0    0 -0.40105529371E+01  0.64918022749E+01 -0.17101194828E+02  0.72461577592E+02  0.70000009507E+02 0.  0.
         12    1    1    2    0    0  0.40105529371E+01 -0.64918022749E+01  0.17101194828E+02  0.18726422408E+02  0.00000000000E+00 0. -1.
         11    1    3    3    0    0 -0.91433942036E+01 -0.26566046704E+02  0.21266927544E+01  0.28175864093E+02  0.51100000000E-03 0. -1.
        -11    1    3    3    0    0  0.13004078766E+02  0.17850398006E+02 -0.14843337768E+02  0.26609536822E+02  0.51100000000E-03 0.  1.
         12    1    3    3    0    0 -0.78712374991E+01  0.15207450973E+02 -0.43845498147E+01  0.17676176677E+02  0.00000000000E+00 0. -1.
</event>
<event>
 7    1  0.1345786E-013  0.7246157E+02  0.7816164E-02  0.1226708E+00
        -11   -1    0    0    0    0  0.00000000000E+00  0.00000000000E+00  0.45593999997E+02  0.45594000000E+02  0.51100000000E-03 0.  1.
         11   -1    0    0    0    0 -0.00000000000E+00 -0.00000000000E+00 -0.45593999997E+02  0.45594000000E+02  0.51100000000E-03 0. -1.
    9900012    2    1    2    0    0  0.34858238115E+01  0.17528819885E+02  0.55918470672E+01  0.72461568203E+02  0.69999997276E+02 0.  0.
         12    1    1    2    0    0 -0.34858238115E+01 -0.17528819885E+02 -0.55918470672E+01  0.18726431797E+02  0.00000000000E+00 0. -1.
         11    1    3    3    0    0 -0.11288326332E+02 -0.17508807435E+02 -0.10901897967E+02  0.23512465390E+02  0.51100000000E-03 0. -1.
        -11    1    3    3    0    0 -0.28525265644E+01  0.13003811399E+02 -0.41973002168E+01  0.13958988075E+02  0.51100000000E-03 0.  1.
         12    1    3    3    0    0  0.17626676708E+02  0.22033815921E+02  0.20691045251E+02  0.34990114738E+02  0.00000000000E+00 0. -1.
</event>
<event>
 7    1  0.1345786E-013  0.7246154E+02  0.7816164E-02  0.1226708E+00
        -11   -1    0    0    0    0  0.00000000000E+00  0.00000000000E+00  0.45593999997E+02  0.45594000000E+02  0.51100000000E-03 0. -1.
         11   -1    0    0    0    0 -0.00000000000E+00 -0.00000000000E+00 -0.45593999997E+02  0.45594000000E+02  0.51100000000E-03 0.  1.
    9900012    2    1    2    0    0  0.11405512537E+01 -0.13235349348E+02 -0.13198674037E+02  0.72461539420E+02  0.69999959780E+02 0.  0.
         12    1    1    2    0    0 -0.11405512537E+01  0.13235349348E+02  0.13198674037E+02  0.18726460580E+02  0.00000000000E+00 0. -1.
         11    1    3    3    0    0 -0.97615892348E+01  0.51099107326E+01  0.19251733171E+02  0.22181727670E+02  0.51100000000E-03 0. -1.
        -11    1    3    3    0    0  0.18244734362E+02 -0.23262183406E+02 -0.25347924579E+02  0.38942480525E+02  0.51100000000E-03 0.  1.
        -12    1    3    3    0    0 -0.73425938740E+01  0.49169233254E+01 -0.71024826295E+01  0.11337331224E+02  0.00000000000E+00 0.  1.
</event>
<event>
 7    1  0.1345786E-013  0.7246162E+02  0.7816164E-02  0.1226708E+00
        -11   -1    0    0    0    0  0.00000000000E+00  0.00000000000E+00  0.45593999997E+02  0.45594000000E+02  0.51100000000E-03 0. -1.
         11   -1    0    0    0    0 -0.00000000000E+00 -0.00000000000E+00 -0.45593999997E+02  0.45594000000E+02  0.51100000000E-03 0.  1.
    9900012    2    1    2    0    0 -0.11316709398E+01 -0.25485123301E+01 -0.18517605937E+02  0.72461619575E+02  0.70000064197E+02 0.  0.
         12    1    1    2    0    0  0.11316709398E+01  0.25485123301E+01  0.18517605937E+02  0.18726380425E+02  0.00000000000E+00 0. -1.
         11    1    3    3    0    0 -0.49955626791E+01 -0.11360025922E+02  0.21714741841E+02  0.25010714682E+02  0.51100000000E-03 0. -1.
        -11    1    3    3    0    0  0.99154508145E+01  0.11157837304E+02 -0.14131328698E+02  0.20554998156E+02  0.51100000000E-03 0.  1.
        -12    1    3    3    0    0 -0.60515590752E+01 -0.23463237116E+01 -0.26101019080E+02  0.26895906737E+02  0.00000000000E+00 0.  1.
</event>
<event>
 7    1  0.1345786E-013  0.7246157E+02  0.7816164E-02  0.1226708E+00
        -11   -1    0    0    0    0  0.00000000000E+00  0.00000000000E+00  0.45593999997E+02  0.45594000000E+02  0.51100000000E-03 0.  1.
         11   -1    0    0    0    0 -0.00000000000E+00 -0.00000000000E+00 -0.45593999997E+02  0.45594000000E+02  0.51100000000E-03 0. -1.
    9900012    2    1    2    0    0  0.40797118095E+01  0.15630652993E+02  0.94719576256E+01  0.72461565671E+02  0.69999993977E+02 0.  0.
         12    1    1    2    0    0 -0.40797118095E+01 -0.15630652993E+02 -0.94719576256E+01  0.18726434329E+02  0.00000000000E+00 0. -1.
         11    1    3    3    0    0 -0.19393551821E+02  0.21748446877E+02  0.11336844270E+02  0.31267056658E+02  0.51100000000E-03 0. -1.
        -11    1    3    3    0    0  0.23215120748E+02 -0.12436261422E+02 -0.12241879232E+02  0.29042486755E+02  0.51100000000E-03 0.  1.
         12    1    3    3    0    0  0.25814288229E+00  0.63184675379E+01  0.10376992588E+02  0.12152022258E+02  0.00000000000E+00 0. -1.
</event>
<event>
 7    1  0.1345786E-013  0.7246153E+02  0.7816164E-02  0.1226708E+00
        -11   -1    0    0    0    0  0.00000000000E+00  0.00000000000E+00  0.45593999997E+02  0.45594000000E+02  0.51100000000E-03 0.  1.
         11   -1    0    0    0    0 -0.00000000000E+00 -0.00000000000E+00 -0.45593999997E+02  0.45594000000E+02  0.51100000000E-03 0. -1.
    9900012    2    1    2    0    0 -0.30844125185E+01  0.83149992219E+01  0.16493264195E+02  0.72461532729E+02  0.69999951064E+02 0.  0.
         12    1    1    2    0    0  0.30844125185E+01 -0.83149992219E+01 -0.16493264195E+02  0.18726467271E+02  0.00000000000E+00 0. -1.
         11    1    3    3    0    0 -0.10347391735E+02  0.19591414614E+02 -0.10340181789E+02  0.24450182044E+02  0.51100000000E-03 0. -1.
        -11    1    3    3    0    0 -0.14135483752E+02  0.60594827909E+00  0.15661656250E+02  0.21106078532E+02  0.51100000000E-03 0.  1.
         12    1    3    3    0    0  0.21398462968E+02 -0.11882363671E+02  0.11171789734E+02  0.26905272154E+02  0.00000000000E+00 0. -1.
</event>
<event>
 7    1  0.1345786E-013  0.7246158E+02  0.7816164E-02  0.1226708E+00
        -11   -1    0    0    0    0  0.00000000000E+00  0.00000000000E+00  0.45593999997E+02  0.45594000000E+02  0.51100000000E-03 0. -1.
         11   -1    0    0    0    0 -0.00000000000E+00 -0.00000000000E+00 -0.45593999997E+02  0.45594000000E+02  0.51100000000E-03 0.  1.
    9900012    2    1    2    0    0  0.31148371172E+00  0.18684756937E+02 -0.12089233903E+01  0.72461583908E+02  0.70000017734E+02 0.  0.
         12    1    1    2    0    0 -0.31148371172E+00 -0.18684756937E+02  0.12089233903E+01  0.18726416092E+02  0.00000000000E+00 0. -1.
         11    1    3    3    0    0  0.12245337726E+02 -0.63826087860E+01  0.13630000366E+02  0.19402651911E+02  0.51100000000E-03 0. -1.
        -11    1    3    3    0    0 -0.13763179746E+02  0.36053382357E+02 -0.16171074241E+02  0.41842264978E+02  0.51100000000E-03 0.  1.
         12    1    3    3    0    0  0.18293257318E+01 -0.10986016634E+02  0.13321504845E+01  0.11216667020E+02  0.00000000000E+00 0. -1.
</event>
<event>
 7    1  0.1345786E-013  0.7246118E+02  0.7816164E-02  0.1226709E+00
        -11   -1    0    0    0    0  0.00000000000E+00  0.00000000000E+00  0.45593999997E+02  0.45594000000E+02  0.51100000000E-03 0. -1.
         11   -1    0    0    0    0 -0.00000000000E+00 -0.00000000000E+00 -0.45593999997E+02  0.45594000000E+02  0.51100000000E-03 0.  1.
    9900012    2    1    2    0    0 -0.51959297190E+01 -0.61597172702E+01 -0.16904260081E+02  0.72461179358E+02  0.69999490731E+02 0.  0.
         12    1    1    2    0    0  0.51959297190E+01  0.61597172702E+01  0.16904260081E+02  0.18726820642E+02  0.00000000000E+00 0. -1.
         11    1    3    3    0    0 -0.16708244416E+02  0.14882149553E+02 -0.13597164246E+02  0.26182564477E+02  0.51100000000E-03 0. -1.
        -11    1    3    3    0    0  0.14657114445E+02 -0.39017086738E+01  0.14769169723E+02  0.21170326143E+02  0.51100000000E-03 0.  1.
         12    1    3    3    0    0 -0.31447997480E+01 -0.17140158149E+02 -0.18076265558E+02  0.25108288738E+02  0.00000000000E+00 0. -1.
</event>
<event>
 7    1  0.1345786E-013  0.7246159E+02  0.7816164E-02  0.1226708E+00
        -11   -1    0    0    0    0  0.00000000000E+00  0.00000000000E+00  0.45593999997E+02  0.45594000000E+02  0.51100000000E-03 0.  1.
         11   -1    0    0    0    0 -0.00000000000E+00 -0.00000000000E+00 -0.45593999997E+02  0.45594000000E+02  0.51100000000E-03 0. -1.
    9900012    2    1    2    0    0 -0.13536739009E+02 -0.11523141545E+02  0.58866120511E+01  0.72461593631E+02  0.70000030401E+02 0.  0.
         12    1    1    2    0    0  0.13536739009E+02  0.11523141545E+02 -0.58866120511E+01  0.18726406369E+02  0.00000000000E+00 0. -1.
         11    1    3    3    0    0 -0.20529221827E+02  0.11788980956E+02  0.20041915959E+02  0.31017856412E+02  0.51100000000E-03 0. -1.
        -11    1    3    3    0    0 -0.11607598428E+02 -0.13764133237E+02 -0.74704174583E+01  0.19493456397E+02  0.51100000000E-03 0.  1.
         12    1    3    3    0    0  0.18600081246E+02 -0.95479892638E+01 -0.66848864497E+01  0.21950280823E+02  0.00000000000E+00 0. -1.
</event>
<event>
 7    1  0.1345786E-013  0.7246158E+02  0.7816164E-02  0.1226708E+00
        -11   -1    0    0    0    0  0.00000000000E+00  0.00000000000E+00  0.45593999997E+02  0.45594000000E+02  0.51100000000E-03 0. -1.
         11   -1    0    0    0    0 -0.00000000000E+00 -0.00000000000E+00 -0.45593999997E+02  0.45594000000E+02  0.51100000000E-03 0.  1.
    9900012    2    1    2    0    0 -0.15522080904E+02 -0.10348422842E+02  0.16291084296E+01  0.72461578955E+02  0.70000011282E+02 0.  0.
         12    1    1    2    0    0  0.15522080904E+02  0.10348422842E+02 -0.16291084296E+01  0.18726421045E+02  0.00000000000E+00 0. -1.
         11    1    3    3    0    0 -0.13546184103E+02 -0.76734712359E+01  0.26621167688E+02  0.30839387703E+02  0.51100000000E-03 0. -1.
        -11    1    3    3    0    0  0.12927992047E-01 -0.17392798832E+02 -0.18565141171E+02  0.25439616454E+02  0.51100000000E-03 0.  1.
         12    1    3    3    0    0 -0.19888247928E+01  0.14717847226E+02 -0.64269180868E+01  0.16182574799E+02  0.00000000000E+00 0. -1.
</event>
<event>
 7    1  0.1345786E-013  0.7246157E+02  0.7816164E-02  0.1226708E+00
        -11   -1    0    0    0    0  0.00000000000E+00  0.00000000000E+00  0.45593999997E+02  0.45594000000E+02  0.51100000000E-03 0. -1.
         11   -1    0    0    0    0 -0.00000000000E+00 -0.00000000000E+00 -0.45593999997E+02  0.45594000000E+02  0.51100000000E-03 0.  1.
    9900012    2    1    2    0    0  0.65851221156E+01 -0.12253838581E+02 -0.12536298077E+02  0.72461570476E+02  0.70000000237E+02 0.  0.
         12    1    1    2    0    0 -0.65851221156E+01  0.12253838581E+02  0.12536298077E+02  0.18726429524E+02  0.00000000000E+00 0. -1.
         11    1    3    3    0    0  0.21025397708E+02 -0.24713173313E+02 -0.25872225602E+02  0.41499160736E+02  0.51100000000E-03 0.  1.
        -11    1    3    3    0    0 -0.13994271134E+02  0.17400484040E+02  0.81107774318E+01  0.23757129040E+02  0.51100000000E-03 0. -1.
        -12    1    3    3    0    0 -0.44600445800E+00 -0.49411493082E+01  0.52251500934E+01  0.72052806997E+01  0.00000000000E+00 0.  1.
</event>
<event>
 7    1  0.1345786E-013  0.7246158E+02  0.7816164E-02  0.1226708E+00
        -11   -1    0    0    0    0  0.00000000000E+00  0.00000000000E+00  0.45593999997E+02  0.45594000000E+02  0.51100000000E-03 0. -1.
         11   -1    0    0    0    0 -0.00000000000E+00 -0.00000000000E+00 -0.45593999997E+02  0.45594000000E+02  0.51100000000E-03 0.  1.
    9900012    2    1    2    0    0  0.80850130494E+00 -0.18390039547E+02 -0.34396825147E+01  0.72461584307E+02  0.70000018254E+02 0.  0.
         12    1    1    2    0    0 -0.80850130494E+00  0.18390039547E+02  0.34396825147E+01  0.18726415693E+02  0.00000000000E+00 0. -1.
         11    1    3    3    0    0 -0.14822076117E+01 -0.32889064792E+02  0.13800610254E+02  0.35697960248E+02  0.51100000000E-03 0. -1.
        -11    1    3    3    0    0  0.14782626188E+02  0.11819426059E+02 -0.63130314493E+01  0.19951923109E+02  0.51100000000E-03 0.  1.
        -12    1    3    3    0    0 -0.12491917271E+02  0.26795991850E+01 -0.10927261319E+02  0.16811700950E+02  0.00000000000E+00 0.  1.
</event>
<event>
 7    1  0.1345786E-013  0.7246161E+02  0.7816164E-02  0.1226708E+00
        -11   -1    0    0    0    0  0.00000000000E+00  0.00000000000E+00  0.45593999997E+02  0.45594000000E+02  0.51100000000E-03 0.  1.
         11   -1    0    0    0    0 -0.00000000000E+00 -0.00000000000E+00 -0.45593999997E+02  0.45594000000E+02  0.51100000000E-03 0. -1.
    9900012    2    1    2    0    0 -0.20102922024E+01  0.18494166291E+02  0.21452430618E+01  0.72461614087E+02  0.70000057049E+02 0.  0.
         12    1    1    2    0    0  0.20102922024E+01 -0.18494166291E+02 -0.21452430618E+01  0.18726385913E+02  0.00000000000E+00 0. -1.
         11    1    3    3    0    0 -0.15109826213E+02 -0.17882080011E+02 -0.13769277045E+02  0.27160055676E+02  0.51100000000E-03 0.  1.
        -11    1    3    3    0    0  0.15643143378E+02  0.20699907751E+02  0.61718554397E+01  0.26669944047E+02  0.51100000000E-03 0. -1.
         12    1    3    3    0    0 -0.25436093675E+01  0.15676338552E+02  0.97426646673E+01  0.18631614365E+02  0.00000000000E+00 0. -1.
</event>
<event>
 7    1  0.1345786E-013  0.7246157E+02  0.7816164E-02  0.1226708E+00
        -11   -1    0    0    0    0  0.00000000000E+00  0.00000000000E+00  0.45593999997E+02  0.45594000000E+02  0.51100000000E-03 0.  1.
         11   -1    0    0    0    0 -0.00000000000E+00 -0.00000000000E+00 -0.45593999997E+02  0.45594000000E+02  0.51100000000E-03 0. -1.
    9900012    2    1    2    0    0  0.16181572807E+01 -0.15789355247E+02  0.99376518010E+01  0.72461572273E+02  0.70000002578E+02 0.  0.
         12    1    1    2    0    0 -0.16181572807E+01  0.15789355247E+02 -0.99376518010E+01  0.18726427727E+02  0.00000000000E+00 0. -1.
         11    1    3    3    0    0 -0.83251184108E+00 -0.22148955913E+01  0.32351864531E+02  0.32438279506E+02  0.51100000000E-03 0.  1.
        -11    1    3    3    0    0 -0.33525802368E+01 -0.74367487684E+01 -0.28479262970E+02  0.29624541281E+02  0.51100000000E-03 0. -1.
         12    1    3    3    0    0  0.58032493585E+01 -0.61377108871E+01  0.60650502404E+01  0.10398751486E+02  0.00000000000E+00 0. -1.
</event>
<event>
 7    1  0.1345786E-013  0.7246158E+02  0.7816164E-02  0.1226708E+00
        -11   -1    0    0    0    0  0.00000000000E+00  0.00000000000E+00  0.45593999997E+02  0.45594000000E+02  0.51100000000E-03 0. -1.
         11   -1    0    0    0    0 -0.00000000000E+00 -0.00000000000E+00 -0.45593999997E+02  0.45594000000E+02  0.51100000000E-03 0.  1.
    9900012    2    1    2    0    0 -0.10945464561E+01 -0.13482175514E+02  0.12950353754E+02  0.72461581472E+02  0.70000014561E+02 0.  0.
         12    1    1    2    0    0  0.10945464561E+01  0.13482175514E+02 -0.12950353754E+02  0.18726418528E+02  0.00000000000E+00 0. -1.
         11    1    3    3    0    0 -0.15961376952E+02 -0.26965390604E+02 -0.30590297189E+00  0.31336742357E+02  0.51100000000E-03 0. -1.
        -11    1    3    3    0    0 -0.11573073236E+01  0.13318574079E+02  0.19737437929E+02  0.23838838730E+02  0.51100000000E-03 0.  1.
        -12    1    3    3    0    0  0.16024137819E+02  0.16464101111E+00 -0.64811812029E+01  0.17286000385E+02  0.00000000000E+00 0.  1.
</event>
<event>
 7    1  0.1345786E-013  0.7246155E+02  0.7816164E-02  0.1226708E+00
        -11   -1    0    0    0    0  0.00000000000E+00  0.00000000000E+00  0.45593999997E+02  0.45594000000E+02  0.51100000000E-03 0.  1.
         11   -1    0    0    0    0 -0.00000000000E+00 -0.00000000000E+00 -0.45593999997E+02  0.45594000000E+02  0.51100000000E-03 0. -1.
    9900012    2    1    2    0    0  0.11833954821E+02  0.14466958084E+02  0.11595656152E+01  0.72461549313E+02  0.69999972668E+02 0.  0.
         12    1    1    2    0    0 -0.11833954821E+02 -0.14466958084E+02 -0.11595656152E+01  0.18726450687E+02  0.00000000000E+00 0. -1.
         11    1    3    3    0    0  0.15403984300E+01 -0.20445918445E+02 -0.75954376757E+01  0.21865476947E+02  0.51100000000E-03 0.  1.
        -11    1    3    3    0    0  0.15362057812E+02  0.31728296290E+02 -0.49910765440E+01  0.35603208437E+02  0.51100000000E-03 0. -1.
        -12    1    3    3    0    0 -0.50685014216E+01  0.31845802392E+01  0.13746079835E+02  0.14992863929E+02  0.00000000000E+00 0.  1.
</event>
<event>
 7    1  0.1345786E-013  0.7246158E+02  0.7816164E-02  0.1226708E+00
        -11   -1    0    0    0    0  0.00000000000E+00  0.00000000000E+00  0.45593999997E+02  0.45594000000E+02  0.51100000000E-03 0.  1.
         11   -1    0    0    0    0 -0.00000000000E+00 -0.00000000000E+00 -0.45593999997E+02  0.45594000000E+02  0.51100000000E-03 0. -1.
    9900012    2    1    2    0    0  0.19180612535E-01 -0.11074722814E+02  0.15100623737E+02  0.72461583083E+02  0.70000016660E+02 0.  0.
         12    1    1    2    0    0 -0.19180612535E-01  0.11074722814E+02 -0.15100623737E+02  0.18726416917E+02  0.00000000000E+00 0. -1.
         11    1    3    3    0    0  0.12172727807E+02  0.19361195947E+01 -0.21526257574E+02  0.24805314486E+02  0.51100000000E-03 0. -1.
        -11    1    3    3    0    0 -0.17076807705E+02 -0.43156411269E+01  0.32252032631E+02  0.36748275182E+02  0.51100000000E-03 0.  1.
         12    1    3    3    0    0  0.49232605106E+01 -0.86952012820E+01  0.43748486793E+01  0.10907993416E+02  0.00000000000E+00 0. -1.
</event>
<event>
 7    1  0.1345786E-013  0.7246148E+02  0.7816164E-02  0.1226708E+00
        -11   -1    0    0    0    0  0.00000000000E+00  0.00000000000E+00  0.45593999997E+02  0.45594000000E+02  0.51100000000E-03 0. -1.
         11   -1    0    0    0    0 -0.00000000000E+00 -0.00000000000E+00 -0.45593999997E+02  0.45594000000E+02  0.51100000000E-03 0.  1.
    9900012    2    1    2    0    0 -0.16107238444E+02  0.95463387022E+01  0.32663927011E+00  0.72461483877E+02  0.69999887425E+02 0.  0.
         12    1    1    2    0    0  0.16107238444E+02 -0.95463387022E+01 -0.32663927011E+00  0.18726516123E+02  0.00000000000E+00 0. -1.
         11    1    3    3    0    0  0.10323407390E+02 -0.22777034196E+01  0.16623196143E+02  0.19700033586E+02  0.51100000000E-03 0. -1.
        -11    1    3    3    0    0 -0.29486017536E+02  0.12336962446E+02 -0.26861735721E+02  0.41751391818E+02  0.51100000000E-03 0.  1.
        -12    1    3    3    0    0  0.30553717023E+01 -0.51292032449E+00  0.10565178848E+02  0.11010058473E+02  0.00000000000E+00 0.  1.
</event>
<event>
 7    1  0.1345786E-013  0.7246160E+02  0.7816164E-02  0.1226708E+00
        -11   -1    0    0    0    0  0.00000000000E+00  0.00000000000E+00  0.45593999997E+02  0.45594000000E+02  0.51100000000E-03 0. -1.
         11   -1    0    0    0    0 -0.00000000000E+00 -0.00000000000E+00 -0.45593999997E+02  0.45594000000E+02  0.51100000000E-03 0.  1.
    9900012    2    1    2    0    0 -0.98688707996E+01  0.46957364621E+01 -0.15206365134E+02  0.72461599054E+02  0.70000037465E+02 0.  0.
         12    1    1    2    0    0  0.98688707996E+01 -0.46957364621E+01  0.15206365134E+02  0.18726400946E+02  0.00000000000E+00 0. -1.
         11    1    3    3    0    0  0.22094895414E+02 -0.78668565601E+01  0.11813392107E+02  0.26260770530E+02  0.51100000000E-03 0. -1.
        -11    1    3    3    0    0 -0.87135818239E+01  0.58663003024E+01 -0.81735234487E+00  0.10536035903E+02  0.51100000000E-03 0.  1.
         12    1    3    3    0    0 -0.23250184389E+02  0.66962927197E+01 -0.26202404897E+02  0.35664792621E+02  0.00000000000E+00 0. -1.
</event>
<event>
 7    1  0.1345786E-013  0.7246162E+02  0.7816164E-02  0.1226708E+00
        -11   -1    0    0    0    0  0.00000000000E+00  0.00000000000E+00  0.45593999997E+02  0.45594000000E+02  0.51100000000E-03 0. -1.
         11   -1    0    0    0    0 -0.00000000000E+00 -0.00000000000E+00 -0.45593999997E+02  0.45594000000E+02  0.51100000000E-03 0.  1.
    9900012    2    1    2    0    0 -0.16919437007E+02 -0.19162920661E+01 -0.77934506615E+01  0.72461617617E+02  0.70000061647E+02 0.  0.
         12    1    1    2    0    0  0.16919437007E+02  0.19162920661E+01  0.77934506615E+01  0.18726382383E+02  0.00000000000E+00 0. -1.
         11    1    3    3    0    0 -0.19598991897E+02 -0.16405507340E+02  0.10829841038E+02  0.27758721362E+02  0.51100000000E-03 0. -1.
        -11    1    3    3    0    0  0.69327047406E-01  0.27258256910E+02 -0.98111145313E+01  0.28970249302E+02  0.51100000000E-03 0.  1.
        -12    1    3    3    0    0  0.26102278426E+01 -0.12769041636E+02 -0.88121771685E+01  0.15732646953E+02  0.00000000000E+00 0.  1.
</event>
<event>
 7    1  0.1345786E-013  0.7246156E+02  0.7816164E-02  0.1226708E+00
        -11   -1    0    0    0    0  0.00000000000E+00  0.00000000000E+00  0.45593999997E+02  0.45594000000E+02  0.51100000000E-03 0.  1.
         11   -1    0    0    0    0 -0.00000000000E+00 -0.00000000000E+00 -0.45593999997E+02  0.45594000000E+02  0.51100000000E-03 0. -1.
    9900012    2    1    2    0    0 -0.77860897357E+01 -0.39461940460E+01  0.16567552126E+02  0.72461563492E+02  0.69999991139E+02 0.  0.
         12    1    1    2    0    0  0.77860897357E+01  0.39461940460E+01 -0.16567552126E+02  0.18726436508E+02  0.00000000000E+00 0. -1.
         11    1    3    3    0    0  0.13177534229E+02  0.75969152967E+01 -0.11529802743E+02  0.19086562863E+02  0.51100000000E-03 0. -1.
        -11    1    3    3    0    0 -0.27220728018E+02 -0.13800644972E+02  0.70794775943E+01  0.31329616001E+02  0.51100000000E-03 0.  1.
         12    1    3    3    0    0  0.62571040534E+01  0.22575356297E+01  0.21017877275E+02  0.22045384628E+02  0.00000000000E+00 0. -1.
</event>
<event>
 7    1  0.1345786E-013  0.7246157E+02  0.7816164E-02  0.1226708E+00
        -11   -1    0    0    0    0  0.00000000000E+00  0.00000000000E+00  0.45593999997E+02  0.45594000000E+02  0.51100000000E-03 0.  1.
         11   -1    0    0    0    0 -0.00000000000E+00 -0.00000000000E+00 -0.45593999997E+02  0.45594000000E+02  0.51100000000E-03 0. -1.
    9900012    2    1    2    0    0 -0.53112699379E+01  0.41156556404E+01  0.17479446106E+02  0.72461568256E+02  0.69999997344E+02 0.  0.
         12    1    1    2    0    0  0.53112699379E+01 -0.41156556404E+01 -0.17479446106E+02  0.18726431744E+02  0.00000000000E+00 0. -1.
         11    1    3    3    0    0  0.11516917937E+01  0.15888523888E+02 -0.87205834500E+01  0.18160951553E+02  0.51100000000E-03 0. -1.
        -11    1    3    3    0    0  0.78874787403E+01 -0.21635068906E+02  0.22484705141E+00  0.23029092121E+02  0.51100000000E-03 0.  1.
        -12    1    3    3    0    0 -0.14350440472E+02  0.98622006582E+01  0.25975182505E+02  0.31271524582E+02  0.00000000000E+00 0.  1.
</event>
<event>
 7    1  0.1345786E-013  0.7246121E+02  0.7816164E-02  0.1226709E+00
        -11   -1    0    0    0    0  0.00000000000E+00  0.00000000000E+00  0.45593999997E+02  0.45594000000E+02  0.51100000000E-03 0.  1.
         11   -1    0    0    0    0 -0.00000000000E+00 -0.00000000000E+00 -0.45593999997E+02  0.45594000000E+02  0.51100000000E-03 0. -1.
    9900012    2    1    2    0    0 -0.14277168441E+02 -0.54777433983E+01  0.10809690016E+02  0.72461211443E+02  0.69999532527E+02 0.  0.
         12    1    1    2    0    0  0.14277168441E+02  0.54777433983E+01 -0.10809690016E+02  0.18726788557E+02  0.00000000000E+00 0. -1.
         11    1    3    3    0    0  0.81077986781E+01  0.18974035814E+02 -0.64952815384E+01  0.21631900448E+02  0.51100000000E-03 0. -1.
        -11    1    3    3    0    0 -0.49008533773E+01 -0.28376237761E+02  0.53522775071E+01  0.29289522155E+02  0.51100000000E-03 0.  1.
        -12    1    3    3    0    0 -0.17484113742E+02  0.39244585488E+01  0.11952694048E+02  0.21539788839E+02  0.00000000000E+00 0.  1.
</event>
<event>
 7    1  0.1345786E-013  0.7246155E+02  0.7816164E-02  0.1226708E+00
        -11   -1    0    0    0    0  0.00000000000E+00  0.00000000000E+00  0.45593999997E+02  0.45594000000E+02  0.51100000000E-03 0.  1.
         11   -1    0    0    0    0 -0.00000000000E+00 -0.00000000000E+00 -0.45593999997E+02  0.45594000000E+02  0.51100000000E-03 0. -1.
    9900012    2    1    2    0    0 -0.11297926982E+00  0.13479438267E+02  0.12998915822E+02  0.72461552583E+02  0.69999976928E+02 0.  0.
         12    1    1    2    0    0  0.11297926982E+00 -0.13479438267E+02 -0.12998915822E+02  0.18726447417E+02  0.00000000000E+00 0. -1.
         11    1    3    3    0    0 -0.57344118259E+01  0.13288859552E+01 -0.19172362375E+02  0.20055644995E+02  0.51100000000E-03 0. -1.
        -11    1    3    3    0    0 -0.37348394949E+01 -0.48802715025E+01  0.32395229318E+02  0.32972973157E+02  0.51100000000E-03 0.  1.
         12    1    3    3    0    0  0.93562720510E+01  0.17030823815E+02 -0.22395112133E+00  0.19432934431E+02  0.00000000000E+00 0. -1.
</event>
<event>
 7    1  0.1345786E-013  0.7246161E+02  0.7816164E-02  0.1226708E+00
        -11   -1    0    0    0    0  0.00000000000E+00  0.00000000000E+00  0.45593999997E+02  0.45594000000E+02  0.51100000000E-03 0.  1.
         11   -1    0    0    0    0 -0.00000000000E+00 -0.00000000000E+00 -0.45593999997E+02  0.45594000000E+02  0.51100000000E-03 0. -1.
    9900012    2    1    2    0    0 -0.13800669841E+01  0.17381391464E+02  0.68308234950E+01  0.72461614772E+02  0.70000057940E+02 0.  0.
         12    1    1    2    0    0  0.13800669841E+01 -0.17381391464E+02 -0.68308234950E+01  0.18726385228E+02  0.00000000000E+00 0. -1.
         11    1    3    3    0    0  0.73483947901E+01  0.30401890552E+02  0.29579620181E+02  0.43049132226E+02  0.51100000000E-03 0.  1.
        -11    1    3    3    0    0 -0.41020714436E+01 -0.11183755238E+02 -0.20987274181E+02  0.24132323741E+02  0.51100000000E-03 0. -1.
        -12    1    3    3    0    0 -0.46263903306E+01 -0.18367438497E+01 -0.17615225051E+01  0.52801588041E+01  0.00000000000E+00 0.  1.
</event>
<event>
 8    1  0.1345786E-013  0.7246158E+02  0.7816164E-02  0.1226708E+00
        -11   -1    0    0    0    0  0.00000000000E+00  0.00000000000E+00  0.45593999997E+02  0.45594000000E+02  0.51100000000E-03 0.  1.
         11   -1    0    0    0    0 -0.00000000000E+00 -0.00000000000E+00 -0.45593999997E+02  0.45594000000E+02  0.51100000000E-03 0. -1.
    9900012    2    1    2    0    0  0.11861329018E+02  0.13890006292E+02  0.41298036574E+01  0.72461583388E+02  0.70000017057E+02 0.  0.
         24    2    3    3    0    0  0.26222911586E+02  0.14546602608E+02  0.27956537156E+01  0.58023227217E+02  0.49594702111E+02 0.  0.
         12    1    1    2    0    0 -0.11861329018E+02 -0.13890006292E+02 -0.41298036574E+01  0.18726416612E+02  0.00000000000E+00 0. -1.
         11    1    3    3    0    0 -0.14361582568E+02 -0.65659631585E+00  0.13341499418E+01  0.14438356171E+02  0.51100000000E-03 0. -1.
        -11    1    4    4    0    0  0.21990932573E+02  0.31741169747E+02  0.82663898961E+01  0.39489697068E+02  0.51100000000E-03 0.  1.
         12    1    4    4    0    0  0.42319790132E+01 -0.17194567139E+02 -0.54707361805E+01  0.18533530150E+02  0.00000000000E+00 0. -1.
</event>
<event>
 7    1  0.1345786E-013  0.7246176E+02  0.7816164E-02  0.1226708E+00
        -11   -1    0    0    0    0  0.00000000000E+00  0.00000000000E+00  0.45593999997E+02  0.45594000000E+02  0.51100000000E-03 0.  1.
         11   -1    0    0    0    0 -0.00000000000E+00 -0.00000000000E+00 -0.45593999997E+02  0.45594000000E+02  0.51100000000E-03 0. -1.
    9900012    2    1    2    0    0  0.68432983642E+01 -0.12346174222E+02  0.12305014539E+02  0.72461758166E+02  0.70000244737E+02 0.  0.
         12    1    1    2    0    0 -0.68432983642E+01  0.12346174222E+02 -0.12305014539E+02  0.18726241834E+02  0.00000000000E+00 0. -1.
         11    1    3    3    0    0  0.19004590209E+01 -0.23284341619E+01 -0.15161663376E+02  0.15456693913E+02  0.51100000000E-03 0. -1.
        -11    1    3    3    0    0  0.13998943186E+02 -0.18372742052E+01  0.38216903286E+02  0.40741596482E+02  0.51100000000E-03 0.  1.
        -12    1    3    3    0    0 -0.90561038429E+01 -0.81804658551E+01 -0.10750225371E+02  0.16263467771E+02  0.00000000000E+00 0.  1.
</event>
<event>
 7    1  0.1345786E-013  0.7246153E+02  0.7816164E-02  0.1226708E+00
        -11   -1    0    0    0    0  0.00000000000E+00  0.00000000000E+00  0.45593999997E+02  0.45594000000E+02  0.51100000000E-03 0.  1.
         11   -1    0    0    0    0 -0.00000000000E+00 -0.00000000000E+00 -0.45593999997E+02  0.45594000000E+02  0.51100000000E-03 0. -1.
    9900012    2    1    2    0    0  0.17900916927E+02 -0.53064763638E+01 -0.14418861774E+01  0.72461533329E+02  0.69999951846E+02 0.  0.
         12    1    1    2    0    0 -0.17900916927E+02  0.53064763638E+01  0.14418861774E+01  0.18726466671E+02  0.00000000000E+00 0. -1.
         11    1    3    3    0    0 -0.50852843235E+00 -0.18244147583E+01 -0.73822763379E+01  0.76213577903E+01  0.51100000000E-03 0. -1.
        -11    1    3    3    0    0  0.30726263954E+02  0.20935479851E+02  0.45320894672E+01  0.37455806604E+02  0.51100000000E-03 0.  1.
        -12    1    3    3    0    0 -0.12316818594E+02 -0.24417541457E+02  0.14083006933E+01  0.27384368934E+02  0.00000000000E+00 0.  1.
</event>
<event>
 7    1  0.1345786E-013  0.7246167E+02  0.7816164E-02  0.1226708E+00
        -11   -1    0    0    0    0  0.00000000000E+00  0.00000000000E+00  0.45593999997E+02  0.45594000000E+02  0.51100000000E-03 0.  1.
         11   -1    0    0    0    0 -0.00000000000E+00 -0.00000000000E+00 -0.45593999997E+02  0.45594000000E+02  0.51100000000E-03 0. -1.
    9900012    2    1    2    0    0  0.14478537388E+02  0.63804706919E+01  0.10016843594E+02  0.72461665422E+02  0.70000123922E+02 0.  0.
         12    1    1    2    0    0 -0.14478537388E+02 -0.63804706919E+01 -0.10016843594E+02  0.18726334578E+02  0.00000000000E+00 0. -1.
         11    1    3    3    0    0 -0.65772998270E+00 -0.20116350822E+02  0.11917999510E+02  0.23391000229E+02  0.51100000000E-03 0. -1.
        -11    1    3    3    0    0  0.21112603649E+02  0.29642221609E+02  0.78304318428E+01  0.37225246780E+02  0.51100000000E-03 0.  1.
         12    1    3    3    0    0 -0.59763362782E+01 -0.31454000943E+01 -0.97315877594E+01  0.11845418413E+02  0.00000000000E+00 0. -1.
</event>
<event>
 7    1  0.1345786E-013  0.7246158E+02  0.7816164E-02  0.1226708E+00
        -11   -1    0    0    0    0  0.00000000000E+00  0.00000000000E+00  0.45593999997E+02  0.45594000000E+02  0.51100000000E-03 0.  1.
         11   -1    0    0    0    0 -0.00000000000E+00 -0.00000000000E+00 -0.45593999997E+02  0.45594000000E+02  0.51100000000E-03 0. -1.
    9900012    2    1    2    0    0  0.28398209353E+01 -0.18323981524E+02 -0.26164807568E+01  0.72461578735E+02  0.70000010996E+02 0.  0.
         12    1    1    2    0    0 -0.28398209353E+01  0.18323981524E+02  0.26164807568E+01  0.18726421265E+02  0.00000000000E+00 0. -1.
         11    1    3    3    0    0  0.66232627157E+01 -0.74263960459E+01 -0.17355196175E+01  0.10101039344E+02  0.51100000000E-03 0. -1.
        -11    1    3    3    0    0 -0.92017049518E+01 -0.24863007557E+01  0.29169949657E+02  0.30687766760E+02  0.51100000000E-03 0.  1.
        -12    1    3    3    0    0  0.54182631714E+01 -0.84112847226E+01 -0.30050910796E+02  0.31672772631E+02  0.00000000000E+00 0.  1.
</event>
<event>
 7    1  0.1345786E-013  0.7246152E+02  0.7816164E-02  0.1226708E+00
        -11   -1    0    0    0    0  0.00000000000E+00  0.00000000000E+00  0.45593999997E+02  0.45594000000E+02  0.51100000000E-03 0.  1.
         11   -1    0    0    0    0 -0.00000000000E+00 -0.00000000000E+00 -0.45593999997E+02  0.45594000000E+02  0.51100000000E-03 0. -1.
    9900012    2    1    2    0    0  0.96165734244E+01 -0.97397375731E+01  0.12780458621E+02  0.72461518884E+02  0.69999933029E+02 0.  0.
         12    1    1    2    0    0 -0.96165734244E+01  0.97397375731E+01 -0.12780458621E+02  0.18726481116E+02  0.00000000000E+00 0. -1.
         11    1    3    3    0    0  0.13029032168E+02 -0.12775625649E+02 -0.41448746637E+00  0.18252235208E+02  0.51100000000E-03 0. -1.
        -11    1    3    3    0    0 -0.36309691610E+01  0.60843572874E+01 -0.19822457058E+02  0.21050727891E+02  0.51100000000E-03 0.  1.
        -12    1    3    3    0    0  0.21851041733E+00 -0.30484692118E+01  0.33017403145E+02  0.33158555786E+02  0.00000000000E+00 0.  1.
</event>
<event>
 7    1  0.1345786E-013  0.7246157E+02  0.7816164E-02  0.1226708E+00
        -11   -1    0    0    0    0  0.00000000000E+00  0.00000000000E+00  0.45593999997E+02  0.45594000000E+02  0.51100000000E-03 0.  1.
         11   -1    0    0    0    0 -0.00000000000E+00 -0.00000000000E+00 -0.45593999997E+02  0.45594000000E+02  0.51100000000E-03 0. -1.
    9900012    2    1    2    0    0  0.90230098810E+01  0.64389026760E+01  0.15093209628E+02  0.72461570766E+02  0.70000000614E+02 0.  0.
         12    1    1    2    0    0 -0.90230098810E+01 -0.64389026760E+01 -0.15093209628E+02  0.18726429234E+02  0.00000000000E+00 0. -1.
         11    1    3    3    0    0 -0.38047615419E+00 -0.19212495900E+02 -0.69378496759E+01  0.20430333311E+02  0.51100000000E-03 0. -1.
        -11    1    3    3    0    0 -0.11885299821E+01  0.33412690083E+02  0.19348562588E+02  0.38628840736E+02  0.51100000000E-03 0.  1.
        -12    1    3    3    0    0  0.10592016017E+02 -0.77612915076E+01  0.26824967162E+01  0.13402396719E+02  0.00000000000E+00 0.  1.
</event>
<event>
 7    1  0.1345786E-013  0.7246158E+02  0.7816164E-02  0.1226708E+00
        -11   -1    0    0    0    0  0.00000000000E+00  0.00000000000E+00  0.45593999997E+02  0.45594000000E+02  0.51100000000E-03 0.  1.
         11   -1    0    0    0    0 -0.00000000000E+00 -0.00000000000E+00 -0.45593999997E+02  0.45594000000E+02  0.51100000000E-03 0. -1.
    9900012    2    1    2    0    0  0.95917374723E+01  0.15925720519E+02  0.22469314155E+01  0.72461582762E+02  0.70000016242E+02 0.  0.
         12    1    1    2    0    0 -0.95917374723E+01 -0.15925720519E+02 -0.22469314155E+01  0.18726417238E+02  0.00000000000E+00 0. -1.
         11    1    3    3    0    0  0.49098385763E+00  0.17775224548E+01 -0.26666165415E+02  0.26729852776E+02  0.51100000000E-03 0. -1.
        -11    1    3    3    0    0  0.68943853044E+01  0.32616747867E+01  0.33019669617E+02  0.33889078668E+02  0.51100000000E-03 0.  1.
        -12    1    3    3    0    0  0.22063683103E+01  0.10886523277E+02 -0.41065727864E+01  0.11842651318E+02  0.00000000000E+00 0.  1.
</event>
<event>
 7    1  0.1345786E-013  0.7246156E+02  0.7816164E-02  0.1226708E+00
        -11   -1    0    0    0    0  0.00000000000E+00  0.00000000000E+00  0.45593999997E+02  0.45594000000E+02  0.51100000000E-03 0. -1.
         11   -1    0    0    0    0 -0.00000000000E+00 -0.00000000000E+00 -0.45593999997E+02  0.45594000000E+02  0.51100000000E-03 0.  1.
    9900012    2    1    2    0    0 -0.10277052256E+02 -0.16574355459E+01 -0.15566454447E+02  0.72461564148E+02  0.69999991993E+02 0.  0.
         12    1    1    2    0    0  0.10277052256E+02  0.16574355459E+01  0.15566454447E+02  0.18726435852E+02  0.00000000000E+00 0. -1.
         11    1    3    3    0    0  0.99367895867E+01  0.17008561999E+02 -0.19887720295E+02  0.27992005775E+02  0.51100000000E-03 0. -1.
        -11    1    3    3    0    0 -0.13739948494E+02 -0.26438387438E+01  0.17737740791E+02  0.22592111821E+02  0.51100000000E-03 0.  1.
        -12    1    3    3    0    0 -0.64738933487E+01 -0.16022158801E+02 -0.13416474943E+02  0.21877446552E+02  0.00000000000E+00 0.  1.
</event>
<event>
 7    1  0.1345786E-013  0.7246142E+02  0.7816164E-02  0.1226708E+00
        -11   -1    0    0    0    0  0.00000000000E+00  0.00000000000E+00  0.45593999997E+02  0.45594000000E+02  0.51100000000E-03 0.  1.
         11   -1    0    0    0    0 -0.00000000000E+00 -0.00000000000E+00 -0.45593999997E+02  0.45594000000E+02  0.51100000000E-03 0. -1.
    9900012    2    1    2    0    0  0.24139309491E+01  0.15299934695E+02  0.10524716043E+02  0.72461422307E+02  0.69999807219E+02 0.  0.
         12    1    1    2    0    0 -0.24139309491E+01 -0.15299934695E+02 -0.10524716043E+02  0.18726577693E+02  0.00000000000E+00 0. -1.
         11    1    3    3    0    0  0.82776578802E+01 -0.16011108554E+02 -0.20127618488E+02  0.27018442653E+02  0.51100000000E-03 0. -1.
        -11    1    3    3    0    0 -0.35925512077E+01  0.14335231029E+02  0.72999078496E+01  0.16483140711E+02  0.51100000000E-03 0.  1.
         12    1    3    3    0    0 -0.22711757234E+01  0.16975812220E+02  0.23352426682E+02  0.28959838943E+02  0.00000000000E+00 0. -1.
</event>
<event>
 7    1  0.1345786E-013  0.7246156E+02  0.7816164E-02  0.1226708E+00
        -11   -1    0    0    0    0  0.00000000000E+00  0.00000000000E+00  0.45593999997E+02  0.45594000000E+02  0.51100000000E-03 0.  1.
         11   -1    0    0    0    0 -0.00000000000E+00 -0.00000000000E+00 -0.45593999997E+02  0.45594000000E+02  0.51100000000E-03 0. -1.
    9900012    2    1    2    0    0 -0.10845688689E+02  0.11547555756E+02  0.99852239768E+01  0.72461555998E+02  0.69999981377E+02 0.  0.
         12    1    1    2    0    0  0.10845688689E+02 -0.11547555756E+02 -0.99852239768E+01  0.18726444002E+02  0.00000000000E+00 0. -1.
         11    1    3    3    0    0 -0.21003064300E+02  0.24740215341E+02 -0.13833905146E+02  0.35278660646E+02  0.51100000000E-03 0. -1.
        -11    1    3    3    0    0  0.11864282066E+02 -0.34248727116E+01  0.11041938929E+01  0.12397991227E+02  0.51100000000E-03 0.  1.
         12    1    3    3    0    0 -0.17069064552E+01 -0.97677868729E+01  0.22714935230E+02  0.24784904126E+02  0.00000000000E+00 0. -1.
</event>
<event>
 7    1  0.1345786E-013  0.7246142E+02  0.7816164E-02  0.1226708E+00
        -11   -1    0    0    0    0  0.00000000000E+00  0.00000000000E+00  0.45593999997E+02  0.45594000000E+02  0.51100000000E-03 0.  1.
         11   -1    0    0    0    0 -0.00000000000E+00 -0.00000000000E+00 -0.45593999997E+02  0.45594000000E+02  0.51100000000E-03 0. -1.
    9900012    2    1    2    0    0 -0.10391456427E+02 -0.10992579992E+02  0.11039272418E+02  0.72461422174E+02  0.69999807045E+02 0.  0.
         12    1    1    2    0    0  0.10391456427E+02  0.10992579992E+02 -0.11039272418E+02  0.18726577826E+02  0.00000000000E+00 0. -1.
         11    1    3    3    0    0  0.21773089552E+02 -0.12573193492E+02  0.32692726168E+01  0.25354304702E+02  0.51100000000E-03 0. -1.
        -11    1    3    3    0    0 -0.15754320538E+02  0.48241304660E+01  0.20344995357E+02  0.26179948180E+02  0.51100000000E-03 0.  1.
         12    1    3    3    0    0 -0.16410225441E+02 -0.32435169666E+01 -0.12574995556E+02  0.20927169292E+02  0.00000000000E+00 0. -1.
</event>
<event>
 7    1  0.1345786E-013  0.7246156E+02  0.7816164E-02  0.1226708E+00
        -11   -1    0    0    0    0  0.00000000000E+00  0.00000000000E+00  0.45593999997E+02  0.45594000000E+02  0.51100000000E-03 0. -1.
         11   -1    0    0    0    0 -0.00000000000E+00 -0.00000000000E+00 -0.45593999997E+02  0.45594000000E+02  0.51100000000E-03 0.  1.
    9900012    2    1    2    0    0  0.10664349878E+02 -0.15361494464E+02  0.98780710892E+00  0.72461557909E+02  0.69999983866E+02 0.  0.
         12    1    1    2    0    0 -0.10664349878E+02  0.15361494464E+02 -0.98780710892E+00  0.18726442091E+02  0.00000000000E+00 0. -1.
         11    1    3    3    0    0 -0.12149856355E+02 -0.34462612332E+02  0.73706820595E+01  0.37277575196E+02  0.51100000000E-03 0. -1.
        -11    1    3    3    0    0  0.25384905926E+02  0.19316398416E+02 -0.66697703908E+01  0.32588380352E+02  0.51100000000E-03 0.  1.
         12    1    3    3    0    0 -0.25706996930E+01 -0.21528054776E+00  0.28689544023E+00  0.25956023616E+01  0.00000000000E+00 0. -1.
</event>
<event>
 7    1  0.1345786E-013  0.7246161E+02  0.7816164E-02  0.1226708E+00
        -11   -1    0    0    0    0  0.00000000000E+00  0.00000000000E+00  0.45593999997E+02  0.45594000000E+02  0.51100000000E-03 0.  1.
         11   -1    0    0    0    0 -0.00000000000E+00 -0.00000000000E+00 -0.45593999997E+02  0.45594000000E+02  0.51100000000E-03 0. -1.
    9900012    2    1    2    0    0  0.12875213258E+02 -0.10192760183E+02  0.90007837153E+01  0.72461612626E+02  0.70000055145E+02 0.  0.
         12    1    1    2    0    0 -0.12875213258E+02  0.10192760183E+02 -0.90007837153E+01  0.18726387374E+02  0.00000000000E+00 0. -1.
         11    1    3    3    0    0 -0.11438737292E+02 -0.15934278795E+02 -0.81396091800E+01  0.21236741497E+02  0.51100000000E-03 0. -1.
        -11    1    3    3    0    0  0.31056679656E+01  0.21177846659E+02  0.35994228677E+01  0.21704889031E+02  0.51100000000E-03 0.  1.
        -12    1    3    3    0    0  0.21208282585E+02 -0.15436328047E+02  0.13540970028E+02  0.29519982098E+02  0.00000000000E+00 0.  1.
</event>
<event>
 7    1  0.1345786E-013  0.7246157E+02  0.7816164E-02  0.1226708E+00
        -11   -1    0    0    0    0  0.00000000000E+00  0.00000000000E+00  0.45593999997E+02  0.45594000000E+02  0.51100000000E-03 0.  1.
         11   -1    0    0    0    0 -0.00000000000E+00 -0.00000000000E+00 -0.45593999997E+02  0.45594000000E+02  0.51100000000E-03 0. -1.
    9900012    2    1    2    0    0 -0.14780399387E+02  0.60868711521E+01 -0.97554637065E+01  0.72461567382E+02  0.69999996206E+02 0.  0.
         12    1    1    2    0    0  0.14780399387E+02 -0.60868711521E+01  0.97554637065E+01  0.18726432618E+02  0.00000000000E+00 0. -1.
         11    1    3    3    0    0  0.22530592141E+02  0.10175077543E+02 -0.20238954307E+02  0.31949570528E+02  0.51100000000E-03 0. -1.
        -11    1    3    3    0    0 -0.20685148023E+02  0.32846433920E+01  0.57087993060E+01  0.21708399774E+02  0.51100000000E-03 0.  1.
         12    1    3    3    0    0 -0.16625843505E+02 -0.73728497832E+01  0.47746912949E+01  0.18803597080E+02  0.00000000000E+00 0. -1.
</event>
<event>
 7    1  0.1345786E-013  0.7246159E+02  0.7816164E-02  0.1226708E+00
        -11   -1    0    0    0    0  0.00000000000E+00  0.00000000000E+00  0.45593999997E+02  0.45594000000E+02  0.51100000000E-03 0.  1.
         11   -1    0    0    0    0 -0.00000000000E+00 -0.00000000000E+00 -0.45593999997E+02  0.45594000000E+02  0.51100000000E-03 0. -1.
    9900012    2    1    2    0    0  0.10072507306E+02  0.14852355796E+01  0.15716778774E+02  0.72461589154E+02  0.70000024568E+02 0.  0.
         12    1    1    2    0    0 -0.10072507306E+02 -0.14852355796E+01 -0.15716778774E+02  0.18726410846E+02  0.00000000000E+00 0. -1.
         11    1    3    3    0    0  0.11153420778E+02 -0.45571902980E+01 -0.61575167445E+01  0.13530772010E+02  0.51100000000E-03 0. -1.
        -11    1    3    3    0    0  0.24758040433E+00  0.30337507651E+02  0.13398600002E+02  0.33165466208E+02  0.51100000000E-03 0.  1.
        -12    1    3    3    0    0 -0.13284938765E+01 -0.24295081773E+02  0.84756955166E+01  0.25765350936E+02  0.00000000000E+00 0.  1.
</event>
<event>
 7    1  0.1345786E-013  0.7246167E+02  0.7816164E-02  0.1226708E+00
        -11   -1    0    0    0    0  0.00000000000E+00  0.00000000000E+00  0.45593999997E+02  0.45594000000E+02  0.51100000000E-03 0.  1.
         11   -1    0    0    0    0 -0.00000000000E+00 -0.00000000000E+00 -0.45593999997E+02  0.45594000000E+02  0.51100000000E-03 0. -1.
    9900012    2    1    2    0    0  0.98412745178E+01  0.13562983181E+02  0.83588467801E+01  0.72461667834E+02  0.70000127064E+02 0.  0.
         12    1    1    2    0    0 -0.98412745178E+01 -0.13562983181E+02 -0.83588467801E+01  0.18726332166E+02  0.00000000000E+00 0. -1.
         11    1    3    3    0    0 -0.19157746025E+02  0.81933638154E+01  0.10556994675E+02  0.23358094533E+02  0.51100000000E-03 0. -1.
        -11    1    3    3    0    0  0.91632867818E+01  0.60260714944E+00 -0.20013102643E+02  0.22019383227E+02  0.51100000000E-03 0.  1.
        -12    1    3    3    0    0  0.19835733761E+02  0.47670122159E+01  0.17814954748E+02  0.27084190075E+02  0.00000000000E+00 0.  1.
</event>
<event>
 7    1  0.1345786E-013  0.7246160E+02  0.7816164E-02  0.1226708E+00
        -11   -1    0    0    0    0  0.00000000000E+00  0.00000000000E+00  0.45593999997E+02  0.45594000000E+02  0.51100000000E-03 0.  1.
         11   -1    0    0    0    0 -0.00000000000E+00 -0.00000000000E+00 -0.45593999997E+02  0.45594000000E+02  0.51100000000E-03 0. -1.
    9900012    2    1    2    0    0  0.30812830746E+01  0.14778510416E+02  0.11080586473E+02  0.72461599596E+02  0.70000038171E+02 0.  0.
         12    1    1    2    0    0 -0.30812830746E+01 -0.14778510416E+02 -0.11080586473E+02  0.18726400404E+02  0.00000000000E+00 0. -1.
         11    1    3    3    0    0  0.18083655253E+02  0.19050726573E+02 -0.12746268831E+02  0.29196166523E+02  0.51100000000E-03 0. -1.
        -11    1    3    3    0    0  0.39283145898E+01 -0.27764171579E+01  0.23794331561E+02  0.24275715488E+02  0.51100000000E-03 0.  1.
         12    1    3    3    0    0 -0.18930686768E+02 -0.14957989991E+01  0.32523742730E-01  0.18989717585E+02  0.00000000000E+00 0. -1.
</event>
<event>
 7    1  0.1345786E-013  0.7246156E+02  0.7816164E-02  0.1226708E+00
        -11   -1    0    0    0    0  0.00000000000E+00  0.00000000000E+00  0.45593999997E+02  0.45594000000E+02  0.51100000000E-03 0.  1.
         11   -1    0    0    0    0 -0.00000000000E+00 -0.00000000000E+00 -0.45593999997E+02  0.45594000000E+02  0.51100000000E-03 0. -1.
    9900012    2    1    2    0    0 -0.16927491529E+02  0.79584452919E+01 -0.89593344950E+00  0.72461560999E+02  0.69999987891E+02 0.  0.
         12    1    1    2    0    0  0.16927491529E+02 -0.79584452919E+01  0.89593344950E+00  0.18726439001E+02  0.00000000000E+00 0. -1.
         11    1    3    3    0    0  0.22379978864E+02  0.10006849595E+02 -0.11983127604E+02  0.27287283489E+02  0.51100000000E-03 0. -1.
        -11    1    3    3    0    0 -0.78606569505E+01  0.53936093782E+01  0.84712556688E+01  0.12753161282E+02  0.51100000000E-03 0.  1.
         12    1    3    3    0    0 -0.31446813442E+02 -0.74420136815E+01  0.26159384856E+01  0.32421116228E+02  0.00000000000E+00 0. -1.
</event>
<event>
 7    1  0.1345786E-013  0.7246144E+02  0.7816164E-02  0.1226708E+00
        -11   -1    0    0    0    0  0.00000000000E+00  0.00000000000E+00  0.45593999997E+02  0.45594000000E+02  0.51100000000E-03 0.  1.
         11   -1    0    0    0    0 -0.00000000000E+00 -0.00000000000E+00 -0.45593999997E+02  0.45594000000E+02  0.51100000000E-03 0. -1.
    9900012    2    1    2    0    0 -0.55390957245E+01 -0.13293383710E+02 -0.11970310393E+02  0.72461442313E+02  0.69999833280E+02 0.  0.
         12    1    1    2    0    0  0.55390957245E+01  0.13293383710E+02  0.11970310393E+02  0.18726557687E+02  0.00000000000E+00 0. -1.
         11    1    3    3    0    0 -0.28573170353E+02 -0.31550730358E+01  0.38636166453E+01  0.29005311302E+02  0.51100000000E-03 0.  1.
        -11    1    3    3    0    0  0.25965650893E+02 -0.28716713158E+01 -0.37716669726E+00  0.26126687074E+02  0.51100000000E-03 0. -1.
         12    1    3    3    0    0 -0.29315762652E+01 -0.72666393584E+01 -0.15456760341E+02  0.17329443938E+02  0.00000000000E+00 0. -1.
</event>
<event>
 7    1  0.1442499E-013  0.7246155E+02  0.7816164E-02  0.1226708E+00
        -11   -1    0    0    0    0  0.00000000000E+00  0.00000000000E+00  0.45593999997E+02  0.45594000000E+02  0.51100000000E-03 0. -1.
         11   -1    0    0    0    0 -0.00000000000E+00 -0.00000000000E+00 -0.45593999997E+02  0.45594000000E+02  0.51100000000E-03 0.  1.
    9900012    2    1    2    0    0  0.17059226955E+02 -0.58121247990E+00 -0.77022778439E+01  0.72461545017E+02  0.69999967071E+02 0.  0.
         12    1    1    2    0    0 -0.17059226955E+02  0.58121247990E+00  0.77022778439E+01  0.18726454983E+02  0.00000000000E+00 0. -1.
         11    1    3    3    0    0  0.34703586409E+00 -0.12473702879E+02  0.16056746350E+02  0.20335505920E+02  0.51100000000E-03 0. -1.
        -11    1    3    3    0    0  0.27568066805E+02 -0.13079273188E+01 -0.21292541915E+02  0.34858016620E+02  0.51100000000E-03 0.  1.
         12    1    3    3    0    0 -0.10855875714E+02  0.13200417718E+02 -0.24664822789E+01  0.17268022477E+02  0.00000000000E+00 0. -1.
</event>
<event>
 7    1  0.1345786E-013  0.7246163E+02  0.7816164E-02  0.1226708E+00
        -11   -1    0    0    0    0  0.00000000000E+00  0.00000000000E+00  0.45593999997E+02  0.45594000000E+02  0.51100000000E-03 0. -1.
         11   -1    0    0    0    0 -0.00000000000E+00 -0.00000000000E+00 -0.45593999997E+02  0.45594000000E+02  0.51100000000E-03 0.  1.
    9900012    2    1    2    0    0  0.10845452195E+02 -0.52235375411E+01 -0.14344611802E+02  0.72461626472E+02  0.70000073182E+02 0.  0.
         12    1    1    2    0    0 -0.10845452195E+02  0.52235375411E+01  0.14344611802E+02  0.18726373528E+02  0.00000000000E+00 0. -1.
         11    1    3    3    0    0 -0.10575886816E+02 -0.11006493786E+02  0.18825550811E+02  0.24236205375E+02  0.51100000000E-03 0. -1.
        -11    1    3    3    0    0  0.18152756982E+02 -0.38122170033E+01 -0.33266598369E+02  0.38088346667E+02  0.51100000000E-03 0.  1.
        -12    1    3    3    0    0  0.32685820290E+01  0.95951732478E+01  0.96435755743E-01  0.10137074430E+02  0.00000000000E+00 0.  1.
</event>
<event>
 7    1  0.1345786E-013  0.7246156E+02  0.7816164E-02  0.1226708E+00
        -11   -1    0    0    0    0  0.00000000000E+00  0.00000000000E+00  0.45593999997E+02  0.45594000000E+02  0.51100000000E-03 0.  1.
         11   -1    0    0    0    0 -0.00000000000E+00 -0.00000000000E+00 -0.45593999997E+02  0.45594000000E+02  0.51100000000E-03 0. -1.
    9900012    2    1    2    0    0 -0.71098717159E+01  0.54006154794E+01  0.16460944709E+02  0.72461558157E+02  0.69999984189E+02 0.  0.
         12    1    1    2    0    0  0.71098717159E+01 -0.54006154794E+01 -0.16460944709E+02  0.18726441843E+02  0.00000000000E+00 0. -1.
         11    1    3    3    0    0  0.85682472927E+01  0.26823369957E+02  0.70165673448E+01  0.29019652911E+02  0.51100000000E-03 0. -1.
        -11    1    3    3    0    0 -0.56574893567E+01 -0.14586383936E+02  0.21334306284E+02  0.26456046701E+02  0.51100000000E-03 0.  1.
         12    1    3    3    0    0 -0.10020629652E+02 -0.68363705412E+01 -0.11889928920E+02  0.16985858545E+02  0.00000000000E+00 0. -1.
</event>
<event>
 7    1  0.1345786E-013  0.7246159E+02  0.7816164E-02  0.1226708E+00
        -11   -1    0    0    0    0  0.00000000000E+00  0.00000000000E+00  0.45593999997E+02  0.45594000000E+02  0.51100000000E-03 0.  1.
         11   -1    0    0    0    0 -0.00000000000E+00 -0.00000000000E+00 -0.45593999997E+02  0.45594000000E+02  0.51100000000E-03 0. -1.
    9900012    2    1    2    0    0  0.42364583667E+01  0.12287066745E+02  0.13481800524E+02  0.72461587261E+02  0.70000022102E+02 0.  0.
         12    1    1    2    0    0 -0.42364583667E+01 -0.12287066745E+02 -0.13481800524E+02  0.18726412739E+02  0.00000000000E+00 0. -1.
         11    1    3    3    0    0 -0.11494709535E+02  0.23991751947E+02 -0.82515951682E+01  0.27853569464E+02  0.51100000000E-03 0.  1.
        -11    1    3    3    0    0  0.18481062209E+01  0.71425358591E+01  0.19788247601E+02  0.21118855520E+02  0.51100000000E-03 0. -1.
         12    1    3    3    0    0  0.13883061681E+02 -0.18847221061E+02  0.19451480912E+01  0.23489162277E+02  0.00000000000E+00 0. -1.
</event>
<event>
 7    1  0.1345786E-013  0.7246158E+02  0.7816164E-02  0.1226708E+00
        -11   -1    0    0    0    0  0.00000000000E+00  0.00000000000E+00  0.45593999997E+02  0.45594000000E+02  0.51100000000E-03 0.  1.
         11   -1    0    0    0    0 -0.00000000000E+00 -0.00000000000E+00 -0.45593999997E+02  0.45594000000E+02  0.51100000000E-03 0. -1.
    9900012    2    1    2    0    0  0.13717058935E+02  0.12484994867E+02  0.25779976679E+01  0.72461578168E+02  0.70000010257E+02 0.  0.
         12    1    1    2    0    0 -0.13717058935E+02 -0.12484994867E+02 -0.25779976679E+01  0.18726421832E+02  0.00000000000E+00 0. -1.
         11    1    3    3    0    0  0.73820419586E+01 -0.21369680432E+02  0.19434492954E+02  0.29813709965E+02  0.51100000000E-03 0.  1.
        -11    1    3    3    0    0  0.12353570313E+02  0.15336168202E+02 -0.79845665421E+01  0.21249989594E+02  0.51100000000E-03 0. -1.
         12    1    3    3    0    0 -0.60185533371E+01  0.18518507097E+02 -0.88719287438E+01  0.21397878610E+02  0.00000000000E+00 0. -1.
</event>
<event>
 7    1  0.2246251E-013  0.7246161E+02  0.7816164E-02  0.1226708E+00
        -11   -1    0    0    0    0  0.00000000000E+00  0.00000000000E+00  0.45593999997E+02  0.45594000000E+02  0.51100000000E-03 0.  1.
         11   -1    0    0    0    0 -0.00000000000E+00 -0.00000000000E+00 -0.45593999997E+02  0.45594000000E+02  0.51100000000E-03 0. -1.
    9900012    2    1    2    0    0  0.18627602027E+02 -0.86148013794E+00  0.17169728438E+01  0.72461609503E+02  0.70000051076E+02 0.  0.
         12    1    1    2    0    0 -0.18627602027E+02  0.86148013794E+00 -0.17169728438E+01  0.18726390497E+02  0.00000000000E+00 0. -1.
         11    1    3    3    0    0  0.70009787847E+01 -0.21655359554E+02 -0.14019938133E+02  0.26730637233E+02  0.51100000000E-03 0. -1.
        -11    1    3    3    0    0  0.91212131123E+01  0.27974438480E+01  0.23957945551E+02  0.25787698152E+02  0.51100000000E-03 0.  1.
         12    1    3    3    0    0  0.25054101300E+01  0.17996435568E+02 -0.82210345741E+01  0.19943274118E+02  0.00000000000E+00 0. -1.
</event>
<event>
 7    1  0.1345786E-013  0.7246157E+02  0.7816164E-02  0.1226708E+00
        -11   -1    0    0    0    0  0.00000000000E+00  0.00000000000E+00  0.45593999997E+02  0.45594000000E+02  0.51100000000E-03 0.  1.
         11   -1    0    0    0    0 -0.00000000000E+00 -0.00000000000E+00 -0.45593999997E+02  0.45594000000E+02  0.51100000000E-03 0. -1.
    9900012    2    1    2    0    0  0.10287074359E+01 -0.18631699634E+02 -0.15750070773E+01  0.72461571682E+02  0.70000001808E+02 0.  0.
         12    1    1    2    0    0 -0.10287074359E+01  0.18631699634E+02  0.15750070773E+01  0.18726428318E+02  0.00000000000E+00 0. -1.
         11    1    3    3    0    0  0.15403329481E+02 -0.24725179342E+02 -0.91352325869E+01  0.30529486194E+02  0.51100000000E-03 0. -1.
        -11    1    3    3    0    0  0.50876331574E+01  0.71411807296E+01  0.17853623496E+02  0.19890508931E+02  0.51100000000E-03 0.  1.
        -12    1    3    3    0    0 -0.19462255203E+02 -0.10477010219E+01 -0.10293397986E+02  0.22041576557E+02  0.00000000000E+00 0.  1.
</event>
<event>
 7    1  0.1345786E-013  0.7246160E+02  0.7816164E-02  0.1226708E+00
        -11   -1    0    0    0    0  0.00000000000E+00  0.00000000000E+00  0.45593999997E+02  0.45594000000E+02  0.51100000000E-03 0.  1.
         11   -1    0    0    0    0 -0.00000000000E+00 -0.00000000000E+00 -0.45593999997E+02  0.45594000000E+02  0.51100000000E-03 0. -1.
    9900012    2    1    2    0    0 -0.62828687736E+01 -0.13999335423E+02  0.10734163308E+02  0.72461599005E+02  0.70000037401E+02 0.  0.
         12    1    1    2    0    0  0.62828687736E+01  0.13999335423E+02 -0.10734163308E+02  0.18726400995E+02  0.00000000000E+00 0. -1.
         11    1    3    3    0    0 -0.19976139907E+02  0.15030026637E+02 -0.84170602641E+01  0.26377922019E+02  0.51100000000E-03 0. -1.
        -11    1    3    3    0    0  0.49510057672E+01 -0.30485719862E+02  0.20569888225E+02  0.37108110643E+02  0.51100000000E-03 0.  1.
         12    1    3    3    0    0  0.87422653661E+01  0.14563578018E+01 -0.14186646533E+01  0.89755663430E+01  0.00000000000E+00 0. -1.
</event>
<event>
 7    1  0.1345786E-013  0.7246156E+02  0.7816164E-02  0.1226708E+00
        -11   -1    0    0    0    0  0.00000000000E+00  0.00000000000E+00  0.45593999997E+02  0.45594000000E+02  0.51100000000E-03 0.  1.
         11   -1    0    0    0    0 -0.00000000000E+00 -0.00000000000E+00 -0.45593999997E+02  0.45594000000E+02  0.51100000000E-03 0. -1.
    9900012    2    1    2    0    0 -0.90750978787E+01 -0.12775005549E+02 -0.10252872648E+02  0.72461559713E+02  0.69999986216E+02 0.  0.
         12    1    1    2    0    0  0.90750978787E+01  0.12775005549E+02  0.10252872648E+02  0.18726440287E+02  0.00000000000E+00 0. -1.
         11    1    3    3    0    0 -0.27299413523E+01  0.70465550533E+01 -0.15423090363E+02  0.17174930407E+02  0.51100000000E-03 0. -1.
        -11    1    3    3    0    0  0.21314250038E+02 -0.13113040751E+02  0.89460283897E+01  0.26575938678E+02  0.51100000000E-03 0.  1.
        -12    1    3    3    0    0 -0.27659406564E+02 -0.67085198515E+01 -0.37758106747E+01  0.28710690628E+02  0.00000000000E+00 0.  1.
</event>
<event>
 7    1  0.1345786E-013  0.7246159E+02  0.7816164E-02  0.1226708E+00
        -11   -1    0    0    0    0  0.00000000000E+00  0.00000000000E+00  0.45593999997E+02  0.45594000000E+02  0.51100000000E-03 0. -1.
         11   -1    0    0    0    0 -0.00000000000E+00 -0.00000000000E+00 -0.45593999997E+02  0.45594000000E+02  0.51100000000E-03 0.  1.
    9900012    2    1    2    0    0 -0.17749717895E+02  0.54497875530E+01 -0.24343066572E+01  0.72461587674E+02  0.70000022640E+02 0.  0.
         12    1    1    2    0    0  0.17749717895E+02 -0.54497875530E+01  0.24343066572E+01  0.18726412326E+02  0.00000000000E+00 0. -1.
         11    1    3    3    0    0 -0.12250325032E+02 -0.11075188503E+02  0.89908818090E+01  0.18803356608E+02  0.51100000000E-03 0. -1.
        -11    1    3    3    0    0  0.88737186063E+01  0.13349990822E+00 -0.25974324613E+02  0.27448610957E+02  0.51100000000E-03 0.  1.
        -12    1    3    3    0    0 -0.14373111469E+02  0.16391476148E+02  0.14549136147E+02  0.26209620108E+02  0.00000000000E+00 0.  1.
</event>
<event>
 7    1  0.1345786E-013  0.7246162E+02  0.7816164E-02  0.1226708E+00
        -11   -1    0    0    0    0  0.00000000000E+00  0.00000000000E+00  0.45593999997E+02  0.45594000000E+02  0.51100000000E-03 0.  1.
         11   -1    0    0    0    0 -0.00000000000E+00 -0.00000000000E+00 -0.45593999997E+02  0.45594000000E+02  0.51100000000E-03 0. -1.
    9900012    2    1    2    0    0  0.13639273173E+02  0.81231021839E+01 -0.99329164265E+01  0.72461617794E+02  0.70000061877E+02 0.  0.
         12    1    1    2    0    0 -0.13639273173E+02 -0.81231021839E+01  0.99329164265E+01  0.18726382206E+02  0.00000000000E+00 0. -1.
         11    1    3    3    0    0  0.73722096169E+01 -0.28499239318E+02 -0.13728229150E+02  0.32481077449E+02  0.51100000000E-03 0. -1.
        -11    1    3    3    0    0  0.15678110380E+01  0.18291437804E+02  0.88689226186E+01  0.20388538865E+02  0.51100000000E-03 0.  1.
        -12    1    3    3    0    0  0.46992525185E+01  0.18330903698E+02 -0.50736098947E+01  0.19592001480E+02  0.00000000000E+00 0.  1.
</event>
<event>
 7    1  0.1345786E-013  0.7246162E+02  0.7816164E-02  0.1226708E+00
        -11   -1    0    0    0    0  0.00000000000E+00  0.00000000000E+00  0.45593999997E+02  0.45594000000E+02  0.51100000000E-03 0.  1.
         11   -1    0    0    0    0 -0.00000000000E+00 -0.00000000000E+00 -0.45593999997E+02  0.45594000000E+02  0.51100000000E-03 0. -1.
    9900012    2    1    2    0    0 -0.15452891635E+02  0.85746219922E+01  0.61936493019E+01  0.72461620375E+02  0.70000065239E+02 0.  0.
         12    1    1    2    0    0  0.15452891635E+02 -0.85746219922E+01 -0.61936493019E+01  0.18726379625E+02  0.00000000000E+00 0. -1.
         11    1    3    3    0    0  0.13594355951E+02 -0.94570585828E+01  0.17000966061E+02  0.23733421962E+02  0.51100000000E-03 0. -1.
        -11    1    3    3    0    0 -0.23248743667E+02  0.33930382564E+01 -0.19685984680E+02  0.30652157898E+02  0.51100000000E-03 0.  1.
        -12    1    3    3    0    0 -0.57985039192E+01  0.14638642319E+02  0.88786679214E+01  0.18076040515E+02  0.00000000000E+00 0.  1.
</event>
<event>
 7    1  0.1345786E-013  0.7246155E+02  0.7816164E-02  0.1226708E+00
        -11   -1    0    0    0    0  0.00000000000E+00  0.00000000000E+00  0.45593999997E+02  0.45594000000E+02  0.51100000000E-03 0.  1.
         11   -1    0    0    0    0 -0.00000000000E+00 -0.00000000000E+00 -0.45593999997E+02  0.45594000000E+02  0.51100000000E-03 0. -1.
    9900012    2    1    2    0    0  0.17703735117E+02  0.27613599785E+01 -0.54435842841E+01  0.72461549298E+02  0.69999972649E+02 0.  0.
         12    1    1    2    0    0 -0.17703735117E+02 -0.27613599785E+01  0.54435842841E+01  0.18726450702E+02  0.00000000000E+00 0. -1.
         11    1    3    3    0    0  0.24715251141E+01  0.97666669741E+00 -0.14217275963E+02  0.14463514451E+02  0.51100000000E-03 0. -1.
        -11    1    3    3    0    0  0.33571052283E+02 -0.44043717638E+01 -0.50226145479E+01  0.34229237490E+02  0.51100000000E-03 0.  1.
        -12    1    3    3    0    0 -0.18338842280E+02  0.61890650449E+01  0.13796306226E+02  0.23768797357E+02  0.00000000000E+00 0.  1.
</event>
<event>
 7    1  0.1345786E-013  0.7246163E+02  0.7816164E-02  0.1226708E+00
        -11   -1    0    0    0    0  0.00000000000E+00  0.00000000000E+00  0.45593999997E+02  0.45594000000E+02  0.51100000000E-03 0. -1.
         11   -1    0    0    0    0 -0.00000000000E+00 -0.00000000000E+00 -0.45593999997E+02  0.45594000000E+02  0.51100000000E-03 0.  1.
    9900012    2    1    2    0    0  0.11506788760E+02 -0.12945074683E+02  0.71200914564E+01  0.72461632267E+02  0.70000080731E+02 0.  0.
         12    1    1    2    0    0 -0.11506788760E+02  0.12945074683E+02 -0.71200914564E+01  0.18726367733E+02  0.00000000000E+00 0. -1.
         11    1    3    3    0    0 -0.33114126499E+01  0.37484164533E+01  0.14619605050E+01  0.52108932463E+01  0.51100000000E-03 0. -1.
        -11    1    3    3    0    0  0.33281780465E+02 -0.14535616529E+02 -0.15147931056E+02  0.39349979343E+02  0.51100000000E-03 0.  1.
        -12    1    3    3    0    0 -0.18463579055E+02 -0.21578746077E+01  0.20806062007E+02  0.27900759678E+02  0.00000000000E+00 0.  1.
</event>
<event>
 7    1  0.1345786E-013  0.7246157E+02  0.7816164E-02  0.1226708E+00
        -11   -1    0    0    0    0  0.00000000000E+00  0.00000000000E+00  0.45593999997E+02  0.45594000000E+02  0.51100000000E-03 0. -1.
         11   -1    0    0    0    0 -0.00000000000E+00 -0.00000000000E+00 -0.45593999997E+02  0.45594000000E+02  0.51100000000E-03 0.  1.
    9900012    2    1    2    0    0 -0.91790405911E+01  0.34644497521E+00 -0.16318832099E+02  0.72461572381E+02  0.70000002718E+02 0.  0.
         12    1    1    2    0    0  0.91790405911E+01 -0.34644497521E+00  0.16318832099E+02  0.18726427619E+02  0.00000000000E+00 0. -1.
         11    1    3    3    0    0  0.53089068724E+01 -0.29116384427E+02 -0.60821250228E+01  0.30214906575E+02  0.51100000000E-03 0. -1.
        -11    1    3    3    0    0 -0.82575810995E+01  0.72409934933E+01 -0.15089621775E+02  0.18663234392E+02  0.51100000000E-03 0.  1.
         12    1    3    3    0    0 -0.62303663641E+01  0.22221835909E+02  0.48529146989E+01  0.23583431414E+02  0.00000000000E+00 0. -1.
</event>
<event>
 7    1  0.1345786E-013  0.7246162E+02  0.7816164E-02  0.1226708E+00
        -11   -1    0    0    0    0  0.00000000000E+00  0.00000000000E+00  0.45593999997E+02  0.45594000000E+02  0.51100000000E-03 0.  1.
         11   -1    0    0    0    0 -0.00000000000E+00 -0.00000000000E+00 -0.45593999997E+02  0.45594000000E+02  0.51100000000E-03 0. -1.
    9900012    2    1    2    0    0  0.10907480942E+02  0.14298111188E+02  0.52218912573E+01  0.72461620949E+02  0.70000065988E+02 0.  0.
         12    1    1    2    0    0 -0.10907480942E+02 -0.14298111188E+02 -0.52218912573E+01  0.18726379051E+02  0.00000000000E+00 0. -1.
         11    1    3    3    0    0  0.76763836418E+01 -0.11532147908E+02  0.30829308227E+02  0.33798869023E+02  0.51100000000E-03 0.  1.
        -11    1    3    3    0    0  0.60981463916E+01  0.19789195046E+02 -0.24162047971E+02  0.31821442337E+02  0.51100000000E-03 0. -1.
        -12    1    3    3    0    0 -0.28670490918E+01  0.60410640503E+01 -0.14453689991E+01  0.68413095894E+01  0.00000000000E+00 0.  1.
</event>
<event>
 7    1  0.1345786E-013  0.7246155E+02  0.7816164E-02  0.1226708E+00
        -11   -1    0    0    0    0  0.00000000000E+00  0.00000000000E+00  0.45593999997E+02  0.45594000000E+02  0.51100000000E-03 0.  1.
         11   -1    0    0    0    0 -0.00000000000E+00 -0.00000000000E+00 -0.45593999997E+02  0.45594000000E+02  0.51100000000E-03 0. -1.
    9900012    2    1    2    0    0  0.96826424384E+01  0.94196092483E+01  0.12969091907E+02  0.72461549512E+02  0.69999972927E+02 0.  0.
         12    1    1    2    0    0 -0.96826424384E+01 -0.94196092483E+01 -0.12969091907E+02  0.18726450488E+02  0.00000000000E+00 0. -1.
         11    1    3    3    0    0  0.29657685171E+02  0.60946178813E+00 -0.41667386628E+01  0.29955157231E+02  0.51100000000E-03 0. -1.
        -11    1    3    3    0    0 -0.69222805522E+01  0.37653912021E+01  0.25166997391E+02  0.26371839088E+02  0.51100000000E-03 0.  1.
         12    1    3    3    0    0 -0.13052762180E+02  0.50447562581E+01 -0.80311668211E+01  0.16134553193E+02  0.00000000000E+00 0. -1.
</event>
<event>
 7    1  0.1345786E-013  0.7246156E+02  0.7816164E-02  0.1226708E+00
        -11   -1    0    0    0    0  0.00000000000E+00  0.00000000000E+00  0.45593999997E+02  0.45594000000E+02  0.51100000000E-03 0.  1.
         11   -1    0    0    0    0 -0.00000000000E+00 -0.00000000000E+00 -0.45593999997E+02  0.45594000000E+02  0.51100000000E-03 0. -1.
    9900012    2    1    2    0    0  0.45585762585E+01  0.11139905905E+02  0.14345781266E+02  0.72461559837E+02  0.69999986377E+02 0.  0.
         12    1    1    2    0    0 -0.45585762585E+01 -0.11139905905E+02 -0.14345781266E+02  0.18726440163E+02  0.00000000000E+00 0. -1.
         11    1    3    3    0    0 -0.72268442002E+01 -0.18209697237E+02  0.42630194167E+01  0.20049780182E+02  0.51100000000E-03 0. -1.
        -11    1    3    3    0    0  0.36644097662E+01  0.16422110972E+02  0.25605837144E+02  0.30639394965E+02  0.51100000000E-03 0.  1.
         12    1    3    3    0    0  0.81210106925E+01  0.12927492170E+02 -0.15523075295E+02  0.21772384690E+02  0.00000000000E+00 0. -1.
</event>
<event>
 7    1  0.1345786E-013  0.7246150E+02  0.7816164E-02  0.1226708E+00
        -11   -1    0    0    0    0  0.00000000000E+00  0.00000000000E+00  0.45593999997E+02  0.45594000000E+02  0.51100000000E-03 0. -1.
         11   -1    0    0    0    0 -0.00000000000E+00 -0.00000000000E+00 -0.45593999997E+02  0.45594000000E+02  0.51100000000E-03 0.  1.
    9900012    2    1    2    0    0 -0.13033748601E+02  0.68280215581E+01 -0.11583665683E+02  0.72461500283E+02  0.69999908797E+02 0.  0.
         12    1    1    2    0    0  0.13033748601E+02 -0.68280215581E+01  0.11583665683E+02  0.18726499717E+02  0.00000000000E+00 0. -1.
         11    1    3    3    0    0 -0.50865592859E+01 -0.54249867309E+01  0.20384421093E+02  0.21698575759E+02  0.51100000000E-03 0. -1.
        -11    1    3    3    0    0 -0.41798059993E+01 -0.11263966294E+02 -0.21747841591E+02  0.24845851344E+02  0.51100000000E-03 0.  1.
         12    1    3    3    0    0 -0.37673833159E+01  0.23516974583E+02 -0.10220245185E+02  0.25917073180E+02  0.00000000000E+00 0. -1.
</event>
<event>
 7    1  0.1345786E-013  0.7246157E+02  0.7816164E-02  0.1226708E+00
        -11   -1    0    0    0    0  0.00000000000E+00  0.00000000000E+00  0.45593999997E+02  0.45594000000E+02  0.51100000000E-03 0.  1.
         11   -1    0    0    0    0 -0.00000000000E+00 -0.00000000000E+00 -0.45593999997E+02  0.45594000000E+02  0.51100000000E-03 0. -1.
    9900012    2    1    2    0    0 -0.92727042635E+01 -0.57314457159E+00  0.16259381409E+02  0.72461574210E+02  0.70000005101E+02 0.  0.
         12    1    1    2    0    0  0.92727042635E+01  0.57314457159E+00 -0.16259381409E+02  0.18726425790E+02  0.00000000000E+00 0. -1.
         11    1    3    3    0    0 -0.25394753689E+02 -0.59737806589E+00 -0.19423792595E+02  0.31977087023E+02  0.51100000000E-03 0. -1.
        -11    1    3    3    0    0  0.97508865785E+01  0.93256304925E+00  0.99645307001E+01  0.13972878560E+02  0.51100000000E-03 0.  1.
         12    1    3    3    0    0  0.63711628471E+01 -0.90832955495E+00  0.25718643304E+02  0.26511608627E+02  0.00000000000E+00 0. -1.
</event>
<event>
 7    1  0.1345786E-013  0.7246173E+02  0.7816164E-02  0.1226708E+00
        -11   -1    0    0    0    0  0.00000000000E+00  0.00000000000E+00  0.45593999997E+02  0.45594000000E+02  0.51100000000E-03 0.  1.
         11   -1    0    0    0    0 -0.00000000000E+00 -0.00000000000E+00 -0.45593999997E+02  0.45594000000E+02  0.51100000000E-03 0. -1.
    9900012    2    1    2    0    0  0.15780278398E+02  0.24855814634E+01  0.97712701296E+01  0.72461734449E+02  0.70000213842E+02 0.  0.
         12    1    1    2    0    0 -0.15780278398E+02 -0.24855814634E+01 -0.97712701296E+01  0.18726265551E+02  0.00000000000E+00 0. -1.
         11    1    3    3    0    0  0.19011240543E+02  0.13340013775E+02 -0.30451477665E+01  0.23423410505E+02  0.51100000000E-03 0. -1.
        -11    1    3    3    0    0 -0.19330337303E+02 -0.18134993167E+02  0.16177508284E+02  0.31052402354E+02  0.51100000000E-03 0.  1.
        -12    1    3    3    0    0  0.16099375158E+02  0.72805608552E+01 -0.33610903883E+01  0.17985921590E+02  0.00000000000E+00 0.  1.
</event>
<event>
 7    1  0.1345786E-013  0.7246152E+02  0.7816164E-02  0.1226708E+00
        -11   -1    0    0    0    0  0.00000000000E+00  0.00000000000E+00  0.45593999997E+02  0.45594000000E+02  0.51100000000E-03 0.  1.
         11   -1    0    0    0    0 -0.00000000000E+00 -0.00000000000E+00 -0.45593999997E+02  0.45594000000E+02  0.51100000000E-03 0. -1.
    9900012    2    1    2    0    0  0.30197445083E+01  0.40418452345E+01  0.18034012449E+02  0.72461522093E+02  0.69999937208E+02 0.  0.
         12    1    1    2    0    0 -0.30197445083E+01 -0.40418452345E+01 -0.18034012449E+02  0.18726477907E+02  0.00000000000E+00 0. -1.
         11    1    3    3    0    0 -0.10927098161E+02 -0.16328537928E+02  0.32199379041E+02  0.37720321260E+02  0.51100000000E-03 0. -1.
        -11    1    3    3    0    0  0.69089938972E+01  0.12288159439E+00  0.27479031331E+01  0.74364150266E+01  0.51100000000E-03 0.  1.
         12    1    3    3    0    0  0.70378487724E+01  0.20247501568E+02 -0.16913269725E+02  0.27304785806E+02  0.00000000000E+00 0. -1.
</event>
<event>
 7    1  0.1345786E-013  0.7246156E+02  0.7816164E-02  0.1226708E+00
        -11   -1    0    0    0    0  0.00000000000E+00  0.00000000000E+00  0.45593999997E+02  0.45594000000E+02  0.51100000000E-03 0. -1.
         11   -1    0    0    0    0 -0.00000000000E+00 -0.00000000000E+00 -0.45593999997E+02  0.45594000000E+02  0.51100000000E-03 0.  1.
    9900012    2    1    2    0    0  0.16263405975E+02  0.57836674406E+01 -0.72615616629E+01  0.72461562518E+02  0.69999989870E+02 0.  0.
         12    1    1    2    0    0 -0.16263405975E+02 -0.57836674406E+01  0.72615616629E+01  0.18726437482E+02  0.00000000000E+00 0. -1.
         11    1    3    3    0    0  0.19995053743E+02 -0.16227951109E+02  0.95320803711E+01  0.27459226643E+02  0.51100000000E-03 0. -1.
        -11    1    3    3    0    0 -0.17494870442E+02  0.19568875350E+02 -0.50164917751E+01  0.26724082103E+02  0.51100000000E-03 0.  1.
        -12    1    3    3    0    0  0.13763222675E+02  0.24427432001E+01 -0.11777150259E+02  0.18278253772E+02  0.00000000000E+00 0.  1.
</event>
<event>
 7    1  0.1345786E-013  0.7246165E+02  0.7816164E-02  0.1226708E+00
        -11   -1    0    0    0    0  0.00000000000E+00  0.00000000000E+00  0.45593999997E+02  0.45594000000E+02  0.51100000000E-03 0.  1.
         11   -1    0    0    0    0 -0.00000000000E+00 -0.00000000000E+00 -0.45593999997E+02  0.45594000000E+02  0.51100000000E-03 0. -1.
    9900012    2    1    2    0    0  0.16416194554E+02  0.22505092798E+01  0.87246727147E+01  0.72461650926E+02  0.70000105038E+02 0.  0.
         12    1    1    2    0    0 -0.16416194554E+02 -0.22505092798E+01 -0.87246727147E+01  0.18726349074E+02  0.00000000000E+00 0. -1.
         11    1    3    3    0    0  0.29529136204E+01  0.50269771615E+01 -0.23446302753E+02  0.24160283758E+02  0.51100000000E-03 0. -1.
        -11    1    3    3    0    0  0.15248494580E+02 -0.95722759650E+01  0.36035192188E+02  0.40282504023E+02  0.51100000000E-03 0.  1.
        -12    1    3    3    0    0 -0.17852136464E+01  0.67958080833E+01 -0.38642167206E+01  0.80188631446E+01  0.00000000000E+00 0.  1.
</event>
<event>
 7    1  0.1345786E-013  0.7246187E+02  0.7816164E-02  0.1226707E+00
        -11   -1    0    0    0    0  0.00000000000E+00  0.00000000000E+00  0.45593999997E+02  0.45594000000E+02  0.51100000000E-03 0.  1.
         11   -1    0    0    0    0 -0.00000000000E+00 -0.00000000000E+00 -0.45593999997E+02  0.45594000000E+02  0.51100000000E-03 0. -1.
    9900012    2    1    2    0    0 -0.66022795684E+01 -0.15804611566E+02  0.75691562567E+01  0.72461869362E+02  0.70000389590E+02 0.  0.
         12    1    1    2    0    0  0.66022795684E+01  0.15804611566E+02 -0.75691562567E+01  0.18726130638E+02  0.00000000000E+00 0. -1.
         11    1    3    3    0    0 -0.30870163882E+01  0.79887014351E+01 -0.24951028818E+02  0.26379970814E+02  0.51100000000E-03 0. -1.
        -11    1    3    3    0    0 -0.54760097696E+01 -0.23036316978E+02  0.14133788459E+02  0.27575760359E+02  0.51100000000E-03 0.  1.
         12    1    3    3    0    0  0.19607465893E+01 -0.75699602244E+00  0.18386396615E+02  0.18506138189E+02  0.00000000000E+00 0. -1.
</event>
<event>
 7    1  0.1345786E-013  0.7246155E+02  0.7816164E-02  0.1226708E+00
        -11   -1    0    0    0    0  0.00000000000E+00  0.00000000000E+00  0.45593999997E+02  0.45594000000E+02  0.51100000000E-03 0. -1.
         11   -1    0    0    0    0 -0.00000000000E+00 -0.00000000000E+00 -0.45593999997E+02  0.45594000000E+02  0.51100000000E-03 0.  1.
    9900012    2    1    2    0    0 -0.14612167170E+02  0.11509214163E+02 -0.21685129642E+01  0.72461551097E+02  0.69999974991E+02 0.  0.
         12    1    1    2    0    0  0.14612167170E+02 -0.11509214163E+02  0.21685129642E+01  0.18726448903E+02  0.00000000000E+00 0. -1.
         11    1    3    3    0    0  0.23498536279E+02  0.17919042392E+02 -0.66586948929E+01  0.30292103021E+02  0.51100000000E-03 0. -1.
        -11    1    3    3    0    0 -0.28078641705E+02  0.22032475028E+01  0.61937002831E+01  0.28837932364E+02  0.51100000000E-03 0.  1.
         12    1    3    3    0    0 -0.10032061744E+02 -0.86130757316E+01 -0.17035183544E+01  0.13331515712E+02  0.00000000000E+00 0. -1.
</event>
<event>
 7    1  0.1345786E-013  0.7246156E+02  0.7816164E-02  0.1226708E+00
        -11   -1    0    0    0    0  0.00000000000E+00  0.00000000000E+00  0.45593999997E+02  0.45594000000E+02  0.51100000000E-03 0.  1.
         11   -1    0    0    0    0 -0.00000000000E+00 -0.00000000000E+00 -0.45593999997E+02  0.45594000000E+02  0.51100000000E-03 0. -1.
    9900012    2    1    2    0    0  0.18422150209E+02 -0.57423728552E+00 -0.33127432217E+01  0.72461557881E+02  0.69999983830E+02 0.  0.
         12    1    1    2    0    0 -0.18422150209E+02  0.57423728552E+00  0.33127432217E+01  0.18726442119E+02  0.00000000000E+00 0. -1.
         11    1    3    3    0    0  0.29539885347E+02  0.12456229030E+02  0.13159119450E+02  0.34654363260E+02  0.51100000000E-03 0. -1.
        -11    1    3    3    0    0 -0.19745153511E+01 -0.21345057801E+02 -0.82772296405E+01  0.22978745270E+02  0.51100000000E-03 0.  1.
         12    1    3    3    0    0 -0.91432197875E+01  0.83145914855E+01 -0.81946330314E+01  0.14828449352E+02  0.00000000000E+00 0. -1.
</event>
<event>
 7    1  0.1345786E-013  0.7246163E+02  0.7816164E-02  0.1226708E+00
        -11   -1    0    0    0    0  0.00000000000E+00  0.00000000000E+00  0.45593999997E+02  0.45594000000E+02  0.51100000000E-03 0. -1.
         11   -1    0    0    0    0 -0.00000000000E+00 -0.00000000000E+00 -0.45593999997E+02  0.45594000000E+02  0.51100000000E-03 0.  1.
    9900012    2    1    2    0    0  0.52265403948E+01  0.70802492887E+01 -0.16529674226E+02  0.72461633974E+02  0.70000082955E+02 0.  0.
         12    1    1    2    0    0 -0.52265403948E+01 -0.70802492887E+01  0.16529674226E+02  0.18726366026E+02  0.00000000000E+00 0. -1.
         11    1    3    3    0    0 -0.27454501305E+02  0.23300295502E+01 -0.59464817080E+01  0.28187573939E+02  0.51100000000E-03 0. -1.
        -11    1    3    3    0    0  0.16536223540E+02  0.14644527660E+02 -0.12262671417E+02  0.25264243307E+02  0.51100000000E-03 0.  1.
         12    1    3    3    0    0  0.16144818160E+02 -0.98943079216E+01  0.16794788983E+01  0.19009816728E+02  0.00000000000E+00 0. -1.
</event>
<event>
 7    1  0.1345786E-013  0.7246149E+02  0.7816164E-02  0.1226708E+00
        -11   -1    0    0    0    0  0.00000000000E+00  0.00000000000E+00  0.45593999997E+02  0.45594000000E+02  0.51100000000E-03 0.  1.
         11   -1    0    0    0    0 -0.00000000000E+00 -0.00000000000E+00 -0.45593999997E+02  0.45594000000E+02  0.51100000000E-03 0. -1.
    9900012    2    1    2    0    0 -0.15249246668E+02 -0.63917704303E+01  0.87913609356E+01  0.72461487237E+02  0.69999891802E+02 0.  0.
         12    1    1    2    0    0  0.15249246668E+02  0.63917704303E+01 -0.87913609356E+01  0.18726512763E+02  0.00000000000E+00 0. -1.
         11    1    3    3    0    0 -0.13705209787E+02 -0.22028656417E+02 -0.14513856778E+02  0.29727874422E+02  0.51100000000E-03 0. -1.
        -11    1    3    3    0    0 -0.73386507612E+01  0.23876017336E+02  0.12395374048E+02  0.27884857842E+02  0.51100000000E-03 0.  1.
         12    1    3    3    0    0  0.57946138802E+01 -0.82391313494E+01  0.10909843666E+02  0.14848754973E+02  0.00000000000E+00 0. -1.
</event>
<event>
 7    1  0.1345786E-013  0.7246183E+02  0.7816164E-02  0.1226707E+00
        -11   -1    0    0    0    0  0.00000000000E+00  0.00000000000E+00  0.45593999997E+02  0.45594000000E+02  0.51100000000E-03 0.  1.
         11   -1    0    0    0    0 -0.00000000000E+00 -0.00000000000E+00 -0.45593999997E+02  0.45594000000E+02  0.51100000000E-03 0. -1.
    9900012    2    1    2    0    0 -0.17811185373E+02 -0.57728405019E+01  0.32465688268E+00  0.72461830772E+02  0.70000339320E+02 0.  0.
         12    1    1    2    0    0  0.17811185373E+02  0.57728405019E+01 -0.32465688268E+00  0.18726169228E+02  0.00000000000E+00 0. -1.
         11    1    3    3    0    0  0.10761535552E+02  0.35740221202E+01 -0.19051056461E+02  0.22170408975E+02  0.51100000000E-03 0. -1.
        -11    1    3    3    0    0 -0.15959149810E+02  0.79267671226E+01  0.22472095374E+02  0.28679664754E+02  0.51100000000E-03 0.  1.
         12    1    3    3    0    0 -0.12613571115E+02 -0.17273629745E+02 -0.30963820299E+01  0.21611757043E+02  0.00000000000E+00 0. -1.
</event>
<event>
 7    1  0.1345786E-013  0.7246158E+02  0.7816164E-02  0.1226708E+00
        -11   -1    0    0    0    0  0.00000000000E+00  0.00000000000E+00  0.45593999997E+02  0.45594000000E+02  0.51100000000E-03 0.  1.
         11   -1    0    0    0    0 -0.00000000000E+00 -0.00000000000E+00 -0.45593999997E+02  0.45594000000E+02  0.51100000000E-03 0. -1.
    9900012    2    1    2    0    0 -0.87475869515E+01  0.14233855441E+02  0.84590753468E+01  0.72461578187E+02  0.70000010282E+02 0.  0.
         12    1    1    2    0    0  0.87475869515E+01 -0.14233855441E+02 -0.84590753468E+01  0.18726421813E+02  0.00000000000E+00 0. -1.
         11    1    3    3    0    0 -0.26404982519E+02  0.35039924754E+02 -0.21061951140E-01  0.43875048404E+02  0.51100000000E-03 0. -1.
        -11    1    3    3    0    0  0.77155206459E+01 -0.86361947312E+01  0.38546661159E+01  0.12205390997E+02  0.51100000000E-03 0.  1.
         12    1    3    3    0    0  0.99418749213E+01 -0.12169874581E+02  0.46254711820E+01  0.16381138786E+02  0.00000000000E+00 0. -1.
</event>
<event>
 7    1  0.1345786E-013  0.7246158E+02  0.7816164E-02  0.1226708E+00
        -11   -1    0    0    0    0  0.00000000000E+00  0.00000000000E+00  0.45593999997E+02  0.45594000000E+02  0.51100000000E-03 0.  1.
         11   -1    0    0    0    0 -0.00000000000E+00 -0.00000000000E+00 -0.45593999997E+02  0.45594000000E+02  0.51100000000E-03 0. -1.
    9900012    2    1    2    0    0 -0.11457296877E+02 -0.82105934642E+01  0.12328634114E+02  0.72461582407E+02  0.70000015779E+02 0.  0.
         12    1    1    2    0    0  0.11457296877E+02  0.82105934642E+01 -0.12328634114E+02  0.18726417593E+02  0.00000000000E+00 0. -1.
         11    1    3    3    0    0 -0.17154276630E+02 -0.15544542863E+02 -0.15234697431E+02  0.27712777299E+02  0.51100000000E-03 0. -1.
        -11    1    3    3    0    0  0.35713060019E+01  0.11883433126E+02  0.34225885747E+02  0.36405788892E+02  0.51100000000E-03 0.  1.
        -12    1    3    3    0    0  0.21256737512E+01 -0.45494837276E+01 -0.66625542021E+01  0.83430162160E+01  0.00000000000E+00 0.  1.
</event>
<event>
 7    1  0.1345786E-013  0.7246154E+02  0.7816164E-02  0.1226708E+00
        -11   -1    0    0    0    0  0.00000000000E+00  0.00000000000E+00  0.45593999997E+02  0.45594000000E+02  0.51100000000E-03 0. -1.
         11   -1    0    0    0    0 -0.00000000000E+00 -0.00000000000E+00 -0.45593999997E+02  0.45594000000E+02  0.51100000000E-03 0.  1.
    9900012    2    1    2    0    0  0.14172837832E+02 -0.97204784316E+00 -0.12201068155E+02  0.72461540822E+02  0.69999961607E+02 0.  0.
         12    1    1    2    0    0 -0.14172837832E+02  0.97204784316E+00  0.12201068155E+02  0.18726459178E+02  0.00000000000E+00 0. -1.
         11    1    3    3    0    0 -0.66926011466E+01 -0.31187875426E+02 -0.12861383948E+02  0.34393163288E+02  0.51100000000E-03 0. -1.
        -11    1    3    3    0    0  0.24888771131E-01  0.56223565177E+01 -0.13068481895E+01  0.57722928472E+01  0.51100000000E-03 0.  1.
         12    1    3    3    0    0  0.20840550207E+02  0.24593471065E+02  0.19671639824E+01  0.32296084687E+02  0.00000000000E+00 0. -1.
</event>
<event>
 8    1  0.1345786E-013  0.7246155E+02  0.7816164E-02  0.1226708E+00
        -11   -1    0    0    0    0  0.00000000000E+00  0.00000000000E+00  0.45593999997E+02  0.45594000000E+02  0.51100000000E-03 0.  1.
         11   -1    0    0    0    0 -0.00000000000E+00 -0.00000000000E+00 -0.45593999997E+02  0.45594000000E+02  0.51100000000E-03 0. -1.
    9900012    2    1    2    0    0 -0.32618620081E+00  0.63260889491E+01  0.17622546193E+02  0.72461549906E+02  0.69999973440E+02 0.  0.
         24    2    3    3    0    0 -0.13049542647E+02 -0.17986916227E+01  0.48579713270E+01  0.52692123248E+02  0.50787145147E+02 0.  0.
         12    1    1    2    0    0  0.32618620081E+00 -0.63260889491E+01 -0.17622546193E+02  0.18726450094E+02  0.00000000000E+00 0. -1.
         11    1    3    3    0    0  0.12723356446E+02  0.81247805718E+01  0.12764574866E+02  0.19769426657E+02  0.51100000000E-03 0. -1.
        -11    1    4    4    0    0 -0.16687659164E+02  0.15790598893E+02  0.19014508235E+02  0.29822349094E+02  0.51100000000E-03 0.  1.
         12    1    4    4    0    0  0.36381165176E+01 -0.17589290516E+02 -0.14156536908E+02  0.22869774155E+02  0.00000000000E+00 0. -1.
</event>
<event>
 7    1  0.1345786E-013  0.7246156E+02  0.7816164E-02  0.1226708E+00
        -11   -1    0    0    0    0  0.00000000000E+00  0.00000000000E+00  0.45593999997E+02  0.45594000000E+02  0.51100000000E-03 0.  1.
         11   -1    0    0    0    0 -0.00000000000E+00 -0.00000000000E+00 -0.45593999997E+02  0.45594000000E+02  0.51100000000E-03 0. -1.
    9900012    2    1    2    0    0 -0.29708089856E+01 -0.18339421678E+02 -0.23493163986E+01  0.72461564646E+02  0.69999992642E+02 0.  0.
         12    1    1    2    0    0  0.29708089856E+01  0.18339421678E+02  0.23493163986E+01  0.18726435354E+02  0.00000000000E+00 0. -1.
         11    1    3    3    0    0 -0.43638131961E+01 -0.15541706693E+01 -0.21380847371E+02  0.21876904412E+02  0.51100000000E-03 0. -1.
        -11    1    3    3    0    0  0.10693227810E+02 -0.28078313962E+02  0.19719570843E+02  0.35938813426E+02  0.51100000000E-03 0.  1.
        -12    1    3    3    0    0 -0.93002235994E+01  0.11293062953E+02 -0.68803987074E+00  0.14645846808E+02  0.00000000000E+00 0.  1.
</event>
<event>
 7    1  0.1345786E-013  0.7246157E+02  0.7816164E-02  0.1226708E+00
        -11   -1    0    0    0    0  0.00000000000E+00  0.00000000000E+00  0.45593999997E+02  0.45594000000E+02  0.51100000000E-03 0.  1.
         11   -1    0    0    0    0 -0.00000000000E+00 -0.00000000000E+00 -0.45593999997E+02  0.45594000000E+02  0.51100000000E-03 0. -1.
    9900012    2    1    2    0    0  0.11603341074E+02 -0.56856577159E+01  0.13554149191E+02  0.72461569799E+02  0.69999999355E+02 0.  0.
         12    1    1    2    0    0 -0.11603341074E+02  0.56856577159E+01 -0.13554149191E+02  0.18726430201E+02  0.00000000000E+00 0. -1.
         11    1    3    3    0    0 -0.17015134393E+02 -0.42543364214E+01 -0.79343428693E+01  0.19250142177E+02  0.51100000000E-03 0. -1.
        -11    1    3    3    0    0  0.22307880762E+02  0.17427662865E+02  0.88970431914E+01  0.29673596931E+02  0.51100000000E-03 0.  1.
        -12    1    3    3    0    0  0.63105947051E+01 -0.18858984159E+02  0.12591448869E+02  0.23537830692E+02  0.00000000000E+00 0.  1.
</event>
<event>
 7    1  0.1345786E-013  0.7246157E+02  0.7816164E-02  0.1226708E+00
        -11   -1    0    0    0    0  0.00000000000E+00  0.00000000000E+00  0.45593999997E+02  0.45594000000E+02  0.51100000000E-03 0.  1.
         11   -1    0    0    0    0 -0.00000000000E+00 -0.00000000000E+00 -0.45593999997E+02  0.45594000000E+02  0.51100000000E-03 0. -1.
    9900012    2    1    2    0    0 -0.23009280458E+01  0.19486103857E+00  0.18583512360E+02  0.72461570220E+02  0.69999999903E+02 0.  0.
         12    1    1    2    0    0  0.23009280458E+01 -0.19486103857E+00 -0.18583512360E+02  0.18726429780E+02  0.00000000000E+00 0. -1.
         11    1    3    3    0    0  0.14201492880E+02  0.22114758908E+02  0.33561368338E+01  0.26495445199E+02  0.51100000000E-03 0. -1.
        -11    1    3    3    0    0 -0.43150163746E+01 -0.19337241982E+02 -0.65581930567E+01  0.20870030911E+02  0.51100000000E-03 0.  1.
         12    1    3    3    0    0 -0.12187404551E+02 -0.25826558877E+01  0.21785568583E+02  0.25096094110E+02  0.00000000000E+00 0. -1.
</event>
<event>
 7    1  0.1345786E-013  0.7246157E+02  0.7816164E-02  0.1226708E+00
        -11   -1    0    0    0    0  0.00000000000E+00  0.00000000000E+00  0.45593999997E+02  0.45594000000E+02  0.51100000000E-03 0.  1.
         11   -1    0    0    0    0 -0.00000000000E+00 -0.00000000000E+00 -0.45593999997E+02  0.45594000000E+02  0.51100000000E-03 0. -1.
    9900012    2    1    2    0    0 -0.18087877610E+02  0.70258296919E+00  0.47973079770E+01  0.72461572068E+02  0.70000002311E+02 0.  0.
         12    1    1    2    0    0  0.18087877610E+02 -0.70258296919E+00 -0.47973079770E+01  0.18726427932E+02  0.00000000000E+00 0. -1.
         11    1    3    3    0    0  0.15534772172E+02 -0.68251363476E+01 -0.19780706569E+02  0.26061235298E+02  0.51100000000E-03 0. -1.
        -11    1    3    3    0    0 -0.19942851420E+02 -0.52592507268E+01  0.13289168388E+02  0.24535261109E+02  0.51100000000E-03 0.  1.
         12    1    3    3    0    0 -0.13679798362E+02  0.12786970044E+02  0.11288846158E+02  0.21865075662E+02  0.00000000000E+00 0. -1.
</event>
<event>
 8    1  0.1345786E-013  0.7246155E+02  0.7816164E-02  0.1226708E+00
        -11   -1    0    0    0    0  0.00000000000E+00  0.00000000000E+00  0.45593999997E+02  0.45594000000E+02  0.51100000000E-03 0.  1.
         11   -1    0    0    0    0 -0.00000000000E+00 -0.00000000000E+00 -0.45593999997E+02  0.45594000000E+02  0.51100000000E-03 0. -1.
    9900012    2    1    2    0    0  0.17224995472E+02 -0.67249773895E+01  0.29587530574E+01  0.72461547865E+02  0.69999970782E+02 0.  0.
        -24    2    3    3    0    0  0.19839821989E+02  0.55567213143E+01  0.46252580004E+00  0.59658868788E+02  0.55986346609E+02 0.  0.
         12    1    1    2    0    0 -0.17224995472E+02  0.67249773895E+01 -0.29587530574E+01  0.18726452135E+02  0.00000000000E+00 0. -1.
         11    1    4    4    0    0  0.25679281147E+02  0.20498058129E+02  0.16679241145E+02  0.36848242193E+02  0.51100000000E-03 0. -1.
        -11    1    3    3    0    0 -0.26148265171E+01 -0.12281698704E+02  0.24962272574E+01  0.12802679077E+02  0.51100000000E-03 0.  1.
        -12    1    4    4    0    0 -0.58394591577E+01 -0.14941336815E+02 -0.16216715345E+02  0.22810626595E+02  0.00000000000E+00 0.  1.
</event>
<event>
 7    1  0.1345786E-013  0.7246151E+02  0.7816164E-02  0.1226708E+00
        -11   -1    0    0    0    0  0.00000000000E+00  0.00000000000E+00  0.45593999997E+02  0.45594000000E+02  0.51100000000E-03 0. -1.
         11   -1    0    0    0    0 -0.00000000000E+00 -0.00000000000E+00 -0.45593999997E+02  0.45594000000E+02  0.51100000000E-03 0.  1.
    9900012    2    1    2    0    0  0.16590739777E+02 -0.73054589221E+01  0.46966882906E+01  0.72461514550E+02  0.69999927382E+02 0.  0.
         12    1    1    2    0    0 -0.16590739777E+02  0.73054589221E+01 -0.46966882906E+01  0.18726485450E+02  0.00000000000E+00 0. -1.
         11    1    3    3    0    0  0.29822650958E+02  0.20979434842E+02  0.70816459328E+01  0.37144002286E+02  0.51100000000E-03 0. -1.
        -11    1    3    3    0    0 -0.11961713563E+02 -0.89168180871E+01 -0.49942298864E+01  0.15733231346E+02  0.51100000000E-03 0.  1.
         12    1    3    3    0    0 -0.12701976176E+01 -0.19368075677E+02  0.26092722442E+01  0.19584280918E+02  0.00000000000E+00 0. -1.
</event>
<event>
 7    1  0.1345786E-013  0.7246102E+02  0.7816164E-02  0.1226709E+00
        -11   -1    0    0    0    0  0.00000000000E+00  0.00000000000E+00  0.45593999997E+02  0.45594000000E+02  0.51100000000E-03 0.  1.
         11   -1    0    0    0    0 -0.00000000000E+00 -0.00000000000E+00 -0.45593999997E+02  0.45594000000E+02  0.51100000000E-03 0. -1.
    9900012    2    1    2    0    0 -0.84568793222E+01 -0.11142201743E+02  0.12451204575E+02  0.72461015114E+02  0.69999276771E+02 0.  0.
         12    1    1    2    0    0  0.84568793222E+01  0.11142201743E+02 -0.12451204575E+02  0.18726984886E+02  0.00000000000E+00 0. -1.
         11    1    3    3    0    0 -0.19163584464E+02  0.14570188416E+02 -0.64099723202E+01  0.24912268170E+02  0.51100000000E-03 0.  1.
        -11    1    3    3    0    0  0.17690478402E+02 -0.11143830091E+02  0.22784059019E+02  0.30923313549E+02  0.51100000000E-03 0. -1.
        -12    1    3    3    0    0 -0.69837732603E+01 -0.14568560068E+02 -0.39228821240E+01  0.16625433394E+02  0.00000000000E+00 0.  1.
</event>
<event>
 7    1  0.1345786E-013  0.7246154E+02  0.7816164E-02  0.1226708E+00
        -11   -1    0    0    0    0  0.00000000000E+00  0.00000000000E+00  0.45593999997E+02  0.45594000000E+02  0.51100000000E-03 0.  1.
         11   -1    0    0    0    0 -0.00000000000E+00 -0.00000000000E+00 -0.45593999997E+02  0.45594000000E+02  0.51100000000E-03 0. -1.
    9900012    2    1    2    0    0 -0.65605825975E+01  0.10335411539E+02  0.14171037609E+02  0.72461540574E+02  0.69999961284E+02 0.  0.
         12    1    1    2    0    0  0.65605825975E+01 -0.10335411539E+02 -0.14171037609E+02  0.18726459426E+02  0.00000000000E+00 0. -1.
         11    1    3    3    0    0 -0.50107645379E+01 -0.41918166879E+01 -0.36454717352E+01  0.74812133263E+01  0.51100000000E-03 0. -1.
        -11    1    3    3    0    0  0.52723375250E+01  0.36203581217E+02  0.80599466893E+00  0.36594350159E+02  0.51100000000E-03 0.  1.
        -12    1    3    3    0    0 -0.68221555845E+01 -0.21676352990E+02  0.17010514675E+02  0.28385977089E+02  0.00000000000E+00 0.  1.
</event>
<event>
 7    1  0.1345786E-013  0.7246162E+02  0.7816164E-02  0.1226708E+00
        -11   -1    0    0    0    0  0.00000000000E+00  0.00000000000E+00  0.45593999997E+02  0.45594000000E+02  0.51100000000E-03 0.  1.
         11   -1    0    0    0    0 -0.00000000000E+00 -0.00000000000E+00 -0.45593999997E+02  0.45594000000E+02  0.51100000000E-03 0. -1.
    9900012    2    1    2    0    0  0.17928528890E+02  0.49883332880E+01  0.20884733782E+01  0.72461619191E+02  0.70000063697E+02 0.  0.
         12    1    1    2    0    0 -0.17928528890E+02 -0.49883332880E+01 -0.20884733782E+01  0.18726380809E+02  0.00000000000E+00 0. -1.
         11    1    3    3    0    0  0.15336635315E+01 -0.18633045995E+02  0.13634719709E+02  0.23139751699E+02  0.51100000000E-03 0. -1.
        -11    1    3    3    0    0  0.78585091659E+01  0.23855587346E+02  0.93088072516E+01  0.26786173796E+02  0.51100000000E-03 0.  1.
         12    1    3    3    0    0  0.85363561924E+01 -0.23420806280E+00 -0.20855053582E+02  0.22535693696E+02  0.00000000000E+00 0. -1.
</event>
<event>
 7    1  0.1345786E-013  0.7246154E+02  0.7816164E-02  0.1226708E+00
        -11   -1    0    0    0    0  0.00000000000E+00  0.00000000000E+00  0.45593999997E+02  0.45594000000E+02  0.51100000000E-03 0.  1.
         11   -1    0    0    0    0 -0.00000000000E+00 -0.00000000000E+00 -0.45593999997E+02  0.45594000000E+02  0.51100000000E-03 0. -1.
    9900012    2    1    2    0    0 -0.65782789872E+01  0.17308289453E+02 -0.27981727231E+01  0.72461537205E+02  0.69999956895E+02 0.  0.
         12    1    1    2    0    0  0.65782789872E+01 -0.17308289453E+02  0.27981727231E+01  0.18726462795E+02  0.00000000000E+00 0. -1.
         11    1    3    3    0    0 -0.16195574573E+02 -0.38394891102E+01 -0.83722697158E+01  0.18631511287E+02  0.51100000000E-03 0. -1.
        -11    1    3    3    0    0  0.11091556128E+01  0.24703616178E+02  0.23219034367E+02  0.33920825987E+02  0.51100000000E-03 0.  1.
         12    1    3    3    0    0  0.85081399727E+01 -0.35558376147E+01 -0.17644937375E+02  0.19909199931E+02  0.00000000000E+00 0. -1.
</event>
<event>
 7    1  0.1345786E-013  0.7246206E+02  0.7816164E-02  0.1226707E+00
        -11   -1    0    0    0    0  0.00000000000E+00  0.00000000000E+00  0.45593999997E+02  0.45594000000E+02  0.51100000000E-03 0.  1.
         11   -1    0    0    0    0 -0.00000000000E+00 -0.00000000000E+00 -0.45593999997E+02  0.45594000000E+02  0.51100000000E-03 0. -1.
    9900012    2    1    2    0    0  0.35630002889E+01  0.16842332093E+02  0.73689705792E+01  0.72462059469E+02  0.70000637238E+02 0.  0.
         12    1    1    2    0    0 -0.35630002889E+01 -0.16842332093E+02 -0.73689705792E+01  0.18725940531E+02  0.00000000000E+00 0. -1.
         11    1    3    3    0    0 -0.22736207554E+02  0.15062313379E+02 -0.66303918652E+01  0.28067249862E+02  0.51100000000E-03 0. -1.
        -11    1    3    3    0    0  0.28237960373E+02 -0.51957194792E+01  0.87958022465E-01  0.28712116672E+02  0.51100000000E-03 0.  1.
        -12    1    3    3    0    0 -0.19387525300E+01  0.69757381931E+01  0.13911404422E+02  0.15682692935E+02  0.00000000000E+00 0.  1.
</event>
<event>
 7    1  0.1345786E-013  0.7246158E+02  0.7816164E-02  0.1226708E+00
        -11   -1    0    0    0    0  0.00000000000E+00  0.00000000000E+00  0.45593999997E+02  0.45594000000E+02  0.51100000000E-03 0.  1.
         11   -1    0    0    0    0 -0.00000000000E+00 -0.00000000000E+00 -0.45593999997E+02  0.45594000000E+02  0.51100000000E-03 0. -1.
    9900012    2    1    2    0    0  0.78743189374E+00  0.79501432901E+01  0.16936765654E+02  0.72461578608E+02  0.70000010830E+02 0.  0.
         12    1    1    2    0    0 -0.78743189374E+00 -0.79501432901E+01 -0.16936765654E+02  0.18726421392E+02  0.00000000000E+00 0. -1.
         11    1    3    3    0    0 -0.16503788408E+02 -0.23868042275E+01  0.12220587337E+01  0.16720206161E+02  0.51100000000E-03 0. -1.
        -11    1    3    3    0    0  0.14426207508E+02 -0.19082259185E+02  0.69417198341E+01  0.24908543779E+02  0.51100000000E-03 0.  1.
        -12    1    3    3    0    0  0.28650127938E+01  0.29419206702E+02  0.87729870864E+01  0.30832828669E+02  0.00000000000E+00 0.  1.
</event>
<event>
 7    1  0.1345786E-013  0.7246149E+02  0.7816164E-02  0.1226708E+00
        -11   -1    0    0    0    0  0.00000000000E+00  0.00000000000E+00  0.45593999997E+02  0.45594000000E+02  0.51100000000E-03 0.  1.
         11   -1    0    0    0    0 -0.00000000000E+00 -0.00000000000E+00 -0.45593999997E+02  0.45594000000E+02  0.51100000000E-03 0. -1.
    9900012    2    1    2    0    0 -0.34568971942E+01  0.12494545680E+02  0.13513637371E+02  0.72461489248E+02  0.69999894421E+02 0.  0.
         12    1    1    2    0    0  0.34568971942E+01 -0.12494545680E+02 -0.13513637371E+02  0.18726510752E+02  0.00000000000E+00 0. -1.
         11    1    3    3    0    0 -0.24530157502E+01  0.32700609716E+02 -0.85290299163E+00  0.32803576114E+02  0.51100000000E-03 0. -1.
        -11    1    3    3    0    0 -0.12836853772E+01 -0.12438731245E+02  0.24130506125E+02  0.27178138443E+02  0.51100000000E-03 0.  1.
         12    1    3    3    0    0  0.27980393321E+00 -0.77673327910E+01 -0.97639657622E+01  0.12479774691E+02  0.00000000000E+00 0. -1.
</event>
<event>
 7    1  0.1345786E-013  0.7246159E+02  0.7816164E-02  0.1226708E+00
        -11   -1    0    0    0    0  0.00000000000E+00  0.00000000000E+00  0.45593999997E+02  0.45594000000E+02  0.51100000000E-03 0. -1.
         11   -1    0    0    0    0 -0.00000000000E+00 -0.00000000000E+00 -0.45593999997E+02  0.45594000000E+02  0.51100000000E-03 0.  1.
    9900012    2    1    2    0    0 -0.18237799479E+02 -0.10982428262E+00  0.42484132224E+01  0.72461590677E+02  0.70000026552E+02 0.  0.
         12    1    1    2    0    0  0.18237799479E+02  0.10982428262E+00 -0.42484132224E+01  0.18726409323E+02  0.00000000000E+00 0. -1.
         11    1    3    3    0    0 -0.15971723248E+01 -0.25602180165E+02 -0.53664838242E+01  0.26207284055E+02  0.51100000000E-03 0. -1.
        -11    1    3    3    0    0 -0.24894602919E+02  0.18348319947E+02 -0.11173459748E+01  0.30945929647E+02  0.51100000000E-03 0.  1.
         12    1    3    3    0    0  0.82539757646E+01  0.71440359348E+01  0.10732243021E+02  0.15308376976E+02  0.00000000000E+00 0. -1.
</event>
<event>
 7    1  0.1345786E-013  0.7246161E+02  0.7816164E-02  0.1226708E+00
        -11   -1    0    0    0    0  0.00000000000E+00  0.00000000000E+00  0.45593999997E+02  0.45594000000E+02  0.51100000000E-03 0.  1.
         11   -1    0    0    0    0 -0.00000000000E+00 -0.00000000000E+00 -0.45593999997E+02  0.45594000000E+02  0.51100000000E-03 0. -1.
    9900012    2    1    2    0    0  0.15112547483E+02  0.66368627136E+01  0.88453832393E+01  0.72461605720E+02  0.70000046148E+02 0.  0.
         12    1    1    2    0    0 -0.15112547483E+02 -0.66368627136E+01 -0.88453832393E+01  0.18726394280E+02  0.00000000000E+00 0. -1.
         11    1    3    3    0    0 -0.37965833917E+01 -0.10571084064E+02 -0.13821099862E+02  0.17809678981E+02  0.51100000000E-03 0. -1.
        -11    1    3    3    0    0  0.15236772907E+02 -0.44783597497E+01  0.27844931698E+02  0.32055501497E+02  0.51100000000E-03 0.  1.
        -12    1    3    3    0    0  0.36723579672E+01  0.21686306527E+02 -0.51784485973E+01  0.22596425242E+02  0.00000000000E+00 0.  1.
</event>
<event>
 7    1  0.1345786E-013  0.7246157E+02  0.7816164E-02  0.1226708E+00
        -11   -1    0    0    0    0  0.00000000000E+00  0.00000000000E+00  0.45593999997E+02  0.45594000000E+02  0.51100000000E-03 0. -1.
         11   -1    0    0    0    0 -0.00000000000E+00 -0.00000000000E+00 -0.45593999997E+02  0.45594000000E+02  0.51100000000E-03 0.  1.
    9900012    2    1    2    0    0  0.94235748343E+01  0.12461724156E+02 -0.10323792609E+02  0.72461574141E+02  0.70000005011E+02 0.  0.
         12    1    1    2    0    0 -0.94235748343E+01 -0.12461724156E+02  0.10323792609E+02  0.18726425859E+02  0.00000000000E+00 0. -1.
         11    1    3    3    0    0 -0.21719044098E+01  0.12033427211E+02  0.21248442387E+02  0.24515644869E+02  0.51100000000E-03 0. -1.
        -11    1    3    3    0    0  0.94142852687E+01 -0.16052667962E+02 -0.11472003068E+02  0.21861467711E+02  0.51100000000E-03 0.  1.
         12    1    3    3    0    0  0.21811939754E+01  0.16480964907E+02 -0.20100231928E+02  0.26084461562E+02  0.00000000000E+00 0. -1.
</event>
<event>
 7    1  0.1345786E-013  0.7246159E+02  0.7816164E-02  0.1226708E+00
        -11   -1    0    0    0    0  0.00000000000E+00  0.00000000000E+00  0.45593999997E+02  0.45594000000E+02  0.51100000000E-03 0.  1.
         11   -1    0    0    0    0 -0.00000000000E+00 -0.00000000000E+00 -0.45593999997E+02  0.45594000000E+02  0.51100000000E-03 0. -1.
    9900012    2    1    2    0    0  0.17269364848E+02 -0.72342612862E+01 -0.33627303813E+00  0.72461586084E+02  0.70000020569E+02 0.  0.
         12    1    1    2    0    0 -0.17269364848E+02  0.72342612862E+01  0.33627303813E+00  0.18726413916E+02  0.00000000000E+00 0. -1.
         11    1    3    3    0    0 -0.16872287355E+02  0.14134237923E+02 -0.78978600993E+01  0.23384331435E+02  0.51100000000E-03 0. -1.
        -11    1    3    3    0    0  0.37826325751E+02 -0.17085387368E+02  0.26492122753E+01  0.41590379984E+02  0.51100000000E-03 0.  1.
        -12    1    3    3    0    0 -0.36846735481E+01 -0.42831118418E+01  0.49123747859E+01  0.74868746645E+01  0.00000000000E+00 0.  1.
</event>
<event>
 7    1  0.1345786E-013  0.7246154E+02  0.7816164E-02  0.1226708E+00
        -11   -1    0    0    0    0  0.00000000000E+00  0.00000000000E+00  0.45593999997E+02  0.45594000000E+02  0.51100000000E-03 0.  1.
         11   -1    0    0    0    0 -0.00000000000E+00 -0.00000000000E+00 -0.45593999997E+02  0.45594000000E+02  0.51100000000E-03 0. -1.
    9900012    2    1    2    0    0 -0.20268035596E+01  0.12733018228E+02  0.13580970089E+02  0.72461536521E+02  0.69999956004E+02 0.  0.
         12    1    1    2    0    0  0.20268035596E+01 -0.12733018228E+02 -0.13580970089E+02  0.18726463479E+02  0.00000000000E+00 0. -1.
         11    1    3    3    0    0  0.35821171590E+00 -0.30065718876E+01 -0.11226073116E+02  0.11627231314E+02  0.51100000000E-03 0. -1.
        -11    1    3    3    0    0 -0.20594503157E+01  0.14534533961E+02  0.41538622445E+02  0.44056227346E+02  0.51100000000E-03 0.  1.
        -12    1    3    3    0    0 -0.32556495980E+00  0.12050561542E+01 -0.16731579240E+02  0.16778077862E+02  0.00000000000E+00 0.  1.
</event>
<event>
 7    1  0.1706388E-013  0.7246161E+02  0.7816164E-02  0.1226708E+00
        -11   -1    0    0    0    0  0.00000000000E+00  0.00000000000E+00  0.45593999997E+02  0.45594000000E+02  0.51100000000E-03 0.  1.
         11   -1    0    0    0    0 -0.00000000000E+00 -0.00000000000E+00 -0.45593999997E+02  0.45594000000E+02  0.51100000000E-03 0. -1.
    9900012    2    1    2    0    0 -0.61429920758E+01 -0.16675972218E+02  0.59036579448E+01  0.72461612784E+02  0.70000055350E+02 0.  0.
         12    1    1    2    0    0  0.61429920758E+01  0.16675972218E+02 -0.59036579448E+01  0.18726387216E+02  0.00000000000E+00 0. -1.
         11    1    3    3    0    0 -0.64878132290E+01 -0.26391353927E+02 -0.21362759290E+02  0.34568233501E+02  0.51100000000E-03 0.  1.
        -11    1    3    3    0    0  0.55921345468E+01  0.14130762880E+02  0.74520789734E+01  0.16925835567E+02  0.51100000000E-03 0. -1.
        -12    1    3    3    0    0 -0.52473133935E+01 -0.44153811708E+01  0.19814338261E+02  0.20967543716E+02  0.00000000000E+00 0.  1.
</event>
<event>
 7    1  0.1345786E-013  0.7246162E+02  0.7816164E-02  0.1226708E+00
        -11   -1    0    0    0    0  0.00000000000E+00  0.00000000000E+00  0.45593999997E+02  0.45594000000E+02  0.51100000000E-03 0.  1.
         11   -1    0    0    0    0 -0.00000000000E+00 -0.00000000000E+00 -0.45593999997E+02  0.45594000000E+02  0.51100000000E-03 0. -1.
    9900012    2    1    2    0    0 -0.10893930631E+01 -0.18620424604E+02  0.16644440818E+01  0.72461618508E+02  0.70000062807E+02 0.  0.
         12    1    1    2    0    0  0.10893930631E+01  0.18620424604E+02 -0.16644440818E+01  0.18726381492E+02  0.00000000000E+00 0. -1.
         11    1    3    3    0    0  0.11077832764E+02  0.13098991353E+02  0.36924828868E+01  0.17548116233E+02  0.51100000000E-03 0. -1.
        -11    1    3    3    0    0 -0.25389320764E+02 -0.23632587254E+02 -0.11744794903E+02  0.36620445065E+02  0.51100000000E-03 0.  1.
        -12    1    3    3    0    0  0.13222094937E+02 -0.80868287030E+01  0.97167560983E+01  0.18293057210E+02  0.00000000000E+00 0.  1.
</event>
<event>
 7    1  0.1345786E-013  0.7246159E+02  0.7816164E-02  0.1226708E+00
        -11   -1    0    0    0    0  0.00000000000E+00  0.00000000000E+00  0.45593999997E+02  0.45594000000E+02  0.51100000000E-03 0.  1.
         11   -1    0    0    0    0 -0.00000000000E+00 -0.00000000000E+00 -0.45593999997E+02  0.45594000000E+02  0.51100000000E-03 0. -1.
    9900012    2    1    2    0    0 -0.14147444426E+02  0.11950390529E+02  0.27778489114E+01  0.72461589181E+02  0.70000024604E+02 0.  0.
         12    1    1    2    0    0  0.14147444426E+02 -0.11950390529E+02 -0.27778489114E+01  0.18726410819E+02  0.00000000000E+00 0. -1.
         11    1    3    3    0    0 -0.25536598412E+02 -0.57892770480E+01 -0.11108936688E+02  0.28443664704E+02  0.51100000000E-03 0. -1.
        -11    1    3    3    0    0  0.20845894808E+02  0.10801847086E+02 -0.27752757090E+01  0.23641772064E+02  0.51100000000E-03 0.  1.
        -12    1    3    3    0    0 -0.94567408210E+01  0.69378204914E+01  0.16662061308E+02  0.20376152413E+02  0.00000000000E+00 0.  1.
</event>
<event>
 7    1  0.1345786E-013  0.7246152E+02  0.7816164E-02  0.1226708E+00
        -11   -1    0    0    0    0  0.00000000000E+00  0.00000000000E+00  0.45593999997E+02  0.45594000000E+02  0.51100000000E-03 0. -1.
         11   -1    0    0    0    0 -0.00000000000E+00 -0.00000000000E+00 -0.45593999997E+02  0.45594000000E+02  0.51100000000E-03 0.  1.
    9900012    2    1    2    0    0  0.11006026096E+02 -0.97812025657E+01 -0.11570494197E+02  0.72461524891E+02  0.69999940853E+02 0.  0.
         12    1    1    2    0    0 -0.11006026096E+02  0.97812025657E+01  0.11570494197E+02  0.18726475109E+02  0.00000000000E+00 0. -1.
         11    1    3    3    0    0  0.10505683395E+02  0.86814954280E+01  0.20985949357E+02  0.25022945813E+02  0.51100000000E-03 0. -1.
        -11    1    3    3    0    0  0.94550450575E+01  0.40155848762E+01 -0.10691239719E+02  0.14826510241E+02  0.51100000000E-03 0.  1.
         12    1    3    3    0    0 -0.89547023566E+01 -0.22478282870E+02 -0.21865203836E+02  0.32612068837E+02  0.00000000000E+00 0. -1.
</event>
<event>
 7    1  0.1345786E-013  0.7246154E+02  0.7816164E-02  0.1226708E+00
        -11   -1    0    0    0    0  0.00000000000E+00  0.00000000000E+00  0.45593999997E+02  0.45594000000E+02  0.51100000000E-03 0.  1.
         11   -1    0    0    0    0 -0.00000000000E+00 -0.00000000000E+00 -0.45593999997E+02  0.45594000000E+02  0.51100000000E-03 0. -1.
    9900012    2    1    2    0    0 -0.11812823276E+02 -0.80208610517E+01  0.12116237677E+02  0.72461542214E+02  0.69999963420E+02 0.  0.
         12    1    1    2    0    0  0.11812823276E+02  0.80208610517E+01 -0.12116237677E+02  0.18726457786E+02  0.00000000000E+00 0. -1.
         11    1    3    3    0    0  0.82906192669E+01  0.23785410149E+02 -0.23737011519E+01  0.25300485395E+02  0.51100000000E-03 0. -1.
        -11    1    3    3    0    0 -0.10561770785E+02 -0.14520641681E+02 -0.57813753111E+01  0.18863306648E+02  0.51100000000E-03 0.  1.
         12    1    3    3    0    0 -0.95416717582E+01 -0.17285629519E+02  0.20271314140E+02  0.28297750172E+02  0.00000000000E+00 0. -1.
</event>
<event>
 7    1  0.1345786E-013  0.7246157E+02  0.7816164E-02  0.1226708E+00
        -11   -1    0    0    0    0  0.00000000000E+00  0.00000000000E+00  0.45593999997E+02  0.45594000000E+02  0.51100000000E-03 0.  1.
         11   -1    0    0    0    0 -0.00000000000E+00 -0.00000000000E+00 -0.45593999997E+02  0.45594000000E+02  0.51100000000E-03 0. -1.
    9900012    2    1    2    0    0 -0.45985281443E+01  0.96609134515E+01 -0.15368780828E+02  0.72461571244E+02  0.70000001237E+02 0.  0.
         12    1    1    2    0    0  0.45985281443E+01 -0.96609134515E+01  0.15368780828E+02  0.18726428756E+02  0.00000000000E+00 0. -1.
         11    1    3    3    0    0 -0.26110620946E+02 -0.11429322704E+02 -0.63080186637E+01  0.29192208608E+02  0.51100000000E-03 0. -1.
        -11    1    3    3    0    0  0.78922538591E+01 -0.63712840244E+01  0.26032043600E+01  0.10471752685E+02  0.51100000000E-03 0.  1.
         12    1    3    3    0    0  0.13619838943E+02  0.27461520180E+02 -0.11663966524E+02  0.32797609951E+02  0.00000000000E+00 0. -1.
</event>
<event>
 8    1  0.1345786E-013  0.7246158E+02  0.7816164E-02  0.1226708E+00
        -11   -1    0    0    0    0  0.00000000000E+00  0.00000000000E+00  0.45593999997E+02  0.45594000000E+02  0.51100000000E-03 0.  1.
         11   -1    0    0    0    0 -0.00000000000E+00 -0.00000000000E+00 -0.45593999997E+02  0.45594000000E+02  0.51100000000E-03 0. -1.
    9900012    2    1    2    0    0  0.14314130217E+02 -0.49397208395E+00  0.12064010607E+02  0.72461583252E+02  0.70000016880E+02 0.  0.
        -24    2    3    3    0    0  0.12540718188E+02  0.79221622418E+01 -0.22759539398E+01  0.55740013628E+02  0.53681830126E+02 0.  0.
         12    1    1    2    0    0 -0.14314130217E+02  0.49397208395E+00 -0.12064010607E+02  0.18726416748E+02  0.00000000000E+00 0. -1.
         11    1    4    4    0    0  0.22545382522E+02 -0.73103813395E+01 -0.19479202434E+02  0.30678580087E+02  0.51100000000E-03 0. -1.
        -11    1    3    3    0    0  0.17734120294E+01 -0.84161343258E+01  0.14339964547E+02  0.16721569624E+02  0.51100000000E-03 0.  1.
        -12    1    4    4    0    0 -0.10004664334E+02  0.15232543581E+02  0.17203248494E+02  0.25061433541E+02  0.00000000000E+00 0.  1.
</event>
<event>
 7    1  0.1657389E-013  0.7246154E+02  0.7816164E-02  0.1226708E+00
        -11   -1    0    0    0    0  0.00000000000E+00  0.00000000000E+00  0.45593999997E+02  0.45594000000E+02  0.51100000000E-03 0. -1.
         11   -1    0    0    0    0 -0.00000000000E+00 -0.00000000000E+00 -0.45593999997E+02  0.45594000000E+02  0.51100000000E-03 0.  1.
    9900012    2    1    2    0    0 -0.13628011850E+02  0.10407346545E+02 -0.75262667212E+01  0.72461541182E+02  0.69999962076E+02 0.  0.
         12    1    1    2    0    0  0.13628011850E+02 -0.10407346545E+02  0.75262667212E+01  0.18726458818E+02  0.00000000000E+00 0. -1.
         11    1    3    3    0    0 -0.10230941061E+01 -0.16019284389E+02  0.95147780547E+01  0.18659989164E+02  0.51100000000E-03 0. -1.
        -11    1    3    3    0    0  0.33807698858E+01  0.32404327619E+02 -0.16969449048E+02  0.36734619294E+02  0.51100000000E-03 0.  1.
         12    1    3    3    0    0 -0.15985687630E+02 -0.59776966847E+01 -0.71595727601E-01  0.17066932724E+02  0.00000000000E+00 0. -1.
</event>
<event>
 7    1  0.1345786E-013  0.7246155E+02  0.7816164E-02  0.1226708E+00
        -11   -1    0    0    0    0  0.00000000000E+00  0.00000000000E+00  0.45593999997E+02  0.45594000000E+02  0.51100000000E-03 0. -1.
         11   -1    0    0    0    0 -0.00000000000E+00 -0.00000000000E+00 -0.45593999997E+02  0.45594000000E+02  0.51100000000E-03 0.  1.
    9900012    2    1    2    0    0  0.11053958247E+02 -0.63640192618E+01 -0.13710920576E+02  0.72461546061E+02  0.69999968431E+02 0.  0.
         12    1    1    2    0    0 -0.11053958247E+02  0.63640192618E+01  0.13710920576E+02  0.18726453939E+02  0.00000000000E+00 0. -1.
         11    1    3    3    0    0  0.27160671105E+01  0.26449123634E+02  0.98902827897E+01  0.28368130983E+02  0.51100000000E-03 0. -1.
        -11    1    3    3    0    0 -0.43218498241E+01 -0.45774791362E+01 -0.36937184384E+01  0.72989901567E+01  0.51100000000E-03 0.  1.
         12    1    3    3    0    0  0.12659740961E+02 -0.28235663759E+02 -0.19907484927E+02  0.36794424921E+02  0.00000000000E+00 0. -1.
</event>
<event>
 7    1  0.1345786E-013  0.7246177E+02  0.7816164E-02  0.1226707E+00
        -11   -1    0    0    0    0  0.00000000000E+00  0.00000000000E+00  0.45593999997E+02  0.45594000000E+02  0.51100000000E-03 0.  1.
         11   -1    0    0    0    0 -0.00000000000E+00 -0.00000000000E+00 -0.45593999997E+02  0.45594000000E+02  0.51100000000E-03 0. -1.
    9900012    2    1    2    0    0  0.82517835248E+01 -0.77912952241E+01  0.14895478917E+02  0.72461774946E+02  0.70000266596E+02 0.  0.
         12    1    1    2    0    0 -0.82517835248E+01  0.77912952241E+01 -0.14895478917E+02  0.18726225054E+02  0.00000000000E+00 0. -1.
         11    1    3    3    0    0  0.17159777676E+02 -0.35960689244E+01 -0.17339662004E+02  0.24658742065E+02  0.51100000000E-03 0. -1.
        -11    1    3    3    0    0 -0.42780681109E+01  0.14956682413E+02  0.13110568090E+02  0.20344316442E+02  0.51100000000E-03 0.  1.
        -12    1    3    3    0    0 -0.46299260401E+01 -0.19151908713E+02  0.19124572831E+02  0.27458716438E+02  0.00000000000E+00 0.  1.
</event>
<event>
 7    1  0.1345786E-013  0.7246149E+02  0.7816164E-02  0.1226708E+00
        -11   -1    0    0    0    0  0.00000000000E+00  0.00000000000E+00  0.45593999997E+02  0.45594000000E+02  0.51100000000E-03 0. -1.
         11   -1    0    0    0    0 -0.00000000000E+00 -0.00000000000E+00 -0.45593999997E+02  0.45594000000E+02  0.51100000000E-03 0.  1.
    9900012    2    1    2    0    0  0.39476242010E+00  0.90420735071E+01 -0.16394125863E+02  0.72461486884E+02  0.69999891343E+02 0.  0.
         12    1    1    2    0    0 -0.39476242010E+00 -0.90420735071E+01  0.16394125863E+02  0.18726513116E+02  0.00000000000E+00 0. -1.
         11    1    3    3    0    0 -0.19438821974E+02  0.30157766989E+02 -0.95691228773E+01  0.37133903947E+02  0.51100000000E-03 0. -1.
        -11    1    3    3    0    0  0.24633854309E+01 -0.66845113328E+01 -0.10254128345E+02  0.12485916383E+02  0.51100000000E-03 0.  1.
         12    1    3    3    0    0  0.17370198963E+02 -0.14431182149E+02  0.34291253597E+01  0.22841666554E+02  0.00000000000E+00 0. -1.
</event>
<event>
 7    1  0.1345786E-013  0.7246157E+02  0.7816164E-02  0.1226708E+00
        -11   -1    0    0    0    0  0.00000000000E+00  0.00000000000E+00  0.45593999997E+02  0.45594000000E+02  0.51100000000E-03 0. -1.
         11   -1    0    0    0    0 -0.00000000000E+00 -0.00000000000E+00 -0.45593999997E+02  0.45594000000E+02  0.51100000000E-03 0.  1.
    9900012    2    1    2    0    0  0.14067554127E+02  0.12359195041E+02 -0.18243951390E+00  0.72461573076E+02  0.70000003623E+02 0.  0.
         12    1    1    2    0    0 -0.14067554127E+02 -0.12359195041E+02  0.18243951390E+00  0.18726426924E+02  0.00000000000E+00 0. -1.
         11    1    3    3    0    0 -0.14185565371E+02  0.11570478644E+02 -0.18721008130E+01  0.18401385890E+02  0.51100000000E-03 0. -1.
        -11    1    3    3    0    0  0.37110716075E+02 -0.97191527284E+01  0.75867559449E+01  0.39105319886E+02  0.51100000000E-03 0.  1.
        -12    1    3    3    0    0 -0.88575965769E+01  0.10507869125E+02 -0.58970946458E+01  0.14954867299E+02  0.00000000000E+00 0.  1.
</event>
<event>
 7    1  0.1345786E-013  0.7246158E+02  0.7816164E-02  0.1226708E+00
        -11   -1    0    0    0    0  0.00000000000E+00  0.00000000000E+00  0.45593999997E+02  0.45594000000E+02  0.51100000000E-03 0. -1.
         11   -1    0    0    0    0 -0.00000000000E+00 -0.00000000000E+00 -0.45593999997E+02  0.45594000000E+02  0.51100000000E-03 0.  1.
    9900012    2    1    2    0    0  0.57091095320E+01  0.11800416477E+02 -0.13372917879E+02  0.72461583010E+02  0.70000016565E+02 0.  0.
         12    1    1    2    0    0 -0.57091095320E+01 -0.11800416477E+02  0.13372917879E+02  0.18726416990E+02  0.00000000000E+00 0. -1.
         11    1    3    3    0    0  0.48334448489E+01  0.20077650999E+02 -0.30079147669E+02  0.36486016274E+02  0.51100000000E-03 0.  1.
        -11    1    3    3    0    0  0.44113137564E+01  0.38198258772E+01  0.21661153324E+02  0.22433375189E+02  0.51100000000E-03 0. -1.
        -12    1    3    3    0    0 -0.35356490732E+01 -0.12097060399E+02 -0.49549235341E+01  0.13542191547E+02  0.00000000000E+00 0.  1.
</event>
<event>
 7    1  0.1345786E-013  0.7246156E+02  0.7816164E-02  0.1226708E+00
        -11   -1    0    0    0    0  0.00000000000E+00  0.00000000000E+00  0.45593999997E+02  0.45594000000E+02  0.51100000000E-03 0.  1.
         11   -1    0    0    0    0 -0.00000000000E+00 -0.00000000000E+00 -0.45593999997E+02  0.45594000000E+02  0.51100000000E-03 0. -1.
    9900012    2    1    2    0    0  0.70750836100E+00  0.11337209408E+02  0.14887807497E+02  0.72461556202E+02  0.69999981643E+02 0.  0.
         12    1    1    2    0    0 -0.70750836100E+00 -0.11337209408E+02 -0.14887807497E+02  0.18726443798E+02  0.00000000000E+00 0. -1.
         11    1    3    3    0    0 -0.27012287071E+00 -0.52612074167E+01 -0.19480489304E+02  0.20180256035E+02  0.51100000000E-03 0. -1.
        -11    1    3    3    0    0 -0.11118060813E+02  0.23073951319E+02  0.23788877721E+02  0.34956104033E+02  0.51100000000E-03 0.  1.
         12    1    3    3    0    0  0.12095692044E+02 -0.64755344942E+01  0.10579419080E+02  0.17325196134E+02  0.00000000000E+00 0. -1.
</event>
<event>
 7    1  0.1345786E-013  0.7246196E+02  0.7816164E-02  0.1226707E+00
        -11   -1    0    0    0    0  0.00000000000E+00  0.00000000000E+00  0.45593999997E+02  0.45594000000E+02  0.51100000000E-03 0.  1.
         11   -1    0    0    0    0 -0.00000000000E+00 -0.00000000000E+00 -0.45593999997E+02  0.45594000000E+02  0.51100000000E-03 0. -1.
    9900012    2    1    2    0    0  0.27258627824E+01  0.11105631534E+01  0.18493268648E+02  0.72461957607E+02  0.70000504544E+02 0.  0.
         12    1    1    2    0    0 -0.27258627824E+01 -0.11105631534E+01 -0.18493268648E+02  0.18726042393E+02  0.00000000000E+00 0. -1.
         11    1    3    3    0    0  0.81848585809E+01 -0.60754094016E+01 -0.17371866160E+02  0.20141604790E+02  0.51100000000E-03 0. -1.
        -11    1    3    3    0    0  0.12061748362E+02  0.14588175088E+02  0.20165313143E+02  0.27657557382E+02  0.51100000000E-03 0.  1.
        -12    1    3    3    0    0 -0.17520744161E+02 -0.74022025328E+01  0.15699821665E+02  0.24662795434E+02  0.00000000000E+00 0.  1.
</event>
<event>
 7    1  0.1345786E-013  0.7246179E+02  0.7816164E-02  0.1226707E+00
        -11   -1    0    0    0    0  0.00000000000E+00  0.00000000000E+00  0.45593999997E+02  0.45594000000E+02  0.51100000000E-03 0. -1.
         11   -1    0    0    0    0 -0.00000000000E+00 -0.00000000000E+00 -0.45593999997E+02  0.45594000000E+02  0.51100000000E-03 0.  1.
    9900012    2    1    2    0    0 -0.18530666608E+02  0.23752029327E+01 -0.12820753587E+01  0.72461790796E+02  0.70000287244E+02 0.  0.
         12    1    1    2    0    0  0.18530666608E+02 -0.23752029327E+01  0.12820753587E+01  0.18726209204E+02  0.00000000000E+00 0. -1.
         11    1    3    3    0    0 -0.39789810336E+02 -0.53060244604E+00 -0.93692266005E+01  0.40881449985E+02  0.51100000000E-03 0. -1.
        -11    1    3    3    0    0 -0.56399747966E+00  0.76800300166E+01 -0.33042729865E+00  0.77077971350E+01  0.51100000000E-03 0.  1.
         12    1    3    3    0    0  0.21823141208E+02 -0.47742246379E+01  0.84175785405E+01  0.23872543676E+02  0.00000000000E+00 0. -1.
</event>
<event>
 7    1  0.1345786E-013  0.7246157E+02  0.7816164E-02  0.1226708E+00
        -11   -1    0    0    0    0  0.00000000000E+00  0.00000000000E+00  0.45593999997E+02  0.45594000000E+02  0.51100000000E-03 0.  1.
         11   -1    0    0    0    0 -0.00000000000E+00 -0.00000000000E+00 -0.45593999997E+02  0.45594000000E+02  0.51100000000E-03 0. -1.
    9900012    2    1    2    0    0 -0.10618266024E+02 -0.12149512892E+02  0.95037408462E+01  0.72461566091E+02  0.69999994525E+02 0.  0.
         12    1    1    2    0    0  0.10618266024E+02  0.12149512892E+02 -0.95037408462E+01  0.18726433909E+02  0.00000000000E+00 0. -1.
         11    1    3    3    0    0  0.29113687961E+02 -0.46576537555E+01 -0.15936576057E+01  0.29526942104E+02  0.51100000000E-03 0. -1.
        -11    1    3    3    0    0 -0.26125943137E+02 -0.38710732232E+01  0.11599522562E+02  0.28846126891E+02  0.51100000000E-03 0.  1.
         12    1    3    3    0    0 -0.13606010848E+02 -0.36207859136E+01 -0.50212411020E+00  0.14088497096E+02  0.00000000000E+00 0. -1.
</event>
<event>
 7    1  0.1345786E-013  0.7246157E+02  0.7816164E-02  0.1226708E+00
        -11   -1    0    0    0    0  0.00000000000E+00  0.00000000000E+00  0.45593999997E+02  0.45594000000E+02  0.51100000000E-03 0.  1.
         11   -1    0    0    0    0 -0.00000000000E+00 -0.00000000000E+00 -0.45593999997E+02  0.45594000000E+02  0.51100000000E-03 0. -1.
    9900012    2    1    2    0    0 -0.64745463866E+01  0.13366130360E+02  0.11406406054E+02  0.72461567057E+02  0.69999995783E+02 0.  0.
         12    1    1    2    0    0  0.64745463866E+01 -0.13366130360E+02 -0.11406406054E+02  0.18726432943E+02  0.00000000000E+00 0. -1.
         11    1    3    3    0    0 -0.23878912586E+02 -0.17938372269E+02 -0.26842887078E+01  0.29986548185E+02  0.51100000000E-03 0.  1.
        -11    1    3    3    0    0  0.12053295669E+02  0.23301751388E+02  0.10366103557E+01  0.26255058856E+02  0.51100000000E-03 0. -1.
        -12    1    3    3    0    0  0.53510705295E+01  0.80027512407E+01  0.13054084406E+02  0.16219960016E+02  0.00000000000E+00 0.  1.
</event>
<event>
 7    1  0.1345786E-013  0.7246161E+02  0.7816164E-02  0.1226708E+00
        -11   -1    0    0    0    0  0.00000000000E+00  0.00000000000E+00  0.45593999997E+02  0.45594000000E+02  0.51100000000E-03 0.  1.
         11   -1    0    0    0    0 -0.00000000000E+00 -0.00000000000E+00 -0.45593999997E+02  0.45594000000E+02  0.51100000000E-03 0. -1.
    9900012    2    1    2    0    0  0.13964121165E+01 -0.13567733350E+01  0.18624900441E+02  0.72461609074E+02  0.70000050518E+02 0.  0.
         12    1    1    2    0    0 -0.13964121165E+01  0.13567733350E+01 -0.18624900441E+02  0.18726390926E+02  0.00000000000E+00 0. -1.
         11    1    3    3    0    0  0.11196433647E+02 -0.27039360851E+02  0.67285989616E+01  0.30029339085E+02  0.51100000000E-03 0. -1.
        -11    1    3    3    0    0  0.94665589093E+01  0.90415391833E+01 -0.22881167130E+01  0.13289117606E+02  0.51100000000E-03 0.  1.
         12    1    3    3    0    0 -0.19266580440E+02  0.16641048332E+02  0.14184418192E+02  0.29143152384E+02  0.00000000000E+00 0. -1.
</event>
<event>
 7    1  0.1345786E-013  0.7246145E+02  0.7816164E-02  0.1226708E+00
        -11   -1    0    0    0    0  0.00000000000E+00  0.00000000000E+00  0.45593999997E+02  0.45594000000E+02  0.51100000000E-03 0. -1.
         11   -1    0    0    0    0 -0.00000000000E+00 -0.00000000000E+00 -0.45593999997E+02  0.45594000000E+02  0.51100000000E-03 0.  1.
    9900012    2    1    2    0    0  0.17754601625E+02  0.55813758227E+01 -0.20751275760E+01  0.72461446943E+02  0.69999839312E+02 0.  0.
         12    1    1    2    0    0 -0.17754601625E+02 -0.55813758227E+01  0.20751275760E+01  0.18726553057E+02  0.00000000000E+00 0. -1.
         11    1    3    3    0    0 -0.17142529075E+02 -0.84469652803E+01  0.80395609584E+00  0.19127568355E+02  0.51100000000E-03 0. -1.
        -11    1    3    3    0    0  0.26132112154E+02  0.15177409760E+02  0.14738843018E+02  0.33622530340E+02  0.51100000000E-03 0.  1.
        -12    1    3    3    0    0  0.87650185456E+01 -0.11490686571E+01 -0.17617926690E+02  0.19711348248E+02  0.00000000000E+00 0.  1.
</event>
<event>
 7    1  0.1345786E-013  0.7246157E+02  0.7816164E-02  0.1226708E+00
        -11   -1    0    0    0    0  0.00000000000E+00  0.00000000000E+00  0.45593999997E+02  0.45594000000E+02  0.51100000000E-03 0. -1.
         11   -1    0    0    0    0 -0.00000000000E+00 -0.00000000000E+00 -0.45593999997E+02  0.45594000000E+02  0.51100000000E-03 0.  1.
    9900012    2    1    2    0    0  0.62261153820E+01  0.96450942741E+01 -0.14794820533E+02  0.72461572927E+02  0.70000003430E+02 0.  0.
         12    1    1    2    0    0 -0.62261153820E+01 -0.96450942741E+01  0.14794820533E+02  0.18726427073E+02  0.00000000000E+00 0. -1.
         11    1    3    3    0    0  0.33003180320E+01 -0.12971848075E+02  0.30707190361E+01  0.13732816799E+02  0.51100000000E-03 0. -1.
        -11    1    3    3    0    0 -0.13131372712E+02  0.26373192737E+02  0.56588777056E+01  0.30000019026E+02  0.51100000000E-03 0.  1.
        -12    1    3    3    0    0  0.16057170062E+02 -0.37562503880E+01 -0.23524417274E+02  0.28728737102E+02  0.00000000000E+00 0.  1.
</event>
<event>
 7    1  0.1345786E-013  0.7246160E+02  0.7816164E-02  0.1226708E+00
        -11   -1    0    0    0    0  0.00000000000E+00  0.00000000000E+00  0.45593999997E+02  0.45594000000E+02  0.51100000000E-03 0. -1.
         11   -1    0    0    0    0 -0.00000000000E+00 -0.00000000000E+00 -0.45593999997E+02  0.45594000000E+02  0.51100000000E-03 0.  1.
    9900012    2    1    2    0    0 -0.14801087966E+02  0.11051660007E+02  0.30768222634E+01  0.72461595403E+02  0.70000032708E+02 0.  0.
         12    1    1    2    0    0  0.14801087966E+02 -0.11051660007E+02 -0.30768222634E+01  0.18726404597E+02  0.00000000000E+00 0. -1.
         11    1    3    3    0    0 -0.40766466784E+01  0.63576902981E+01  0.10296956607E+02  0.12769752922E+02  0.51100000000E-03 0. -1.
        -11    1    3    3    0    0 -0.20956895261E+02  0.20627084199E+02 -0.21118367247E+02  0.36202948733E+02  0.51100000000E-03 0.  1.
        -12    1    3    3    0    0  0.10232453973E+02 -0.15933114490E+02  0.13898232903E+02  0.23488893748E+02  0.00000000000E+00 0.  1.
</event>
<event>
 7    1  0.1345786E-013  0.7246157E+02  0.7816164E-02  0.1226708E+00
        -11   -1    0    0    0    0  0.00000000000E+00  0.00000000000E+00  0.45593999997E+02  0.45594000000E+02  0.51100000000E-03 0. -1.
         11   -1    0    0    0    0 -0.00000000000E+00 -0.00000000000E+00 -0.45593999997E+02  0.45594000000E+02  0.51100000000E-03 0.  1.
    9900012    2    1    2    0    0  0.70840396439E+01  0.14901221438E+02  0.88571494656E+01  0.72461571759E+02  0.70000001908E+02 0.  0.
         12    1    1    2    0    0 -0.70840396439E+01 -0.14901221438E+02 -0.88571494656E+01  0.18726428241E+02  0.00000000000E+00 0. -1.
         11    1    3    3    0    0  0.11059440780E+02  0.17084038382E+02  0.31482429538E+02  0.37487584180E+02  0.51100000000E-03 0. -1.
        -11    1    3    3    0    0  0.10780810112E+02  0.33067577316E+00 -0.51138883416E+01  0.11936794686E+02  0.51100000000E-03 0.  1.
         12    1    3    3    0    0 -0.14756211248E+02 -0.25134927179E+01 -0.17511391731E+02  0.23037192893E+02  0.00000000000E+00 0. -1.
</event>
<event>
 7    1  0.1345786E-013  0.7246152E+02  0.7816164E-02  0.1226708E+00
        -11   -1    0    0    0    0  0.00000000000E+00  0.00000000000E+00  0.45593999997E+02  0.45594000000E+02  0.51100000000E-03 0. -1.
         11   -1    0    0    0    0 -0.00000000000E+00 -0.00000000000E+00 -0.45593999997E+02  0.45594000000E+02  0.51100000000E-03 0.  1.
    9900012    2    1    2    0    0  0.13105605708E+02 -0.10163256637E+01 -0.13337591899E+02  0.72461516708E+02  0.69999930193E+02 0.  0.
         12    1    1    2    0    0 -0.13105605708E+02  0.10163256637E+01  0.13337591899E+02  0.18726483292E+02  0.00000000000E+00 0. -1.
         11    1    3    3    0    0  0.15053315679E+02  0.15965001630E+02 -0.32348252197E+01  0.22179893698E+02  0.51100000000E-03 0. -1.
        -11    1    3    3    0    0 -0.23764942510E+02 -0.69185875081E+01 -0.16291371635E+01  0.24805109025E+02  0.51100000000E-03 0.  1.
        -12    1    3    3    0    0  0.21817232539E+02 -0.10062739786E+02 -0.84736295158E+01  0.25476513985E+02  0.00000000000E+00 0.  1.
</event>
<event>
 7    1  0.1345786E-013  0.7246155E+02  0.7816164E-02  0.1226708E+00
        -11   -1    0    0    0    0  0.00000000000E+00  0.00000000000E+00  0.45593999997E+02  0.45594000000E+02  0.51100000000E-03 0. -1.
         11   -1    0    0    0    0 -0.00000000000E+00 -0.00000000000E+00 -0.45593999997E+02  0.45594000000E+02  0.51100000000E-03 0.  1.
    9900012    2    1    2    0    0  0.12381698223E+02  0.11450298077E+02 -0.81402838863E+01  0.72461548155E+02  0.69999971160E+02 0.  0.
         12    1    1    2    0    0 -0.12381698223E+02 -0.11450298077E+02  0.81402838863E+01  0.18726451845E+02  0.00000000000E+00 0. -1.
         11    1    3    3    0    0 -0.10175248790E+02 -0.87001321585E+01  0.49488253255E+01  0.14273011591E+02  0.51100000000E-03 0. -1.
        -11    1    3    3    0    0  0.37249198153E+02  0.15546914764E+02 -0.14108760265E+02  0.42758232402E+02  0.51100000000E-03 0.  1.
        -12    1    3    3    0    0 -0.14692251140E+02  0.46035154720E+01  0.10196510536E+01  0.15430304162E+02  0.00000000000E+00 0.  1.
</event>
<event>
 7    1  0.1345786E-013  0.7246155E+02  0.7816164E-02  0.1226708E+00
        -11   -1    0    0    0    0  0.00000000000E+00  0.00000000000E+00  0.45593999997E+02  0.45594000000E+02  0.51100000000E-03 0. -1.
         11   -1    0    0    0    0 -0.00000000000E+00 -0.00000000000E+00 -0.45593999997E+02  0.45594000000E+02  0.51100000000E-03 0.  1.
    9900012    2    1    2    0    0 -0.12895759903E+02  0.12092812016E+02 -0.61760136366E+01  0.72461551581E+02  0.69999975623E+02 0.  0.
         12    1    1    2    0    0  0.12895759903E+02 -0.12092812016E+02  0.61760136366E+01  0.18726448419E+02  0.00000000000E+00 0. -1.
         11    1    3    3    0    0 -0.28374896706E+01  0.33256431362E+02  0.12353701789E+02  0.35590104281E+02  0.51100000000E-03 0. -1.
        -11    1    3    3    0    0  0.18873720678E+01 -0.16184341174E+02 -0.28513886296E+01  0.16541628998E+02  0.51100000000E-03 0.  1.
        -12    1    3    3    0    0 -0.11945642300E+02 -0.49792781726E+01 -0.15678326796E+02  0.20329818302E+02  0.00000000000E+00 0.  1.
</event>
<event>
 7    1  0.1345786E-013  0.7246169E+02  0.7816164E-02  0.1226708E+00
        -11   -1    0    0    0    0  0.00000000000E+00  0.00000000000E+00  0.45593999997E+02  0.45594000000E+02  0.51100000000E-03 0.  1.
         11   -1    0    0    0    0 -0.00000000000E+00 -0.00000000000E+00 -0.45593999997E+02  0.45594000000E+02  0.51100000000E-03 0. -1.
    9900012    2    1    2    0    0  0.93464040007E+01  0.15626049932E+02 -0.43755932076E+01  0.72461694434E+02  0.70000161715E+02 0.  0.
         12    1    1    2    0    0 -0.93464040007E+01 -0.15626049932E+02  0.43755932076E+01  0.18726305566E+02  0.00000000000E+00 0. -1.
         11    1    3    3    0    0  0.27550402214E+01 -0.82410975096E+01 -0.78311937356E+01  0.11697586519E+02  0.51100000000E-03 0. -1.
        -11    1    3    3    0    0  0.29031159017E+02  0.22913293673E+02 -0.37567132681E+01  0.37174455150E+02  0.51100000000E-03 0.  1.
        -12    1    3    3    0    0 -0.22439795237E+02  0.95385376814E+00  0.72123137961E+01  0.23589652766E+02  0.00000000000E+00 0.  1.
</event>
<event>
 7    1  0.1345786E-013  0.7246171E+02  0.7816164E-02  0.1226708E+00
        -11   -1    0    0    0    0  0.00000000000E+00  0.00000000000E+00  0.45593999997E+02  0.45594000000E+02  0.51100000000E-03 0.  1.
         11   -1    0    0    0    0 -0.00000000000E+00 -0.00000000000E+00 -0.45593999997E+02  0.45594000000E+02  0.51100000000E-03 0. -1.
    9900012    2    1    2    0    0  0.10910724553E+02  0.12837445869E+02  0.81749583544E+01  0.72461711772E+02  0.70000184300E+02 0.  0.
         12    1    1    2    0    0 -0.10910724553E+02 -0.12837445869E+02 -0.81749583544E+01  0.18726288228E+02  0.00000000000E+00 0. -1.
         11    1    3    3    0    0  0.23708386544E+01 -0.14252391382E+02  0.20692760406E+01  0.14595665097E+02  0.51100000000E-03 0. -1.
        -11    1    3    3    0    0 -0.13524579923E+02  0.21181399828E+02 -0.12811190575E+02  0.28208023061E+02  0.51100000000E-03 0.  1.
        -12    1    3    3    0    0  0.22064465822E+02  0.59084374227E+01  0.18916872889E+02  0.29658023614E+02  0.00000000000E+00 0.  1.
</event>
<event>
 7    1  0.1345786E-013  0.7246079E+02  0.7816164E-02  0.1226710E+00
        -11   -1    0    0    0    0  0.00000000000E+00  0.00000000000E+00  0.45593999997E+02  0.45594000000E+02  0.51100000000E-03 0. -1.
         11   -1    0    0    0    0 -0.00000000000E+00 -0.00000000000E+00 -0.45593999997E+02  0.45594000000E+02  0.51100000000E-03 0.  1.
    9900012    2    1    2    0    0  0.13502704859E+02  0.12689447110E+02  0.27135322670E+01  0.72460790816E+02  0.69998984577E+02 0.  0.
         12    1    1    2    0    0 -0.13502704859E+02 -0.12689447110E+02 -0.27135322670E+01  0.18727209184E+02  0.00000000000E+00 0. -1.
         11    1    3    3    0    0  0.79520542065E+01  0.90990551522E+01 -0.28259659346E+02  0.30734936431E+02  0.51100000000E-03 0.  1.
        -11    1    3    3    0    0 -0.10148088366E+02  0.66423132877E+00  0.19726884545E+02  0.22194027910E+02  0.51100000000E-03 0. -1.
         12    1    3    3    0    0  0.15698739018E+02  0.29261606290E+01  0.11246307068E+02  0.19531826475E+02  0.00000000000E+00 0. -1.
</event>
<event>
 7    1  0.1345786E-013  0.7246141E+02  0.7816164E-02  0.1226708E+00
        -11   -1    0    0    0    0  0.00000000000E+00  0.00000000000E+00  0.45593999997E+02  0.45594000000E+02  0.51100000000E-03 0. -1.
         11   -1    0    0    0    0 -0.00000000000E+00 -0.00000000000E+00 -0.45593999997E+02  0.45594000000E+02  0.51100000000E-03 0.  1.
    9900012    2    1    2    0    0  0.13336207328E+01 -0.14619331434E+02 -0.11626770610E+02  0.72461409529E+02  0.69999790573E+02 0.  0.
         12    1    1    2    0    0 -0.13336207328E+01  0.14619331434E+02  0.11626770610E+02  0.18726590471E+02  0.00000000000E+00 0. -1.
         11    1    3    3    0    0 -0.66761210666E+00  0.16287329693E+00  0.20116560032E+02  0.20128294051E+02  0.51100000000E-03 0. -1.
        -11    1    3    3    0    0  0.51183633906E+01 -0.26809212815E+02 -0.14006381082E+02  0.30677520220E+02  0.51100000000E-03 0.  1.
        -12    1    3    3    0    0 -0.31171305512E+01  0.12027008084E+02 -0.17736949559E+02  0.21655595258E+02  0.00000000000E+00 0.  1.
</event>
<event>
 7    1  0.1345786E-013  0.7246159E+02  0.7816164E-02  0.1226708E+00
        -11   -1    0    0    0    0  0.00000000000E+00  0.00000000000E+00  0.45593999997E+02  0.45594000000E+02  0.51100000000E-03 0. -1.
         11   -1    0    0    0    0 -0.00000000000E+00 -0.00000000000E+00 -0.45593999997E+02  0.45594000000E+02  0.51100000000E-03 0.  1.
    9900012    2    1    2    0    0 -0.10381520396E+02 -0.52577775493E+01 -0.14671678126E+02  0.72461592723E+02  0.70000029217E+02 0.  0.
         12    1    1    2    0    0  0.10381520396E+02  0.52577775493E+01  0.14671678126E+02  0.18726407277E+02  0.00000000000E+00 0. -1.
         11    1    3    3    0    0  0.40642798589E+00  0.19152783657E+02  0.14650023330E+02  0.24116747072E+02  0.51100000000E-03 0. -1.
        -11    1    3    3    0    0 -0.10836640789E+02  0.26478145686E+01 -0.11002390281E+02  0.15668321472E+02  0.51100000000E-03 0.  1.
         12    1    3    3    0    0  0.48692407161E-01 -0.27058375775E+02 -0.18319311174E+02  0.32676524179E+02  0.00000000000E+00 0. -1.
</event>
<event>
 7    1  0.1345786E-013  0.7246190E+02  0.7816164E-02  0.1226707E+00
        -11   -1    0    0    0    0  0.00000000000E+00  0.00000000000E+00  0.45593999997E+02  0.45594000000E+02  0.51100000000E-03 0. -1.
         11   -1    0    0    0    0 -0.00000000000E+00 -0.00000000000E+00 -0.45593999997E+02  0.45594000000E+02  0.51100000000E-03 0.  1.
    9900012    2    1    2    0    0 -0.11018511591E+02 -0.15022905671E+02 -0.18898026432E+01  0.72461904665E+02  0.70000435578E+02 0.  0.
         12    1    1    2    0    0  0.11018511591E+02  0.15022905671E+02  0.18898026432E+01  0.18726095335E+02  0.00000000000E+00 0. -1.
         11    1    3    3    0    0 -0.13660921404E+02 -0.27439517159E+02  0.50515946013E+01  0.31065519210E+02  0.51100000000E-03 0. -1.
        -11    1    3    3    0    0 -0.11242611413E+02  0.16189985961E+02  0.74256537304E+01  0.21063055106E+02  0.51100000000E-03 0.  1.
         12    1    3    3    0    0  0.13885021227E+02 -0.37733744723E+01 -0.14367050975E+02  0.20333330349E+02  0.00000000000E+00 0. -1.
</event>
<event>
 7    1  0.1345786E-013  0.7246184E+02  0.7816164E-02  0.1226707E+00
        -11   -1    0    0    0    0  0.00000000000E+00  0.00000000000E+00  0.45593999997E+02  0.45594000000E+02  0.51100000000E-03 0.  1.
         11   -1    0    0    0    0 -0.00000000000E+00 -0.00000000000E+00 -0.45593999997E+02  0.45594000000E+02  0.51100000000E-03 0. -1.
    9900012    2    1    2    0    0 -0.13169468692E+02  0.43606809872E+01  0.12578503115E+02  0.72461836888E+02  0.70000347287E+02 0.  0.
         12    1    1    2    0    0  0.13169468692E+02 -0.43606809872E+01 -0.12578503115E+02  0.18726163112E+02  0.00000000000E+00 0. -1.
         11    1    3    3    0    0 -0.19171714361E+02 -0.88308719655E+00  0.76154155937E+01  0.20647736667E+02  0.51100000000E-03 0. -1.
        -11    1    3    3    0    0  0.12324209581E+02 -0.18422139190E+02 -0.86468607706E+01  0.23791375656E+02  0.51100000000E-03 0.  1.
        -12    1    3    3    0    0 -0.63219639114E+01  0.23665907374E+02  0.13609948291E+02  0.28022724565E+02  0.00000000000E+00 0.  1.
</event>
<event>
 7    1  0.1345786E-013  0.7246156E+02  0.7816164E-02  0.1226708E+00
        -11   -1    0    0    0    0  0.00000000000E+00  0.00000000000E+00  0.45593999997E+02  0.45594000000E+02  0.51100000000E-03 0.  1.
         11   -1    0    0    0    0 -0.00000000000E+00 -0.00000000000E+00 -0.45593999997E+02  0.45594000000E+02  0.51100000000E-03 0. -1.
    9900012    2    1    2    0    0 -0.17898524010E+02  0.55059702390E+01 -0.81714161245E-01  0.72461560209E+02  0.69999986863E+02 0.  0.
         12    1    1    2    0    0  0.17898524010E+02 -0.55059702390E+01  0.81714161245E-01  0.18726439791E+02  0.00000000000E+00 0. -1.
         11    1    3    3    0    0 -0.24493708179E+01  0.96322301013E+01 -0.26102128058E+02  0.27930276825E+02  0.51100000000E-03 0. -1.
        -11    1    3    3    0    0 -0.30453298918E+01 -0.17541291841E+02  0.14165658711E+02  0.22751633800E+02  0.51100000000E-03 0.  1.
         12    1    3    3    0    0 -0.12403823301E+02  0.13415031979E+02  0.11854755186E+02  0.21779649584E+02  0.00000000000E+00 0. -1.
</event>
<event>
 7    1  0.1345786E-013  0.7246170E+02  0.7816164E-02  0.1226708E+00
        -11   -1    0    0    0    0  0.00000000000E+00  0.00000000000E+00  0.45593999997E+02  0.45594000000E+02  0.51100000000E-03 0. -1.
         11   -1    0    0    0    0 -0.00000000000E+00 -0.00000000000E+00 -0.45593999997E+02  0.45594000000E+02  0.51100000000E-03 0.  1.
    9900012    2    1    2    0    0  0.65430302694E+01  0.33239830292E+01 -0.17228297065E+02  0.72461699564E+02  0.70000168397E+02 0.  0.
         12    1    1    2    0    0 -0.65430302694E+01 -0.33239830292E+01  0.17228297065E+02  0.18726300436E+02  0.00000000000E+00 0. -1.
         11    1    3    3    0    0 -0.11663017774E+02  0.10050986773E+02  0.10588503306E+02  0.18685949835E+02  0.51100000000E-03 0. -1.
        -11    1    3    3    0    0  0.17045183625E+02 -0.14899709654E+02 -0.35757401484E+02  0.42321760287E+02  0.51100000000E-03 0.  1.
        -12    1    3    3    0    0  0.11608644184E+01  0.81727059104E+01  0.79406011139E+01  0.11453989442E+02  0.00000000000E+00 0.  1.
</event>
<event>
 7    1  0.1345786E-013  0.7246154E+02  0.7816164E-02  0.1226708E+00
        -11   -1    0    0    0    0  0.00000000000E+00  0.00000000000E+00  0.45593999997E+02  0.45594000000E+02  0.51100000000E-03 0. -1.
         11   -1    0    0    0    0 -0.00000000000E+00 -0.00000000000E+00 -0.45593999997E+02  0.45594000000E+02  0.51100000000E-03 0.  1.
    9900012    2    1    2    0    0  0.17098461471E+02 -0.74696161469E+01  0.15898415661E+01  0.72461544215E+02  0.69999966027E+02 0.  0.
         12    1    1    2    0    0 -0.17098461471E+02  0.74696161469E+01 -0.15898415661E+01  0.18726455785E+02  0.00000000000E+00 0. -1.
         11    1    3    3    0    0 -0.43962201582E+00  0.19221762726E+02 -0.13305455177E+02  0.23381714385E+02  0.51100000000E-03 0. -1.
        -11    1    3    3    0    0  0.95572780263E+01 -0.29630364165E+02  0.21897736692E+02  0.38063248893E+02  0.51100000000E-03 0.  1.
        -12    1    3    3    0    0  0.79808054601E+01  0.29389852918E+01 -0.70024399480E+01  0.11016580938E+02  0.00000000000E+00 0.  1.
</event>
<event>
 7    1  0.1345786E-013  0.7246158E+02  0.7816164E-02  0.1226708E+00
        -11   -1    0    0    0    0  0.00000000000E+00  0.00000000000E+00  0.45593999997E+02  0.45594000000E+02  0.51100000000E-03 0.  1.
         11   -1    0    0    0    0 -0.00000000000E+00 -0.00000000000E+00 -0.45593999997E+02  0.45594000000E+02  0.51100000000E-03 0. -1.
    9900012    2    1    2    0    0  0.11372334087E+02 -0.11847307030E+02  0.89994575315E+01  0.72461577429E+02  0.70000009294E+02 0.  0.
         12    1    1    2    0    0 -0.11372334087E+02  0.11847307030E+02 -0.89994575315E+01  0.18726422571E+02  0.00000000000E+00 0. -1.
         11    1    3    3    0    0  0.21917442889E+02  0.12258028092E+02 -0.49353015188E+01  0.25592787203E+02  0.51100000000E-03 0. -1.
        -11    1    3    3    0    0 -0.20853046337E+02 -0.43738087953E+01  0.12169230907E+02  0.24537113238E+02  0.51100000000E-03 0.  1.
         12    1    3    3    0    0  0.10307937535E+02 -0.19731526327E+02  0.17655281432E+01  0.22331676987E+02  0.00000000000E+00 0. -1.
</event>
<event>
 7    1  0.1345786E-013  0.7246158E+02  0.7816164E-02  0.1226708E+00
        -11   -1    0    0    0    0  0.00000000000E+00  0.00000000000E+00  0.45593999997E+02  0.45594000000E+02  0.51100000000E-03 0.  1.
         11   -1    0    0    0    0 -0.00000000000E+00 -0.00000000000E+00 -0.45593999997E+02  0.45594000000E+02  0.51100000000E-03 0. -1.
    9900012    2    1    2    0    0  0.51688148605E+00  0.31353855627E+01  0.18454838124E+02  0.72461578578E+02  0.70000010791E+02 0.  0.
         12    1    1    2    0    0 -0.51688148605E+00 -0.31353855627E+01 -0.18454838124E+02  0.18726421422E+02  0.00000000000E+00 0. -1.
         11    1    3    3    0    0  0.10096956832E+02  0.39813536206E+01 -0.21592214060E+02  0.24166576551E+02  0.51100000000E-03 0. -1.
        -11    1    3    3    0    0 -0.17010148710E+02 -0.52442718450E+01  0.31279690141E+02  0.35989811918E+02  0.51100000000E-03 0.  1.
        -12    1    3    3    0    0  0.74300733646E+01  0.43983037870E+01  0.87673620436E+01  0.12305190109E+02  0.00000000000E+00 0.  1.
</event>
<event>
 7    1  0.1345786E-013  0.7246221E+02  0.7816164E-02  0.1226706E+00
        -11   -1    0    0    0    0  0.00000000000E+00  0.00000000000E+00  0.45593999997E+02  0.45594000000E+02  0.51100000000E-03 0.  1.
         11   -1    0    0    0    0 -0.00000000000E+00 -0.00000000000E+00 -0.45593999997E+02  0.45594000000E+02  0.51100000000E-03 0. -1.
    9900012    2    1    2    0    0 -0.14331336196E+02 -0.10020470711E+02 -0.66976342757E+01  0.72462206684E+02  0.70000829011E+02 0.  0.
         12    1    1    2    0    0  0.14331336196E+02  0.10020470711E+02  0.66976342757E+01  0.18725793316E+02  0.00000000000E+00 0. -1.
         11    1    3    3    0    0 -0.30216018210E+02  0.18105434899E+02 -0.97502975309E-01  0.35225332311E+02  0.51100000000E-03 0.  1.
        -11    1    3    3    0    0  0.19445229427E+02 -0.24173105871E+02 -0.38901101482E+01  0.31266418921E+02  0.51100000000E-03 0. -1.
         12    1    3    3    0    0 -0.35605474123E+01 -0.39527997393E+01 -0.27100211522E+01  0.59704554516E+01  0.00000000000E+00 0. -1.
</event>
<event>
 7    1  0.1345786E-013  0.7246161E+02  0.7816164E-02  0.1226708E+00
        -11   -1    0    0    0    0  0.00000000000E+00  0.00000000000E+00  0.45593999997E+02  0.45594000000E+02  0.51100000000E-03 0.  1.
         11   -1    0    0    0    0 -0.00000000000E+00 -0.00000000000E+00 -0.45593999997E+02  0.45594000000E+02  0.51100000000E-03 0. -1.
    9900012    2    1    2    0    0  0.15293503624E+02  0.96625797503E+01 -0.48395136559E+01  0.72461612389E+02  0.70000054836E+02 0.  0.
         12    1    1    2    0    0 -0.15293503624E+02 -0.96625797503E+01  0.48395136559E+01  0.18726387611E+02  0.00000000000E+00 0. -1.
         11    1    3    3    0    0  0.25987888304E+01 -0.15908657640E+02 -0.53195521279E+01  0.16974590611E+02  0.51100000000E-03 0. -1.
        -11    1    3    3    0    0  0.25737753457E+02  0.31883690817E+02 -0.28425811799E+00  0.40976609133E+02  0.51100000000E-03 0.  1.
        -12    1    3    3    0    0 -0.13043038664E+02 -0.63124534261E+01  0.76429658994E+00  0.14510412645E+02  0.00000000000E+00 0.  1.
</event>
<event>
 7    1  0.1345786E-013  0.7246128E+02  0.7816164E-02  0.1226709E+00
        -11   -1    0    0    0    0  0.00000000000E+00  0.00000000000E+00  0.45593999997E+02  0.45594000000E+02  0.51100000000E-03 0. -1.
         11   -1    0    0    0    0 -0.00000000000E+00 -0.00000000000E+00 -0.45593999997E+02  0.45594000000E+02  0.51100000000E-03 0.  1.
    9900012    2    1    2    0    0  0.23242597711E+01 -0.14928491648E+02 -0.11064726447E+02  0.72461275307E+02  0.69999615723E+02 0.  0.
         12    1    1    2    0    0 -0.23242597711E+01  0.14928491648E+02  0.11064726447E+02  0.18726724693E+02  0.00000000000E+00 0. -1.
         11    1    3    3    0    0  0.24660041795E+02 -0.46796410279E+01 -0.43099085627E+01  0.25467469713E+02  0.51100000000E-03 0. -1.
        -11    1    3    3    0    0 -0.23475937696E+02  0.19033435572E+01 -0.18580046429E+02  0.29999341542E+02  0.51100000000E-03 0.  1.
        -12    1    3    3    0    0  0.11401556717E+01 -0.12152194177E+02  0.11825228544E+02  0.16994464052E+02  0.00000000000E+00 0.  1.
</event>
<event>
 7    1  0.1345786E-013  0.7246159E+02  0.7816164E-02  0.1226708E+00
        -11   -1    0    0    0    0  0.00000000000E+00  0.00000000000E+00  0.45593999997E+02  0.45594000000E+02  0.51100000000E-03 0. -1.
         11   -1    0    0    0    0 -0.00000000000E+00 -0.00000000000E+00 -0.45593999997E+02  0.45594000000E+02  0.51100000000E-03 0.  1.
    9900012    2    1    2    0    0  0.98410055973E+01  0.15242682535E+02  0.46361295685E+01  0.72461589254E+02  0.70000024699E+02 0.  0.
         12    1    1    2    0    0 -0.98410055973E+01 -0.15242682535E+02 -0.46361295685E+01  0.18726410746E+02  0.00000000000E+00 0. -1.
         11    1    3    3    0    0 -0.63552047108E+01  0.18731403932E+02  0.62317664560E+01  0.20738588033E+02  0.51100000000E-03 0. -1.
        -11    1    3    3    0    0  0.26202395190E+02  0.82939007703E+01 -0.14957567538E+02  0.31290304098E+02  0.51100000000E-03 0.  1.
        -12    1    3    3    0    0 -0.10006184881E+02 -0.11782622167E+02  0.13361930650E+02  0.20432697123E+02  0.00000000000E+00 0.  1.
</event>
<event>
 7    1  0.1345786E-013  0.7246157E+02  0.7816164E-02  0.1226708E+00
        -11   -1    0    0    0    0  0.00000000000E+00  0.00000000000E+00  0.45593999997E+02  0.45594000000E+02  0.51100000000E-03 0.  1.
         11   -1    0    0    0    0 -0.00000000000E+00 -0.00000000000E+00 -0.45593999997E+02  0.45594000000E+02  0.51100000000E-03 0. -1.
    9900012    2    1    2    0    0 -0.18122344552E+02 -0.18486646865E+01  0.43407797882E+01  0.72461566748E+02  0.69999995380E+02 0.  0.
         12    1    1    2    0    0  0.18122344552E+02  0.18486646865E+01 -0.43407797882E+01  0.18726433252E+02  0.00000000000E+00 0. -1.
         11    1    3    3    0    0 -0.36279340507E+02  0.11079428593E+02  0.18239722432E+02  0.42090756233E+02  0.51100000000E-03 0.  1.
        -11    1    3    3    0    0  0.10306168486E+02 -0.15558571334E+02 -0.86691472534E+01  0.20577666660E+02  0.51100000000E-03 0. -1.
        -12    1    3    3    0    0  0.78508274691E+01  0.26304780540E+01 -0.52297953906E+01  0.97931438553E+01  0.00000000000E+00 0.  1.
</event>
<event>
 7    1  0.1345786E-013  0.7246148E+02  0.7816164E-02  0.1226708E+00
        -11   -1    0    0    0    0  0.00000000000E+00  0.00000000000E+00  0.45593999997E+02  0.45594000000E+02  0.51100000000E-03 0. -1.
         11   -1    0    0    0    0 -0.00000000000E+00 -0.00000000000E+00 -0.45593999997E+02  0.45594000000E+02  0.51100000000E-03 0.  1.
    9900012    2    1    2    0    0  0.70341621532E+01  0.67310958067E+01 -0.15996737377E+02  0.72461476172E+02  0.69999877389E+02 0.  0.
         12    1    1    2    0    0 -0.70341621532E+01 -0.67310958067E+01  0.15996737377E+02  0.18726523828E+02  0.00000000000E+00 0. -1.
         11    1    3    3    0    0  0.97951513133E+01 -0.82205698515E+01  0.57631601554E+01  0.14026288646E+02  0.51100000000E-03 0. -1.
        -11    1    3    3    0    0 -0.27094170058E+02  0.38103000167E+01 -0.91457703267E+01  0.28848874371E+02  0.51100000000E-03 0.  1.
        -12    1    3    3    0    0  0.24333180898E+02  0.11141365642E+02 -0.12614127206E+02  0.29586313156E+02  0.00000000000E+00 0.  1.
</event>
<event>
 7    1  0.1481706E-013  0.7246158E+02  0.7816164E-02  0.1226708E+00
        -11   -1    0    0    0    0  0.00000000000E+00  0.00000000000E+00  0.45593999997E+02  0.45594000000E+02  0.51100000000E-03 0. -1.
         11   -1    0    0    0    0 -0.00000000000E+00 -0.00000000000E+00 -0.45593999997E+02  0.45594000000E+02  0.51100000000E-03 0.  1.
    9900012    2    1    2    0    0  0.12286039701E+02 -0.37273750427E+01 -0.13632272401E+02  0.72461576234E+02  0.70000007738E+02 0.  0.
         12    1    1    2    0    0 -0.12286039701E+02  0.37273750427E+01  0.13632272401E+02  0.18726423766E+02  0.00000000000E+00 0. -1.
         11    1    3    3    0    0 -0.14971016612E+02  0.37153572589E+01  0.17266476628E+02  0.23153108503E+02  0.51100000000E-03 0. -1.
        -11    1    3    3    0    0  0.79715398268E+01 -0.13760267365E+02 -0.55639047985E+01  0.16847772614E+02  0.51100000000E-03 0.  1.
         12    1    3    3    0    0  0.19285516486E+02  0.63175350636E+01 -0.25334844230E+02  0.32460695118E+02  0.00000000000E+00 0. -1.
</event>
<event>
 7    1  0.1345786E-013  0.7246156E+02  0.7816164E-02  0.1226708E+00
        -11   -1    0    0    0    0  0.00000000000E+00  0.00000000000E+00  0.45593999997E+02  0.45594000000E+02  0.51100000000E-03 0.  1.
         11   -1    0    0    0    0 -0.00000000000E+00 -0.00000000000E+00 -0.45593999997E+02  0.45594000000E+02  0.51100000000E-03 0. -1.
    9900012    2    1    2    0    0 -0.46316402330E+01 -0.97816765375E+01  0.15282218585E+02  0.72461561684E+02  0.69999988783E+02 0.  0.
         12    1    1    2    0    0  0.46316402330E+01  0.97816765375E+01 -0.15282218585E+02  0.18726438316E+02  0.00000000000E+00 0. -1.
         11    1    3    3    0    0 -0.62904700708E+01 -0.80147496013E+01  0.34954742583E+02  0.36409342952E+02  0.51100000000E-03 0.  1.
        -11    1    3    3    0    0 -0.12518220137E+02 -0.75744902262E+01 -0.72549597825E+01  0.16331355709E+02  0.51100000000E-03 0. -1.
         12    1    3    3    0    0  0.14177049975E+02  0.58075632901E+01 -0.12417564215E+02  0.19720863023E+02  0.00000000000E+00 0. -1.
</event>
<event>
 7    1  0.1345786E-013  0.7246160E+02  0.7816164E-02  0.1226708E+00
        -11   -1    0    0    0    0  0.00000000000E+00  0.00000000000E+00  0.45593999997E+02  0.45594000000E+02  0.51100000000E-03 0. -1.
         11   -1    0    0    0    0 -0.00000000000E+00 -0.00000000000E+00 -0.45593999997E+02  0.45594000000E+02  0.51100000000E-03 0.  1.
    9900012    2    1    2    0    0  0.11976606513E+02  0.11981204664E+02  0.79805934747E+01  0.72461595087E+02  0.70000032297E+02 0.  0.
         12    1    1    2    0    0 -0.11976606513E+02 -0.11981204664E+02 -0.79805934747E+01  0.18726404913E+02  0.00000000000E+00 0. -1.
         11    1    3    3    0    0  0.30851816807E+02  0.85199151697E+01 -0.18055049323E+02  0.36747902812E+02  0.51100000000E-03 0. -1.
        -11    1    3    3    0    0 -0.57059587694E+01 -0.59469544773E+01  0.94713774942E+01  0.12555127436E+02  0.51100000000E-03 0.  1.
         12    1    3    3    0    0 -0.13169251525E+02  0.94082439714E+01  0.16564265303E+02  0.23158564839E+02  0.00000000000E+00 0. -1.
</event>
<event>
 7    1  0.1345786E-013  0.7246152E+02  0.7816164E-02  0.1226708E+00
        -11   -1    0    0    0    0  0.00000000000E+00  0.00000000000E+00  0.45593999997E+02  0.45594000000E+02  0.51100000000E-03 0.  1.
         11   -1    0    0    0    0 -0.00000000000E+00 -0.00000000000E+00 -0.45593999997E+02  0.45594000000E+02  0.51100000000E-03 0. -1.
    9900012    2    1    2    0    0  0.11457550559E+02  0.54593602523E+01  0.13769567280E+02  0.72461519758E+02  0.69999934167E+02 0.  0.
         12    1    1    2    0    0 -0.11457550559E+02 -0.54593602523E+01 -0.13769567280E+02  0.18726480242E+02  0.00000000000E+00 0. -1.
         11    1    3    3    0    0  0.75296294012E+01  0.26771183438E+02 -0.17685862571E+02  0.32957265007E+02  0.51100000000E-03 0. -1.
        -11    1    3    3    0    0  0.55169576657E+01 -0.48414118714E+01  0.91023497314E+01  0.11693111720E+02  0.51100000000E-03 0.  1.
         12    1    3    3    0    0 -0.15890365080E+01 -0.16470411314E+02  0.22353080120E+02  0.27811143032E+02  0.00000000000E+00 0. -1.
</event>
<event>
 7    1  0.1345786E-013  0.7246160E+02  0.7816164E-02  0.1226708E+00
        -11   -1    0    0    0    0  0.00000000000E+00  0.00000000000E+00  0.45593999997E+02  0.45594000000E+02  0.51100000000E-03 0.  1.
         11   -1    0    0    0    0 -0.00000000000E+00 -0.00000000000E+00 -0.45593999997E+02  0.45594000000E+02  0.51100000000E-03 0. -1.
    9900012    2    1    2    0    0 -0.98517878384E+01  0.86994915933E+01  0.13339387902E+02  0.72461597591E+02  0.70000035559E+02 0.  0.
         12    1    1    2    0    0  0.98517878384E+01 -0.86994915933E+01 -0.13339387902E+02  0.18726402409E+02  0.00000000000E+00 0. -1.
         11    1    3    3    0    0  0.95131309318E+01  0.23880758811E+02  0.23250843955E+02  0.34661102786E+02  0.51100000000E-03 0. -1.
        -11    1    3    3    0    0 -0.26034600507E+00 -0.16365836323E+02 -0.89033285246E+01  0.18632703445E+02  0.51100000000E-03 0.  1.
         12    1    3    3    0    0 -0.19104572765E+02  0.11845691053E+01 -0.10081275284E+01  0.19167791360E+02  0.00000000000E+00 0. -1.
</event>
<event>
 8    1  0.1345786E-013  0.7246159E+02  0.7816164E-02  0.1226708E+00
        -11   -1    0    0    0    0  0.00000000000E+00  0.00000000000E+00  0.45593999997E+02  0.45594000000E+02  0.51100000000E-03 0.  1.
         11   -1    0    0    0    0 -0.00000000000E+00 -0.00000000000E+00 -0.45593999997E+02  0.45594000000E+02  0.51100000000E-03 0. -1.
    9900012    2    1    2    0    0  0.23942197807E+00 -0.16533427024E+02  0.87901513048E+01  0.72461593725E+02  0.70000030522E+02 0.  0.
         24    2    3    3    0    0  0.14119573717E+02 -0.49844393287E+01  0.12994841079E+02  0.53921983550E+02  0.50144864322E+02 0.  0.
         12    1    1    2    0    0 -0.23942197807E+00  0.16533427024E+02 -0.87901513048E+01  0.18726406275E+02  0.00000000000E+00 0. -1.
         11    1    3    3    0    0 -0.13880151739E+02 -0.11548987695E+02 -0.42046897739E+01  0.18539610175E+02  0.51100000000E-03 0. -1.
        -11    1    4    4    0    0  0.81016354511E+01 -0.19234458521E+01  0.32359699151E+02  0.33413863445E+02  0.51100000000E-03 0.  1.
         12    1    4    4    0    0  0.60179382663E+01 -0.30609934766E+01 -0.19364858073E+02  0.20508120104E+02  0.00000000000E+00 0. -1.
</event>
<event>
 7    1  0.1345786E-013  0.7246156E+02  0.7816164E-02  0.1226708E+00
        -11   -1    0    0    0    0  0.00000000000E+00  0.00000000000E+00  0.45593999997E+02  0.45594000000E+02  0.51100000000E-03 0. -1.
         11   -1    0    0    0    0 -0.00000000000E+00 -0.00000000000E+00 -0.45593999997E+02  0.45594000000E+02  0.51100000000E-03 0.  1.
    9900012    2    1    2    0    0  0.30423187529E+01 -0.16574475341E+02  0.81676559441E+01  0.72461560406E+02  0.69999987119E+02 0.  0.
         12    1    1    2    0    0 -0.30423187529E+01  0.16574475341E+02 -0.81676559441E+01  0.18726439594E+02  0.00000000000E+00 0. -1.
         11    1    3    3    0    0 -0.13131883608E+02  0.71050345060E+01  0.63581245836E+01  0.16228173986E+02  0.51100000000E-03 0. -1.
        -11    1    3    3    0    0  0.12235361462E+02 -0.33233042402E+02 -0.13384146745E+02  0.37858612781E+02  0.51100000000E-03 0.  1.
        -12    1    3    3    0    0  0.39388408998E+01  0.95535325546E+01  0.15193678106E+02  0.18374773639E+02  0.00000000000E+00 0.  1.
</event>
<event>
 7    1  0.1345786E-013  0.7246154E+02  0.7816164E-02  0.1226708E+00
        -11   -1    0    0    0    0  0.00000000000E+00  0.00000000000E+00  0.45593999997E+02  0.45594000000E+02  0.51100000000E-03 0. -1.
         11   -1    0    0    0    0 -0.00000000000E+00 -0.00000000000E+00 -0.45593999997E+02  0.45594000000E+02  0.51100000000E-03 0.  1.
    9900012    2    1    2    0    0  0.14411613685E+02 -0.50972309442E+01  0.10816839962E+02  0.72461537465E+02  0.69999957234E+02 0.  0.
         12    1    1    2    0    0 -0.14411613685E+02  0.50972309442E+01 -0.10816839962E+02  0.18726462535E+02  0.00000000000E+00 0. -1.
         11    1    3    3    0    0  0.21131626082E+02  0.61299752716E+01  0.12619715353E+02  0.25364925262E+02  0.51100000000E-03 0. -1.
        -11    1    3    3    0    0 -0.74113718734E+01 -0.10944112280E+02 -0.22656228086E+02  0.26229881776E+02  0.51100000000E-03 0.  1.
        -12    1    3    3    0    0  0.69135947675E+00 -0.28309393585E+00  0.20853352695E+02  0.20866730427E+02  0.00000000000E+00 0.  1.
</event>
<event>
 7    1  0.1345786E-013  0.7246173E+02  0.7816164E-02  0.1226708E+00
        -11   -1    0    0    0    0  0.00000000000E+00  0.00000000000E+00  0.45593999997E+02  0.45594000000E+02  0.51100000000E-03 0.  1.
         11   -1    0    0    0    0 -0.00000000000E+00 -0.00000000000E+00 -0.45593999997E+02  0.45594000000E+02  0.51100000000E-03 0. -1.
    9900012    2    1    2    0    0 -0.45843917816E+01  0.11091653843E+02  0.14374697824E+02  0.72461725130E+02  0.70000201702E+02 0.  0.
         12    1    1    2    0    0  0.45843917816E+01 -0.11091653843E+02 -0.14374697824E+02  0.18726274870E+02  0.00000000000E+00 0. -1.
         11    1    3    3    0    0  0.94840982118E+01 -0.23278773805E+02 -0.26063322568E+01  0.25271375048E+02  0.51100000000E-03 0. -1.
        -11    1    3    3    0    0 -0.15531603972E+02  0.96775988527E+01  0.23475468526E+01  0.18449867695E+02  0.51100000000E-03 0.  1.
         12    1    3    3    0    0  0.14631139782E+01  0.24692828795E+02  0.14633483228E+02  0.28740482386E+02  0.00000000000E+00 0. -1.
</event>
<event>
 7    1  0.1345786E-013  0.7246157E+02  0.7816164E-02  0.1226708E+00
        -11   -1    0    0    0    0  0.00000000000E+00  0.00000000000E+00  0.45593999997E+02  0.45594000000E+02  0.51100000000E-03 0. -1.
         11   -1    0    0    0    0 -0.00000000000E+00 -0.00000000000E+00 -0.45593999997E+02  0.45594000000E+02  0.51100000000E-03 0.  1.
    9900012    2    1    2    0    0 -0.35486075129E+01  0.79962695617E+01 -0.16557364902E+02  0.72461567487E+02  0.69999996343E+02 0.  0.
         12    1    1    2    0    0  0.35486075129E+01 -0.79962695617E+01  0.16557364902E+02  0.18726432513E+02  0.00000000000E+00 0. -1.
         11    1    3    3    0    0 -0.22776074757E+02  0.37920480169E+01 -0.20305625821E+02  0.30748132460E+02  0.51100000000E-03 0.  1.
        -11    1    3    3    0    0  0.23834823823E+02  0.16116620107E+02  0.25648019270E+01  0.28886371865E+02  0.51100000000E-03 0. -1.
         12    1    3    3    0    0 -0.46073565787E+01 -0.11912398563E+02  0.11834589926E+01  0.12827063161E+02  0.00000000000E+00 0. -1.
</event>
<event>
 7    1  0.1345786E-013  0.7246157E+02  0.7816164E-02  0.1226708E+00
        -11   -1    0    0    0    0  0.00000000000E+00  0.00000000000E+00  0.45593999997E+02  0.45594000000E+02  0.51100000000E-03 0.  1.
         11   -1    0    0    0    0 -0.00000000000E+00 -0.00000000000E+00 -0.45593999997E+02  0.45594000000E+02  0.51100000000E-03 0. -1.
    9900012    2    1    2    0    0 -0.16714101211E+02 -0.84408416725E+01  0.26484747451E+00  0.72461571307E+02  0.70000001319E+02 0.  0.
         12    1    1    2    0    0  0.16714101211E+02  0.84408416725E+01 -0.26484747451E+00  0.18726428693E+02  0.00000000000E+00 0. -1.
         11    1    3    3    0    0  0.18623200340E+02 -0.32559864467E+01 -0.20753670743E+02  0.28073829240E+02  0.51100000000E-03 0. -1.
        -11    1    3    3    0    0 -0.11189497398E+02  0.13638542687E+01  0.14804711355E+02  0.18607644371E+02  0.51100000000E-03 0.  1.
         12    1    3    3    0    0 -0.24147804153E+02 -0.65487094946E+01  0.62138068622E+01  0.25780097695E+02  0.00000000000E+00 0. -1.
</event>
<event>
 7    1  0.1345786E-013  0.7246153E+02  0.7816164E-02  0.1226708E+00
        -11   -1    0    0    0    0  0.00000000000E+00  0.00000000000E+00  0.45593999997E+02  0.45594000000E+02  0.51100000000E-03 0.  1.
         11   -1    0    0    0    0 -0.00000000000E+00 -0.00000000000E+00 -0.45593999997E+02  0.45594000000E+02  0.51100000000E-03 0. -1.
    9900012    2    1    2    0    0  0.16500891895E+02 -0.14209666663E+01  0.87396854512E+01  0.72461529928E+02  0.69999947415E+02 0.  0.
         12    1    1    2    0    0 -0.16500891895E+02  0.14209666663E+01 -0.87396854512E+01  0.18726470072E+02  0.00000000000E+00 0. -1.
         11    1    3    3    0    0  0.58566471290E+01  0.48889889108E+01 -0.28713904593E+02  0.29710113520E+02  0.51100000000E-03 0. -1.
        -11    1    3    3    0    0  0.12694545248E+02  0.12728022617E+01  0.23102984548E+02  0.26391653982E+02  0.51100000000E-03 0.  1.
         12    1    3    3    0    0 -0.20503004822E+01 -0.75827578388E+01  0.14350605496E+02  0.16359762425E+02  0.00000000000E+00 0. -1.
</event>
<event>
 7    1  0.1345786E-013  0.7246155E+02  0.7816164E-02  0.1226708E+00
        -11   -1    0    0    0    0  0.00000000000E+00  0.00000000000E+00  0.45593999997E+02  0.45594000000E+02  0.51100000000E-03 0. -1.
         11   -1    0    0    0    0 -0.00000000000E+00 -0.00000000000E+00 -0.45593999997E+02  0.45594000000E+02  0.51100000000E-03 0.  1.
    9900012    2    1    2    0    0  0.17833021493E+02  0.36934332251E+01 -0.43614015761E+01  0.72461550035E+02  0.69999973609E+02 0.  0.
         12    1    1    2    0    0 -0.17833021493E+02 -0.36934332251E+01  0.43614015761E+01  0.18726449965E+02  0.00000000000E+00 0. -1.
         11    1    3    3    0    0  0.72088686848E+01 -0.20041440658E+02  0.58837731209E+01  0.22096287420E+02  0.51100000000E-03 0. -1.
        -11    1    3    3    0    0 -0.15111653759E+02  0.16854125186E+02 -0.56619807378E+01  0.23334130394E+02  0.51100000000E-03 0.  1.
        -12    1    3    3    0    0  0.25735806567E+02  0.68807486965E+01 -0.45831939591E+01  0.27031132221E+02  0.00000000000E+00 0.  1.
</event>
<event>
 7    1  0.1345786E-013  0.7246157E+02  0.7816164E-02  0.1226708E+00
        -11   -1    0    0    0    0  0.00000000000E+00  0.00000000000E+00  0.45593999997E+02  0.45594000000E+02  0.51100000000E-03 0.  1.
         11   -1    0    0    0    0 -0.00000000000E+00 -0.00000000000E+00 -0.45593999997E+02  0.45594000000E+02  0.51100000000E-03 0. -1.
    9900012    2    1    2    0    0 -0.17425741647E+02 -0.61103634909E+01 -0.31122560537E+01  0.72461570771E+02  0.70000000621E+02 0.  0.
         12    1    1    2    0    0  0.17425741647E+02  0.61103634909E+01  0.31122560537E+01  0.18726429229E+02  0.00000000000E+00 0. -1.
         11    1    3    3    0    0  0.12391173727E+02  0.10548633898E+02 -0.14299644980E+02  0.21663210987E+02  0.51100000000E-03 0. -1.
        -11    1    3    3    0    0 -0.31045015315E+02 -0.15251321512E+02  0.21229263607E+02  0.40584201573E+02  0.51100000000E-03 0.  1.
         12    1    3    3    0    0  0.12280999407E+01 -0.14076758769E+01 -0.10041874681E+02  0.10214158211E+02  0.00000000000E+00 0. -1.
</event>
<event>
 7    1  0.1345786E-013  0.7246153E+02  0.7816164E-02  0.1226708E+00
        -11   -1    0    0    0    0  0.00000000000E+00  0.00000000000E+00  0.45593999997E+02  0.45594000000E+02  0.51100000000E-03 0.  1.
         11   -1    0    0    0    0 -0.00000000000E+00 -0.00000000000E+00 -0.45593999997E+02  0.45594000000E+02  0.51100000000E-03 0. -1.
    9900012    2    1    2    0    0 -0.13542436388E+02 -0.99894301327E+01  0.82155018512E+01  0.72461527605E+02  0.69999944389E+02 0.  0.
         12    1    1    2    0    0  0.13542436388E+02  0.99894301327E+01 -0.82155018512E+01  0.18726472395E+02  0.00000000000E+00 0. -1.
         11    1    3    3    0    0  0.15584913673E+02  0.36618221069E+01  0.59199464452E+01  0.17068809024E+02  0.51100000000E-03 0. -1.
        -11    1    3    3    0    0 -0.21635510998E+02 -0.30138218309E+02  0.33622056683E+01  0.37252006204E+02  0.51100000000E-03 0.  1.
        -12    1    3    3    0    0 -0.74918390633E+01  0.16486966070E+02 -0.10666502623E+01  0.18140712376E+02  0.00000000000E+00 0.  1.
</event>
<event>
 7    1  0.1345786E-013  0.7246159E+02  0.7816164E-02  0.1226708E+00
        -11   -1    0    0    0    0  0.00000000000E+00  0.00000000000E+00  0.45593999997E+02  0.45594000000E+02  0.51100000000E-03 0.  1.
         11   -1    0    0    0    0 -0.00000000000E+00 -0.00000000000E+00 -0.45593999997E+02  0.45594000000E+02  0.51100000000E-03 0. -1.
    9900012    2    1    2    0    0 -0.13840455413E+02 -0.17677790739E+01  0.12489803100E+02  0.72461590030E+02  0.70000025709E+02 0.  0.
         12    1    1    2    0    0  0.13840455413E+02  0.17677790739E+01 -0.12489803100E+02  0.18726409970E+02  0.00000000000E+00 0. -1.
         11    1    3    3    0    0 -0.22886042303E+02  0.22514400948E+02  0.11250019878E+01  0.32123742187E+02  0.51100000000E-03 0. -1.
        -11    1    3    3    0    0  0.75790796927E+01 -0.26270857886E+02 -0.13592988122E+01  0.27376050054E+02  0.51100000000E-03 0.  1.
        -12    1    3    3    0    0  0.14665071977E+01  0.19886778638E+01  0.12724099925E+02  0.12961797788E+02  0.00000000000E+00 0.  1.
</event>
<event>
 7    1  0.1345786E-013  0.7246160E+02  0.7816164E-02  0.1226708E+00
        -11   -1    0    0    0    0  0.00000000000E+00  0.00000000000E+00  0.45593999997E+02  0.45594000000E+02  0.51100000000E-03 0. -1.
         11   -1    0    0    0    0 -0.00000000000E+00 -0.00000000000E+00 -0.45593999997E+02  0.45594000000E+02  0.51100000000E-03 0.  1.
    9900012    2    1    2    0    0  0.66857388775E+01  0.11224873367E+02 -0.13415706022E+02  0.72461600066E+02  0.70000038783E+02 0.  0.
         12    1    1    2    0    0 -0.66857388775E+01 -0.11224873367E+02  0.13415706022E+02  0.18726399934E+02  0.00000000000E+00 0. -1.
         11    1    3    3    0    0  0.22274337275E+02 -0.21853414846E+02 -0.65799771135E+01  0.31890656007E+02  0.51100000000E-03 0. -1.
        -11    1    3    3    0    0 -0.15915033886E+02  0.20083457524E+02 -0.94498265494E+01  0.27311770207E+02  0.51100000000E-03 0.  1.
        -12    1    3    3    0    0  0.32643548864E+00  0.12994830689E+02  0.26140976412E+01  0.13259173852E+02  0.00000000000E+00 0.  1.
</event>
<event>
 7    1  0.1345786E-013  0.7246159E+02  0.7816164E-02  0.1226708E+00
        -11   -1    0    0    0    0  0.00000000000E+00  0.00000000000E+00  0.45593999997E+02  0.45594000000E+02  0.51100000000E-03 0.  1.
         11   -1    0    0    0    0 -0.00000000000E+00 -0.00000000000E+00 -0.45593999997E+02  0.45594000000E+02  0.51100000000E-03 0. -1.
    9900012    2    1    2    0    0  0.23311328645E+01 -0.13601756428E+02  0.12658457910E+02  0.72461587770E+02  0.70000022765E+02 0.  0.
         12    1    1    2    0    0 -0.23311328645E+01  0.13601756428E+02 -0.12658457910E+02  0.18726412230E+02  0.00000000000E+00 0. -1.
         11    1    3    3    0    0 -0.26163782846E+02 -0.72012636386E+00  0.22442478492E+02  0.34477919831E+02  0.51100000000E-03 0. -1.
        -11    1    3    3    0    0  0.97375535950E+01 -0.14158593882E+02 -0.94797754609E+00  0.17210008495E+02  0.51100000000E-03 0.  1.
         12    1    3    3    0    0  0.18757362116E+02  0.12769638177E+01 -0.88360430356E+01  0.20773659443E+02  0.00000000000E+00 0. -1.
</event>
<event>
 7    1  0.1345786E-013  0.7246159E+02  0.7816164E-02  0.1226708E+00
        -11   -1    0    0    0    0  0.00000000000E+00  0.00000000000E+00  0.45593999997E+02  0.45594000000E+02  0.51100000000E-03 0. -1.
         11   -1    0    0    0    0 -0.00000000000E+00 -0.00000000000E+00 -0.45593999997E+02  0.45594000000E+02  0.51100000000E-03 0.  1.
    9900012    2    1    2    0    0 -0.10045551547E+02 -0.46792917070E+01 -0.15095351207E+02  0.72461588041E+02  0.70000023119E+02 0.  0.
         12    1    1    2    0    0  0.10045551547E+02  0.46792917070E+01  0.15095351207E+02  0.18726411959E+02  0.00000000000E+00 0. -1.
         11    1    3    3    0    0  0.56109936468E+01 -0.30251038547E+02 -0.76941097347E+01  0.31714474736E+02  0.51100000000E-03 0. -1.
        -11    1    3    3    0    0 -0.12159515841E+02  0.26836151323E+01 -0.11827629704E+02  0.17174063012E+02  0.51100000000E-03 0.  1.
         12    1    3    3    0    0 -0.34970293530E+01  0.22888131708E+02  0.44263882310E+01  0.23573050294E+02  0.00000000000E+00 0. -1.
</event>
<event>
 7    1  0.1345786E-013  0.7246157E+02  0.7816164E-02  0.1226708E+00
        -11   -1    0    0    0    0  0.00000000000E+00  0.00000000000E+00  0.45593999997E+02  0.45594000000E+02  0.51100000000E-03 0. -1.
         11   -1    0    0    0    0 -0.00000000000E+00 -0.00000000000E+00 -0.45593999997E+02  0.45594000000E+02  0.51100000000E-03 0.  1.
    9900012    2    1    2    0    0 -0.19693152808E+01  0.36251201028E+01 -0.18266348107E+02  0.72461570239E+02  0.69999999927E+02 0.  0.
         12    1    1    2    0    0  0.19693152808E+01 -0.36251201028E+01  0.18266348107E+02  0.18726429761E+02  0.00000000000E+00 0. -1.
         11    1    3    3    0    0 -0.12953829105E+02  0.25351320548E+02 -0.27005704523E+02  0.39240275471E+02  0.51100000000E-03 0. -1.
        -11    1    3    3    0    0 -0.21087276717E+01 -0.13171136056E+02 -0.29918073231E+01  0.13670276834E+02  0.51100000000E-03 0.  1.
         12    1    3    3    0    0  0.13093241496E+02 -0.85550643890E+01  0.11731163738E+02  0.19551017933E+02  0.00000000000E+00 0. -1.
</event>
<event>
 7    1  0.1345786E-013  0.7246141E+02  0.7816164E-02  0.1226708E+00
        -11   -1    0    0    0    0  0.00000000000E+00  0.00000000000E+00  0.45593999997E+02  0.45594000000E+02  0.51100000000E-03 0. -1.
         11   -1    0    0    0    0 -0.00000000000E+00 -0.00000000000E+00 -0.45593999997E+02  0.45594000000E+02  0.51100000000E-03 0.  1.
    9900012    2    1    2    0    0 -0.95400950400E+01 -0.12450238110E+02 -0.10230510181E+02  0.72461409789E+02  0.69999790911E+02 0.  0.
         12    1    1    2    0    0  0.95400950400E+01  0.12450238110E+02  0.10230510181E+02  0.18726590211E+02  0.00000000000E+00 0. -1.
         11    1    3    3    0    0  0.24007872794E+01  0.10657081902E+02  0.25021410348E+02  0.27302163839E+02  0.51100000000E-03 0. -1.
        -11    1    3    3    0    0 -0.87319017626E+01 -0.77069663187E+01 -0.97183050415E+01  0.15168681267E+02  0.51100000000E-03 0.  1.
         12    1    3    3    0    0 -0.32089805569E+01 -0.15400353694E+02 -0.25533615488E+02  0.29990564683E+02  0.00000000000E+00 0. -1.
</event>
<event>
 7    1  0.1345786E-013  0.7246157E+02  0.7816164E-02  0.1226708E+00
        -11   -1    0    0    0    0  0.00000000000E+00  0.00000000000E+00  0.45593999997E+02  0.45594000000E+02  0.51100000000E-03 0.  1.
         11   -1    0    0    0    0 -0.00000000000E+00 -0.00000000000E+00 -0.45593999997E+02  0.45594000000E+02  0.51100000000E-03 0. -1.
    9900012    2    1    2    0    0 -0.35013754791E+01  0.40878639320E+01  0.17936249848E+02  0.72461566266E+02  0.69999994753E+02 0.  0.
         12    1    1    2    0    0  0.35013754791E+01 -0.40878639320E+01 -0.17936249848E+02  0.18726433734E+02  0.00000000000E+00 0. -1.
         11    1    3    3    0    0 -0.52624369019E+01 -0.15513564828E+02  0.45379997947E+01  0.16998746372E+02  0.51100000000E-03 0. -1.
        -11    1    3    3    0    0 -0.21051489213E+02  0.22509967631E+02  0.73784996589E+01  0.31690788856E+02  0.51100000000E-03 0.  1.
        -12    1    3    3    0    0  0.22812550636E+02 -0.29085388717E+01  0.60197503944E+01  0.23772031038E+02  0.00000000000E+00 0.  1.
</event>
<event>
 7    1  0.1345786E-013  0.7246159E+02  0.7816164E-02  0.1226708E+00
        -11   -1    0    0    0    0  0.00000000000E+00  0.00000000000E+00  0.45593999997E+02  0.45594000000E+02  0.51100000000E-03 0.  1.
         11   -1    0    0    0    0 -0.00000000000E+00 -0.00000000000E+00 -0.45593999997E+02  0.45594000000E+02  0.51100000000E-03 0. -1.
    9900012    2    1    2    0    0 -0.64513894731E+01 -0.88038410700E+01  0.15216775662E+02  0.72461593370E+02  0.70000030060E+02 0.  0.
         12    1    1    2    0    0  0.64513894731E+01  0.88038410700E+01 -0.15216775662E+02  0.18726406630E+02  0.00000000000E+00 0. -1.
         11    1    3    3    0    0 -0.11090049405E+02 -0.23211775280E+02  0.10990872849E+00  0.25725236396E+02  0.51100000000E-03 0. -1.
        -11    1    3    3    0    0  0.70027769664E+01  0.90805715993E+01  0.29261791037E+02  0.31428459727E+02  0.51100000000E-03 0.  1.
        -12    1    3    3    0    0 -0.23641170342E+01  0.53273626107E+01 -0.14154924104E+02  0.15307897247E+02  0.00000000000E+00 0.  1.
</event>
<event>
 7    1  0.1345786E-013  0.7246165E+02  0.7816164E-02  0.1226708E+00
        -11   -1    0    0    0    0  0.00000000000E+00  0.00000000000E+00  0.45593999997E+02  0.45594000000E+02  0.51100000000E-03 0.  1.
         11   -1    0    0    0    0 -0.00000000000E+00 -0.00000000000E+00 -0.45593999997E+02  0.45594000000E+02  0.51100000000E-03 0. -1.
    9900012    2    1    2    0    0  0.64433320599E+01 -0.12909231267E+02  0.11937817772E+02  0.72461647629E+02  0.70000100743E+02 0.  0.
         12    1    1    2    0    0 -0.64433320599E+01  0.12909231267E+02 -0.11937817772E+02  0.18726352371E+02  0.00000000000E+00 0. -1.
         11    1    3    3    0    0 -0.21840324234E+01  0.36955946091E+01 -0.82853722079E+01  0.93313884297E+01  0.51100000000E-03 0. -1.
        -11    1    3    3    0    0 -0.98800870905E+01 -0.31779278224E+02  0.25464341671E+01  0.33376982676E+02  0.51100000000E-03 0.  1.
        -12    1    3    3    0    0  0.18507451574E+02  0.15174452348E+02  0.17676755813E+02  0.29753276524E+02  0.00000000000E+00 0.  1.
</event>
<event>
 7    1  0.1345786E-013  0.7246149E+02  0.7816164E-02  0.1226708E+00
        -11   -1    0    0    0    0  0.00000000000E+00  0.00000000000E+00  0.45593999997E+02  0.45594000000E+02  0.51100000000E-03 0.  1.
         11   -1    0    0    0    0 -0.00000000000E+00 -0.00000000000E+00 -0.45593999997E+02  0.45594000000E+02  0.51100000000E-03 0. -1.
    9900012    2    1    2    0    0 -0.43422958819E+01  0.28258928739E+01  0.17995578424E+02  0.72461493469E+02  0.69999899921E+02 0.  0.
         12    1    1    2    0    0  0.43422958819E+01 -0.28258928739E+01 -0.17995578424E+02  0.18726506531E+02  0.00000000000E+00 0. -1.
         11    1    3    3    0    0  0.15445625306E+02 -0.11453273033E+02 -0.10503672398E+02  0.21910544000E+02  0.51100000000E-03 0. -1.
        -11    1    3    3    0    0  0.85811096947E+01  0.55886247904E+01  0.14480167740E+02  0.17735372245E+02  0.51100000000E-03 0.  1.
         12    1    3    3    0    0 -0.28369030882E+02  0.86905411165E+01  0.14019083082E+02  0.32815577224E+02  0.00000000000E+00 0. -1.
</event>
<event>
 7    1  0.1345786E-013  0.7246150E+02  0.7816164E-02  0.1226708E+00
        -11   -1    0    0    0    0  0.00000000000E+00  0.00000000000E+00  0.45593999997E+02  0.45594000000E+02  0.51100000000E-03 0. -1.
         11   -1    0    0    0    0 -0.00000000000E+00 -0.00000000000E+00 -0.45593999997E+02  0.45594000000E+02  0.51100000000E-03 0.  1.
    9900012    2    1    2    0    0 -0.13538903300E+02  0.12824246700E+02  0.17084057064E+01  0.72461498563E+02  0.69999906557E+02 0.  0.
         12    1    1    2    0    0  0.13538903300E+02 -0.12824246700E+02 -0.17084057064E+01  0.18726501437E+02  0.00000000000E+00 0. -1.
         11    1    3    3    0    0  0.80197522596E+00  0.49678351756E+01  0.80155726876E+01  0.94642462123E+01  0.51100000000E-03 0. -1.
        -11    1    3    3    0    0  0.10414662399E+02  0.73164161515E+01 -0.27565633832E+02  0.30362136074E+02  0.51100000000E-03 0.  1.
        -12    1    3    3    0    0 -0.24755540926E+02  0.53999537334E+00  0.21258466850E+02  0.32635116276E+02  0.00000000000E+00 0.  1.
</event>
<event>
 7    1  0.1345786E-013  0.7246179E+02  0.7816164E-02  0.1226707E+00
        -11   -1    0    0    0    0  0.00000000000E+00  0.00000000000E+00  0.45593999997E+02  0.45594000000E+02  0.51100000000E-03 0. -1.
         11   -1    0    0    0    0 -0.00000000000E+00 -0.00000000000E+00 -0.45593999997E+02  0.45594000000E+02  0.51100000000E-03 0.  1.
    9900012    2    1    2    0    0 -0.65840102477E+01  0.59182982141E+01 -0.16501383708E+02  0.72461785514E+02  0.70000280363E+02 0.  0.
         12    1    1    2    0    0  0.65840102477E+01 -0.59182982141E+01  0.16501383708E+02  0.18726214486E+02  0.00000000000E+00 0. -1.
         11    1    3    3    0    0 -0.18104335428E+02 -0.89147876149E+01 -0.25212673076E+02  0.32294260843E+02  0.51100000000E-03 0. -1.
        -11    1    3    3    0    0  0.20662673822E+02  0.16872697117E+02 -0.97311084231E+00  0.26694211778E+02  0.51100000000E-03 0.  1.
         12    1    3    3    0    0 -0.91423486415E+01 -0.20396112882E+01  0.96844002102E+01  0.13473312893E+02  0.00000000000E+00 0. -1.
</event>
<event>
 7    1  0.1345786E-013  0.7246159E+02  0.7816164E-02  0.1226708E+00
        -11   -1    0    0    0    0  0.00000000000E+00  0.00000000000E+00  0.45593999997E+02  0.45594000000E+02  0.51100000000E-03 0. -1.
         11   -1    0    0    0    0 -0.00000000000E+00 -0.00000000000E+00 -0.45593999997E+02  0.45594000000E+02  0.51100000000E-03 0.  1.
    9900012    2    1    2    0    0  0.47913400422E+01 -0.71568080907E+01 -0.16628336230E+02  0.72461590648E+02  0.70000026514E+02 0.  0.
         12    1    1    2    0    0 -0.47913400422E+01  0.71568080907E+01  0.16628336230E+02  0.18726409352E+02  0.00000000000E+00 0. -1.
         11    1    3    3    0    0 -0.14416034064E+02  0.67054020473E+01 -0.28839513469E+01  0.16158639497E+02  0.51100000000E-03 0. -1.
        -11    1    3    3    0    0  0.56569762615E+01 -0.10837648969E+02  0.17940413014E+02  0.21709777405E+02  0.51100000000E-03 0.  1.
        -12    1    3    3    0    0  0.13550397845E+02 -0.30245611691E+01 -0.31684797897E+02  0.34593173746E+02  0.00000000000E+00 0.  1.
</event>
<event>
 7    1  0.1345786E-013  0.7246157E+02  0.7816164E-02  0.1226708E+00
        -11   -1    0    0    0    0  0.00000000000E+00  0.00000000000E+00  0.45593999997E+02  0.45594000000E+02  0.51100000000E-03 0. -1.
         11   -1    0    0    0    0 -0.00000000000E+00 -0.00000000000E+00 -0.45593999997E+02  0.45594000000E+02  0.51100000000E-03 0.  1.
    9900012    2    1    2    0    0 -0.94310325249E+01 -0.49549674863E+01 -0.15400750527E+02  0.72461569639E+02  0.69999999146E+02 0.  0.
         12    1    1    2    0    0  0.94310325249E+01  0.49549674863E+01  0.15400750527E+02  0.18726430361E+02  0.00000000000E+00 0. -1.
         11    1    3    3    0    0 -0.21514112230E+02  0.19066464357E+02  0.13629111992E+02  0.31814144371E+02  0.51100000000E-03 0. -1.
        -11    1    3    3    0    0  0.53698542082E+01 -0.31992329068E+01 -0.40808718502E+01  0.74648469996E+01  0.51100000000E-03 0.  1.
         12    1    3    3    0    0  0.67132254972E+01 -0.20822198936E+02 -0.24948990669E+02  0.33182578268E+02  0.00000000000E+00 0. -1.
</event>
<event>
 7    1  0.1345786E-013  0.7246135E+02  0.7816164E-02  0.1226709E+00
        -11   -1    0    0    0    0  0.00000000000E+00  0.00000000000E+00  0.45593999997E+02  0.45594000000E+02  0.51100000000E-03 0.  1.
         11   -1    0    0    0    0 -0.00000000000E+00 -0.00000000000E+00 -0.45593999997E+02  0.45594000000E+02  0.51100000000E-03 0. -1.
    9900012    2    1    2    0    0  0.16143078633E+02 -0.91032788793E+01  0.26867878414E+01  0.72461347790E+02  0.69999710146E+02 0.  0.
         12    1    1    2    0    0 -0.16143078633E+02  0.91032788793E+01 -0.26867878414E+01  0.18726652210E+02  0.00000000000E+00 0. -1.
         11    1    3    3    0    0 -0.67504991097E+01  0.64005494042E+01  0.10393452640E+02  0.13948481242E+02  0.51100000000E-03 0. -1.
        -11    1    3    3    0    0  0.29054496544E+02 -0.29993502355E+02 -0.89910436765E+01  0.42715486883E+02  0.51100000000E-03 0.  1.
        -12    1    3    3    0    0 -0.61609188017E+01  0.14489674072E+02  0.12843788776E+01  0.15797379665E+02  0.00000000000E+00 0.  1.
</event>
<event>
 7    1  0.1345786E-013  0.7246156E+02  0.7816164E-02  0.1226708E+00
        -11   -1    0    0    0    0  0.00000000000E+00  0.00000000000E+00  0.45593999997E+02  0.45594000000E+02  0.51100000000E-03 0. -1.
         11   -1    0    0    0    0 -0.00000000000E+00 -0.00000000000E+00 -0.45593999997E+02  0.45594000000E+02  0.51100000000E-03 0.  1.
    9900012    2    1    2    0    0  0.77284281627E+01 -0.17049598314E+02 -0.51186918680E+00  0.72461563750E+02  0.69999991475E+02 0.  0.
         12    1    1    2    0    0 -0.77284281627E+01  0.17049598314E+02  0.51186918680E+00  0.18726436250E+02  0.00000000000E+00 0. -1.
         11    1    3    3    0    0  0.16069252691E+01 -0.51700189752E+01  0.28416560382E+02  0.28927706602E+02  0.51100000000E-03 0. -1.
        -11    1    3    3    0    0 -0.11019912464E+02  0.97916728470E+00 -0.10890347358E+02  0.15524075017E+02  0.51100000000E-03 0.  1.
         12    1    3    3    0    0  0.17141415358E+02 -0.12858746624E+02 -0.18038082211E+02  0.28009782132E+02  0.00000000000E+00 0. -1.
</event>
<event>
 7    1  0.1345786E-013  0.7246165E+02  0.7816164E-02  0.1226708E+00
        -11   -1    0    0    0    0  0.00000000000E+00  0.00000000000E+00  0.45593999997E+02  0.45594000000E+02  0.51100000000E-03 0. -1.
         11   -1    0    0    0    0 -0.00000000000E+00 -0.00000000000E+00 -0.45593999997E+02  0.45594000000E+02  0.51100000000E-03 0.  1.
    9900012    2    1    2    0    0  0.16392593980E+02 -0.87448516385E+01 -0.23423569132E+01  0.72461649489E+02  0.70000103165E+02 0.  0.
         12    1    1    2    0    0 -0.16392593980E+02  0.87448516385E+01  0.23423569132E+01  0.18726350511E+02  0.00000000000E+00 0. -1.
         11    1    3    3    0    0 -0.49561459437E+01 -0.65692953566E+01  0.21154038332E+02  0.22698289850E+02  0.51100000000E-03 0.  1.
        -11    1    3    3    0    0  0.30412185418E+02  0.50980273418E+01 -0.11104942397E+02  0.32775152945E+02  0.51100000000E-03 0. -1.
         12    1    3    3    0    0 -0.90634454946E+01 -0.72735836237E+01 -0.12391452848E+02  0.16988206693E+02  0.00000000000E+00 0. -1.
</event>
<event>
 7    1  0.1345786E-013  0.7246165E+02  0.7816164E-02  0.1226708E+00
        -11   -1    0    0    0    0  0.00000000000E+00  0.00000000000E+00  0.45593999997E+02  0.45594000000E+02  0.51100000000E-03 0.  1.
         11   -1    0    0    0    0 -0.00000000000E+00 -0.00000000000E+00 -0.45593999997E+02  0.45594000000E+02  0.51100000000E-03 0. -1.
    9900012    2    1    2    0    0 -0.13289100440E+02  0.15058032378E+01  0.13107574522E+02  0.72461651083E+02  0.70000105242E+02 0.  0.
         12    1    1    2    0    0  0.13289100440E+02 -0.15058032378E+01 -0.13107574522E+02  0.18726348917E+02  0.00000000000E+00 0. -1.
         11    1    3    3    0    0  0.11528467311E+01 -0.84954211428E+01 -0.14043800893E+02  0.16453862154E+02  0.51100000000E-03 0. -1.
        -11    1    3    3    0    0 -0.14355084468E+02  0.27567424643E+02  0.14133800241E+02  0.34143749956E+02  0.51100000000E-03 0.  1.
        -12    1    3    3    0    0 -0.86862702870E-01 -0.17566200262E+02  0.13017575175E+02  0.21864038973E+02  0.00000000000E+00 0.  1.
</event>
<event>
 7    1  0.1345786E-013  0.7246162E+02  0.7816164E-02  0.1226708E+00
        -11   -1    0    0    0    0  0.00000000000E+00  0.00000000000E+00  0.45593999997E+02  0.45594000000E+02  0.51100000000E-03 0.  1.
         11   -1    0    0    0    0 -0.00000000000E+00 -0.00000000000E+00 -0.45593999997E+02  0.45594000000E+02  0.51100000000E-03 0. -1.
    9900012    2    1    2    0    0  0.77740982046E+00  0.18126872396E+02  0.46356842780E+01  0.72461616537E+02  0.70000060239E+02 0.  0.
         12    1    1    2    0    0 -0.77740982046E+00 -0.18126872396E+02 -0.46356842780E+01  0.18726383463E+02  0.00000000000E+00 0. -1.
         11    1    3    3    0    0  0.13387621036E+02 -0.61668813397E+01 -0.14996786905E+02  0.21027658933E+02  0.51100000000E-03 0. -1.
        -11    1    3    3    0    0 -0.21076416934E+02  0.30410742971E+02  0.16632558760E+02  0.40566866406E+02  0.51100000000E-03 0.  1.
        -12    1    3    3    0    0  0.84662057182E+01 -0.61169892353E+01  0.29999124223E+01  0.10867091198E+02  0.00000000000E+00 0.  1.
</event>
<event>
 7    1  0.1345786E-013  0.7246157E+02  0.7816164E-02  0.1226708E+00
        -11   -1    0    0    0    0  0.00000000000E+00  0.00000000000E+00  0.45593999997E+02  0.45594000000E+02  0.51100000000E-03 0. -1.
         11   -1    0    0    0    0 -0.00000000000E+00 -0.00000000000E+00 -0.45593999997E+02  0.45594000000E+02  0.51100000000E-03 0.  1.
    9900012    2    1    2    0    0 -0.67301895756E+01  0.14605361491E+02  0.95951588887E+01  0.72461571881E+02  0.70000002067E+02 0.  0.
         12    1    1    2    0    0  0.67301895756E+01 -0.14605361491E+02 -0.95951588887E+01  0.18726428119E+02  0.00000000000E+00 0. -1.
         11    1    3    3    0    0  0.15482912507E+02  0.13187642656E+01 -0.37627669180E+01  0.15988062235E+02  0.51100000000E-03 0. -1.
        -11    1    3    3    0    0 -0.16243341654E+02  0.80604733059E+01  0.31682642465E+02  0.36504892985E+02  0.51100000000E-03 0.  1.
        -12    1    3    3    0    0 -0.59697604282E+01  0.52261239189E+01 -0.18324716658E+02  0.19968616662E+02  0.00000000000E+00 0.  1.
</event>
<event>
 7    1  0.1345786E-013  0.7246157E+02  0.7816164E-02  0.1226708E+00
        -11   -1    0    0    0    0  0.00000000000E+00  0.00000000000E+00  0.45593999997E+02  0.45594000000E+02  0.51100000000E-03 0.  1.
         11   -1    0    0    0    0 -0.00000000000E+00 -0.00000000000E+00 -0.45593999997E+02  0.45594000000E+02  0.51100000000E-03 0. -1.
    9900012    2    1    2    0    0 -0.17205631492E+02 -0.43917385750E+01  0.59462764561E+01  0.72461566105E+02  0.69999994542E+02 0.  0.
         12    1    1    2    0    0  0.17205631492E+02  0.43917385750E+01 -0.59462764561E+01  0.18726433895E+02  0.00000000000E+00 0. -1.
         11    1    3    3    0    0 -0.99270287297E+01  0.57313631839E-01 -0.63255670041E+01  0.11771235383E+02  0.51100000000E-03 0. -1.
        -11    1    3    3    0    0  0.22974005751E+01  0.50708564931E+01  0.34356605933E+02  0.34804712417E+02  0.51100000000E-03 0.  1.
        -12    1    3    3    0    0 -0.95760033371E+01 -0.95199086999E+01 -0.22084762472E+02  0.25885618305E+02  0.00000000000E+00 0.  1.
</event>
<event>
 7    1  0.1345786E-013  0.7246161E+02  0.7816164E-02  0.1226708E+00
        -11   -1    0    0    0    0  0.00000000000E+00  0.00000000000E+00  0.45593999997E+02  0.45594000000E+02  0.51100000000E-03 0.  1.
         11   -1    0    0    0    0 -0.00000000000E+00 -0.00000000000E+00 -0.45593999997E+02  0.45594000000E+02  0.51100000000E-03 0. -1.
    9900012    2    1    2    0    0 -0.16208638205E+02  0.24837541728E+00  0.93752913267E+01  0.72461608723E+02  0.70000050060E+02 0.  0.
         12    1    1    2    0    0  0.16208638205E+02 -0.24837541728E+00 -0.93752913267E+01  0.18726391277E+02  0.00000000000E+00 0. -1.
         11    1    3    3    0    0  0.95068807403E+00 -0.16017263262E+02 -0.36380556620E+01  0.16452719516E+02  0.51100000000E-03 0. -1.
        -11    1    3    3    0    0 -0.14803318646E+02  0.18276154960E+02  0.30350792762E+02  0.38396962179E+02  0.51100000000E-03 0.  1.
        -12    1    3    3    0    0 -0.23560076328E+01 -0.20105162813E+01 -0.17337445773E+02  0.17611927028E+02  0.00000000000E+00 0.  1.
</event>
<event>
 7    1  0.1345786E-013  0.7246161E+02  0.7816164E-02  0.1226708E+00
        -11   -1    0    0    0    0  0.00000000000E+00  0.00000000000E+00  0.45593999997E+02  0.45594000000E+02  0.51100000000E-03 0.  1.
         11   -1    0    0    0    0 -0.00000000000E+00 -0.00000000000E+00 -0.45593999997E+02  0.45594000000E+02  0.51100000000E-03 0. -1.
    9900012    2    1    2    0    0 -0.20374195941E+00 -0.10847025267E+02  0.15263629153E+02  0.72461605717E+02  0.70000046145E+02 0.  0.
         12    1    1    2    0    0  0.20374195941E+00  0.10847025267E+02 -0.15263629153E+02  0.18726394283E+02  0.00000000000E+00 0. -1.
         11    1    3    3    0    0 -0.30529561392E+01  0.14648985201E+02 -0.11602606281E+02  0.18934988286E+02  0.51100000000E-03 0. -1.
        -11    1    3    3    0    0 -0.70176255338E+01 -0.31118350831E+02  0.10455200698E+02  0.33569480908E+02  0.51100000000E-03 0.  1.
        -12    1    3    3    0    0  0.98668397136E+01  0.56223403631E+01  0.16411034736E+02  0.19957136523E+02  0.00000000000E+00 0.  1.
</event>
<event>
 7    1  0.1345786E-013  0.7246154E+02  0.7816164E-02  0.1226708E+00
        -11   -1    0    0    0    0  0.00000000000E+00  0.00000000000E+00  0.45593999997E+02  0.45594000000E+02  0.51100000000E-03 0.  1.
         11   -1    0    0    0    0 -0.00000000000E+00 -0.00000000000E+00 -0.45593999997E+02  0.45594000000E+02  0.51100000000E-03 0. -1.
    9900012    2    1    2    0    0 -0.36536951681E+01 -0.49585591861E+01  0.17684560843E+02  0.72461535042E+02  0.69999954078E+02 0.  0.
         12    1    1    2    0    0  0.36536951681E+01  0.49585591861E+01 -0.17684560843E+02  0.18726464958E+02  0.00000000000E+00 0. -1.
         11    1    3    3    0    0  0.15393305949E+02  0.20305615920E+02  0.73873979278E+01  0.26530087719E+02  0.51100000000E-03 0. -1.
        -11    1    3    3    0    0 -0.20361797521E+02 -0.17558837821E+02  0.19972172535E+02  0.33493331574E+02  0.51100000000E-03 0.  1.
         12    1    3    3    0    0  0.13147964036E+01 -0.77053372857E+01 -0.96750096193E+01  0.12438115750E+02  0.00000000000E+00 0. -1.
</event>
<event>
 7    1  0.1345786E-013  0.7246158E+02  0.7816164E-02  0.1226708E+00
        -11   -1    0    0    0    0  0.00000000000E+00  0.00000000000E+00  0.45593999997E+02  0.45594000000E+02  0.51100000000E-03 0. -1.
         11   -1    0    0    0    0 -0.00000000000E+00 -0.00000000000E+00 -0.45593999997E+02  0.45594000000E+02  0.51100000000E-03 0.  1.
    9900012    2    1    2    0    0 -0.16286631602E+02  0.76340734532E+01 -0.52101268408E+01  0.72461578341E+02  0.70000010483E+02 0.  0.
         12    1    1    2    0    0  0.16286631602E+02 -0.76340734532E+01  0.52101268408E+01  0.18726421659E+02  0.00000000000E+00 0. -1.
         11    1    3    3    0    0  0.14576309618E+02 -0.49504350106E+01 -0.22657382347E+02  0.27392199327E+02  0.51100000000E-03 0. -1.
        -11    1    3    3    0    0 -0.30096499298E+02  0.18672482922E+02  0.14765959081E+02  0.38373095214E+02  0.51100000000E-03 0.  1.
         12    1    3    3    0    0 -0.76644192257E+00 -0.60879744578E+01  0.26812964254E+01  0.66962838007E+01  0.00000000000E+00 0. -1.
</event>
<event>
 7    1  0.1345786E-013  0.7246160E+02  0.7816164E-02  0.1226708E+00
        -11   -1    0    0    0    0  0.00000000000E+00  0.00000000000E+00  0.45593999997E+02  0.45594000000E+02  0.51100000000E-03 0. -1.
         11   -1    0    0    0    0 -0.00000000000E+00 -0.00000000000E+00 -0.45593999997E+02  0.45594000000E+02  0.51100000000E-03 0.  1.
    9900012    2    1    2    0    0  0.81933338701E+01  0.55417979527E+01 -0.15900808173E+02  0.72461602989E+02  0.70000042591E+02 0.  0.
         12    1    1    2    0    0 -0.81933338701E+01 -0.55417979527E+01  0.15900808173E+02  0.18726397011E+02  0.00000000000E+00 0. -1.
         11    1    3    3    0    0  0.10462578631E+01  0.27387900122E+02 -0.15975222752E+02  0.31723799754E+02  0.51100000000E-03 0. -1.
        -11    1    3    3    0    0  0.20243995515E+02 -0.14902324984E+02 -0.37821868580E+01  0.25420534653E+02  0.51100000000E-03 0.  1.
         12    1    3    3    0    0 -0.13096919508E+02 -0.69437771852E+01  0.38566014373E+01  0.15317268583E+02  0.00000000000E+00 0. -1.
</event>
<event>
 7    1  0.1345786E-013  0.7246153E+02  0.7816164E-02  0.1226708E+00
        -11   -1    0    0    0    0  0.00000000000E+00  0.00000000000E+00  0.45593999997E+02  0.45594000000E+02  0.51100000000E-03 0.  1.
         11   -1    0    0    0    0 -0.00000000000E+00 -0.00000000000E+00 -0.45593999997E+02  0.45594000000E+02  0.51100000000E-03 0. -1.
    9900012    2    1    2    0    0 -0.92663452265E+01  0.16027986993E+02  0.28141002506E+01  0.72461529935E+02  0.69999947424E+02 0.  0.
         12    1    1    2    0    0  0.92663452265E+01 -0.16027986993E+02 -0.28141002506E+01  0.18726470065E+02  0.00000000000E+00 0. -1.
         11    1    3    3    0    0  0.78177419648E+01 -0.14328467739E+02  0.71019467078E+01  0.17800554050E+02  0.51100000000E-03 0. -1.
        -11    1    3    3    0    0 -0.10290908378E+02  0.37430338162E+02  0.72791407214E+01  0.39495808640E+02  0.51100000000E-03 0.  1.
        -12    1    3    3    0    0 -0.67931788129E+01 -0.70738834305E+01 -0.11566987179E+02  0.15165167245E+02  0.00000000000E+00 0.  1.
</event>
<event>
 7    1  0.1345786E-013  0.7246156E+02  0.7816164E-02  0.1226708E+00
        -11   -1    0    0    0    0  0.00000000000E+00  0.00000000000E+00  0.45593999997E+02  0.45594000000E+02  0.51100000000E-03 0.  1.
         11   -1    0    0    0    0 -0.00000000000E+00 -0.00000000000E+00 -0.45593999997E+02  0.45594000000E+02  0.51100000000E-03 0. -1.
    9900012    2    1    2    0    0 -0.31101046790E+01 -0.17537681824E+02  0.57824251417E+01  0.72461562128E+02  0.69999989361E+02 0.  0.
         12    1    1    2    0    0  0.31101046790E+01  0.17537681824E+02 -0.57824251417E+01  0.18726437872E+02  0.00000000000E+00 0. -1.
         11    1    3    3    0    0 -0.33611717820E+02  0.20827027790E+01  0.79729532863E+01  0.34607126579E+02  0.51100000000E-03 0.  1.
        -11    1    3    3    0    0  0.16654881218E+02 -0.75985248953E+01 -0.57227907682E+01  0.19180015209E+02  0.51100000000E-03 0. -1.
        -12    1    3    3    0    0  0.13846731923E+02 -0.12021859708E+02  0.35322626236E+01  0.18674420339E+02  0.00000000000E+00 0.  1.
</event>
<event>
 7    1  0.1345786E-013  0.7246157E+02  0.7816164E-02  0.1226708E+00
        -11   -1    0    0    0    0  0.00000000000E+00  0.00000000000E+00  0.45593999997E+02  0.45594000000E+02  0.51100000000E-03 0. -1.
         11   -1    0    0    0    0 -0.00000000000E+00 -0.00000000000E+00 -0.45593999997E+02  0.45594000000E+02  0.51100000000E-03 0.  1.
    9900012    2    1    2    0    0 -0.16164867226E+02 -0.81123537450E+01  0.48544923342E+01  0.72461566502E+02  0.69999995060E+02 0.  0.
         12    1    1    2    0    0  0.16164867226E+02  0.81123537450E+01 -0.48544923342E+01  0.18726433498E+02  0.00000000000E+00 0. -1.
         11    1    3    3    0    0 -0.20845140464E+02  0.11982859131E+02  0.98200758589E+00  0.24063938437E+02  0.51100000000E-03 0. -1.
        -11    1    3    3    0    0  0.10225932369E+02 -0.58886644956E+01  0.21843918176E+02  0.24827461085E+02  0.51100000000E-03 0.  1.
        -12    1    3    3    0    0 -0.55456591306E+01 -0.14206548380E+02 -0.17971433428E+02  0.23570166981E+02  0.00000000000E+00 0.  1.
</event>
<event>
 7    1  0.1345786E-013  0.7246167E+02  0.7816164E-02  0.1226708E+00
        -11   -1    0    0    0    0  0.00000000000E+00  0.00000000000E+00  0.45593999997E+02  0.45594000000E+02  0.51100000000E-03 0.  1.
         11   -1    0    0    0    0 -0.00000000000E+00 -0.00000000000E+00 -0.45593999997E+02  0.45594000000E+02  0.51100000000E-03 0. -1.
    9900012    2    1    2    0    0  0.23906651129E+01  0.95324824691E+01  0.15940257103E+02  0.72461673659E+02  0.70000134652E+02 0.  0.
         12    1    1    2    0    0 -0.23906651129E+01 -0.95324824691E+01 -0.15940257103E+02  0.18726326341E+02  0.00000000000E+00 0. -1.
         11    1    3    3    0    0 -0.12214079738E+02  0.23022128326E+02  0.33615228728E+02  0.42534524086E+02  0.51100000000E-03 0. -1.
        -11    1    3    3    0    0  0.14106232866E+02 -0.11007859575E+02 -0.74303778566E+01  0.19374449500E+02  0.51100000000E-03 0.  1.
         12    1    3    3    0    0  0.49851198495E+00 -0.24817862826E+01 -0.10244593768E+02  0.10552700073E+02  0.00000000000E+00 0. -1.
</event>
<event>
 7    1  0.1345786E-013  0.7246151E+02  0.7816164E-02  0.1226708E+00
        -11   -1    0    0    0    0  0.00000000000E+00  0.00000000000E+00  0.45593999997E+02  0.45594000000E+02  0.51100000000E-03 0.  1.
         11   -1    0    0    0    0 -0.00000000000E+00 -0.00000000000E+00 -0.45593999997E+02  0.45594000000E+02  0.51100000000E-03 0. -1.
    9900012    2    1    2    0    0 -0.76860744807E+01 -0.14589518564E+02  0.88742021157E+01  0.72461514584E+02  0.69999927427E+02 0.  0.
         12    1    1    2    0    0  0.76860744807E+01  0.14589518564E+02 -0.88742021157E+01  0.18726485416E+02  0.00000000000E+00 0. -1.
         11    1    3    3    0    0  0.29174924237E+01  0.97546648589E+01 -0.73780383818E+01  0.12573810050E+02  0.51100000000E-03 0. -1.
        -11    1    3    3    0    0 -0.12498044656E+01 -0.37345310955E+02  0.42227870925E+00  0.37368604217E+02  0.51100000000E-03 0.  1.
        -12    1    3    3    0    0 -0.93537624388E+01  0.13001127532E+02  0.15829961788E+02  0.22519100317E+02  0.00000000000E+00 0.  1.
</event>
<event>
 7    1  0.1345786E-013  0.7246152E+02  0.7816164E-02  0.1226708E+00
        -11   -1    0    0    0    0  0.00000000000E+00  0.00000000000E+00  0.45593999997E+02  0.45594000000E+02  0.51100000000E-03 0.  1.
         11   -1    0    0    0    0 -0.00000000000E+00 -0.00000000000E+00 -0.45593999997E+02  0.45594000000E+02  0.51100000000E-03 0. -1.
    9900012    2    1    2    0    0 -0.12986292735E+02 -0.12073279119E+02  0.60227077303E+01  0.72461524729E+02  0.69999940642E+02 0.  0.
         12    1    1    2    0    0  0.12986292735E+02  0.12073279119E+02 -0.60227077303E+01  0.18726475271E+02  0.00000000000E+00 0. -1.
         11    1    3    3    0    0  0.16890734713E+02  0.47520841348E+01 -0.16362517800E+02  0.23991898878E+02  0.51100000000E-03 0. -1.
        -11    1    3    3    0    0 -0.11731733998E+02 -0.52768759126E+01 -0.48655626520E+01  0.13753279688E+02  0.51100000000E-03 0.  1.
         12    1    3    3    0    0 -0.18145293450E+02 -0.11548487341E+02  0.27250788183E+02  0.34716346162E+02  0.00000000000E+00 0. -1.
</event>
<event>
 7    1  0.1345786E-013  0.7246154E+02  0.7816164E-02  0.1226708E+00
        -11   -1    0    0    0    0  0.00000000000E+00  0.00000000000E+00  0.45593999997E+02  0.45594000000E+02  0.51100000000E-03 0.  1.
         11   -1    0    0    0    0 -0.00000000000E+00 -0.00000000000E+00 -0.45593999997E+02  0.45594000000E+02  0.51100000000E-03 0. -1.
    9900012    2    1    2    0    0  0.10351626790E+02  0.71813023721E+00  0.15588729512E+02  0.72461538080E+02  0.69999958035E+02 0.  0.
         12    1    1    2    0    0 -0.10351626790E+02 -0.71813023721E+00 -0.15588729512E+02  0.18726461920E+02  0.00000000000E+00 0. -1.
         11    1    3    3    0    0 -0.30801852771E+01 -0.16129118375E+02 -0.16083476043E+02  0.22985086530E+02  0.51100000000E-03 0. -1.
        -11    1    3    3    0    0 -0.23258007869E+01  0.52836490792E+01  0.29211947493E+02  0.29776906715E+02  0.51100000000E-03 0.  1.
         12    1    3    3    0    0  0.15757612854E+02  0.11563599533E+02  0.24602580611E+01  0.19699544836E+02  0.00000000000E+00 0. -1.
</event>
<event>
 7    1  0.1345786E-013  0.7246208E+02  0.7816164E-02  0.1226707E+00
        -11   -1    0    0    0    0  0.00000000000E+00  0.00000000000E+00  0.45593999997E+02  0.45594000000E+02  0.51100000000E-03 0.  1.
         11   -1    0    0    0    0 -0.00000000000E+00 -0.00000000000E+00 -0.45593999997E+02  0.45594000000E+02  0.51100000000E-03 0. -1.
    9900012    2    1    2    0    0 -0.19900304512E+01 -0.15425946215E+02  0.10427857182E+02  0.72462075637E+02  0.70000658300E+02 0.  0.
         12    1    1    2    0    0  0.19900304512E+01  0.15425946215E+02 -0.10427857182E+02  0.18725924363E+02  0.00000000000E+00 0. -1.
         11    1    3    3    0    0  0.79910058349E+01  0.62814461937E+01  0.28251371208E+02  0.30024202170E+02  0.51100000000E-03 0. -1.
        -11    1    3    3    0    0 -0.19733635064E+02 -0.19656687748E+02 -0.16528639092E+02  0.32388232995E+02  0.51100000000E-03 0.  1.
        -12    1    3    3    0    0  0.97525987775E+01 -0.20507046608E+01 -0.12948749342E+01  0.10049640472E+02  0.00000000000E+00 0.  1.
</event>
<event>
 7    1  0.1345786E-013  0.7246117E+02  0.7816164E-02  0.1226709E+00
        -11   -1    0    0    0    0  0.00000000000E+00  0.00000000000E+00  0.45593999997E+02  0.45594000000E+02  0.51100000000E-03 0.  1.
         11   -1    0    0    0    0 -0.00000000000E+00 -0.00000000000E+00 -0.45593999997E+02  0.45594000000E+02  0.51100000000E-03 0. -1.
    9900012    2    1    2    0    0  0.16484998101E+02 -0.66994488424E+01  0.58357724506E+01  0.72461173860E+02  0.69999483569E+02 0.  0.
         12    1    1    2    0    0 -0.16484998101E+02  0.66994488424E+01 -0.58357724506E+01  0.18726826140E+02  0.00000000000E+00 0. -1.
         11    1    3    3    0    0 -0.27487204882E+01 -0.14708988055E+02 -0.22148073636E+02  0.26729140651E+02  0.51100000000E-03 0. -1.
        -11    1    3    3    0    0 -0.36106691144E+01  0.72977648341E+00  0.20186339096E+02  0.20519692774E+02  0.51100000000E-03 0.  1.
         12    1    3    3    0    0  0.22844387703E+02  0.72797627289E+01  0.77975069905E+01  0.25212340435E+02  0.00000000000E+00 0. -1.
</event>
<event>
 7    1  0.1345786E-013  0.7246161E+02  0.7816164E-02  0.1226708E+00
        -11   -1    0    0    0    0  0.00000000000E+00  0.00000000000E+00  0.45593999997E+02  0.45594000000E+02  0.51100000000E-03 0. -1.
         11   -1    0    0    0    0 -0.00000000000E+00 -0.00000000000E+00 -0.45593999997E+02  0.45594000000E+02  0.51100000000E-03 0.  1.
    9900012    2    1    2    0    0  0.56804871922E+01  0.17748959029E+02  0.18395703695E+01  0.72461614858E+02  0.70000058052E+02 0.  0.
         12    1    1    2    0    0 -0.56804871922E+01 -0.17748959029E+02 -0.18395703695E+01  0.18726385142E+02  0.00000000000E+00 0. -1.
         11    1    3    3    0    0  0.69101435456E+01 -0.47699436813E+01 -0.80113251281E+01  0.11605333994E+02  0.51100000000E-03 0. -1.
        -11    1    3    3    0    0  0.42220668673E+01  0.40674878472E+02  0.43888187238E+01  0.41128254490E+02  0.51100000000E-03 0.  1.
        -12    1    3    3    0    0 -0.54517232206E+01 -0.18155975762E+02  0.54620767738E+01  0.19728026374E+02  0.00000000000E+00 0.  1.
</event>
<event>
 7    1  0.1345786E-013  0.7246160E+02  0.7816164E-02  0.1226708E+00
        -11   -1    0    0    0    0  0.00000000000E+00  0.00000000000E+00  0.45593999997E+02  0.45594000000E+02  0.51100000000E-03 0.  1.
         11   -1    0    0    0    0 -0.00000000000E+00 -0.00000000000E+00 -0.45593999997E+02  0.45594000000E+02  0.51100000000E-03 0. -1.
    9900012    2    1    2    0    0  0.63597209877E+01 -0.16673385015E+02  0.56771730524E+01  0.72461598510E+02  0.70000036756E+02 0.  0.
         12    1    1    2    0    0 -0.63597209877E+01  0.16673385015E+02 -0.56771730524E+01  0.18726401490E+02  0.00000000000E+00 0. -1.
         11    1    3    3    0    0  0.23577860882E+02  0.43815782757E+01  0.44324559196E+01  0.24387710382E+02  0.51100000000E-03 0. -1.
        -11    1    3    3    0    0 -0.10869401265E+02 -0.19992131575E+02  0.18710060647E+02  0.29460067523E+02  0.51100000000E-03 0.  1.
        -12    1    3    3    0    0 -0.63487386287E+01 -0.10628317158E+01 -0.17465343514E+02  0.18613820604E+02  0.00000000000E+00 0.  1.
</event>
<event>
 7    1  0.1345786E-013  0.7246159E+02  0.7816164E-02  0.1226708E+00
        -11   -1    0    0    0    0  0.00000000000E+00  0.00000000000E+00  0.45593999997E+02  0.45594000000E+02  0.51100000000E-03 0.  1.
         11   -1    0    0    0    0 -0.00000000000E+00 -0.00000000000E+00 -0.45593999997E+02  0.45594000000E+02  0.51100000000E-03 0. -1.
    9900012    2    1    2    0    0  0.16465951336E+02 -0.27495599986E+01 -0.84847424789E+01  0.72461588477E+02  0.70000023686E+02 0.  0.
         12    1    1    2    0    0 -0.16465951336E+02  0.27495599986E+01  0.84847424789E+01  0.18726411523E+02  0.00000000000E+00 0. -1.
         11    1    3    3    0    0 -0.19534498761E+02 -0.78836743520E+01 -0.90849386907E+01  0.22940903958E+02  0.51100000000E-03 0. -1.
        -11    1    3    3    0    0  0.10836571227E+02  0.16065634463E+02 -0.77067169915E+01  0.20854960411E+02  0.51100000000E-03 0.  1.
         12    1    3    3    0    0  0.25163878870E+02 -0.10931520110E+02  0.83069132033E+01  0.28665724109E+02  0.00000000000E+00 0. -1.
</event>
<event>
 7    1  0.1345786E-013  0.7246159E+02  0.7816164E-02  0.1226708E+00
        -11   -1    0    0    0    0  0.00000000000E+00  0.00000000000E+00  0.45593999997E+02  0.45594000000E+02  0.51100000000E-03 0.  1.
         11   -1    0    0    0    0 -0.00000000000E+00 -0.00000000000E+00 -0.45593999997E+02  0.45594000000E+02  0.51100000000E-03 0. -1.
    9900012    2    1    2    0    0  0.15634292974E+02  0.10259079835E+02 -0.99932810094E+00  0.72461588371E+02  0.70000023548E+02 0.  0.
         12    1    1    2    0    0 -0.15634292974E+02 -0.10259079835E+02  0.99932810094E+00  0.18726411629E+02  0.00000000000E+00 0. -1.
         11    1    3    3    0    0  0.47145509812E+01  0.15654821013E+02 -0.30073638063E+02  0.34230456008E+02  0.51100000000E-03 0. -1.
        -11    1    3    3    0    0 -0.25863491762E+01 -0.14934582173E+01  0.22524623018E+02  0.22721757455E+02  0.51100000000E-03 0.  1.
         12    1    3    3    0    0  0.13506091169E+02 -0.39022829607E+01  0.65496869444E+01  0.15509374908E+02  0.00000000000E+00 0. -1.
</event>
<event>
 7    1  0.1345786E-013  0.7246159E+02  0.7816164E-02  0.1226708E+00
        -11   -1    0    0    0    0  0.00000000000E+00  0.00000000000E+00  0.45593999997E+02  0.45594000000E+02  0.51100000000E-03 0. -1.
         11   -1    0    0    0    0 -0.00000000000E+00 -0.00000000000E+00 -0.45593999997E+02  0.45594000000E+02  0.51100000000E-03 0.  1.
    9900012    2    1    2    0    0  0.15246268845E+02 -0.66884503810E+01  0.85728800997E+01  0.72461592032E+02  0.70000028317E+02 0.  0.
         12    1    1    2    0    0 -0.15246268845E+02  0.66884503810E+01 -0.85728800997E+01  0.18726407968E+02  0.00000000000E+00 0. -1.
         11    1    3    3    0    0  0.29832489062E+02  0.39262455314E+01 -0.29710398047E+01  0.30236069279E+02  0.51100000000E-03 0. -1.
        -11    1    3    3    0    0 -0.23426238103E+02  0.23099445092E+00  0.14993621940E+02  0.27814576920E+02  0.51100000000E-03 0.  1.
        -12    1    3    3    0    0  0.88400178855E+01 -0.10845690363E+02 -0.34497020356E+01  0.14410945833E+02  0.00000000000E+00 0.  1.
</event>
<event>
 7    1  0.1345786E-013  0.7246112E+02  0.7816164E-02  0.1226709E+00
        -11   -1    0    0    0    0  0.00000000000E+00  0.00000000000E+00  0.45593999997E+02  0.45594000000E+02  0.51100000000E-03 0.  1.
         11   -1    0    0    0    0 -0.00000000000E+00 -0.00000000000E+00 -0.45593999997E+02  0.45594000000E+02  0.51100000000E-03 0. -1.
    9900012    2    1    2    0    0  0.66345149965E+00  0.92261058044E+01  0.16282958896E+02  0.72461122347E+02  0.69999416463E+02 0.  0.
         12    1    1    2    0    0 -0.66345149965E+00 -0.92261058044E+01 -0.16282958896E+02  0.18726877653E+02  0.00000000000E+00 0. -1.
         11    1    3    3    0    0  0.57919365204E+01  0.33636338431E+02  0.16354601321E+02  0.37847361550E+02  0.51100000000E-03 0.  1.
        -11    1    3    3    0    0  0.49721670305E+01 -0.20178704677E+02 -0.66723520927E+01  0.21827112730E+02  0.51100000000E-03 0. -1.
        -12    1    3    3    0    0 -0.10100652051E+02 -0.42315279493E+01  0.66007096682E+01  0.12786648066E+02  0.00000000000E+00 0.  1.
</event>
<event>
 7    1  0.1345786E-013  0.7246161E+02  0.7816164E-02  0.1226708E+00
        -11   -1    0    0    0    0  0.00000000000E+00  0.00000000000E+00  0.45593999997E+02  0.45594000000E+02  0.51100000000E-03 0.  1.
         11   -1    0    0    0    0 -0.00000000000E+00 -0.00000000000E+00 -0.45593999997E+02  0.45594000000E+02  0.51100000000E-03 0. -1.
    9900012    2    1    2    0    0  0.89292135952E+01  0.44842368048E+01  0.15837885469E+02  0.72461605492E+02  0.70000045851E+02 0.  0.
         12    1    1    2    0    0 -0.89292135952E+01 -0.44842368048E+01 -0.15837885469E+02  0.18726394508E+02  0.00000000000E+00 0. -1.
         11    1    3    3    0    0 -0.34291739844E+01  0.50378265855E+01 -0.19987817746E+02  0.20896214715E+02  0.51100000000E-03 0. -1.
        -11    1    3    3    0    0 -0.90977721311E+01 -0.10102831460E+02  0.13626118803E+02  0.19248578523E+02  0.51100000000E-03 0.  1.
         12    1    3    3    0    0  0.21456159711E+02  0.95492416796E+01  0.22199584412E+02  0.32316812254E+02  0.00000000000E+00 0. -1.
</event>
<event>
 7    1  0.1345786E-013  0.7246124E+02  0.7816164E-02  0.1226709E+00
        -11   -1    0    0    0    0  0.00000000000E+00  0.00000000000E+00  0.45593999997E+02  0.45594000000E+02  0.51100000000E-03 0.  1.
         11   -1    0    0    0    0 -0.00000000000E+00 -0.00000000000E+00 -0.45593999997E+02  0.45594000000E+02  0.51100000000E-03 0. -1.
    9900012    2    1    2    0    0 -0.90604378663E+01  0.11833840872E+02  0.11338431663E+02  0.72461244897E+02  0.69999576108E+02 0.  0.
         12    1    1    2    0    0  0.90604378663E+01 -0.11833840872E+02 -0.11338431663E+02  0.18726755103E+02  0.00000000000E+00 0. -1.
         11    1    3    3    0    0  0.28567980503E+01  0.18953525422E+02 -0.20482462335E+02  0.28052249189E+02  0.51100000000E-03 0. -1.
        -11    1    3    3    0    0  0.87905260523E+01 -0.50013024610E+01  0.92657451559E+01  0.13716428403E+02  0.51100000000E-03 0.  1.
         12    1    3    3    0    0 -0.20707761969E+02 -0.21183820892E+01  0.22555148842E+02  0.30692567304E+02  0.00000000000E+00 0. -1.
</event>
<event>
 7    1  0.1345786E-013  0.7246184E+02  0.7816164E-02  0.1226707E+00
        -11   -1    0    0    0    0  0.00000000000E+00  0.00000000000E+00  0.45593999997E+02  0.45594000000E+02  0.51100000000E-03 0.  1.
         11   -1    0    0    0    0 -0.00000000000E+00 -0.00000000000E+00 -0.45593999997E+02  0.45594000000E+02  0.51100000000E-03 0. -1.
    9900012    2    1    2    0    0 -0.46985175930E+01 -0.14216128526E+02  0.11246988293E+02  0.72461838527E+02  0.70000349422E+02 0.  0.
         12    1    1    2    0    0  0.46985175930E+01  0.14216128526E+02 -0.11246988293E+02  0.18726161473E+02  0.00000000000E+00 0. -1.
         11    1    3    3    0    0  0.25831669550E+02 -0.23326285738E+02  0.46335862577E+01  0.35112118704E+02  0.51100000000E-03 0. -1.
        -11    1    3    3    0    0 -0.84409304983E+01 -0.13846585418E+01  0.94311006929E+01  0.12732330796E+02  0.51100000000E-03 0.  1.
         12    1    3    3    0    0 -0.22089256644E+02  0.10494815753E+02 -0.28176986580E+01  0.24617389027E+02  0.00000000000E+00 0. -1.
</event>
<event>
 7    1  0.1345786E-013  0.7246159E+02  0.7816164E-02  0.1226708E+00
        -11   -1    0    0    0    0  0.00000000000E+00  0.00000000000E+00  0.45593999997E+02  0.45594000000E+02  0.51100000000E-03 0.  1.
         11   -1    0    0    0    0 -0.00000000000E+00 -0.00000000000E+00 -0.45593999997E+02  0.45594000000E+02  0.51100000000E-03 0. -1.
    9900012    2    1    2    0    0 -0.10923190969E+02  0.12251361798E+02 -0.90147855413E+01  0.72461592837E+02  0.70000029367E+02 0.  0.
         12    1    1    2    0    0  0.10923190969E+02 -0.12251361798E+02  0.90147855413E+01  0.18726407163E+02  0.00000000000E+00 0. -1.
         11    1    3    3    0    0  0.18136398586E+02 -0.75379491809E+01 -0.50906917136E+01  0.20289523748E+02  0.51100000000E-03 0. -1.
        -11    1    3    3    0    0 -0.20266028559E+02  0.30736770760E+02  0.21356430830E+01  0.36878475592E+02  0.51100000000E-03 0.  1.
        -12    1    3    3    0    0 -0.87935609963E+01 -0.10947459781E+02 -0.60597369107E+01  0.15293593498E+02  0.00000000000E+00 0.  1.
</event>
<event>
 7    1  0.1345786E-013  0.7246157E+02  0.7816164E-02  0.1226708E+00
        -11   -1    0    0    0    0  0.00000000000E+00  0.00000000000E+00  0.45593999997E+02  0.45594000000E+02  0.51100000000E-03 0.  1.
         11   -1    0    0    0    0 -0.00000000000E+00 -0.00000000000E+00 -0.45593999997E+02  0.45594000000E+02  0.51100000000E-03 0. -1.
    9900012    2    1    2    0    0 -0.29667244147E+01  0.61108763801E+01  0.17450923974E+02  0.72461574515E+02  0.70000005498E+02 0.  0.
         12    1    1    2    0    0  0.29667244147E+01 -0.61108763801E+01 -0.17450923974E+02  0.18726425485E+02  0.00000000000E+00 0. -1.
         11    1    3    3    0    0 -0.87730737441E+01  0.23014565827E+02  0.96622833786E+01  0.26457452324E+02  0.51100000000E-03 0. -1.
        -11    1    3    3    0    0  0.22589571347E+02 -0.79926218252E+01 -0.30063313023E+01  0.24149715639E+02  0.51100000000E-03 0.  1.
        -12    1    3    3    0    0 -0.16783222018E+02 -0.89110676220E+01  0.10794971898E+02  0.21854406552E+02  0.00000000000E+00 0.  1.
</event>
<event>
 7    1  0.1345786E-013  0.7246154E+02  0.7816164E-02  0.1226708E+00
        -11   -1    0    0    0    0  0.00000000000E+00  0.00000000000E+00  0.45593999997E+02  0.45594000000E+02  0.51100000000E-03 0.  1.
         11   -1    0    0    0    0 -0.00000000000E+00 -0.00000000000E+00 -0.45593999997E+02  0.45594000000E+02  0.51100000000E-03 0. -1.
    9900012    2    1    2    0    0 -0.81926836204E+01 -0.56145891452E+01  0.15875659572E+02  0.72461541632E+02  0.69999962662E+02 0.  0.
         12    1    1    2    0    0  0.81926836204E+01  0.56145891452E+01 -0.15875659572E+02  0.18726458368E+02  0.00000000000E+00 0. -1.
         11    1    3    3    0    0 -0.71314432766E+01 -0.21191819599E+02 -0.19012499560E+02  0.29350056915E+02  0.51100000000E-03 0. -1.
        -11    1    3    3    0    0 -0.98942523320E+01  0.11999822147E+02  0.24448290955E+02  0.28976039958E+02  0.51100000000E-03 0.  1.
         12    1    3    3    0    0  0.88330119882E+01  0.35774083064E+01  0.10439868178E+02  0.14135444759E+02  0.00000000000E+00 0. -1.
</event>
<event>
 7    1  0.1345786E-013  0.7246157E+02  0.7816164E-02  0.1226708E+00
        -11   -1    0    0    0    0  0.00000000000E+00  0.00000000000E+00  0.45593999997E+02  0.45594000000E+02  0.51100000000E-03 0.  1.
         11   -1    0    0    0    0 -0.00000000000E+00 -0.00000000000E+00 -0.45593999997E+02  0.45594000000E+02  0.51100000000E-03 0. -1.
    9900012    2    1    2    0    0 -0.61593096195E+01 -0.10028332504E+02  0.14566209859E+02  0.72461574354E+02  0.70000005289E+02 0.  0.
         12    1    1    2    0    0  0.61593096195E+01  0.10028332504E+02 -0.14566209859E+02  0.18726425646E+02  0.00000000000E+00 0. -1.
         11    1    3    3    0    0  0.10580918311E+02  0.14985281490E+02 -0.87599158992E+01  0.20328566611E+02  0.51100000000E-03 0. -1.
        -11    1    3    3    0    0 -0.89388338438E+01 -0.25692384661E+02 -0.33985490167E+00  0.27205089260E+02  0.51100000000E-03 0.  1.
         12    1    3    3    0    0 -0.78013940866E+01  0.67877066679E+00  0.23665980660E+02  0.24927918484E+02  0.00000000000E+00 0. -1.
</event>
<event>
 7    1  0.1345786E-013  0.7246156E+02  0.7816164E-02  0.1226708E+00
        -11   -1    0    0    0    0  0.00000000000E+00  0.00000000000E+00  0.45593999997E+02  0.45594000000E+02  0.51100000000E-03 0. -1.
         11   -1    0    0    0    0 -0.00000000000E+00 -0.00000000000E+00 -0.45593999997E+02  0.45594000000E+02  0.51100000000E-03 0.  1.
    9900012    2    1    2    0    0 -0.96843387288E+01 -0.11341248419E+02 -0.11325603350E+02  0.72461558172E+02  0.69999984208E+02 0.  0.
         12    1    1    2    0    0  0.96843387288E+01  0.11341248419E+02  0.11325603350E+02  0.18726441828E+02  0.00000000000E+00 0. -1.
         11    1    3    3    0    0 -0.23206989331E+02 -0.31894024079E+02  0.16375837727E+01  0.39477522803E+02  0.51100000000E-03 0. -1.
        -11    1    3    3    0    0  0.30564411451E+01  0.94703751245E+01 -0.14582964634E+02  0.17654820737E+02  0.51100000000E-03 0.  1.
         12    1    3    3    0    0  0.10466209457E+02  0.11082400536E+02  0.16197775114E+01  0.15329214632E+02  0.00000000000E+00 0. -1.
</event>
<event>
 7    1  0.1345786E-013  0.7246160E+02  0.7816164E-02  0.1226708E+00
        -11   -1    0    0    0    0  0.00000000000E+00  0.00000000000E+00  0.45593999997E+02  0.45594000000E+02  0.51100000000E-03 0.  1.
         11   -1    0    0    0    0 -0.00000000000E+00 -0.00000000000E+00 -0.45593999997E+02  0.45594000000E+02  0.51100000000E-03 0. -1.
    9900012    2    1    2    0    0  0.90329671375E+01  0.81269052273E+01  0.14249107227E+02  0.72461597766E+02  0.70000035786E+02 0.  0.
         12    1    1    2    0    0 -0.90329671375E+01 -0.81269052273E+01 -0.14249107227E+02  0.18726402234E+02  0.00000000000E+00 0. -1.
         11    1    3    3    0    0  0.12573313872E+02  0.47028312799E+01 -0.33781798877E+01  0.13842577194E+02  0.51100000000E-03 0. -1.
        -11    1    3    3    0    0  0.15492536661E+02  0.36462076374E+01  0.31346717372E+02  0.35155799132E+02  0.51100000000E-03 0.  1.
        -12    1    3    3    0    0 -0.19032883395E+02 -0.22213369005E+00 -0.13719430258E+02  0.23463221439E+02  0.00000000000E+00 0.  1.
</event>
<event>
 7    1  0.1345786E-013  0.7246164E+02  0.7816164E-02  0.1226708E+00
        -11   -1    0    0    0    0  0.00000000000E+00  0.00000000000E+00  0.45593999997E+02  0.45594000000E+02  0.51100000000E-03 0. -1.
         11   -1    0    0    0    0 -0.00000000000E+00 -0.00000000000E+00 -0.45593999997E+02  0.45594000000E+02  0.51100000000E-03 0.  1.
    9900012    2    1    2    0    0  0.37083365988E+00 -0.18722581673E+02 -0.63517110415E-01  0.72461638460E+02  0.70000088798E+02 0.  0.
         12    1    1    2    0    0 -0.37083365988E+00  0.18722581673E+02  0.63517110415E-01  0.18726361540E+02  0.00000000000E+00 0. -1.
         11    1    3    3    0    0  0.21230402390E+02 -0.14668233827E+02  0.14905654847E+02  0.29800429794E+02  0.51100000000E-03 0. -1.
        -11    1    3    3    0    0 -0.22136392061E+01  0.75908193774E+01 -0.18755295942E+02  0.20353915188E+02  0.51100000000E-03 0.  1.
         12    1    3    3    0    0 -0.18645929524E+02 -0.11645167224E+02  0.37861239848E+01  0.22307293478E+02  0.00000000000E+00 0. -1.
</event>
<event>
 7    1  0.1345786E-013  0.7246158E+02  0.7816164E-02  0.1226708E+00
        -11   -1    0    0    0    0  0.00000000000E+00  0.00000000000E+00  0.45593999997E+02  0.45594000000E+02  0.51100000000E-03 0.  1.
         11   -1    0    0    0    0 -0.00000000000E+00 -0.00000000000E+00 -0.45593999997E+02  0.45594000000E+02  0.51100000000E-03 0. -1.
    9900012    2    1    2    0    0 -0.52521461054E+01  0.15419579917E+02  0.92374414904E+01  0.72461579925E+02  0.70000012546E+02 0.  0.
         12    1    1    2    0    0  0.52521461054E+01 -0.15419579917E+02 -0.92374414904E+01  0.18726420075E+02  0.00000000000E+00 0. -1.
         11    1    3    3    0    0 -0.13817887130E+02  0.77478956902E+01 -0.22716112668E+02  0.27694506086E+02  0.51100000000E-03 0. -1.
        -11    1    3    3    0    0  0.12343832083E+02  0.17113742357E+02  0.20006883608E+02  0.29077925647E+02  0.51100000000E-03 0.  1.
        -12    1    3    3    0    0 -0.37780910588E+01 -0.94420581300E+01  0.11946670550E+02  0.15689148193E+02  0.00000000000E+00 0.  1.
</event>
<event>
 7    1  0.1345786E-013  0.7246158E+02  0.7816164E-02  0.1226708E+00
        -11   -1    0    0    0    0  0.00000000000E+00  0.00000000000E+00  0.45593999997E+02  0.45594000000E+02  0.51100000000E-03 0.  1.
         11   -1    0    0    0    0 -0.00000000000E+00 -0.00000000000E+00 -0.45593999997E+02  0.45594000000E+02  0.51100000000E-03 0. -1.
    9900012    2    1    2    0    0 -0.10077110303E+02 -0.15247722117E+02 -0.40789195151E+01  0.72461581062E+02  0.70000014027E+02 0.  0.
         12    1    1    2    0    0  0.10077110303E+02  0.15247722117E+02  0.40789195151E+01  0.18726418938E+02  0.00000000000E+00 0. -1.
         11    1    3    3    0    0  0.45626139400E+01 -0.37449453165E+01 -0.60413173565E+01  0.84462759280E+01  0.51100000000E-03 0. -1.
        -11    1    3    3    0    0 -0.10554432891E+02 -0.32625092198E+02  0.16497082315E+02  0.38051891146E+02  0.51100000000E-03 0.  1.
        -12    1    3    3    0    0 -0.40852913525E+01  0.21122315397E+02 -0.14534684473E+02  0.25963413988E+02  0.00000000000E+00 0.  1.
</event>
<event>
 7    1  0.1345786E-013  0.7246155E+02  0.7816164E-02  0.1226708E+00
        -11   -1    0    0    0    0  0.00000000000E+00  0.00000000000E+00  0.45593999997E+02  0.45594000000E+02  0.51100000000E-03 0. -1.
         11   -1    0    0    0    0 -0.00000000000E+00 -0.00000000000E+00 -0.45593999997E+02  0.45594000000E+02  0.51100000000E-03 0.  1.
    9900012    2    1    2    0    0  0.53147775706E+01  0.22107731632E+01 -0.17819810138E+02  0.72461547801E+02  0.69999970698E+02 0.  0.
         12    1    1    2    0    0 -0.53147775706E+01 -0.22107731632E+01  0.17819810138E+02  0.18726452199E+02  0.00000000000E+00 0. -1.
         11    1    3    3    0    0  0.23739586797E+01 -0.19168307064E+02  0.34869302753E+01  0.19626980372E+02  0.51100000000E-03 0. -1.
        -11    1    3    3    0    0 -0.12736188080E+02  0.26423481776E+02 -0.51832532706E+01  0.29787195080E+02  0.51100000000E-03 0.  1.
        -12    1    3    3    0    0  0.15677006971E+02 -0.50444015488E+01 -0.16123487143E+02  0.23047372349E+02  0.00000000000E+00 0.  1.
</event>
<event>
 7    1  0.1345786E-013  0.7246157E+02  0.7816164E-02  0.1226708E+00
        -11   -1    0    0    0    0  0.00000000000E+00  0.00000000000E+00  0.45593999997E+02  0.45594000000E+02  0.51100000000E-03 0.  1.
         11   -1    0    0    0    0 -0.00000000000E+00 -0.00000000000E+00 -0.45593999997E+02  0.45594000000E+02  0.51100000000E-03 0. -1.
    9900012    2    1    2    0    0 -0.10701187129E+02 -0.18118660269E+01  0.15260434519E+02  0.72461571452E+02  0.70000001508E+02 0.  0.
         12    1    1    2    0    0  0.10701187129E+02  0.18118660269E+01 -0.15260434519E+02  0.18726428548E+02  0.00000000000E+00 0. -1.
         11    1    3    3    0    0  0.17958713418E+01 -0.21889026079E+02  0.30219840463E+01  0.22169506183E+02  0.51100000000E-03 0. -1.
        -11    1    3    3    0    0  0.11159493848E+02  0.14806508251E+02 -0.65096745007E+01  0.19650517853E+02  0.51100000000E-03 0.  1.
        -12    1    3    3    0    0 -0.23656552319E+02  0.52706518008E+01  0.18748124973E+02  0.30641547416E+02  0.00000000000E+00 0.  1.
</event>
<event>
 7    1  0.1345786E-013  0.7246161E+02  0.7816164E-02  0.1226708E+00
        -11   -1    0    0    0    0  0.00000000000E+00  0.00000000000E+00  0.45593999997E+02  0.45594000000E+02  0.51100000000E-03 0.  1.
         11   -1    0    0    0    0 -0.00000000000E+00 -0.00000000000E+00 -0.45593999997E+02  0.45594000000E+02  0.51100000000E-03 0. -1.
    9900012    2    1    2    0    0 -0.40525032746E+01 -0.18110837201E+02 -0.25005321825E+01  0.72461605042E+02  0.70000045266E+02 0.  0.
         12    1    1    2    0    0  0.40525032746E+01  0.18110837201E+02  0.25005321825E+01  0.18726394958E+02  0.00000000000E+00 0. -1.
         11    1    3    3    0    0  0.66836843070E+01  0.38487380609E+01 -0.27044774309E+01  0.81730422128E+01  0.51100000000E-03 0. -1.
        -11    1    3    3    0    0 -0.32935848725E+02 -0.23645439305E+02  0.67045545264E+01  0.41095352326E+02  0.51100000000E-03 0.  1.
        -12    1    3    3    0    0  0.22199661143E+02  0.16858640432E+01 -0.65006092780E+01  0.23193210503E+02  0.00000000000E+00 0.  1.
</event>
<event>
 7    1  0.1345786E-013  0.7246150E+02  0.7816164E-02  0.1226708E+00
        -11   -1    0    0    0    0  0.00000000000E+00  0.00000000000E+00  0.45593999997E+02  0.45594000000E+02  0.51100000000E-03 0. -1.
         11   -1    0    0    0    0 -0.00000000000E+00 -0.00000000000E+00 -0.45593999997E+02  0.45594000000E+02  0.51100000000E-03 0.  1.
    9900012    2    1    2    0    0 -0.56879301469E+00 -0.17832120636E+02 -0.56897844607E+01  0.72461502755E+02  0.69999912017E+02 0.  0.
         12    1    1    2    0    0  0.56879301469E+00  0.17832120636E+02  0.56897844607E+01  0.18726497245E+02  0.00000000000E+00 0. -1.
         11    1    3    3    0    0 -0.41446914614E+00 -0.20707011386E+02 -0.20081050476E+02  0.28847888895E+02  0.51100000000E-03 0. -1.
        -11    1    3    3    0    0  0.15598061105E+02  0.11525950307E+02 -0.17291021301E+01  0.19471436391E+02  0.51100000000E-03 0.  1.
         12    1    3    3    0    0 -0.15752384973E+02 -0.86510595567E+01  0.16120368145E+02  0.24142177469E+02  0.00000000000E+00 0. -1.
</event>
<event>
 7    1  0.1345786E-013  0.7246155E+02  0.7816164E-02  0.1226708E+00
        -11   -1    0    0    0    0  0.00000000000E+00  0.00000000000E+00  0.45593999997E+02  0.45594000000E+02  0.51100000000E-03 0. -1.
         11   -1    0    0    0    0 -0.00000000000E+00 -0.00000000000E+00 -0.45593999997E+02  0.45594000000E+02  0.51100000000E-03 0.  1.
    9900012    2    1    2    0    0  0.13612219703E+01  0.18123781700E+02  0.45117024439E+01  0.72461552197E+02  0.69999976425E+02 0.  0.
         12    1    1    2    0    0 -0.13612219703E+01 -0.18123781700E+02 -0.45117024439E+01  0.18726447803E+02  0.00000000000E+00 0. -1.
         11    1    3    3    0    0  0.13461160830E+02 -0.20257941899E+01  0.25960169694E+02  0.29312746439E+02  0.51100000000E-03 0. -1.
        -11    1    3    3    0    0  0.40999479669E+01  0.15266223825E+02 -0.20920211124E+02  0.26220648294E+02  0.51100000000E-03 0.  1.
         12    1    3    3    0    0 -0.16199886827E+02  0.48833520655E+01 -0.52825612577E+00  0.16928157464E+02  0.00000000000E+00 0. -1.
</event>
<event>
 7    1  0.1345786E-013  0.7246160E+02  0.7816164E-02  0.1226708E+00
        -11   -1    0    0    0    0  0.00000000000E+00  0.00000000000E+00  0.45593999997E+02  0.45594000000E+02  0.51100000000E-03 0.  1.
         11   -1    0    0    0    0 -0.00000000000E+00 -0.00000000000E+00 -0.45593999997E+02  0.45594000000E+02  0.51100000000E-03 0. -1.
    9900012    2    1    2    0    0  0.13746728375E+02 -0.37129648528E+01  0.12162217437E+02  0.72461596661E+02  0.70000034348E+02 0.  0.
         12    1    1    2    0    0 -0.13746728375E+02  0.37129648528E+01 -0.12162217437E+02  0.18726403339E+02  0.00000000000E+00 0. -1.
         11    1    3    3    0    0 -0.40787471316E+01 -0.17923460838E+01 -0.92812475726E+01  0.10295156114E+02  0.51100000000E-03 0. -1.
        -11    1    3    3    0    0 -0.10062069119E+02  0.44652032187E+00  0.30997540289E+02  0.32592823130E+02  0.51100000000E-03 0.  1.
        -12    1    3    3    0    0  0.27887544625E+02 -0.23671390909E+01 -0.95540752794E+01  0.29573617417E+02  0.00000000000E+00 0.  1.
</event>
<event>
 7    1  0.1345786E-013  0.7246158E+02  0.7816164E-02  0.1226708E+00
        -11   -1    0    0    0    0  0.00000000000E+00  0.00000000000E+00  0.45593999997E+02  0.45594000000E+02  0.51100000000E-03 0. -1.
         11   -1    0    0    0    0 -0.00000000000E+00 -0.00000000000E+00 -0.45593999997E+02  0.45594000000E+02  0.51100000000E-03 0.  1.
    9900012    2    1    2    0    0 -0.56941877272E+01 -0.12997270493E+02 -0.12219905625E+02  0.72461577287E+02  0.70000009109E+02 0.  0.
         12    1    1    2    0    0  0.56941877272E+01  0.12997270493E+02  0.12219905625E+02  0.18726422713E+02  0.00000000000E+00 0. -1.
         11    1    3    3    0    0 -0.14154100262E+02  0.54860134803E+01  0.20718268272E+02  0.25684266362E+02  0.51100000000E-03 0. -1.
        -11    1    3    3    0    0 -0.79950050483E+01 -0.73505573590E+01 -0.20884375817E+02  0.23539497716E+02  0.51100000000E-03 0.  1.
         12    1    3    3    0    0  0.16454917583E+02 -0.11132726615E+02 -0.12053798080E+02  0.23237813208E+02  0.00000000000E+00 0. -1.
</event>
<event>
 7    1  0.1345786E-013  0.7246157E+02  0.7816164E-02  0.1226708E+00
        -11   -1    0    0    0    0  0.00000000000E+00  0.00000000000E+00  0.45593999997E+02  0.45594000000E+02  0.51100000000E-03 0.  1.
         11   -1    0    0    0    0 -0.00000000000E+00 -0.00000000000E+00 -0.45593999997E+02  0.45594000000E+02  0.51100000000E-03 0. -1.
    9900012    2    1    2    0    0  0.39991448804E+01  0.15439505343E+02  0.98136538515E+01  0.72461567159E+02  0.69999995916E+02 0.  0.
         12    1    1    2    0    0 -0.39991448804E+01 -0.15439505343E+02 -0.98136538515E+01  0.18726432841E+02  0.00000000000E+00 0. -1.
         11    1    3    3    0    0  0.10287454318E+02  0.30696007340E+02 -0.67701468957E+01  0.33074332528E+02  0.51100000000E-03 0. -1.
        -11    1    3    3    0    0 -0.68132514589E+01 -0.24243444351E+02  0.67844053598E+01  0.26080512759E+02  0.51100000000E-03 0.  1.
        -12    1    3    3    0    0  0.52494202147E+00  0.89869423545E+01  0.97993953873E+01  0.13306721872E+02  0.00000000000E+00 0.  1.
</event>
<event>
 7    1  0.1345786E-013  0.7246157E+02  0.7816164E-02  0.1226708E+00
        -11   -1    0    0    0    0  0.00000000000E+00  0.00000000000E+00  0.45593999997E+02  0.45594000000E+02  0.51100000000E-03 0.  1.
         11   -1    0    0    0    0 -0.00000000000E+00 -0.00000000000E+00 -0.45593999997E+02  0.45594000000E+02  0.51100000000E-03 0. -1.
    9900012    2    1    2    0    0  0.14042185692E+02  0.79561286695E+01  0.94971783631E+01  0.72461565228E+02  0.69999993400E+02 0.  0.
         12    1    1    2    0    0 -0.14042185692E+02 -0.79561286695E+01 -0.94971783631E+01  0.18726434772E+02  0.00000000000E+00 0. -1.
         11    1    3    3    0    0 -0.90541359856E+01 -0.22368552670E+02 -0.12504576543E+02  0.27178924956E+02  0.51100000000E-03 0. -1.
        -11    1    3    3    0    0  0.22286060272E+02  0.30739221345E+02  0.19630129968E+02  0.42742370245E+02  0.51100000000E-03 0.  1.
        -12    1    3    3    0    0  0.81026140558E+00 -0.41454000494E+00  0.23716249382E+01  0.25402700267E+01  0.00000000000E+00 0.  1.
</event>
<event>
 7    1  0.1345786E-013  0.7246157E+02  0.7816164E-02  0.1226708E+00
        -11   -1    0    0    0    0  0.00000000000E+00  0.00000000000E+00  0.45593999997E+02  0.45594000000E+02  0.51100000000E-03 0. -1.
         11   -1    0    0    0    0 -0.00000000000E+00 -0.00000000000E+00 -0.45593999997E+02  0.45594000000E+02  0.51100000000E-03 0.  1.
    9900012    2    1    2    0    0  0.13948405038E+02 -0.23347797448E+01 -0.12274766453E+02  0.72461572391E+02  0.70000002731E+02 0.  0.
         12    1    1    2    0    0 -0.13948405038E+02  0.23347797448E+01  0.12274766453E+02  0.18726427609E+02  0.00000000000E+00 0. -1.
         11    1    3    3    0    0 -0.17790050676E+02  0.63480561788E+01 -0.25641934872E+02  0.31847959817E+02  0.51100000000E-03 0. -1.
        -11    1    3    3    0    0  0.30282574737E+02 -0.12760216040E+02  0.81932328900E+01  0.33867189307E+02  0.51100000000E-03 0.  1.
         12    1    3    3    0    0  0.14558809758E+01  0.40773801161E+01  0.51739355292E+01  0.67464232663E+01  0.00000000000E+00 0. -1.
</event>
<event>
 7    1  0.1345786E-013  0.7246164E+02  0.7816164E-02  0.1226708E+00
        -11   -1    0    0    0    0  0.00000000000E+00  0.00000000000E+00  0.45593999997E+02  0.45594000000E+02  0.51100000000E-03 0.  1.
         11   -1    0    0    0    0 -0.00000000000E+00 -0.00000000000E+00 -0.45593999997E+02  0.45594000000E+02  0.51100000000E-03 0. -1.
    9900012    2    1    2    0    0 -0.70786293917E+01 -0.15474594287E+02 -0.78170682777E+01  0.72461638398E+02  0.70000088717E+02 0.  0.
         12    1    1    2    0    0  0.70786293917E+01  0.15474594287E+02  0.78170682777E+01  0.18726361602E+02  0.00000000000E+00 0. -1.
         11    1    3    3    0    0 -0.19621739238E+01  0.50737548182E+01 -0.11458676859E+02  0.12684415244E+02  0.51100000000E-03 0. -1.
        -11    1    3    3    0    0 -0.26681048174E+02 -0.25337666982E+02  0.69354601165E+01  0.37442974068E+02  0.51100000000E-03 0.  1.
        -12    1    3    3    0    0  0.21564592706E+02  0.47893178774E+01 -0.32938515356E+01  0.22334249086E+02  0.00000000000E+00 0.  1.
</event>
<event>
 7    1  0.1345786E-013  0.7246148E+02  0.7816164E-02  0.1226708E+00
        -11   -1    0    0    0    0  0.00000000000E+00  0.00000000000E+00  0.45593999997E+02  0.45594000000E+02  0.51100000000E-03 0.  1.
         11   -1    0    0    0    0 -0.00000000000E+00 -0.00000000000E+00 -0.45593999997E+02  0.45594000000E+02  0.51100000000E-03 0. -1.
    9900012    2    1    2    0    0 -0.10382417766E+02  0.15582034181E+02  0.29705200079E+00  0.72461477959E+02  0.69999879715E+02 0.  0.
         12    1    1    2    0    0  0.10382417766E+02 -0.15582034181E+02 -0.29705200079E+00  0.18726522041E+02  0.00000000000E+00 0. -1.
         11    1    3    3    0    0  0.23333758090E+02  0.25450619018E+02  0.69698382123E+01  0.35224663518E+02  0.51100000000E-03 0. -1.
        -11    1    3    3    0    0 -0.10606371300E+02 -0.28583973303E+01 -0.71067696131E+01  0.13083261140E+02  0.51100000000E-03 0.  1.
         12    1    3    3    0    0 -0.23109804555E+02 -0.70101875071E+01  0.43398340154E+00  0.24153553301E+02  0.00000000000E+00 0. -1.
</event>
<event>
 7    1  0.1345786E-013  0.7246160E+02  0.7816164E-02  0.1226708E+00
        -11   -1    0    0    0    0  0.00000000000E+00  0.00000000000E+00  0.45593999997E+02  0.45594000000E+02  0.51100000000E-03 0. -1.
         11   -1    0    0    0    0 -0.00000000000E+00 -0.00000000000E+00 -0.45593999997E+02  0.45594000000E+02  0.51100000000E-03 0.  1.
    9900012    2    1    2    0    0  0.14624968239E+02  0.94722679442E+01 -0.68603586206E+01  0.72461599481E+02  0.70000038021E+02 0.  0.
         12    1    1    2    0    0 -0.14624968239E+02 -0.94722679442E+01  0.68603586206E+01  0.18726400519E+02  0.00000000000E+00 0. -1.
         11    1    3    3    0    0  0.23793428959E+02  0.25949576911E+02  0.10996488981E+02  0.36884015151E+02  0.51100000000E-03 0. -1.
        -11    1    3    3    0    0  0.72375549209E+01 -0.10798017197E+02 -0.10549099685E+02  0.16741053762E+02  0.51100000000E-03 0.  1.
         12    1    3    3    0    0 -0.16406015641E+02 -0.56792917701E+01 -0.73077479162E+01  0.18836530568E+02  0.00000000000E+00 0. -1.
</event>
<event>
 7    1  0.1345786E-013  0.7246159E+02  0.7816164E-02  0.1226708E+00
        -11   -1    0    0    0    0  0.00000000000E+00  0.00000000000E+00  0.45593999997E+02  0.45594000000E+02  0.51100000000E-03 0.  1.
         11   -1    0    0    0    0 -0.00000000000E+00 -0.00000000000E+00 -0.45593999997E+02  0.45594000000E+02  0.51100000000E-03 0. -1.
    9900012    2    1    2    0    0  0.32860441621E+01  0.15557871356E+02  0.98910490830E+01  0.72461593529E+02  0.70000030267E+02 0.  0.
         12    1    1    2    0    0 -0.32860441621E+01 -0.15557871356E+02 -0.98910490830E+01  0.18726406471E+02  0.00000000000E+00 0. -1.
         11    1    3    3    0    0  0.10543575554E+02 -0.48061819280E+01 -0.14376140374E+02  0.18464554760E+02  0.51100000000E-03 0. -1.
        -11    1    3    3    0    0 -0.10466039981E+02  0.15612022587E+02  0.36182950891E+02  0.40773510734E+02  0.51100000000E-03 0.  1.
        -12    1    3    3    0    0  0.32085085898E+01  0.47520306968E+01 -0.11915761434E+02  0.13223528034E+02  0.00000000000E+00 0.  1.
</event>
<event>
 7    1  0.1345786E-013  0.7246159E+02  0.7816164E-02  0.1226708E+00
        -11   -1    0    0    0    0  0.00000000000E+00  0.00000000000E+00  0.45593999997E+02  0.45594000000E+02  0.51100000000E-03 0.  1.
         11   -1    0    0    0    0 -0.00000000000E+00 -0.00000000000E+00 -0.45593999997E+02  0.45594000000E+02  0.51100000000E-03 0. -1.
    9900012    2    1    2    0    0  0.10707639246E+02 -0.13356333681E+02  0.75916581127E+01  0.72461589224E+02  0.70000024660E+02 0.  0.
         12    1    1    2    0    0 -0.10707639246E+02  0.13356333681E+02 -0.75916581127E+01  0.18726410776E+02  0.00000000000E+00 0. -1.
         11    1    3    3    0    0 -0.17472109550E+02 -0.26275302099E+02  0.17858419146E+02  0.36257264750E+02  0.51100000000E-03 0. -1.
        -11    1    3    3    0    0  0.81881315687E+01 -0.33805990889E+01 -0.16648662782E+01  0.90136412604E+01  0.51100000000E-03 0.  1.
         12    1    3    3    0    0  0.19991617227E+02  0.16299567506E+02 -0.86018947552E+01  0.27190683214E+02  0.00000000000E+00 0. -1.
</event>
<event>
 7    1  0.1345786E-013  0.7246164E+02  0.7816164E-02  0.1226708E+00
        -11   -1    0    0    0    0  0.00000000000E+00  0.00000000000E+00  0.45593999997E+02  0.45594000000E+02  0.51100000000E-03 0. -1.
         11   -1    0    0    0    0 -0.00000000000E+00 -0.00000000000E+00 -0.45593999997E+02  0.45594000000E+02  0.51100000000E-03 0.  1.
    9900012    2    1    2    0    0 -0.13901838073E+01  0.63991524669E+01 -0.17544085462E+02  0.72461636284E+02  0.70000085964E+02 0.  0.
         12    1    1    2    0    0  0.13901838073E+01 -0.63991524669E+01  0.17544085462E+02  0.18726363716E+02  0.00000000000E+00 0. -1.
         11    1    3    3    0    0 -0.24198488714E+02  0.18216609445E+02  0.55161503239E+01  0.30787004245E+02  0.51100000000E-03 0. -1.
        -11    1    3    3    0    0  0.23828819765E+02 -0.15109547644E+01 -0.12779707918E+02  0.27081664839E+02  0.51100000000E-03 0.  1.
        -12    1    3    3    0    0 -0.10205148582E+01 -0.10306502214E+02 -0.10280527868E+02  0.14592967200E+02  0.00000000000E+00 0.  1.
</event>
<event>
 7    1  0.1345786E-013  0.7246159E+02  0.7816164E-02  0.1226708E+00
        -11   -1    0    0    0    0  0.00000000000E+00  0.00000000000E+00  0.45593999997E+02  0.45594000000E+02  0.51100000000E-03 0. -1.
         11   -1    0    0    0    0 -0.00000000000E+00 -0.00000000000E+00 -0.45593999997E+02  0.45594000000E+02  0.51100000000E-03 0.  1.
    9900012    2    1    2    0    0 -0.14845783069E+02  0.43511330764E+01 -0.10552201427E+02  0.72461585796E+02  0.70000020194E+02 0.  0.
         12    1    1    2    0    0  0.14845783069E+02 -0.43511330764E+01  0.10552201427E+02  0.18726414204E+02  0.00000000000E+00 0. -1.
         11    1    3    3    0    0  0.18467667654E+02  0.31253285697E+01 -0.18940673407E+02  0.26637784004E+02  0.51100000000E-03 0. -1.
        -11    1    3    3    0    0 -0.17375754034E+02  0.14483127203E+02  0.10589827616E+02  0.24976433913E+02  0.51100000000E-03 0.  1.
        -12    1    3    3    0    0 -0.15937696689E+02 -0.13257322697E+02 -0.22013556354E+01  0.20847367879E+02  0.00000000000E+00 0.  1.
</event>
<event>
 7    1  0.1345786E-013  0.7246165E+02  0.7816164E-02  0.1226708E+00
        -11   -1    0    0    0    0  0.00000000000E+00  0.00000000000E+00  0.45593999997E+02  0.45594000000E+02  0.51100000000E-03 0. -1.
         11   -1    0    0    0    0 -0.00000000000E+00 -0.00000000000E+00 -0.45593999997E+02  0.45594000000E+02  0.51100000000E-03 0.  1.
    9900012    2    1    2    0    0 -0.34387770563E+01 -0.14187508756E+02 -0.11728843341E+02  0.72461645351E+02  0.70000097775E+02 0.  0.
         12    1    1    2    0    0  0.34387770563E+01  0.14187508756E+02  0.11728843341E+02  0.18726354649E+02  0.00000000000E+00 0. -1.
         11    1    3    3    0    0  0.56224157773E+01  0.18505479242E+02  0.73727892228E+01  0.20698365693E+02  0.51100000000E-03 0. -1.
        -11    1    3    3    0    0 -0.18333533231E+02 -0.23328184078E+02 -0.23522082600E+02  0.37863055651E+02  0.51100000000E-03 0.  1.
         12    1    3    3    0    0  0.92723403978E+01 -0.93648039205E+01  0.44204500366E+01  0.13900224007E+02  0.00000000000E+00 0. -1.
</event>
<event>
 7    1  0.1345786E-013  0.7246157E+02  0.7816164E-02  0.1226708E+00
        -11   -1    0    0    0    0  0.00000000000E+00  0.00000000000E+00  0.45593999997E+02  0.45594000000E+02  0.51100000000E-03 0.  1.
         11   -1    0    0    0    0 -0.00000000000E+00 -0.00000000000E+00 -0.45593999997E+02  0.45594000000E+02  0.51100000000E-03 0. -1.
    9900012    2    1    2    0    0 -0.16938881883E+02  0.38046582801E+01  0.70198313904E+01  0.72461570099E+02  0.69999999746E+02 0.  0.
         12    1    1    2    0    0  0.16938881883E+02 -0.38046582801E+01 -0.70198313904E+01  0.18726429901E+02  0.00000000000E+00 0. -1.
         11    1    3    3    0    0 -0.13270694673E+02 -0.64286463931E+01 -0.14843586958E+02  0.20922975543E+02  0.51100000000E-03 0. -1.
        -11    1    3    3    0    0 -0.73233835841E+01  0.19777565425E+02  0.31224213863E+02  0.37679378615E+02  0.51100000000E-03 0.  1.
        -12    1    3    3    0    0  0.36551963735E+01 -0.95442607514E+01 -0.93607955147E+01  0.13859215941E+02  0.00000000000E+00 0.  1.
</event>
<event>
 7    1  0.1345786E-013  0.7246153E+02  0.7816164E-02  0.1226708E+00
        -11   -1    0    0    0    0  0.00000000000E+00  0.00000000000E+00  0.45593999997E+02  0.45594000000E+02  0.51100000000E-03 0.  1.
         11   -1    0    0    0    0 -0.00000000000E+00 -0.00000000000E+00 -0.45593999997E+02  0.45594000000E+02  0.51100000000E-03 0. -1.
    9900012    2    1    2    0    0  0.32756072502E+01  0.11879547546E+02  0.14100617129E+02  0.72461530600E+02  0.69999948291E+02 0.  0.
         12    1    1    2    0    0 -0.32756072502E+01 -0.11879547546E+02 -0.14100617129E+02  0.18726469400E+02  0.00000000000E+00 0. -1.
         11    1    3    3    0    0 -0.21655335471E+02  0.62092977529E+01 -0.20881268790E+01  0.22624526670E+02  0.51100000000E-03 0. -1.
        -11    1    3    3    0    0  0.25678941688E+02 -0.15620821686E+01 -0.60598428225E+01  0.26430471850E+02  0.51100000000E-03 0.  1.
         12    1    3    3    0    0 -0.74799896731E+00  0.72323319621E+01  0.22248586830E+02  0.23406532080E+02  0.00000000000E+00 0. -1.
</event>
<event>
 7    1  0.1345786E-013  0.7246157E+02  0.7816164E-02  0.1226708E+00
        -11   -1    0    0    0    0  0.00000000000E+00  0.00000000000E+00  0.45593999997E+02  0.45594000000E+02  0.51100000000E-03 0.  1.
         11   -1    0    0    0    0 -0.00000000000E+00 -0.00000000000E+00 -0.45593999997E+02  0.45594000000E+02  0.51100000000E-03 0. -1.
    9900012    2    1    2    0    0  0.21161993941E+01  0.18455117258E+02  0.23684735003E+01  0.72461566288E+02  0.69999994780E+02 0.  0.
         12    1    1    2    0    0 -0.21161993941E+01 -0.18455117258E+02 -0.23684735003E+01  0.18726433712E+02  0.00000000000E+00 0. -1.
         11    1    3    3    0    0  0.83738778106E+01 -0.20565572664E+00  0.19622162652E+02  0.21335261687E+02  0.51100000000E-03 0. -1.
        -11    1    3    3    0    0  0.36387198208E+01 -0.64311190333E+01 -0.22469823317E+02  0.23653594528E+02  0.51100000000E-03 0.  1.
        -12    1    3    3    0    0 -0.98963982373E+01  0.25091892017E+02  0.52161341651E+01  0.27472710072E+02  0.00000000000E+00 0.  1.
</event>
<event>
 7    1  0.1345786E-013  0.7246154E+02  0.7816164E-02  0.1226708E+00
        -11   -1    0    0    0    0  0.00000000000E+00  0.00000000000E+00  0.45593999997E+02  0.45594000000E+02  0.51100000000E-03 0.  1.
         11   -1    0    0    0    0 -0.00000000000E+00 -0.00000000000E+00 -0.45593999997E+02  0.45594000000E+02  0.51100000000E-03 0. -1.
    9900012    2    1    2    0    0  0.86987243133E+01 -0.19840496346E+01  0.16464386420E+02  0.72461540702E+02  0.69999961451E+02 0.  0.
         12    1    1    2    0    0 -0.86987243133E+01  0.19840496346E+01 -0.16464386420E+02  0.18726459298E+02  0.00000000000E+00 0. -1.
         11    1    3    3    0    0  0.15733759056E+02  0.29687984267E+02  0.10219961696E+02  0.35119441926E+02  0.51100000000E-03 0.  1.
        -11    1    3    3    0    0 -0.35394969349E+01 -0.28346215108E+02 -0.10622765527E+01  0.28586087197E+02  0.51100000000E-03 0. -1.
        -12    1    3    3    0    0 -0.34955378082E+01 -0.33258187933E+01  0.73067012769E+01  0.87560115786E+01  0.00000000000E+00 0.  1.
</event>
<event>
 7    1  0.1345786E-013  0.7246140E+02  0.7816164E-02  0.1226708E+00
        -11   -1    0    0    0    0  0.00000000000E+00  0.00000000000E+00  0.45593999997E+02  0.45594000000E+02  0.51100000000E-03 0. -1.
         11   -1    0    0    0    0 -0.00000000000E+00 -0.00000000000E+00 -0.45593999997E+02  0.45594000000E+02  0.51100000000E-03 0.  1.
    9900012    2    1    2    0    0 -0.83269703335E+01  0.15009048868E+02  0.74883678718E+01  0.72461397632E+02  0.69999775075E+02 0.  0.
         12    1    1    2    0    0  0.83269703335E+01 -0.15009048868E+02 -0.74883678718E+01  0.18726602368E+02  0.00000000000E+00 0. -1.
         11    1    3    3    0    0 -0.84705992207E+01  0.95435620462E+01 -0.23774875750E+02  0.26982871324E+02  0.51100000000E-03 0. -1.
        -11    1    3    3    0    0  0.11773097703E+02 -0.85638587066E+01  0.11147288432E+02  0.18335963163E+02  0.51100000000E-03 0.  1.
         12    1    3    3    0    0 -0.11629468816E+02  0.14029345529E+02  0.20115955190E+02  0.27142563145E+02  0.00000000000E+00 0. -1.
</event>
<event>
 7    1  0.1345786E-013  0.7246150E+02  0.7816164E-02  0.1226708E+00
        -11   -1    0    0    0    0  0.00000000000E+00  0.00000000000E+00  0.45593999997E+02  0.45594000000E+02  0.51100000000E-03 0.  1.
         11   -1    0    0    0    0 -0.00000000000E+00 -0.00000000000E+00 -0.45593999997E+02  0.45594000000E+02  0.51100000000E-03 0. -1.
    9900012    2    1    2    0    0  0.65971251235E+01  0.16840260965E+02  0.48544298846E+01  0.72461496355E+02  0.69999903681E+02 0.  0.
         12    1    1    2    0    0 -0.65971251235E+01 -0.16840260965E+02 -0.48544298846E+01  0.18726503645E+02  0.00000000000E+00 0. -1.
         11    1    3    3    0    0 -0.29543750498E+02  0.18036479379E+02  0.54922598241E+01  0.35047292336E+02  0.51100000000E-03 0. -1.
        -11    1    3    3    0    0  0.14132180647E+02  0.91551986629E+00  0.42197422243E+01  0.14777108349E+02  0.51100000000E-03 0.  1.
         12    1    3    3    0    0  0.22008694974E+02 -0.21117382811E+01 -0.48575721639E+01  0.22637095670E+02  0.00000000000E+00 0. -1.
</event>
<event>
 7    1  0.1345786E-013  0.7246152E+02  0.7816164E-02  0.1226708E+00
        -11   -1    0    0    0    0  0.00000000000E+00  0.00000000000E+00  0.45593999997E+02  0.45594000000E+02  0.51100000000E-03 0.  1.
         11   -1    0    0    0    0 -0.00000000000E+00 -0.00000000000E+00 -0.45593999997E+02  0.45594000000E+02  0.51100000000E-03 0. -1.
    9900012    2    1    2    0    0 -0.10977004470E+02 -0.14821111822E+01  0.15099330733E+02  0.72461519570E+02  0.69999933922E+02 0.  0.
         12    1    1    2    0    0  0.10977004470E+02  0.14821111822E+01 -0.15099330733E+02  0.18726480430E+02  0.00000000000E+00 0. -1.
         11    1    3    3    0    0 -0.23190432792E+02 -0.20491571034E+01 -0.33328369305E+01  0.23518142363E+02  0.51100000000E-03 0. -1.
        -11    1    3    3    0    0  0.13137428691E+02  0.16442306996E+02  0.24159818820E+02  0.32041197506E+02  0.51100000000E-03 0.  1.
         12    1    3    3    0    0 -0.92400036974E+00 -0.15875261075E+02 -0.57276511561E+01  0.16902179701E+02  0.00000000000E+00 0. -1.
</event>
<event>
 7    1  0.1345786E-013  0.7246164E+02  0.7816164E-02  0.1226708E+00
        -11   -1    0    0    0    0  0.00000000000E+00  0.00000000000E+00  0.45593999997E+02  0.45594000000E+02  0.51100000000E-03 0.  1.
         11   -1    0    0    0    0 -0.00000000000E+00 -0.00000000000E+00 -0.45593999997E+02  0.45594000000E+02  0.51100000000E-03 0. -1.
    9900012    2    1    2    0    0 -0.14689527910E+02  0.49714660941E+01 -0.10496610718E+02  0.72461640452E+02  0.70000091393E+02 0.  0.
         12    1    1    2    0    0  0.14689527910E+02 -0.49714660941E+01  0.10496610718E+02  0.18726359548E+02  0.00000000000E+00 0. -1.
         11    1    3    3    0    0 -0.98576771926E+01  0.24976202977E+02 -0.77576360814E+01  0.27949336891E+02  0.51100000000E-03 0.  1.
        -11    1    3    3    0    0  0.10771233851E+02 -0.25151467400E+02 -0.53417589672E+01  0.27877413441E+02  0.51100000000E-03 0. -1.
         12    1    3    3    0    0 -0.15603084568E+02  0.51467305166E+01  0.26027843306E+01  0.16634890121E+02  0.00000000000E+00 0. -1.
</event>
<event>
 7    1  0.1345786E-013  0.7246190E+02  0.7816164E-02  0.1226707E+00
        -11   -1    0    0    0    0  0.00000000000E+00  0.00000000000E+00  0.45593999997E+02  0.45594000000E+02  0.51100000000E-03 0. -1.
         11   -1    0    0    0    0 -0.00000000000E+00 -0.00000000000E+00 -0.45593999997E+02  0.45594000000E+02  0.51100000000E-03 0.  1.
    9900012    2    1    2    0    0  0.71831644633E+01  0.13624081873E+02 -0.10651441021E+02  0.72461904454E+02  0.70000435303E+02 0.  0.
         12    1    1    2    0    0 -0.71831644633E+01 -0.13624081873E+02  0.10651441021E+02  0.18726095546E+02  0.00000000000E+00 0. -1.
         11    1    3    3    0    0  0.64203477234E+00  0.47970168054E+01  0.14962141226E+02  0.15725433196E+02  0.51100000000E-03 0.  1.
        -11    1    3    3    0    0 -0.12936641570E+02  0.22556085113E+02 -0.18345224121E+02  0.31822647895E+02  0.51100000000E-03 0. -1.
        -12    1    3    3    0    0  0.19477771261E+02 -0.13729020045E+02 -0.72683581253E+01  0.24913823363E+02  0.00000000000E+00 0.  1.
</event>
<event>
 7    1  0.1345786E-013  0.7246152E+02  0.7816164E-02  0.1226708E+00
        -11   -1    0    0    0    0  0.00000000000E+00  0.00000000000E+00  0.45593999997E+02  0.45594000000E+02  0.51100000000E-03 0.  1.
         11   -1    0    0    0    0 -0.00000000000E+00 -0.00000000000E+00 -0.45593999997E+02  0.45594000000E+02  0.51100000000E-03 0. -1.
    9900012    2    1    2    0    0 -0.16104606468E+02 -0.74574494445E+01  0.59757192702E+01  0.72461518149E+02  0.69999932071E+02 0.  0.
         12    1    1    2    0    0  0.16104606468E+02  0.74574494445E+01 -0.59757192702E+01  0.18726481851E+02  0.00000000000E+00 0. -1.
         11    1    3    3    0    0  0.90437883470E+00 -0.83001864171E+00 -0.56578840746E+01  0.57895150475E+01  0.51100000000E-03 0. -1.
        -11    1    3    3    0    0 -0.38851790757E+01  0.22163409978E+02  0.23818177490E+02  0.32766094327E+02  0.51100000000E-03 0.  1.
        -12    1    3    3    0    0 -0.13123806227E+02 -0.28790840780E+02 -0.12184574145E+02  0.33905908774E+02  0.00000000000E+00 0.  1.
</event>
<event>
 7    1  0.1345786E-013  0.7246157E+02  0.7816164E-02  0.1226708E+00
        -11   -1    0    0    0    0  0.00000000000E+00  0.00000000000E+00  0.45593999997E+02  0.45594000000E+02  0.51100000000E-03 0. -1.
         11   -1    0    0    0    0 -0.00000000000E+00 -0.00000000000E+00 -0.45593999997E+02  0.45594000000E+02  0.51100000000E-03 0.  1.
    9900012    2    1    2    0    0  0.52215346749E+01 -0.90669100184E+01 -0.15530807675E+02  0.72461567646E+02  0.69999996551E+02 0.  0.
         12    1    1    2    0    0 -0.52215346749E+01  0.90669100184E+01  0.15530807675E+02  0.18726432354E+02  0.00000000000E+00 0. -1.
         11    1    3    3    0    0  0.37734368849E+01  0.17932486939E+02  0.18995385954E+01  0.18423386249E+02  0.51100000000E-03 0. -1.
        -11    1    3    3    0    0  0.20448929994E+02 -0.19132899658E+02 -0.18302957431E+02  0.33454817862E+02  0.51100000000E-03 0.  1.
        -12    1    3    3    0    0 -0.19000832204E+02 -0.78664972995E+01  0.87261116004E+00  0.20583363535E+02  0.00000000000E+00 0.  1.
</event>
<event>
 7    1  0.1345786E-013  0.7246161E+02  0.7816164E-02  0.1226708E+00
        -11   -1    0    0    0    0  0.00000000000E+00  0.00000000000E+00  0.45593999997E+02  0.45594000000E+02  0.51100000000E-03 0. -1.
         11   -1    0    0    0    0 -0.00000000000E+00 -0.00000000000E+00 -0.45593999997E+02  0.45594000000E+02  0.51100000000E-03 0.  1.
    9900012    2    1    2    0    0 -0.11444224547E+02  0.10768181129E+02 -0.10185956753E+02  0.72461609123E+02  0.70000050581E+02 0.  0.
         12    1    1    2    0    0  0.11444224547E+02 -0.10768181129E+02  0.10185956753E+02  0.18726390877E+02  0.00000000000E+00 0. -1.
         11    1    3    3    0    0 -0.50823845148E+01  0.10995527876E+02  0.10819573909E+02  0.16241780859E+02  0.51100000000E-03 0. -1.
        -11    1    3    3    0    0 -0.17444290510E+02 -0.21730546146E+02 -0.12897726296E+02  0.30706208673E+02  0.51100000000E-03 0.  1.
        -12    1    3    3    0    0  0.11082450478E+02  0.21503199399E+02 -0.81078043656E+01  0.25513619591E+02  0.00000000000E+00 0.  1.
</event>
<event>
 7    1  0.1345786E-013  0.7246157E+02  0.7816164E-02  0.1226708E+00
        -11   -1    0    0    0    0  0.00000000000E+00  0.00000000000E+00  0.45593999997E+02  0.45594000000E+02  0.51100000000E-03 0.  1.
         11   -1    0    0    0    0 -0.00000000000E+00 -0.00000000000E+00 -0.45593999997E+02  0.45594000000E+02  0.51100000000E-03 0. -1.
    9900012    2    1    2    0    0 -0.14897296573E+02  0.47365515600E+01  0.10310909822E+02  0.72461568754E+02  0.69999997994E+02 0.  0.
         12    1    1    2    0    0  0.14897296573E+02 -0.47365515600E+01 -0.10310909822E+02  0.18726431246E+02  0.00000000000E+00 0. -1.
         11    1    3    3    0    0  0.92833496255E+01 -0.71284712015E+01 -0.17843619120E+02  0.21339878761E+02  0.51100000000E-03 0. -1.
        -11    1    3    3    0    0 -0.60414736380E+01  0.20308274189E+02  0.21111779189E+02  0.29910409977E+02  0.51100000000E-03 0.  1.
         12    1    3    3    0    0 -0.18139172560E+02 -0.84432514274E+01  0.70427497535E+01  0.21211280016E+02  0.00000000000E+00 0. -1.
</event>
<event>
 7    1  0.1345786E-013  0.7246155E+02  0.7816164E-02  0.1226708E+00
        -11   -1    0    0    0    0  0.00000000000E+00  0.00000000000E+00  0.45593999997E+02  0.45594000000E+02  0.51100000000E-03 0.  1.
         11   -1    0    0    0    0 -0.00000000000E+00 -0.00000000000E+00 -0.45593999997E+02  0.45594000000E+02  0.51100000000E-03 0. -1.
    9900012    2    1    2    0    0 -0.11478317410E+02 -0.45819624612E+01  0.14068900143E+02  0.72461545402E+02  0.69999967574E+02 0.  0.
         12    1    1    2    0    0  0.11478317410E+02  0.45819624612E+01 -0.14068900143E+02  0.18726454598E+02  0.00000000000E+00 0. -1.
         11    1    3    3    0    0  0.71587718467E+01 -0.19505238141E+02  0.26142913183E+02  0.33393925185E+02  0.51100000000E-03 0.  1.
        -11    1    3    3    0    0 -0.15714384161E+02  0.10094083578E+02  0.64057041156E+01  0.19745010467E+02  0.51100000000E-03 0. -1.
         12    1    3    3    0    0 -0.29227050958E+01  0.48291921019E+01 -0.18479717156E+02  0.19322609751E+02  0.00000000000E+00 0. -1.
</event>
<event>
 7    1  0.1345786E-013  0.7246156E+02  0.7816164E-02  0.1226708E+00
        -11   -1    0    0    0    0  0.00000000000E+00  0.00000000000E+00  0.45593999997E+02  0.45594000000E+02  0.51100000000E-03 0. -1.
         11   -1    0    0    0    0 -0.00000000000E+00 -0.00000000000E+00 -0.45593999997E+02  0.45594000000E+02  0.51100000000E-03 0.  1.
    9900012    2    1    2    0    0 -0.87360570766E+01  0.45116218114E+01 -0.15937565636E+02  0.72461563526E+02  0.69999991182E+02 0.  0.
         12    1    1    2    0    0  0.87360570766E+01 -0.45116218114E+01  0.15937565636E+02  0.18726436474E+02  0.00000000000E+00 0. -1.
         11    1    3    3    0    0 -0.15724144107E+02 -0.14102550109E+02  0.39678373059E+01  0.21491262425E+02  0.51100000000E-03 0. -1.
        -11    1    3    3    0    0  0.17132342334E+02  0.24933034974E+02 -0.31867583869E+01  0.30419217875E+02  0.51100000000E-03 0.  1.
        -12    1    3    3    0    0 -0.10144255303E+02 -0.63188630537E+01 -0.16718644555E+02  0.20551083225E+02  0.00000000000E+00 0.  1.
</event>
<event>
 7    1  0.1345786E-013  0.7246158E+02  0.7816164E-02  0.1226708E+00
        -11   -1    0    0    0    0  0.00000000000E+00  0.00000000000E+00  0.45593999997E+02  0.45594000000E+02  0.51100000000E-03 0.  1.
         11   -1    0    0    0    0 -0.00000000000E+00 -0.00000000000E+00 -0.45593999997E+02  0.45594000000E+02  0.51100000000E-03 0. -1.
    9900012    2    1    2    0    0  0.67697612306E+01  0.73464479021E+01  0.15839160154E+02  0.72461575935E+02  0.70000007347E+02 0.  0.
         12    1    1    2    0    0 -0.67697612306E+01 -0.73464479021E+01 -0.15839160154E+02  0.18726424065E+02  0.00000000000E+00 0. -1.
         11    1    3    3    0    0 -0.20376267786E+02  0.13882631442E+02 -0.29542000769E+01  0.24832378923E+02  0.51100000000E-03 0. -1.
        -11    1    3    3    0    0  0.99103747195E+01 -0.19558787479E+02  0.69950232719E+01  0.23015039552E+02  0.51100000000E-03 0.  1.
         12    1    3    3    0    0  0.17235654297E+02  0.13022603940E+02  0.11798336959E+02  0.24614157459E+02  0.00000000000E+00 0. -1.
</event>
<event>
 7    1  0.1345786E-013  0.7246158E+02  0.7816164E-02  0.1226708E+00
        -11   -1    0    0    0    0  0.00000000000E+00  0.00000000000E+00  0.45593999997E+02  0.45594000000E+02  0.51100000000E-03 0.  1.
         11   -1    0    0    0    0 -0.00000000000E+00 -0.00000000000E+00 -0.45593999997E+02  0.45594000000E+02  0.51100000000E-03 0. -1.
    9900012    2    1    2    0    0  0.39072130526E+01 -0.22831787101E+01  0.18171395200E+02  0.72461579564E+02  0.70000012075E+02 0.  0.
         12    1    1    2    0    0 -0.39072130526E+01  0.22831787101E+01 -0.18171395200E+02  0.18726420436E+02  0.00000000000E+00 0. -1.
         11    1    3    3    0    0  0.35017927081E+01 -0.10272348813E+02  0.36769347739E+02  0.38337561682E+02  0.51100000000E-03 0. -1.
        -11    1    3    3    0    0 -0.10406343810E+02 -0.42309237896E+01 -0.12237531791E+02  0.16611739590E+02  0.51100000000E-03 0.  1.
         12    1    3    3    0    0  0.10811764155E+02  0.12220093892E+02 -0.63604207484E+01  0.17512278292E+02  0.00000000000E+00 0. -1.
</event>
<event>
 7    1  0.1345786E-013  0.7246160E+02  0.7816164E-02  0.1226708E+00
        -11   -1    0    0    0    0  0.00000000000E+00  0.00000000000E+00  0.45593999997E+02  0.45594000000E+02  0.51100000000E-03 0.  1.
         11   -1    0    0    0    0 -0.00000000000E+00 -0.00000000000E+00 -0.45593999997E+02  0.45594000000E+02  0.51100000000E-03 0. -1.
    9900012    2    1    2    0    0  0.60114889619E+01  0.42117352116E+01  0.17227924967E+02  0.72461598539E+02  0.70000036793E+02 0.  0.
         12    1    1    2    0    0 -0.60114889619E+01 -0.42117352116E+01 -0.17227924967E+02  0.18726401461E+02  0.00000000000E+00 0. -1.
         11    1    3    3    0    0  0.20489819954E+02  0.11922950560E+02 -0.14543098333E+02  0.27811709425E+02  0.51100000000E-03 0. -1.
        -11    1    3    3    0    0  0.24758514249E+01 -0.13036524468E+02  0.16835156903E+02  0.21436028520E+02  0.51100000000E-03 0.  1.
        -12    1    3    3    0    0 -0.16954182417E+02  0.53253091198E+01  0.14935866396E+02  0.23213860593E+02  0.00000000000E+00 0.  1.
</event>
<event>
 7    1  0.1345786E-013  0.7246162E+02  0.7816164E-02  0.1226708E+00
        -11   -1    0    0    0    0  0.00000000000E+00  0.00000000000E+00  0.45593999997E+02  0.45594000000E+02  0.51100000000E-03 0.  1.
         11   -1    0    0    0    0 -0.00000000000E+00 -0.00000000000E+00 -0.45593999997E+02  0.45594000000E+02  0.51100000000E-03 0. -1.
    9900012    2    1    2    0    0 -0.65188300657E+01 -0.11183124540E+01  0.17519467036E+02  0.72461615047E+02  0.70000058299E+02 0.  0.
         12    1    1    2    0    0  0.65188300657E+01  0.11183124540E+01 -0.17519467036E+02  0.18726384953E+02  0.00000000000E+00 0. -1.
         11    1    3    3    0    0  0.26534272659E+00  0.18668685040E+02 -0.51143326405E+01  0.19358373034E+02  0.51100000000E-03 0. -1.
        -11    1    3    3    0    0 -0.65274398807E+01 -0.12680374136E+02  0.35580337085E+02  0.38332228568E+02  0.51100000000E-03 0.  1.
        -12    1    3    3    0    0 -0.25673291164E+00 -0.71066233580E+01 -0.12946537408E+02  0.14771013445E+02  0.00000000000E+00 0.  1.
</event>
<event>
 7    1  0.1345786E-013  0.7246155E+02  0.7816164E-02  0.1226708E+00
        -11   -1    0    0    0    0  0.00000000000E+00  0.00000000000E+00  0.45593999997E+02  0.45594000000E+02  0.51100000000E-03 0.  1.
         11   -1    0    0    0    0 -0.00000000000E+00 -0.00000000000E+00 -0.45593999997E+02  0.45594000000E+02  0.51100000000E-03 0. -1.
    9900012    2    1    2    0    0  0.18492851772E+02 -0.27494208552E+01 -0.10653321445E+01  0.72461553080E+02  0.69999977575E+02 0.  0.
         12    1    1    2    0    0 -0.18492851772E+02  0.27494208552E+01  0.10653321445E+01  0.18726446920E+02  0.00000000000E+00 0. -1.
         11    1    3    3    0    0  0.34719714614E+01  0.25688734985E+02  0.33600550665E+01  0.26139159536E+02  0.51100000000E-03 0. -1.
        -11    1    3    3    0    0  0.57036039092E+01 -0.22013979561E+02  0.12509138137E+02  0.25954285404E+02  0.51100000000E-03 0.  1.
         12    1    3    3    0    0  0.93172764010E+01 -0.64241762790E+01 -0.16934525348E+02  0.20368108139E+02  0.00000000000E+00 0. -1.
</event>
<event>
 7    1  0.1345786E-013  0.7246157E+02  0.7816164E-02  0.1226708E+00
        -11   -1    0    0    0    0  0.00000000000E+00  0.00000000000E+00  0.45593999997E+02  0.45594000000E+02  0.51100000000E-03 0.  1.
         11   -1    0    0    0    0 -0.00000000000E+00 -0.00000000000E+00 -0.45593999997E+02  0.45594000000E+02  0.51100000000E-03 0. -1.
    9900012    2    1    2    0    0 -0.34428633176E+01  0.18241586801E+02  0.24638409992E+01  0.72461566562E+02  0.69999995138E+02 0.  0.
         12    1    1    2    0    0  0.34428633176E+01 -0.18241586801E+02 -0.24638409992E+01  0.18726433438E+02  0.00000000000E+00 0. -1.
         11    1    3    3    0    0  0.90125703447E+01 -0.14995294402E+02 -0.78233425013E+01  0.19164810632E+02  0.51100000000E-03 0. -1.
        -11    1    3    3    0    0 -0.10859558948E+02  0.86432803398E+01  0.21998031650E+02  0.26010569243E+02  0.51100000000E-03 0.  1.
         12    1    3    3    0    0 -0.15958747139E+01  0.24593600863E+02 -0.11710848150E+02  0.27286186687E+02  0.00000000000E+00 0. -1.
</event>
<event>
 7    1  0.1345786E-013  0.7246155E+02  0.7816164E-02  0.1226708E+00
        -11   -1    0    0    0    0  0.00000000000E+00  0.00000000000E+00  0.45593999997E+02  0.45594000000E+02  0.51100000000E-03 0. -1.
         11   -1    0    0    0    0 -0.00000000000E+00 -0.00000000000E+00 -0.45593999997E+02  0.45594000000E+02  0.51100000000E-03 0.  1.
    9900012    2    1    2    0    0 -0.16781007905E+02 -0.79315848603E+01 -0.24834517937E+01  0.72461553527E+02  0.69999978157E+02 0.  0.
         12    1    1    2    0    0  0.16781007905E+02  0.79315848603E+01  0.24834517937E+01  0.18726446473E+02  0.00000000000E+00 0. -1.
         11    1    3    3    0    0 -0.38434684972E+02 -0.35357377950E+01 -0.14079574483E+02  0.41084800943E+02  0.51100000000E-03 0.  1.
        -11    1    3    3    0    0  0.94923860905E+01  0.36076502534E-01  0.15218043052E+02  0.17935872708E+02  0.51100000000E-03 0. -1.
        -12    1    3    3    0    0  0.12161290976E+02 -0.44319235678E+01 -0.36219203623E+01  0.13440879876E+02  0.00000000000E+00 0.  1.
</event>
<event>
 7    1  0.1345786E-013  0.7246157E+02  0.7816164E-02  0.1226708E+00
        -11   -1    0    0    0    0  0.00000000000E+00  0.00000000000E+00  0.45593999997E+02  0.45594000000E+02  0.51100000000E-03 0.  1.
         11   -1    0    0    0    0 -0.00000000000E+00 -0.00000000000E+00 -0.45593999997E+02  0.45594000000E+02  0.51100000000E-03 0. -1.
    9900012    2    1    2    0    0  0.16272283956E+01 -0.15466021736E+02  0.10432330580E+02  0.72461568895E+02  0.69999998177E+02 0.  0.
         12    1    1    2    0    0 -0.16272283956E+01  0.15466021736E+02 -0.10432330580E+02  0.18726431105E+02  0.00000000000E+00 0. -1.
         11    1    3    3    0    0 -0.20996819464E+02 -0.11629993307E+02 -0.24601672758E+01  0.24128315217E+02  0.51100000000E-03 0. -1.
        -11    1    3    3    0    0  0.12982024109E+02 -0.35927981847E+01  0.27619396160E+02  0.30729012240E+02  0.51100000000E-03 0.  1.
        -12    1    3    3    0    0  0.96420237501E+01 -0.24323024483E+00 -0.14726898304E+02  0.17604241438E+02  0.00000000000E+00 0.  1.
</event>
<event>
 7    1  0.1345786E-013  0.7246155E+02  0.7816164E-02  0.1226708E+00
        -11   -1    0    0    0    0  0.00000000000E+00  0.00000000000E+00  0.45593999997E+02  0.45594000000E+02  0.51100000000E-03 0. -1.
         11   -1    0    0    0    0 -0.00000000000E+00 -0.00000000000E+00 -0.45593999997E+02  0.45594000000E+02  0.51100000000E-03 0.  1.
    9900012    2    1    2    0    0 -0.15560445542E+02  0.54501677288E+01 -0.88796397473E+01  0.72461553573E+02  0.69999978218E+02 0.  0.
         12    1    1    2    0    0  0.15560445542E+02 -0.54501677288E+01  0.88796397473E+01  0.18726446427E+02  0.00000000000E+00 0. -1.
         11    1    3    3    0    0  0.28619189656E+01  0.11975308925E+02  0.24317237880E+02  0.27256681059E+02  0.51100000000E-03 0. -1.
        -11    1    3    3    0    0  0.14455129912E+01 -0.22150519109E+01 -0.21677187295E+02  0.21837958056E+02  0.51100000000E-03 0.  1.
        -12    1    3    3    0    0 -0.19867877499E+02 -0.43100892851E+01 -0.11519690332E+02  0.23366914458E+02  0.00000000000E+00 0.  1.
</event>
<event>
 7    1  0.1345786E-013  0.7246158E+02  0.7816164E-02  0.1226708E+00
        -11   -1    0    0    0    0  0.00000000000E+00  0.00000000000E+00  0.45593999997E+02  0.45594000000E+02  0.51100000000E-03 0. -1.
         11   -1    0    0    0    0 -0.00000000000E+00 -0.00000000000E+00 -0.45593999997E+02  0.45594000000E+02  0.51100000000E-03 0.  1.
    9900012    2    1    2    0    0 -0.37198953578E+01  0.38858996928E+01 -0.17937138823E+02  0.72461580506E+02  0.70000013303E+02 0.  0.
         12    1    1    2    0    0  0.37198953578E+01 -0.38858996928E+01  0.17937138823E+02  0.18726419494E+02  0.00000000000E+00 0. -1.
         11    1    3    3    0    0 -0.35368841230E+01  0.25209183360E+02  0.20201362054E+01  0.25536120017E+02  0.51100000000E-03 0. -1.
        -11    1    3    3    0    0  0.68008378173E+01 -0.15722241460E+02 -0.29328877006E+02  0.33965030520E+02  0.51100000000E-03 0.  1.
        -12    1    3    3    0    0 -0.69838490521E+01 -0.56010422065E+01  0.93716019772E+01  0.12960429970E+02  0.00000000000E+00 0.  1.
</event>
<event>
 7    1  0.1345786E-013  0.7246107E+02  0.7816164E-02  0.1226709E+00
        -11   -1    0    0    0    0  0.00000000000E+00  0.00000000000E+00  0.45593999997E+02  0.45594000000E+02  0.51100000000E-03 0. -1.
         11   -1    0    0    0    0 -0.00000000000E+00 -0.00000000000E+00 -0.45593999997E+02  0.45594000000E+02  0.51100000000E-03 0.  1.
    9900012    2    1    2    0    0 -0.63339140347E+01 -0.10727385771E+02 -0.13982232141E+02  0.72461065170E+02  0.69999341978E+02 0.  0.
         12    1    1    2    0    0  0.63339140347E+01  0.10727385771E+02  0.13982232141E+02  0.18726934830E+02  0.00000000000E+00 0. -1.
         11    1    3    3    0    0  0.13958566746E+02 -0.18668715225E+01 -0.37139573554E+02  0.39719953662E+02  0.51100000000E-03 0.  1.
        -11    1    3    3    0    0 -0.13254195645E+02 -0.83224634501E+01  0.18733200329E+02  0.24410446430E+02  0.51100000000E-03 0. -1.
        -12    1    3    3    0    0 -0.70382851352E+01 -0.53805079850E+00  0.44241410843E+01  0.83306650779E+01  0.00000000000E+00 0.  1.
</event>
<event>
 7    1  0.1345786E-013  0.7246191E+02  0.7816164E-02  0.1226707E+00
        -11   -1    0    0    0    0  0.00000000000E+00  0.00000000000E+00  0.45593999997E+02  0.45594000000E+02  0.51100000000E-03 0.  1.
         11   -1    0    0    0    0 -0.00000000000E+00 -0.00000000000E+00 -0.45593999997E+02  0.45594000000E+02  0.51100000000E-03 0. -1.
    9900012    2    1    2    0    0  0.18390540463E+02 -0.26860832772E+01  0.22889878432E+01  0.72461908918E+02  0.70000441118E+02 0.  0.
         12    1    1    2    0    0 -0.18390540463E+02  0.26860832772E+01 -0.22889878432E+01  0.18726091082E+02  0.00000000000E+00 0. -1.
         11    1    3    3    0    0  0.18507853615E+01 -0.56546543755E+01 -0.28942914311E+02  0.29548143963E+02  0.51100000000E-03 0. -1.
        -11    1    3    3    0    0 -0.35179168725E+01 -0.54674284154E+01  0.12962968321E+02  0.14501967472E+02  0.51100000000E-03 0.  1.
         12    1    3    3    0    0  0.20057671974E+02  0.84359995137E+01  0.18268933834E+02  0.28411797483E+02  0.00000000000E+00 0. -1.
</event>
<event>
 7    1  0.1345786E-013  0.7246159E+02  0.7816164E-02  0.1226708E+00
        -11   -1    0    0    0    0  0.00000000000E+00  0.00000000000E+00  0.45593999997E+02  0.45594000000E+02  0.51100000000E-03 0.  1.
         11   -1    0    0    0    0 -0.00000000000E+00 -0.00000000000E+00 -0.45593999997E+02  0.45594000000E+02  0.51100000000E-03 0. -1.
    9900012    2    1    2    0    0  0.14277798176E+02 -0.44311005061E+01  0.11277776835E+02  0.72461590232E+02  0.70000025973E+02 0.  0.
         12    1    1    2    0    0 -0.14277798176E+02  0.44311005061E+01 -0.11277776835E+02  0.18726409768E+02  0.00000000000E+00 0. -1.
         11    1    3    3    0    0  0.63873269105E+01 -0.31692573089E+01  0.39265885267E+02  0.39908042837E+02  0.51100000000E-03 0. -1.
        -11    1    3    3    0    0  0.54732923559E+01 -0.78715526961E+01 -0.16170618590E+02  0.18799127025E+02  0.51100000000E-03 0.  1.
        -12    1    3    3    0    0  0.24171789099E+01  0.66097094990E+01 -0.11817489843E+02  0.13754420370E+02  0.00000000000E+00 0.  1.
</event>
<event>
 7    1  0.1345786E-013  0.7246158E+02  0.7816164E-02  0.1226708E+00
        -11   -1    0    0    0    0  0.00000000000E+00  0.00000000000E+00  0.45593999997E+02  0.45594000000E+02  0.51100000000E-03 0. -1.
         11   -1    0    0    0    0 -0.00000000000E+00 -0.00000000000E+00 -0.45593999997E+02  0.45594000000E+02  0.51100000000E-03 0.  1.
    9900012    2    1    2    0    0  0.98766528028E+01 -0.13337023340E+02 -0.86749307314E+01  0.72461577881E+02  0.70000009883E+02 0.  0.
         12    1    1    2    0    0 -0.98766528028E+01  0.13337023340E+02  0.86749307314E+01  0.18726422119E+02  0.00000000000E+00 0. -1.
         11    1    3    3    0    0  0.25750753532E+02 -0.97637030578E+01  0.79906818996E+01  0.28675463420E+02  0.51100000000E-03 0. -1.
        -11    1    3    3    0    0 -0.12868881748E+02  0.31301520104E+01 -0.27599952792E+02  0.30613124039E+02  0.51100000000E-03 0.  1.
        -12    1    3    3    0    0 -0.30052189814E+01 -0.67034722931E+01  0.10934340161E+02  0.13172990422E+02  0.00000000000E+00 0.  1.
</event>
<event>
 7    1  0.1345786E-013  0.7246156E+02  0.7816164E-02  0.1226708E+00
        -11   -1    0    0    0    0  0.00000000000E+00  0.00000000000E+00  0.45593999997E+02  0.45594000000E+02  0.51100000000E-03 0. -1.
         11   -1    0    0    0    0 -0.00000000000E+00 -0.00000000000E+00 -0.45593999997E+02  0.45594000000E+02  0.51100000000E-03 0.  1.
    9900012    2    1    2    0    0  0.12535331179E+02 -0.79077288315E+01 -0.11446082394E+02  0.72461561331E+02  0.69999988324E+02 0.  0.
         12    1    1    2    0    0 -0.12535331179E+02  0.79077288315E+01  0.11446082394E+02  0.18726438669E+02  0.00000000000E+00 0. -1.
         11    1    3    3    0    0  0.11875088245E+02 -0.27050493177E+02  0.59105023677E+01  0.30127743700E+02  0.51100000000E-03 0. -1.
        -11    1    3    3    0    0 -0.46654824752E+01  0.16356783968E+01 -0.22730420535E+02  0.23261861243E+02  0.51100000000E-03 0.  1.
         12    1    3    3    0    0  0.53257254097E+01  0.17507085949E+02  0.53738357728E+01  0.19071956388E+02  0.00000000000E+00 0. -1.
</event>
<event>
 7    1  0.1345786E-013  0.7246152E+02  0.7816164E-02  0.1226708E+00
        -11   -1    0    0    0    0  0.00000000000E+00  0.00000000000E+00  0.45593999997E+02  0.45594000000E+02  0.51100000000E-03 0. -1.
         11   -1    0    0    0    0 -0.00000000000E+00 -0.00000000000E+00 -0.45593999997E+02  0.45594000000E+02  0.51100000000E-03 0.  1.
    9900012    2    1    2    0    0 -0.92687819391E+01  0.16132658100E+02  0.21232663451E+01  0.72461515120E+02  0.69999928125E+02 0.  0.
         12    1    1    2    0    0  0.92687819391E+01 -0.16132658100E+02 -0.21232663451E+01  0.18726484880E+02  0.00000000000E+00 0. -1.
         11    1    3    3    0    0  0.19279346092E+02  0.19257184108E+02  0.17679657565E+02  0.32482343163E+02  0.51100000000E-03 0. -1.
        -11    1    3    3    0    0 -0.18067135173E+02  0.94053029949E+01 -0.10258321033E+02  0.22806013428E+02  0.51100000000E-03 0.  1.
         12    1    3    3    0    0 -0.10480992857E+02 -0.12529829003E+02 -0.52980701866E+01  0.17173158528E+02  0.00000000000E+00 0. -1.
</event>
<event>
 7    1  0.1345786E-013  0.7246210E+02  0.7816164E-02  0.1226707E+00
        -11   -1    0    0    0    0  0.00000000000E+00  0.00000000000E+00  0.45593999997E+02  0.45594000000E+02  0.51100000000E-03 0.  1.
         11   -1    0    0    0    0 -0.00000000000E+00 -0.00000000000E+00 -0.45593999997E+02  0.45594000000E+02  0.51100000000E-03 0. -1.
    9900012    2    1    2    0    0 -0.37607762655E+01  0.81949167375E+01 -0.16412165961E+02  0.72462101090E+02  0.70000691456E+02 0.  0.
         12    1    1    2    0    0  0.37607762655E+01 -0.81949167375E+01  0.16412165961E+02  0.18725898910E+02  0.00000000000E+00 0. -1.
         11    1    3    3    0    0  0.98849365016E+01 -0.92542626927E+00 -0.74490981358E+01  0.12411988024E+02  0.51100000000E-03 0. -1.
        -11    1    3    3    0    0 -0.14835566438E+02  0.25577383327E+02  0.13231702917E+02  0.32394050869E+02  0.51100000000E-03 0.  1.
        -12    1    3    3    0    0  0.11898536704E+01 -0.16457040320E+02 -0.22194770743E+02  0.27656062196E+02  0.00000000000E+00 0.  1.
</event>
<event>
 7    1  0.1345786E-013  0.7246158E+02  0.7816164E-02  0.1226708E+00
        -11   -1    0    0    0    0  0.00000000000E+00  0.00000000000E+00  0.45593999997E+02  0.45594000000E+02  0.51100000000E-03 0. -1.
         11   -1    0    0    0    0 -0.00000000000E+00 -0.00000000000E+00 -0.45593999997E+02  0.45594000000E+02  0.51100000000E-03 0.  1.
    9900012    2    1    2    0    0  0.17860416592E+02  0.19910465768E+01  0.52649980424E+01  0.72461576110E+02  0.70000007576E+02 0.  0.
         12    1    1    2    0    0 -0.17860416592E+02 -0.19910465768E+01 -0.52649980424E+01  0.18726423890E+02  0.00000000000E+00 0. -1.
         11    1    3    3    0    0 -0.11376764310E+02  0.36480744441E+01 -0.20087221141E+02  0.23371685150E+02  0.51100000000E-03 0. -1.
        -11    1    3    3    0    0  0.25354937056E+02 -0.38340982934E+01  0.24509068529E+01  0.25760048283E+02  0.51100000000E-03 0.  1.
         12    1    3    3    0    0  0.38822438453E+01  0.21770704261E+01  0.22901312330E+02  0.23329842678E+02  0.00000000000E+00 0. -1.
</event>
<event>
 7    1  0.1345786E-013  0.7246134E+02  0.7816164E-02  0.1226709E+00
        -11   -1    0    0    0    0  0.00000000000E+00  0.00000000000E+00  0.45593999997E+02  0.45594000000E+02  0.51100000000E-03 0. -1.
         11   -1    0    0    0    0 -0.00000000000E+00 -0.00000000000E+00 -0.45593999997E+02  0.45594000000E+02  0.51100000000E-03 0.  1.
    9900012    2    1    2    0    0  0.95993945101E+01 -0.11006084648E+02 -0.11722015694E+02  0.72461336492E+02  0.69999695428E+02 0.  0.
         12    1    1    2    0    0 -0.95993945101E+01  0.11006084648E+02  0.11722015694E+02  0.18726663508E+02  0.00000000000E+00 0. -1.
         11    1    3    3    0    0  0.13084402336E+02  0.43715216450E+01  0.74370763204E+01  0.15672328813E+02  0.51100000000E-03 0. -1.
        -11    1    3    3    0    0 -0.18267964679E+02 -0.27086582480E+02 -0.46612172223E+01  0.33001945855E+02  0.51100000000E-03 0.  1.
        -12    1    3    3    0    0  0.14782956853E+02  0.11708976188E+02 -0.14497874792E+02  0.23787061823E+02  0.00000000000E+00 0.  1.
</event>
<event>
 7    1  0.1345786E-013  0.7246160E+02  0.7816164E-02  0.1226708E+00
        -11   -1    0    0    0    0  0.00000000000E+00  0.00000000000E+00  0.45593999997E+02  0.45594000000E+02  0.51100000000E-03 0. -1.
         11   -1    0    0    0    0 -0.00000000000E+00 -0.00000000000E+00 -0.45593999997E+02  0.45594000000E+02  0.51100000000E-03 0.  1.
    9900012    2    1    2    0    0  0.56540841373E+01  0.17802892650E+02 -0.13291232324E+01  0.72461595574E+02  0.70000032932E+02 0.  0.
         12    1    1    2    0    0 -0.56540841373E+01 -0.17802892650E+02  0.13291232324E+01  0.18726404426E+02  0.00000000000E+00 0. -1.
         11    1    3    3    0    0  0.37055672226E+01  0.41442954831E+01  0.32312158652E+01  0.64301764922E+01  0.51100000000E-03 0. -1.
        -11    1    3    3    0    0 -0.25509459090E+02 -0.10706748243E+02  0.49618895031E+01  0.28106712876E+02  0.51100000000E-03 0.  1.
        -12    1    3    3    0    0  0.27457976005E+02  0.24365345410E+02 -0.95222286007E+01  0.37924706206E+02  0.00000000000E+00 0.  1.
</event>
<event>
 7    1  0.1345786E-013  0.7246125E+02  0.7816164E-02  0.1226709E+00
        -11   -1    0    0    0    0  0.00000000000E+00  0.00000000000E+00  0.45593999997E+02  0.45594000000E+02  0.51100000000E-03 0. -1.
         11   -1    0    0    0    0 -0.00000000000E+00 -0.00000000000E+00 -0.45593999997E+02  0.45594000000E+02  0.51100000000E-03 0.  1.
    9900012    2    1    2    0    0 -0.48891837061E+01  0.15304940683E+02 -0.96200808054E+01  0.72461246909E+02  0.69999578730E+02 0.  0.
         12    1    1    2    0    0  0.48891837061E+01 -0.15304940683E+02  0.96200808054E+01  0.18726753091E+02  0.00000000000E+00 0. -1.
         11    1    3    3    0    0  0.18226832133E+02  0.12152326365E+01  0.21935531159E+02  0.28545783006E+02  0.51100000000E-03 0. -1.
        -11    1    3    3    0    0 -0.18904566457E+02  0.12091566373E+02 -0.32159511866E+02  0.39215084011E+02  0.51100000000E-03 0.  1.
         12    1    3    3    0    0 -0.42114493815E+01  0.19981416731E+01  0.60389990145E+00  0.47003798920E+01  0.00000000000E+00 0. -1.
</event>
<event>
 8    1  0.1345786E-013  0.7246158E+02  0.7816164E-02  0.1226708E+00
        -11   -1    0    0    0    0  0.00000000000E+00  0.00000000000E+00  0.45593999997E+02  0.45594000000E+02  0.51100000000E-03 0.  1.
         11   -1    0    0    0    0 -0.00000000000E+00 -0.00000000000E+00 -0.45593999997E+02  0.45594000000E+02  0.51100000000E-03 0. -1.
    9900012    2    1    2    0    0 -0.93227469612E+01 -0.80110342717E+01  0.14127585371E+02  0.72461576171E+02  0.70000007655E+02 0.  0.
        -24    2    3    3    0    0 -0.19108305886E+01  0.78102084688E+01  0.55142552777E+01  0.52982415980E+02  0.52077622468E+02 0.  0.
         12    1    1    2    0    0  0.93227469612E+01  0.80110342717E+01 -0.14127585371E+02  0.18726423829E+02  0.00000000000E+00 0. -1.
         11    1    4    4    0    0 -0.35300716098E+01  0.19849469510E+02 -0.17670028077E+02  0.26808445273E+02  0.51100000000E-03 0. -1.
        -11    1    3    3    0    0 -0.74119163726E+01 -0.15821242740E+02  0.86133300937E+01  0.19479160191E+02  0.51100000000E-03 0.  1.
        -12    1    4    4    0    0  0.16192410212E+01 -0.12039261042E+02  0.23184283355E+02  0.26173970708E+02  0.00000000000E+00 0.  1.
</event>
<event>
 7    1  0.1345786E-013  0.7246155E+02  0.7816164E-02  0.1226708E+00
        -11   -1    0    0    0    0  0.00000000000E+00  0.00000000000E+00  0.45593999997E+02  0.45594000000E+02  0.51100000000E-03 0.  1.
         11   -1    0    0    0    0 -0.00000000000E+00 -0.00000000000E+00 -0.45593999997E+02  0.45594000000E+02  0.51100000000E-03 0. -1.
    9900012    2    1    2    0    0  0.30401446161E+01 -0.19190266296E+00  0.18477034658E+02  0.72461545032E+02  0.69999967091E+02 0.  0.
         12    1    1    2    0    0 -0.30401446161E+01  0.19190266296E+00 -0.18477034658E+02  0.18726454968E+02  0.00000000000E+00 0. -1.
         11    1    3    3    0    0 -0.14016288190E+02  0.59728948176E+01 -0.10882331870E+02  0.18723166247E+02  0.51100000000E-03 0. -1.
        -11    1    3    3    0    0  0.10888858517E+02 -0.15279835171E+02 -0.34987107632E+01  0.19086162001E+02  0.51100000000E-03 0.  1.
        -12    1    3    3    0    0  0.61675742891E+01  0.91150376901E+01  0.32858077292E+02  0.34652216784E+02  0.00000000000E+00 0.  1.
</event>
<event>
 7    1  0.1345786E-013  0.7246160E+02  0.7816164E-02  0.1226708E+00
        -11   -1    0    0    0    0  0.00000000000E+00  0.00000000000E+00  0.45593999997E+02  0.45594000000E+02  0.51100000000E-03 0.  1.
         11   -1    0    0    0    0 -0.00000000000E+00 -0.00000000000E+00 -0.45593999997E+02  0.45594000000E+02  0.51100000000E-03 0. -1.
    9900012    2    1    2    0    0  0.10301692785E+02  0.11556337973E+02  0.10535858836E+02  0.72461597703E+02  0.70000035705E+02 0.  0.
         12    1    1    2    0    0 -0.10301692785E+02 -0.11556337973E+02 -0.10535858836E+02  0.18726402297E+02  0.00000000000E+00 0. -1.
         11    1    3    3    0    0 -0.41043718923E+01 -0.20797912822E+02  0.81513770332E+01  0.22712199237E+02  0.51100000000E-03 0. -1.
        -11    1    3    3    0    0  0.11539745898E+02  0.25685082766E+02  0.17379444741E+02  0.33089791656E+02  0.51100000000E-03 0.  1.
        -12    1    3    3    0    0  0.28663187790E+01  0.66691680288E+01 -0.14994962938E+02  0.16659606810E+02  0.00000000000E+00 0.  1.
</event>
<event>
 7    1  0.1345786E-013  0.7246154E+02  0.7816164E-02  0.1226708E+00
        -11   -1    0    0    0    0  0.00000000000E+00  0.00000000000E+00  0.45593999997E+02  0.45594000000E+02  0.51100000000E-03 0.  1.
         11   -1    0    0    0    0 -0.00000000000E+00 -0.00000000000E+00 -0.45593999997E+02  0.45594000000E+02  0.51100000000E-03 0. -1.
    9900012    2    1    2    0    0 -0.13759833109E+02 -0.11388869397E+02  0.56250329371E+01  0.72461538806E+02  0.69999958980E+02 0.  0.
         12    1    1    2    0    0  0.13759833109E+02  0.11388869397E+02 -0.56250329371E+01  0.18726461194E+02  0.00000000000E+00 0. -1.
         11    1    3    3    0    0 -0.17047345166E+02 -0.93272921049E+01 -0.18240444240E+02  0.26651907278E+02  0.51100000000E-03 0. -1.
        -11    1    3    3    0    0 -0.51956085228E+01  0.23952453616E+01  0.32446168528E+02  0.32946705460E+02  0.51100000000E-03 0.  1.
        -12    1    3    3    0    0  0.84831205800E+01 -0.44568226532E+01 -0.85806913512E+01  0.12862926067E+02  0.00000000000E+00 0.  1.
</event>
<event>
 7    1  0.1345786E-013  0.7246166E+02  0.7816164E-02  0.1226708E+00
        -11   -1    0    0    0    0  0.00000000000E+00  0.00000000000E+00  0.45593999997E+02  0.45594000000E+02  0.51100000000E-03 0.  1.
         11   -1    0    0    0    0 -0.00000000000E+00 -0.00000000000E+00 -0.45593999997E+02  0.45594000000E+02  0.51100000000E-03 0. -1.
    9900012    2    1    2    0    0  0.18429891175E+00  0.11095389659E+02 -0.15084234307E+02  0.72461661266E+02  0.70000118507E+02 0.  0.
         12    1    1    2    0    0 -0.18429891175E+00 -0.11095389659E+02  0.15084234307E+02  0.18726338734E+02  0.00000000000E+00 0. -1.
         11    1    3    3    0    0  0.70381541239E+01  0.29698731684E+01 -0.37150059853E+02  0.37927334568E+02  0.51100000000E-03 0. -1.
        -11    1    3    3    0    0  0.38402763334E+00 -0.84596421571E+01  0.71950113564E+01  0.11112210011E+02  0.51100000000E-03 0.  1.
         12    1    3    3    0    0 -0.72378828454E+01  0.16585158647E+02  0.14870814189E+02  0.23422116687E+02  0.00000000000E+00 0. -1.
</event>
<event>
 7    1  0.1345786E-013  0.7246158E+02  0.7816164E-02  0.1226708E+00
        -11   -1    0    0    0    0  0.00000000000E+00  0.00000000000E+00  0.45593999997E+02  0.45594000000E+02  0.51100000000E-03 0. -1.
         11   -1    0    0    0    0 -0.00000000000E+00 -0.00000000000E+00 -0.45593999997E+02  0.45594000000E+02  0.51100000000E-03 0.  1.
    9900012    2    1    2    0    0  0.91946603899E+01 -0.15706722825E+02 -0.44086106508E+01  0.72461580976E+02  0.70000013915E+02 0.  0.
         12    1    1    2    0    0 -0.91946603899E+01  0.15706722825E+02  0.44086106508E+01  0.18726419024E+02  0.00000000000E+00 0. -1.
         11    1    3    3    0    0  0.21477137802E+02  0.61889959417E+01 -0.10197193601E+02  0.24567333525E+02  0.51100000000E-03 0. -1.
        -11    1    3    3    0    0 -0.16223630455E+02 -0.26504576865E+02 -0.86304779844E+01  0.32251882588E+02  0.51100000000E-03 0.  1.
         12    1    3    3    0    0  0.39411530432E+01  0.46088580987E+01  0.14419060935E+02  0.15642364864E+02  0.00000000000E+00 0. -1.
</event>
<event>
 7    1  0.1345786E-013  0.7246121E+02  0.7816164E-02  0.1226709E+00
        -11   -1    0    0    0    0  0.00000000000E+00  0.00000000000E+00  0.45593999997E+02  0.45594000000E+02  0.51100000000E-03 0. -1.
         11   -1    0    0    0    0 -0.00000000000E+00 -0.00000000000E+00 -0.45593999997E+02  0.45594000000E+02  0.51100000000E-03 0.  1.
    9900012    2    1    2    0    0 -0.19478947594E+01 -0.16322554268E+02 -0.89706463248E+01  0.72461212573E+02  0.69999534001E+02 0.  0.
         12    1    1    2    0    0  0.19478947594E+01  0.16322554268E+02  0.89706463248E+01  0.18726787427E+02  0.00000000000E+00 0. -1.
         11    1    3    3    0    0 -0.33031694476E+01  0.91644189205E+01 -0.17166460221E+02  0.19737904127E+02  0.51100000000E-03 0. -1.
        -11    1    3    3    0    0 -0.80335723142E+01 -0.16521694484E+02 -0.16583685889E+02  0.24749208284E+02  0.51100000000E-03 0.  1.
         12    1    3    3    0    0  0.93888470024E+01 -0.89652787048E+01  0.24779499785E+02  0.27974100162E+02  0.00000000000E+00 0. -1.
</event>
<event>
 7    1  0.1345786E-013  0.7246160E+02  0.7816164E-02  0.1226708E+00
        -11   -1    0    0    0    0  0.00000000000E+00  0.00000000000E+00  0.45593999997E+02  0.45594000000E+02  0.51100000000E-03 0.  1.
         11   -1    0    0    0    0 -0.00000000000E+00 -0.00000000000E+00 -0.45593999997E+02  0.45594000000E+02  0.51100000000E-03 0. -1.
    9900012    2    1    2    0    0 -0.46488287964E+01 -0.15407146790E+02  0.95752931768E+01  0.72461600966E+02  0.70000039955E+02 0.  0.
         12    1    1    2    0    0  0.46488287964E+01  0.15407146790E+02 -0.95752931768E+01  0.18726399034E+02  0.00000000000E+00 0. -1.
         11    1    3    3    0    0 -0.90187855956E+01 -0.24634154628E+02  0.11234908517E+02  0.28537751094E+02  0.51100000000E-03 0. -1.
        -11    1    3    3    0    0 -0.14456064684E+02  0.15896952619E+02  0.63489896160E+01  0.22405369404E+02  0.51100000000E-03 0.  1.
         12    1    3    3    0    0  0.18826021484E+02 -0.66699447811E+01 -0.80086049559E+01  0.21518480467E+02  0.00000000000E+00 0. -1.
</event>
<event>
 7    1  0.1345786E-013  0.7246142E+02  0.7816164E-02  0.1226708E+00
        -11   -1    0    0    0    0  0.00000000000E+00  0.00000000000E+00  0.45593999997E+02  0.45594000000E+02  0.51100000000E-03 0.  1.
         11   -1    0    0    0    0 -0.00000000000E+00 -0.00000000000E+00 -0.45593999997E+02  0.45594000000E+02  0.51100000000E-03 0. -1.
    9900012    2    1    2    0    0  0.14109831192E+02  0.33945658183E+01 -0.11835300388E+02  0.72461421331E+02  0.69999805947E+02 0.  0.
         12    1    1    2    0    0 -0.14109831192E+02 -0.33945658183E+01  0.11835300388E+02  0.18726578669E+02  0.00000000000E+00 0. -1.
         11    1    3    3    0    0  0.23974070011E+02 -0.14207654883E+02  0.18056524186E+01  0.27926221926E+02  0.51100000000E-03 0. -1.
        -11    1    3    3    0    0 -0.39216173056E+01  0.29132646607E+02 -0.10200912288E+02  0.31115089465E+02  0.51100000000E-03 0.  1.
        -12    1    3    3    0    0 -0.59426215128E+01 -0.11530425906E+02 -0.34400405190E+01  0.13420109940E+02  0.00000000000E+00 0.  1.
</event>
<event>
 7    1  0.1345786E-013  0.7246160E+02  0.7816164E-02  0.1226708E+00
        -11   -1    0    0    0    0  0.00000000000E+00  0.00000000000E+00  0.45593999997E+02  0.45594000000E+02  0.51100000000E-03 0.  1.
         11   -1    0    0    0    0 -0.00000000000E+00 -0.00000000000E+00 -0.45593999997E+02  0.45594000000E+02  0.51100000000E-03 0. -1.
    9900012    2    1    2    0    0  0.11705254808E+02  0.13977823676E+02 -0.42761694525E+01  0.72461596981E+02  0.70000034765E+02 0.  0.
         12    1    1    2    0    0 -0.11705254808E+02 -0.13977823676E+02  0.42761694525E+01  0.18726403019E+02  0.00000000000E+00 0. -1.
         11    1    3    3    0    0 -0.42599328504E+01 -0.18586764585E+01  0.68154847262E+01  0.82493962434E+01  0.51100000000E-03 0. -1.
        -11    1    3    3    0    0  0.25658864833E+02  0.21567561308E+02 -0.28150256336E+02  0.43771840004E+02  0.51100000000E-03 0.  1.
        -12    1    3    3    0    0 -0.96936771747E+01 -0.57310611741E+01  0.17058602157E+02  0.20440360733E+02  0.00000000000E+00 0.  1.
</event>
<event>
 7    1  0.1345786E-013  0.7246158E+02  0.7816164E-02  0.1226708E+00
        -11   -1    0    0    0    0  0.00000000000E+00  0.00000000000E+00  0.45593999997E+02  0.45594000000E+02  0.51100000000E-03 0. -1.
         11   -1    0    0    0    0 -0.00000000000E+00 -0.00000000000E+00 -0.45593999997E+02  0.45594000000E+02  0.51100000000E-03 0.  1.
    9900012    2    1    2    0    0  0.84736840212E+01 -0.16699524057E+02 -0.38207857622E-01  0.72461577905E+02  0.70000009915E+02 0.  0.
         12    1    1    2    0    0 -0.84736840212E+01  0.16699524057E+02  0.38207857622E-01  0.18726422095E+02  0.00000000000E+00 0. -1.
         11    1    3    3    0    0 -0.12896290549E+02  0.74537235932E+01 -0.76450908861E+00  0.14914985073E+02  0.51100000000E-03 0. -1.
        -11    1    3    3    0    0  0.20078036988E+02 -0.27967478517E+02 -0.17681617102E+02  0.38703320368E+02  0.51100000000E-03 0.  1.
        -12    1    3    3    0    0  0.12919375822E+01  0.38142308662E+01  0.18407918333E+02  0.18843272464E+02  0.00000000000E+00 0.  1.
</event>
<event>
 8    1  0.1345786E-013  0.7246156E+02  0.7816164E-02  0.1226708E+00
        -11   -1    0    0    0    0  0.00000000000E+00  0.00000000000E+00  0.45593999997E+02  0.45594000000E+02  0.51100000000E-03 0.  1.
         11   -1    0    0    0    0 -0.00000000000E+00 -0.00000000000E+00 -0.45593999997E+02  0.45594000000E+02  0.51100000000E-03 0. -1.
    9900012    2    1    2    0    0 -0.21142353793E+01  0.16295719791E+02 -0.89810352893E+01  0.72461562282E+02  0.69999989563E+02 0.  0.
        -24    2    3    3    0    0  0.71399510113E+01  0.90872822557E+01 -0.20096737296E+02  0.56301105333E+02  0.51306705336E+02 0.  0.
         12    1    1    2    0    0  0.21142353793E+01 -0.16295719791E+02  0.89810352893E+01  0.18726437718E+02  0.00000000000E+00 0. -1.
         11    1    4    4    0    0  0.99873743336E+01 -0.19850226675E+02 -0.14923243716E+02  0.26767187906E+02  0.51100000000E-03 0. -1.
        -11    1    3    3    0    0 -0.92541863906E+01  0.72084375349E+01  0.11115702007E+02  0.16160456950E+02  0.51100000000E-03 0.  1.
        -12    1    4    4    0    0 -0.28474233224E+01  0.28937508931E+02 -0.51734935801E+01  0.29533917426E+02  0.00000000000E+00 0.  1.
</event>
<event>
 7    1  0.1345786E-013  0.7246161E+02  0.7816164E-02  0.1226708E+00
        -11   -1    0    0    0    0  0.00000000000E+00  0.00000000000E+00  0.45593999997E+02  0.45594000000E+02  0.51100000000E-03 0.  1.
         11   -1    0    0    0    0 -0.00000000000E+00 -0.00000000000E+00 -0.45593999997E+02  0.45594000000E+02  0.51100000000E-03 0. -1.
    9900012    2    1    2    0    0 -0.13150853154E+02 -0.39570710471E+01  0.12730845130E+02  0.72461607724E+02  0.70000048759E+02 0.  0.
         12    1    1    2    0    0  0.13150853154E+02  0.39570710471E+01 -0.12730845130E+02  0.18726392276E+02  0.00000000000E+00 0. -1.
         11    1    3    3    0    0  0.10783343372E+01  0.67587256236E+01  0.90095341965E+01  0.11314366253E+02  0.51100000000E-03 0. -1.
        -11    1    3    3    0    0 -0.34457250780E+02 -0.97283844308E+01  0.13990149335E+02  0.38440445804E+02  0.51100000000E-03 0.  1.
        -12    1    3    3    0    0  0.20228063289E+02 -0.98741223994E+00 -0.10268838402E+02  0.22706795667E+02  0.00000000000E+00 0.  1.
</event>
<event>
 7    1  0.1345786E-013  0.7246151E+02  0.7816164E-02  0.1226708E+00
        -11   -1    0    0    0    0  0.00000000000E+00  0.00000000000E+00  0.45593999997E+02  0.45594000000E+02  0.51100000000E-03 0. -1.
         11   -1    0    0    0    0 -0.00000000000E+00 -0.00000000000E+00 -0.45593999997E+02  0.45594000000E+02  0.51100000000E-03 0.  1.
    9900012    2    1    2    0    0  0.14183020122E+01 -0.86805424109E+01 -0.16532330711E+02  0.72461511918E+02  0.69999923954E+02 0.  0.
         12    1    1    2    0    0 -0.14183020122E+01  0.86805424109E+01  0.16532330711E+02  0.18726488082E+02  0.00000000000E+00 0. -1.
         11    1    3    3    0    0 -0.13655736040E+02  0.24366109504E+02 -0.20215086257E+02  0.34479503068E+02  0.51100000000E-03 0. -1.
        -11    1    3    3    0    0  0.65554883592E+01 -0.15772985475E+02 -0.34824746720E+01  0.17432416026E+02  0.51100000000E-03 0.  1.
         12    1    3    3    0    0  0.85185496933E+01 -0.17273666440E+02  0.71652302176E+01  0.20549592824E+02  0.00000000000E+00 0. -1.
</event>
<event>
 7    1  0.1345786E-013  0.7246153E+02  0.7816164E-02  0.1226708E+00
        -11   -1    0    0    0    0  0.00000000000E+00  0.00000000000E+00  0.45593999997E+02  0.45594000000E+02  0.51100000000E-03 0.  1.
         11   -1    0    0    0    0 -0.00000000000E+00 -0.00000000000E+00 -0.45593999997E+02  0.45594000000E+02  0.51100000000E-03 0. -1.
    9900012    2    1    2    0    0  0.33661496169E+01 -0.13602976896E+02  0.12422103038E+02  0.72461532432E+02  0.69999950677E+02 0.  0.
         12    1    1    2    0    0 -0.33661496169E+01  0.13602976896E+02 -0.12422103038E+02  0.18726467568E+02  0.00000000000E+00 0. -1.
         11    1    3    3    0    0  0.31382943341E+01  0.10328061465E+02 -0.28640058649E+00  0.10798137363E+02  0.51100000000E-03 0. -1.
        -11    1    3    3    0    0  0.92443818572E+01 -0.38897191236E+02 -0.13088510372E+00  0.39980835574E+02  0.51100000000E-03 0.  1.
        -12    1    3    3    0    0 -0.90165265744E+01  0.14966152875E+02  0.12839388729E+02  0.21682559495E+02  0.00000000000E+00 0.  1.
</event>
<event>
 7    1  0.1345786E-013  0.7246162E+02  0.7816164E-02  0.1226708E+00
        -11   -1    0    0    0    0  0.00000000000E+00  0.00000000000E+00  0.45593999997E+02  0.45594000000E+02  0.51100000000E-03 0. -1.
         11   -1    0    0    0    0 -0.00000000000E+00 -0.00000000000E+00 -0.45593999997E+02  0.45594000000E+02  0.51100000000E-03 0.  1.
    9900012    2    1    2    0    0 -0.14758876813E+01 -0.50570742311E+01 -0.17970114032E+02  0.72461621745E+02  0.70000067024E+02 0.  0.
         12    1    1    2    0    0  0.14758876813E+01  0.50570742311E+01  0.17970114032E+02  0.18726378255E+02  0.00000000000E+00 0. -1.
         11    1    3    3    0    0 -0.12245836586E+02  0.19712658880E+02  0.12392747658E+02  0.26308356630E+02  0.51100000000E-03 0. -1.
        -11    1    3    3    0    0  0.84190961487E+01 -0.21132192584E+02 -0.91764953182E+01  0.24528734374E+02  0.51100000000E-03 0.  1.
        -12    1    3    3    0    0  0.23508527557E+01 -0.36375405271E+01 -0.21186366371E+02  0.21624530741E+02  0.00000000000E+00 0.  1.
</event>
<event>
 7    1  0.1345786E-013  0.7246165E+02  0.7816164E-02  0.1226708E+00
        -11   -1    0    0    0    0  0.00000000000E+00  0.00000000000E+00  0.45593999997E+02  0.45594000000E+02  0.51100000000E-03 0.  1.
         11   -1    0    0    0    0 -0.00000000000E+00 -0.00000000000E+00 -0.45593999997E+02  0.45594000000E+02  0.51100000000E-03 0. -1.
    9900012    2    1    2    0    0 -0.11957455539E+02 -0.13360810289E+02  0.54022315538E+01  0.72461652243E+02  0.70000106754E+02 0.  0.
         12    1    1    2    0    0  0.11957455539E+02  0.13360810289E+02 -0.54022315538E+01  0.18726347757E+02  0.00000000000E+00 0. -1.
         11    1    3    3    0    0 -0.24726827228E+02 -0.19928570398E+02 -0.20644351061E+02  0.37878135300E+02  0.51100000000E-03 0. -1.
        -11    1    3    3    0    0  0.53840608385E+01  0.10807397711E+02  0.76022200897E+01  0.14268206157E+02  0.51100000000E-03 0.  1.
         12    1    3    3    0    0  0.73853108507E+01 -0.42396376023E+01  0.18444362525E+02  0.20315310786E+02  0.00000000000E+00 0. -1.
</event>
<event>
 7    1  0.1345786E-013  0.7246154E+02  0.7816164E-02  0.1226708E+00
        -11   -1    0    0    0    0  0.00000000000E+00  0.00000000000E+00  0.45593999997E+02  0.45594000000E+02  0.51100000000E-03 0.  1.
         11   -1    0    0    0    0 -0.00000000000E+00 -0.00000000000E+00 -0.45593999997E+02  0.45594000000E+02  0.51100000000E-03 0. -1.
    9900012    2    1    2    0    0 -0.10910532823E+02 -0.67713921803E+01  0.13630434964E+02  0.72461541823E+02  0.69999962911E+02 0.  0.
         12    1    1    2    0    0  0.10910532823E+02  0.67713921803E+01 -0.13630434964E+02  0.18726458177E+02  0.00000000000E+00 0. -1.
         11    1    3    3    0    0  0.16444481580E+00 -0.16707393193E+02 -0.42751970313E+01  0.17246487739E+02  0.51100000000E-03 0. -1.
        -11    1    3    3    0    0  0.14660580999E+02  0.18839672839E+02  0.26969268610E+01  0.24023724163E+02  0.51100000000E-03 0.  1.
        -12    1    3    3    0    0 -0.25735558638E+02 -0.89036718264E+01  0.15208705134E+02  0.31191329921E+02  0.00000000000E+00 0.  1.
</event>
<event>
 7    1  0.1345786E-013  0.7246157E+02  0.7816164E-02  0.1226708E+00
        -11   -1    0    0    0    0  0.00000000000E+00  0.00000000000E+00  0.45593999997E+02  0.45594000000E+02  0.51100000000E-03 0. -1.
         11   -1    0    0    0    0 -0.00000000000E+00 -0.00000000000E+00 -0.45593999997E+02  0.45594000000E+02  0.51100000000E-03 0.  1.
    9900012    2    1    2    0    0 -0.57783934341E+01 -0.13959243887E+02 -0.11064765989E+02  0.72461565022E+02  0.69999993132E+02 0.  0.
         12    1    1    2    0    0  0.57783934341E+01  0.13959243887E+02  0.11064765989E+02  0.18726434978E+02  0.00000000000E+00 0. -1.
         11    1    3    3    0    0 -0.78023893638E+01 -0.31062407899E+01 -0.40256865383E+02  0.41123487478E+02  0.51100000000E-03 0.  1.
        -11    1    3    3    0    0  0.18808567248E+01 -0.90825952771E+01  0.26792785951E+02  0.28352857673E+02  0.51100000000E-03 0. -1.
        -12    1    3    3    0    0  0.14313920483E+00 -0.17704078202E+01  0.23993134429E+01  0.29852198711E+01  0.00000000000E+00 0.  1.
</event>
<event>
 7    1  0.1345786E-013  0.7246155E+02  0.7816164E-02  0.1226708E+00
        -11   -1    0    0    0    0  0.00000000000E+00  0.00000000000E+00  0.45593999997E+02  0.45594000000E+02  0.51100000000E-03 0. -1.
         11   -1    0    0    0    0 -0.00000000000E+00 -0.00000000000E+00 -0.45593999997E+02  0.45594000000E+02  0.51100000000E-03 0.  1.
    9900012    2    1    2    0    0 -0.84539279113E+01  0.10122463516E+02 -0.13294611748E+02  0.72461551691E+02  0.69999975765E+02 0.  0.
         12    1    1    2    0    0  0.84539279113E+01 -0.10122463516E+02  0.13294611748E+02  0.18726448309E+02  0.00000000000E+00 0. -1.
         11    1    3    3    0    0  0.78015191189E+01  0.17946937823E+02 -0.12880221969E+02  0.23427684393E+02  0.51100000000E-03 0.  1.
        -11    1    3    3    0    0 -0.27399425849E+02 -0.17554058008E+02  0.56830532346E+01  0.33032871260E+02  0.51100000000E-03 0. -1.
        -12    1    3    3    0    0  0.11143978818E+02  0.97295837002E+01 -0.60974430131E+01  0.16000996037E+02  0.00000000000E+00 0.  1.
</event>
<event>
 7    1  0.1345786E-013  0.7246154E+02  0.7816164E-02  0.1226708E+00
        -11   -1    0    0    0    0  0.00000000000E+00  0.00000000000E+00  0.45593999997E+02  0.45594000000E+02  0.51100000000E-03 0.  1.
         11   -1    0    0    0    0 -0.00000000000E+00 -0.00000000000E+00 -0.45593999997E+02  0.45594000000E+02  0.51100000000E-03 0. -1.
    9900012    2    1    2    0    0 -0.28852436683E+00  0.15048414407E+02  0.11141916407E+02  0.72461539478E+02  0.69999959856E+02 0.  0.
         12    1    1    2    0    0  0.28852436683E+00 -0.15048414407E+02 -0.11141916407E+02  0.18726460522E+02  0.00000000000E+00 0. -1.
         11    1    3    3    0    0  0.13079792809E+02 -0.31796866675E+01 -0.50630924576E+01  0.14381456558E+02  0.51100000000E-03 0. -1.
        -11    1    3    3    0    0 -0.15708591483E+02  0.60012625608E+01  0.33080813103E+02  0.37109502752E+02  0.51100000000E-03 0.  1.
        -12    1    3    3    0    0  0.23402743069E+01  0.12226838513E+02 -0.16875804238E+02  0.20970580167E+02  0.00000000000E+00 0.  1.
</event>
<event>
 7    1  0.1345786E-013  0.7246171E+02  0.7816164E-02  0.1226708E+00
        -11   -1    0    0    0    0  0.00000000000E+00  0.00000000000E+00  0.45593999997E+02  0.45594000000E+02  0.51100000000E-03 0.  1.
         11   -1    0    0    0    0 -0.00000000000E+00 -0.00000000000E+00 -0.45593999997E+02  0.45594000000E+02  0.51100000000E-03 0. -1.
    9900012    2    1    2    0    0 -0.18392886520E+02 -0.33152527012E+01 -0.11766979025E+01  0.72461713850E+02  0.70000187008E+02 0.  0.
         12    1    1    2    0    0  0.18392886520E+02  0.33152527012E+01  0.11766979025E+01  0.18726286150E+02  0.00000000000E+00 0. -1.
         11    1    3    3    0    0 -0.20119924109E+02  0.28529303816E+02  0.59230580493E+01  0.35409252171E+02  0.51100000000E-03 0. -1.
        -11    1    3    3    0    0 -0.64332281006E+01 -0.13380862917E+02  0.18670855162E+01  0.14963954183E+02  0.51100000000E-03 0.  1.
         12    1    3    3    0    0  0.81602656892E+01 -0.18463693601E+02 -0.89668414680E+01  0.22088507496E+02  0.00000000000E+00 0. -1.
</event>
<event>
 7    1  0.1345786E-013  0.7246138E+02  0.7816164E-02  0.1226709E+00
        -11   -1    0    0    0    0  0.00000000000E+00  0.00000000000E+00  0.45593999997E+02  0.45594000000E+02  0.51100000000E-03 0.  1.
         11   -1    0    0    0    0 -0.00000000000E+00 -0.00000000000E+00 -0.45593999997E+02  0.45594000000E+02  0.51100000000E-03 0. -1.
    9900012    2    1    2    0    0  0.11969006402E+02  0.14169106573E+02  0.25817890070E+01  0.72461379114E+02  0.69999750951E+02 0.  0.
         12    1    1    2    0    0 -0.11969006402E+02 -0.14169106573E+02 -0.25817890070E+01  0.18726620886E+02  0.00000000000E+00 0. -1.
         11    1    3    3    0    0  0.37495025373E+02 -0.19724238648E+01 -0.76735737966E+01  0.38322984209E+02  0.51100000000E-03 0. -1.
        -11    1    3    3    0    0 -0.20840985814E+02  0.67717112943E+01  0.52777279782E+01  0.22540123700E+02  0.51100000000E-03 0.  1.
        -12    1    3    3    0    0 -0.46850331569E+01  0.93698191439E+01  0.49776348254E+01  0.11598271204E+02  0.00000000000E+00 0.  1.
</event>
<event>
 7    1  0.1345786E-013  0.7246164E+02  0.7816164E-02  0.1226708E+00
        -11   -1    0    0    0    0  0.00000000000E+00  0.00000000000E+00  0.45593999997E+02  0.45594000000E+02  0.51100000000E-03 0.  1.
         11   -1    0    0    0    0 -0.00000000000E+00 -0.00000000000E+00 -0.45593999997E+02  0.45594000000E+02  0.51100000000E-03 0. -1.
    9900012    2    1    2    0    0  0.52396179971E+01  0.92223605741E+00  0.17954731457E+02  0.72461641630E+02  0.70000092928E+02 0.  0.
         12    1    1    2    0    0 -0.52396179971E+01 -0.92223605741E+00 -0.17954731457E+02  0.18726358370E+02  0.00000000000E+00 0. -1.
         11    1    3    3    0    0 -0.14103718031E+02  0.29379802179E+02  0.11070978632E+02  0.34418806001E+02  0.51100000000E-03 0. -1.
        -11    1    3    3    0    0  0.13617670563E+02 -0.24166020741E+02  0.10939432413E+02  0.29817925679E+02  0.51100000000E-03 0.  1.
        -12    1    3    3    0    0  0.57256654655E+01 -0.42915453804E+01 -0.40556795885E+01  0.82249099509E+01  0.00000000000E+00 0.  1.
</event>
<event>
 7    1  0.1345786E-013  0.7246158E+02  0.7816164E-02  0.1226708E+00
        -11   -1    0    0    0    0  0.00000000000E+00  0.00000000000E+00  0.45593999997E+02  0.45594000000E+02  0.51100000000E-03 0. -1.
         11   -1    0    0    0    0 -0.00000000000E+00 -0.00000000000E+00 -0.45593999997E+02  0.45594000000E+02  0.51100000000E-03 0.  1.
    9900012    2    1    2    0    0  0.12766453379E+02 -0.52059530234E+00 -0.13690338988E+02  0.72461581951E+02  0.70000015185E+02 0.  0.
         12    1    1    2    0    0 -0.12766453379E+02  0.52059530234E+00  0.13690338988E+02  0.18726418049E+02  0.00000000000E+00 0. -1.
         11    1    3    3    0    0  0.15375109806E+02  0.34568634769E+01  0.10547109566E+02  0.18962737859E+02  0.51100000000E-03 0. -1.
        -11    1    3    3    0    0 -0.15239712887E+01 -0.25538981989E+02 -0.17049548903E+02  0.30744905392E+02  0.51100000000E-03 0.  1.
        -12    1    3    3    0    0 -0.10846851387E+01  0.21561523210E+02 -0.71878996512E+01  0.22753938700E+02  0.00000000000E+00 0.  1.
</event>
<event>
 7    1  0.1345786E-013  0.7246152E+02  0.7816164E-02  0.1226708E+00
        -11   -1    0    0    0    0  0.00000000000E+00  0.00000000000E+00  0.45593999997E+02  0.45594000000E+02  0.51100000000E-03 0.  1.
         11   -1    0    0    0    0 -0.00000000000E+00 -0.00000000000E+00 -0.45593999997E+02  0.45594000000E+02  0.51100000000E-03 0. -1.
    9900012    2    1    2    0    0 -0.13007305459E+02 -0.62078972223E+01 -0.11956295507E+02  0.72461521808E+02  0.69999936838E+02 0.  0.
         12    1    1    2    0    0  0.13007305459E+02  0.62078972223E+01  0.11956295507E+02  0.18726478192E+02  0.00000000000E+00 0. -1.
         11    1    3    3    0    0  0.20582985767E+02 -0.11776169964E+02 -0.65027456822E+01  0.24589086680E+02  0.51100000000E-03 0. -1.
        -11    1    3    3    0    0 -0.37903497500E+02 -0.27058154224E+01 -0.62385451336E+01  0.38508648450E+02  0.51100000000E-03 0.  1.
        -12    1    3    3    0    0  0.43132062738E+01  0.82740881643E+01  0.78499530880E+00  0.93637866777E+01  0.00000000000E+00 0.  1.
</event>
<event>
 7    1  0.1345786E-013  0.7246160E+02  0.7816164E-02  0.1226708E+00
        -11   -1    0    0    0    0  0.00000000000E+00  0.00000000000E+00  0.45593999997E+02  0.45594000000E+02  0.51100000000E-03 0. -1.
         11   -1    0    0    0    0 -0.00000000000E+00 -0.00000000000E+00 -0.45593999997E+02  0.45594000000E+02  0.51100000000E-03 0.  1.
    9900012    2    1    2    0    0  0.67384329742E+01  0.13920119711E+02  0.10559449287E+02  0.72461596689E+02  0.70000034385E+02 0.  0.
         12    1    1    2    0    0 -0.67384329742E+01 -0.13920119711E+02 -0.10559449287E+02  0.18726403311E+02  0.00000000000E+00 0. -1.
         11    1    3    3    0    0 -0.13957226667E+02 -0.18720146413E+02 -0.23822118250E+00  0.23351762408E+02  0.51100000000E-03 0. -1.
        -11    1    3    3    0    0  0.21409471941E+02  0.86237163587E+01  0.97615077874E+01  0.25060347308E+02  0.51100000000E-03 0.  1.
        -12    1    3    3    0    0 -0.71381230028E+00  0.24016549765E+02  0.10361626818E+01  0.24049486974E+02  0.00000000000E+00 0.  1.
</event>
<event>
 7    1  0.1345786E-013  0.7246152E+02  0.7816164E-02  0.1226708E+00
        -11   -1    0    0    0    0  0.00000000000E+00  0.00000000000E+00  0.45593999997E+02  0.45594000000E+02  0.51100000000E-03 0.  1.
         11   -1    0    0    0    0 -0.00000000000E+00 -0.00000000000E+00 -0.45593999997E+02  0.45594000000E+02  0.51100000000E-03 0. -1.
    9900012    2    1    2    0    0  0.14872592211E+02 -0.10123261191E+02  0.51967755241E+01  0.72461524302E+02  0.69999940086E+02 0.  0.
         12    1    1    2    0    0 -0.14872592211E+02  0.10123261191E+02 -0.51967755241E+01  0.18726475698E+02  0.00000000000E+00 0. -1.
         11    1    3    3    0    0  0.31845777210E+02 -0.13961539851E+02  0.16923696390E+02  0.38671560879E+02  0.51100000000E-03 0. -1.
        -11    1    3    3    0    0 -0.17786712838E+02  0.85448962645E+01  0.14382444162E+01  0.19785119484E+02  0.51100000000E-03 0.  1.
        -12    1    3    3    0    0  0.81352783909E+00 -0.47066176051E+01 -0.13165165282E+02  0.14004843938E+02  0.00000000000E+00 0.  1.
</event>
<event>
 7    1  0.1345786E-013  0.7246157E+02  0.7816164E-02  0.1226708E+00
        -11   -1    0    0    0    0  0.00000000000E+00  0.00000000000E+00  0.45593999997E+02  0.45594000000E+02  0.51100000000E-03 0. -1.
         11   -1    0    0    0    0 -0.00000000000E+00 -0.00000000000E+00 -0.45593999997E+02  0.45594000000E+02  0.51100000000E-03 0.  1.
    9900012    2    1    2    0    0 -0.13112957555E+02  0.35400963751E+01 -0.12891749428E+02  0.72461571042E+02  0.70000000975E+02 0.  0.
         12    1    1    2    0    0  0.13112957555E+02 -0.35400963751E+01  0.12891749428E+02  0.18726428958E+02  0.00000000000E+00 0. -1.
         11    1    3    3    0    0 -0.94330163976E+01 -0.24647853373E+02 -0.39884415082E+01  0.26690937417E+02  0.51100000000E-03 0. -1.
        -11    1    3    3    0    0  0.58668502164E+01  0.18298259803E+02  0.10572722842E+02  0.21932366764E+02  0.51100000000E-03 0.  1.
        -12    1    3    3    0    0 -0.95467913738E+01  0.98896899449E+01 -0.19476030762E+02  0.23838266862E+02  0.00000000000E+00 0.  1.
</event>
<event>
 7    1  0.1345786E-013  0.7246140E+02  0.7816164E-02  0.1226708E+00
        -11   -1    0    0    0    0  0.00000000000E+00  0.00000000000E+00  0.45593999997E+02  0.45594000000E+02  0.51100000000E-03 0.  1.
         11   -1    0    0    0    0 -0.00000000000E+00 -0.00000000000E+00 -0.45593999997E+02  0.45594000000E+02  0.51100000000E-03 0. -1.
    9900012    2    1    2    0    0  0.13124443573E+02 -0.13279423504E+02  0.14462371561E+01  0.72461395673E+02  0.69999772523E+02 0.  0.
         12    1    1    2    0    0 -0.13124443573E+02  0.13279423504E+02 -0.14462371561E+01  0.18726604327E+02  0.00000000000E+00 0. -1.
         11    1    3    3    0    0 -0.22091481009E+02 -0.72770882384E+01  0.15336239702E+02  0.27860182966E+02  0.51100000000E-03 0. -1.
        -11    1    3    3    0    0  0.18426540065E+02  0.78670795494E+01 -0.10306693991E+02  0.22531228566E+02  0.51100000000E-03 0.  1.
        -12    1    3    3    0    0  0.16789384517E+02 -0.13869414815E+02 -0.35833085548E+01  0.22069984141E+02  0.00000000000E+00 0.  1.
</event>
<event>
 7    1  0.1345786E-013  0.7246157E+02  0.7816164E-02  0.1226708E+00
        -11   -1    0    0    0    0  0.00000000000E+00  0.00000000000E+00  0.45593999997E+02  0.45594000000E+02  0.51100000000E-03 0.  1.
         11   -1    0    0    0    0 -0.00000000000E+00 -0.00000000000E+00 -0.45593999997E+02  0.45594000000E+02  0.51100000000E-03 0. -1.
    9900012    2    1    2    0    0  0.12515674517E+02 -0.12557177186E+02  0.60294663137E+01  0.72461567571E+02  0.69999996453E+02 0.  0.
         12    1    1    2    0    0 -0.12515674517E+02  0.12557177186E+02 -0.60294663137E+01  0.18726432429E+02  0.00000000000E+00 0. -1.
         11    1    3    3    0    0  0.17783951373E+02 -0.37862791894E-02  0.24737509542E+02  0.30466593498E+02  0.51100000000E-03 0.  1.
        -11    1    3    3    0    0 -0.56602139633E+01 -0.12993613268E+02 -0.28687792053E+02  0.31997834630E+02  0.51100000000E-03 0. -1.
         12    1    3    3    0    0  0.39193710669E+00  0.44022236118E+00  0.99797488252E+01  0.99971394427E+01  0.00000000000E+00 0. -1.
</event>
<event>
 7    1  0.1345786E-013  0.7246119E+02  0.7816164E-02  0.1226709E+00
        -11   -1    0    0    0    0  0.00000000000E+00  0.00000000000E+00  0.45593999997E+02  0.45594000000E+02  0.51100000000E-03 0.  1.
         11   -1    0    0    0    0 -0.00000000000E+00 -0.00000000000E+00 -0.45593999997E+02  0.45594000000E+02  0.51100000000E-03 0. -1.
    9900012    2    1    2    0    0  0.11934111828E+02 -0.10918709409E+02  0.94367506650E+01  0.72461187581E+02  0.69999501443E+02 0.  0.
         12    1    1    2    0    0 -0.11934111828E+02  0.10918709409E+02 -0.94367506650E+01  0.18726812419E+02  0.00000000000E+00 0. -1.
         11    1    3    3    0    0  0.29467746631E+01  0.14808700664E+02 -0.78809885597E+01  0.17032060275E+02  0.51100000000E-03 0. -1.
        -11    1    3    3    0    0  0.10235645145E+02 -0.21574141888E+02  0.32109112975E+02  0.40015086731E+02  0.51100000000E-03 0.  1.
        -12    1    3    3    0    0 -0.12483079803E+01 -0.41532681846E+01 -0.14791373751E+02  0.15414040575E+02  0.00000000000E+00 0.  1.
</event>
<event>
 7    1  0.1345786E-013  0.7246209E+02  0.7816164E-02  0.1226707E+00
        -11   -1    0    0    0    0  0.00000000000E+00  0.00000000000E+00  0.45593999997E+02  0.45594000000E+02  0.51100000000E-03 0. -1.
         11   -1    0    0    0    0 -0.00000000000E+00 -0.00000000000E+00 -0.45593999997E+02  0.45594000000E+02  0.51100000000E-03 0.  1.
    9900012    2    1    2    0    0  0.18324881957E+02 -0.38545788139E+01 -0.24339504586E-01  0.72462090971E+02  0.70000678274E+02 0.  0.
         12    1    1    2    0    0 -0.18324881957E+02  0.38545788139E+01  0.24339504586E-01  0.18725909029E+02  0.00000000000E+00 0. -1.
         11    1    3    3    0    0  0.14340776558E+02 -0.13546208784E+02  0.20740900136E+02  0.28624160834E+02  0.51100000000E-03 0. -1.
        -11    1    3    3    0    0 -0.12832082735E+02  0.10560512348E+02  0.60616043734E+00  0.16629918794E+02  0.51100000000E-03 0.  1.
        -12    1    3    3    0    0  0.16816188134E+02 -0.86888237839E+00 -0.21371400078E+02  0.27208011343E+02  0.00000000000E+00 0.  1.
</event>
<event>
 7    1  0.1345786E-013  0.7246152E+02  0.7816164E-02  0.1226708E+00
        -11   -1    0    0    0    0  0.00000000000E+00  0.00000000000E+00  0.45593999997E+02  0.45594000000E+02  0.51100000000E-03 0.  1.
         11   -1    0    0    0    0 -0.00000000000E+00 -0.00000000000E+00 -0.45593999997E+02  0.45594000000E+02  0.51100000000E-03 0. -1.
    9900012    2    1    2    0    0  0.11683380867E+02 -0.14403742290E+02  0.25906961017E+01  0.72461524445E+02  0.69999940272E+02 0.  0.
         12    1    1    2    0    0 -0.11683380867E+02  0.14403742290E+02 -0.25906961017E+01  0.18726475555E+02  0.00000000000E+00 0. -1.
         11    1    3    3    0    0 -0.17682775275E+02  0.13509007593E+02 -0.67755235534E+01  0.23261159629E+02  0.51100000000E-03 0. -1.
        -11    1    3    3    0    0  0.11674519879E+02 -0.18238818431E+02  0.17111817929E+02  0.27600058428E+02  0.51100000000E-03 0.  1.
         12    1    3    3    0    0  0.17691636264E+02 -0.96739314526E+01 -0.77455982735E+01  0.21600306388E+02  0.00000000000E+00 0. -1.
</event>
<event>
 7    1  0.1345786E-013  0.7246159E+02  0.7816164E-02  0.1226708E+00
        -11   -1    0    0    0    0  0.00000000000E+00  0.00000000000E+00  0.45593999997E+02  0.45594000000E+02  0.51100000000E-03 0.  1.
         11   -1    0    0    0    0 -0.00000000000E+00 -0.00000000000E+00 -0.45593999997E+02  0.45594000000E+02  0.51100000000E-03 0. -1.
    9900012    2    1    2    0    0 -0.32491421191E+00 -0.15915920015E+02  0.98618635219E+01  0.72461590005E+02  0.70000025677E+02 0.  0.
         12    1    1    2    0    0  0.32491421191E+00  0.15915920015E+02 -0.98618635219E+01  0.18726409995E+02  0.00000000000E+00 0. -1.
         11    1    3    3    0    0  0.71436151654E+01  0.82730435392E+01 -0.52360469102E+01  0.12119846308E+02  0.51100000000E-03 0. -1.
        -11    1    3    3    0    0  0.22368391651E+02 -0.15438982362E+02  0.48902768595E+01  0.27615610249E+02  0.51100000000E-03 0.  1.
        -12    1    3    3    0    0 -0.29836921028E+02 -0.87499811919E+01  0.10207633573E+02  0.32726133448E+02  0.00000000000E+00 0.  1.
</event>
<event>
 7    1  0.1345786E-013  0.7246156E+02  0.7816164E-02  0.1226708E+00
        -11   -1    0    0    0    0  0.00000000000E+00  0.00000000000E+00  0.45593999997E+02  0.45594000000E+02  0.51100000000E-03 0. -1.
         11   -1    0    0    0    0 -0.00000000000E+00 -0.00000000000E+00 -0.45593999997E+02  0.45594000000E+02  0.51100000000E-03 0.  1.
    9900012    2    1    2    0    0  0.10675690869E+00 -0.10408774665E+02 -0.15566814923E+02  0.72461555759E+02  0.69999981065E+02 0.  0.
         12    1    1    2    0    0 -0.10675690869E+00  0.10408774665E+02  0.15566814923E+02  0.18726444241E+02  0.00000000000E+00 0. -1.
         11    1    3    3    0    0  0.10953377439E+02  0.10954111156E+02 -0.19509437620E+02  0.24911587365E+02  0.51100000000E-03 0.  1.
        -11    1    3    3    0    0 -0.84927646368E+01 -0.30073390081E+02 -0.83080289290E+01  0.32335107655E+02  0.51100000000E-03 0. -1.
        -12    1    3    3    0    0 -0.23538558934E+01  0.87105042601E+01  0.12250651626E+02  0.15214860739E+02  0.00000000000E+00 0.  1.
</event>
<event>
 7    1  0.1345786E-013  0.7246158E+02  0.7816164E-02  0.1226708E+00
        -11   -1    0    0    0    0  0.00000000000E+00  0.00000000000E+00  0.45593999997E+02  0.45594000000E+02  0.51100000000E-03 0.  1.
         11   -1    0    0    0    0 -0.00000000000E+00 -0.00000000000E+00 -0.45593999997E+02  0.45594000000E+02  0.51100000000E-03 0. -1.
    9900012    2    1    2    0    0 -0.10740900400E+02 -0.38946687526E+01  0.14837228580E+02  0.72461581815E+02  0.70000015008E+02 0.  0.
         12    1    1    2    0    0  0.10740900400E+02  0.38946687526E+01 -0.14837228580E+02  0.18726418185E+02  0.00000000000E+00 0. -1.
         11    1    3    3    0    0  0.93676290290E+01  0.80878320050E+00 -0.14684362112E+02  0.17436659508E+02  0.51100000000E-03 0. -1.
        -11    1    3    3    0    0 -0.94905230631E+01 -0.23006495821E+02  0.12397872975E+02  0.27804246664E+02  0.51100000000E-03 0.  1.
        -12    1    3    3    0    0 -0.10618006366E+02  0.18303043868E+02  0.17123717717E+02  0.27220675643E+02  0.00000000000E+00 0.  1.
</event>
<event>
 7    1  0.1345786E-013  0.7246167E+02  0.7816164E-02  0.1226708E+00
        -11   -1    0    0    0    0  0.00000000000E+00  0.00000000000E+00  0.45593999997E+02  0.45594000000E+02  0.51100000000E-03 0.  1.
         11   -1    0    0    0    0 -0.00000000000E+00 -0.00000000000E+00 -0.45593999997E+02  0.45594000000E+02  0.51100000000E-03 0. -1.
    9900012    2    1    2    0    0  0.11729412533E+02  0.11453031450E+02  0.90511999868E+01  0.72461674440E+02  0.70000135670E+02 0.  0.
         12    1    1    2    0    0 -0.11729412533E+02 -0.11453031450E+02 -0.90511999868E+01  0.18726325560E+02  0.00000000000E+00 0. -1.
         11    1    3    3    0    0  0.61854396838E+01  0.12119483422E+02  0.26908923192E+02  0.30153468957E+02  0.51100000000E-03 0.  1.
        -11    1    3    3    0    0 -0.10744103195E+02  0.97793819741E+01 -0.17776557578E+02  0.22958180783E+02  0.51100000000E-03 0. -1.
         12    1    3    3    0    0  0.16288076044E+02 -0.10445833946E+02 -0.81165626870E-01  0.19350024701E+02  0.00000000000E+00 0. -1.
</event>
<event>
 7    1  0.1345786E-013  0.7246142E+02  0.7816164E-02  0.1226708E+00
        -11   -1    0    0    0    0  0.00000000000E+00  0.00000000000E+00  0.45593999997E+02  0.45594000000E+02  0.51100000000E-03 0.  1.
         11   -1    0    0    0    0 -0.00000000000E+00 -0.00000000000E+00 -0.45593999997E+02  0.45594000000E+02  0.51100000000E-03 0. -1.
    9900012    2    1    2    0    0 -0.14234854610E+02 -0.11350330190E+02 -0.43844742145E+01  0.72461422754E+02  0.69999807801E+02 0.  0.
         12    1    1    2    0    0  0.14234854610E+02  0.11350330190E+02  0.43844742145E+01  0.18726577246E+02  0.00000000000E+00 0. -1.
         11    1    3    3    0    0 -0.17321034548E+02 -0.38448471882E+02 -0.32561178782E+01  0.42295455214E+02  0.51100000000E-03 0.  1.
        -11    1    3    3    0    0 -0.28979693058E+01  0.18907885844E+02  0.27117156063E+01  0.19319932064E+02  0.51100000000E-03 0. -1.
         12    1    3    3    0    0  0.59841492433E+01  0.81902558476E+01 -0.38400719425E+01  0.10846035476E+02  0.00000000000E+00 0. -1.
</event>
<event>
 7    1  0.1345786E-013  0.7246160E+02  0.7816164E-02  0.1226708E+00
        -11   -1    0    0    0    0  0.00000000000E+00  0.00000000000E+00  0.45593999997E+02  0.45594000000E+02  0.51100000000E-03 0. -1.
         11   -1    0    0    0    0 -0.00000000000E+00 -0.00000000000E+00 -0.45593999997E+02  0.45594000000E+02  0.51100000000E-03 0.  1.
    9900012    2    1    2    0    0 -0.14501625364E+02 -0.89122746755E+01 -0.78071985193E+01  0.72461598135E+02  0.70000036268E+02 0.  0.
         12    1    1    2    0    0  0.14501625364E+02  0.89122746755E+01  0.78071985193E+01  0.18726401865E+02  0.00000000000E+00 0. -1.
         11    1    3    3    0    0  0.69025480815E+00 -0.11139003568E+02  0.25718051764E+02  0.28035192865E+02  0.51100000000E-03 0. -1.
        -11    1    3    3    0    0  0.30434588271E+01  0.12135202922E+01 -0.23232238434E+02  0.23462143467E+02  0.51100000000E-03 0.  1.
        -12    1    3    3    0    0 -0.18235338999E+02  0.10132085999E+01 -0.10293011849E+02  0.20964261804E+02  0.00000000000E+00 0.  1.
</event>
<event>
 7    1  0.1345786E-013  0.7246158E+02  0.7816164E-02  0.1226708E+00
        -11   -1    0    0    0    0  0.00000000000E+00  0.00000000000E+00  0.45593999997E+02  0.45594000000E+02  0.51100000000E-03 0.  1.
         11   -1    0    0    0    0 -0.00000000000E+00 -0.00000000000E+00 -0.45593999997E+02  0.45594000000E+02  0.51100000000E-03 0. -1.
    9900012    2    1    2    0    0 -0.54012092437E+01  0.55834335866E+01  0.17039098061E+02  0.72461584042E+02  0.70000017909E+02 0.  0.
         12    1    1    2    0    0  0.54012092437E+01 -0.55834335866E+01 -0.17039098061E+02  0.18726415958E+02  0.00000000000E+00 0. -1.
         11    1    3    3    0    0  0.31125210700E+01 -0.40260750004E+01 -0.61251710871E+01  0.79633402808E+01  0.51100000000E-03 0. -1.
        -11    1    3    3    0    0  0.18930359974E+02  0.19577096047E+02  0.22446700336E+02  0.35291296018E+02  0.51100000000E-03 0.  1.
        -12    1    3    3    0    0 -0.27444090288E+02 -0.99675874597E+01  0.71756881227E+00  0.29206947744E+02  0.00000000000E+00 0.  1.
</event>
<event>
 7    1  0.1345786E-013  0.7246161E+02  0.7816164E-02  0.1226708E+00
        -11   -1    0    0    0    0  0.00000000000E+00  0.00000000000E+00  0.45593999997E+02  0.45594000000E+02  0.51100000000E-03 0.  1.
         11   -1    0    0    0    0 -0.00000000000E+00 -0.00000000000E+00 -0.45593999997E+02  0.45594000000E+02  0.51100000000E-03 0. -1.
    9900012    2    1    2    0    0 -0.15033855118E+02 -0.10395919753E+02  0.40725614660E+01  0.72461609421E+02  0.70000050970E+02 0.  0.
         12    1    1    2    0    0  0.15033855118E+02  0.10395919753E+02 -0.40725614660E+01  0.18726390579E+02  0.00000000000E+00 0. -1.
         11    1    3    3    0    0 -0.21441477425E+02  0.13319838162E+02  0.80339476756E+01  0.26489608498E+02  0.51100000000E-03 0.  1.
        -11    1    3    3    0    0  0.14081606390E+02 -0.21752637993E+01 -0.14906379639E+02  0.20620949671E+02  0.51100000000E-03 0. -1.
        -12    1    3    3    0    0 -0.76739840829E+01 -0.21540494115E+02  0.10944993430E+02  0.25351051252E+02  0.00000000000E+00 0.  1.
</event>
<event>
 7    1  0.1345786E-013  0.7246160E+02  0.7816164E-02  0.1226708E+00
        -11   -1    0    0    0    0  0.00000000000E+00  0.00000000000E+00  0.45593999997E+02  0.45594000000E+02  0.51100000000E-03 0. -1.
         11   -1    0    0    0    0 -0.00000000000E+00 -0.00000000000E+00 -0.45593999997E+02  0.45594000000E+02  0.51100000000E-03 0.  1.
    9900012    2    1    2    0    0 -0.15073561184E+02 -0.32279029118E+01  0.10632331358E+02  0.72461599543E+02  0.70000038102E+02 0.  0.
         12    1    1    2    0    0  0.15073561184E+02  0.32279029118E+01 -0.10632331358E+02  0.18726400457E+02  0.00000000000E+00 0. -1.
         11    1    3    3    0    0 -0.27137798994E+01  0.19915987616E+02 -0.38628524286E+01  0.20467847791E+02  0.51100000000E-03 0. -1.
        -11    1    3    3    0    0 -0.27536165593E+02 -0.16717783559E+02  0.40150379869E+01  0.32462982503E+02  0.51100000000E-03 0.  1.
         12    1    3    3    0    0  0.15176384309E+02 -0.64261069686E+01  0.10480145799E+02  0.19530769248E+02  0.00000000000E+00 0. -1.
</event>
<event>
 7    1  0.1345786E-013  0.7246161E+02  0.7816164E-02  0.1226708E+00
        -11   -1    0    0    0    0  0.00000000000E+00  0.00000000000E+00  0.45593999997E+02  0.45594000000E+02  0.51100000000E-03 0.  1.
         11   -1    0    0    0    0 -0.00000000000E+00 -0.00000000000E+00 -0.45593999997E+02  0.45594000000E+02  0.51100000000E-03 0. -1.
    9900012    2    1    2    0    0  0.91036301941E+01  0.14964102626E+01  0.16296084025E+02  0.72461610040E+02  0.70000051776E+02 0.  0.
         12    1    1    2    0    0 -0.91036301941E+01 -0.14964102626E+01 -0.16296084025E+02  0.18726389960E+02  0.00000000000E+00 0. -1.
         11    1    3    3    0    0 -0.16770244454E+02  0.92793938569E+01  0.49198050177E+01  0.19787691403E+02  0.51100000000E-03 0. -1.
        -11    1    3    3    0    0  0.19709515075E+02 -0.10442719809E+02  0.27382111596E+02  0.35317069771E+02  0.51100000000E-03 0.  1.
        -12    1    3    3    0    0  0.61643595735E+01  0.26597362149E+01 -0.16005832589E+02  0.17356848866E+02  0.00000000000E+00 0.  1.
</event>
<event>
 7    1  0.1345786E-013  0.7246154E+02  0.7816164E-02  0.1226708E+00
        -11   -1    0    0    0    0  0.00000000000E+00  0.00000000000E+00  0.45593999997E+02  0.45594000000E+02  0.51100000000E-03 0. -1.
         11   -1    0    0    0    0 -0.00000000000E+00 -0.00000000000E+00 -0.45593999997E+02  0.45594000000E+02  0.51100000000E-03 0.  1.
    9900012    2    1    2    0    0 -0.12398335181E+02  0.13630034074E+02  0.33442287427E+01  0.72461537173E+02  0.69999956854E+02 0.  0.
         12    1    1    2    0    0  0.12398335181E+02 -0.13630034074E+02 -0.33442287427E+01  0.18726462827E+02  0.00000000000E+00 0. -1.
         11    1    3    3    0    0 -0.70059522169E+01  0.21386998269E+02  0.99223743364E+01  0.24595539721E+02  0.51100000000E-03 0.  1.
        -11    1    3    3    0    0 -0.34799656455E+00 -0.26121659574E+02 -0.10949532342E+02  0.28325862022E+02  0.51100000000E-03 0. -1.
         12    1    3    3    0    0 -0.50443863994E+01  0.18364695380E+02  0.43713867487E+01  0.19540135430E+02  0.00000000000E+00 0. -1.
</event>
<event>
 7    1  0.1345786E-013  0.7246124E+02  0.7816164E-02  0.1226709E+00
        -11   -1    0    0    0    0  0.00000000000E+00  0.00000000000E+00  0.45593999997E+02  0.45594000000E+02  0.51100000000E-03 0.  1.
         11   -1    0    0    0    0 -0.00000000000E+00 -0.00000000000E+00 -0.45593999997E+02  0.45594000000E+02  0.51100000000E-03 0. -1.
    9900012    2    1    2    0    0  0.68119782334E+01 -0.11562432059E+02  0.13061336754E+02  0.72461243731E+02  0.69999574589E+02 0.  0.
         12    1    1    2    0    0 -0.68119782334E+01  0.11562432059E+02 -0.13061336754E+02  0.18726756269E+02  0.00000000000E+00 0. -1.
         11    1    3    3    0    0 -0.16110744475E+02  0.18358024863E+02 -0.33140936664E+01  0.24648658817E+02  0.51100000000E-03 0. -1.
        -11    1    3    3    0    0  0.23492382913E+02 -0.26809369267E+02  0.49869956799E+01  0.35993116864E+02  0.51100000000E-03 0.  1.
         12    1    3    3    0    0 -0.56966020548E+00 -0.31110876550E+01  0.11388434740E+02  0.11819468050E+02  0.00000000000E+00 0. -1.
</event>
<event>
 7    1  0.1345786E-013  0.7246155E+02  0.7816164E-02  0.1226708E+00
        -11   -1    0    0    0    0  0.00000000000E+00  0.00000000000E+00  0.45593999997E+02  0.45594000000E+02  0.51100000000E-03 0. -1.
         11   -1    0    0    0    0 -0.00000000000E+00 -0.00000000000E+00 -0.45593999997E+02  0.45594000000E+02  0.51100000000E-03 0.  1.
    9900012    2    1    2    0    0  0.16043966836E+02 -0.90561442165E+01 -0.33551903017E+01  0.72461550207E+02  0.69999973832E+02 0.  0.
         12    1    1    2    0    0 -0.16043966836E+02  0.90561442165E+01  0.33551903017E+01  0.18726449793E+02  0.00000000000E+00 0. -1.
         11    1    3    3    0    0 -0.25924742500E+01  0.19310552982E+01  0.24342061356E+02  0.24555770169E+02  0.51100000000E-03 0. -1.
        -11    1    3    3    0    0  0.17061790012E+02  0.77378647338E+01 -0.20532610512E+02  0.27795095318E+02  0.51100000000E-03 0.  1.
         12    1    3    3    0    0  0.15746510738E+01 -0.18725064249E+02 -0.71646411457E+01  0.20110684719E+02  0.00000000000E+00 0. -1.
</event>
<event>
 7    1  0.1345786E-013  0.7246157E+02  0.7816164E-02  0.1226708E+00
        -11   -1    0    0    0    0  0.00000000000E+00  0.00000000000E+00  0.45593999997E+02  0.45594000000E+02  0.51100000000E-03 0.  1.
         11   -1    0    0    0    0 -0.00000000000E+00 -0.00000000000E+00 -0.45593999997E+02  0.45594000000E+02  0.51100000000E-03 0. -1.
    9900012    2    1    2    0    0  0.13823533302E+02 -0.44413127228E+01 -0.11826405394E+02  0.72461569582E+02  0.69999999073E+02 0.  0.
         12    1    1    2    0    0 -0.13823533302E+02  0.44413127228E+01  0.11826405394E+02  0.18726430418E+02  0.00000000000E+00 0. -1.
         11    1    3    3    0    0 -0.10493322693E+02 -0.13572239061E+02 -0.66391645278E+01  0.18395488582E+02  0.51100000000E-03 0. -1.
        -11    1    3    3    0    0 -0.45868308942E+01  0.18450237325E+02  0.84139374668E+01  0.20790493476E+02  0.51100000000E-03 0.  1.
        -12    1    3    3    0    0  0.28903686889E+02 -0.93193109866E+01 -0.13601178333E+02  0.33275587525E+02  0.00000000000E+00 0.  1.
</event>
<event>
 7    1  0.1345786E-013  0.7246152E+02  0.7816164E-02  0.1226708E+00
        -11   -1    0    0    0    0  0.00000000000E+00  0.00000000000E+00  0.45593999997E+02  0.45594000000E+02  0.51100000000E-03 0. -1.
         11   -1    0    0    0    0 -0.00000000000E+00 -0.00000000000E+00 -0.45593999997E+02  0.45594000000E+02  0.51100000000E-03 0.  1.
    9900012    2    1    2    0    0  0.12336099566E+02  0.70833370820E+01 -0.12178994831E+02  0.72461523241E+02  0.69999938704E+02 0.  0.
         12    1    1    2    0    0 -0.12336099566E+02 -0.70833370820E+01  0.12178994831E+02  0.18726476759E+02  0.00000000000E+00 0. -1.
         11    1    3    3    0    0 -0.15806785236E+02  0.80650352690E+01 -0.31812153254E+01  0.18028294001E+02  0.51100000000E-03 0. -1.
        -11    1    3    3    0    0  0.27732551614E+02  0.18233046669E+02 -0.11336940234E+02  0.35072277143E+02  0.51100000000E-03 0.  1.
        -12    1    3    3    0    0  0.41033318838E+00 -0.19214744856E+02  0.23391607289E+01  0.19360952097E+02  0.00000000000E+00 0.  1.
</event>
<event>
 7    1  0.1345786E-013  0.7246158E+02  0.7816164E-02  0.1226708E+00
        -11   -1    0    0    0    0  0.00000000000E+00  0.00000000000E+00  0.45593999997E+02  0.45594000000E+02  0.51100000000E-03 0.  1.
         11   -1    0    0    0    0 -0.00000000000E+00 -0.00000000000E+00 -0.45593999997E+02  0.45594000000E+02  0.51100000000E-03 0. -1.
    9900012    2    1    2    0    0  0.26130244495E+01  0.91645401662E+01  0.16120244791E+02  0.72461575212E+02  0.70000006406E+02 0.  0.
         12    1    1    2    0    0 -0.26130244495E+01 -0.91645401662E+01 -0.16120244791E+02  0.18726424788E+02  0.00000000000E+00 0. -1.
         11    1    3    3    0    0 -0.25321873397E+00  0.85772452390E+01 -0.60210443217E+01  0.10482663335E+02  0.51100000000E-03 0. -1.
        -11    1    3    3    0    0 -0.10548819578E+02 -0.24572582058E+02  0.15082379447E+01  0.26783654819E+02  0.51100000000E-03 0.  1.
        -12    1    3    3    0    0  0.13415062762E+02  0.25159876985E+02  0.20633051168E+02  0.35195257057E+02  0.00000000000E+00 0.  1.
</event>
<event>
 7    1  0.1345786E-013  0.7246162E+02  0.7816164E-02  0.1226708E+00
        -11   -1    0    0    0    0  0.00000000000E+00  0.00000000000E+00  0.45593999997E+02  0.45594000000E+02  0.51100000000E-03 0.  1.
         11   -1    0    0    0    0 -0.00000000000E+00 -0.00000000000E+00 -0.45593999997E+02  0.45594000000E+02  0.51100000000E-03 0. -1.
    9900012    2    1    2    0    0  0.10753940112E+02  0.24919594954E+01  0.15126800033E+02  0.72461623701E+02  0.70000069572E+02 0.  0.
         12    1    1    2    0    0 -0.10753940112E+02 -0.24919594954E+01 -0.15126800033E+02  0.18726376299E+02  0.00000000000E+00 0. -1.
         11    1    3    3    0    0 -0.43514126565E+01  0.15348605163E+02 -0.11436933732E+02  0.19629516703E+02  0.51100000000E-03 0. -1.
        -11    1    3    3    0    0  0.25971684140E+02 -0.13425722960E+02  0.64137593513E+01  0.29931834613E+02  0.51100000000E-03 0.  1.
         12    1    3    3    0    0 -0.10866331371E+02  0.56907729199E+00  0.20149974413E+02  0.22900272384E+02  0.00000000000E+00 0. -1.
</event>
<event>
 7    1  0.1345786E-013  0.7246157E+02  0.7816164E-02  0.1226708E+00
        -11   -1    0    0    0    0  0.00000000000E+00  0.00000000000E+00  0.45593999997E+02  0.45594000000E+02  0.51100000000E-03 0. -1.
         11   -1    0    0    0    0 -0.00000000000E+00 -0.00000000000E+00 -0.45593999997E+02  0.45594000000E+02  0.51100000000E-03 0.  1.
    9900012    2    1    2    0    0 -0.72508607226E+01  0.16192352696E+02 -0.59926678685E+01  0.72461565870E+02  0.69999994236E+02 0.  0.
         12    1    1    2    0    0  0.72508607226E+01 -0.16192352696E+02  0.59926678685E+01  0.18726434130E+02  0.00000000000E+00 0. -1.
         11    1    3    3    0    0  0.35917307933E+01  0.93441361238E+01  0.16595977547E+02  0.19381431345E+02  0.51100000000E-03 0. -1.
        -11    1    3    3    0    0 -0.10986203222E+02  0.25333704930E+02 -0.20674330514E+02  0.34495234587E+02  0.51100000000E-03 0.  1.
        -12    1    3    3    0    0  0.14361170605E+00 -0.18485488358E+02 -0.19143149013E+01  0.18584899938E+02  0.00000000000E+00 0.  1.
</event>
<event>
 7    1  0.1345786E-013  0.7246158E+02  0.7816164E-02  0.1226708E+00
        -11   -1    0    0    0    0  0.00000000000E+00  0.00000000000E+00  0.45593999997E+02  0.45594000000E+02  0.51100000000E-03 0.  1.
         11   -1    0    0    0    0 -0.00000000000E+00 -0.00000000000E+00 -0.45593999997E+02  0.45594000000E+02  0.51100000000E-03 0. -1.
    9900012    2    1    2    0    0 -0.14344675863E+02  0.12034734334E+02 -0.27219297980E+00  0.72461584296E+02  0.70000018239E+02 0.  0.
         12    1    1    2    0    0  0.14344675863E+02 -0.12034734334E+02  0.27219297980E+00  0.18726415704E+02  0.00000000000E+00 0. -1.
         11    1    3    3    0    0 -0.13315833682E+01 -0.15311075866E+02 -0.19919367917E+01  0.15497418201E+02  0.51100000000E-03 0. -1.
        -11    1    3    3    0    0 -0.25825547491E+02  0.82338270673E+01  0.14398233620E+02  0.30693060177E+02  0.51100000000E-03 0.  1.
        -12    1    3    3    0    0  0.12812454996E+02  0.19111983134E+02 -0.12678489808E+02  0.26271105918E+02  0.00000000000E+00 0.  1.
</event>
<event>
 7    1  0.1345786E-013  0.7246161E+02  0.7816164E-02  0.1226708E+00
        -11   -1    0    0    0    0  0.00000000000E+00  0.00000000000E+00  0.45593999997E+02  0.45594000000E+02  0.51100000000E-03 0. -1.
         11   -1    0    0    0    0 -0.00000000000E+00 -0.00000000000E+00 -0.45593999997E+02  0.45594000000E+02  0.51100000000E-03 0.  1.
    9900012    2    1    2    0    0  0.12966034401E+02 -0.13083076745E+02 -0.33752894699E+01  0.72461614225E+02  0.70000057227E+02 0.  0.
         12    1    1    2    0    0 -0.12966034401E+02  0.13083076745E+02  0.33752894699E+01  0.18726385775E+02  0.00000000000E+00 0. -1.
         11    1    3    3    0    0 -0.94373260870E+01  0.28910364094E+01 -0.74832149645E+01  0.12386271499E+02  0.51100000000E-03 0. -1.
        -11    1    3    3    0    0  0.28972946905E+02 -0.25437362412E+02  0.17559131341E+02  0.42365246990E+02  0.51100000000E-03 0.  1.
        -12    1    3    3    0    0 -0.65695864173E+01  0.94632492572E+01 -0.13451205847E+02  0.17710095735E+02  0.00000000000E+00 0.  1.
</event>
<event>
 7    1  0.1345786E-013  0.7246157E+02  0.7816164E-02  0.1226708E+00
        -11   -1    0    0    0    0  0.00000000000E+00  0.00000000000E+00  0.45593999997E+02  0.45594000000E+02  0.51100000000E-03 0.  1.
         11   -1    0    0    0    0 -0.00000000000E+00 -0.00000000000E+00 -0.45593999997E+02  0.45594000000E+02  0.51100000000E-03 0. -1.
    9900012    2    1    2    0    0  0.12373734405E+02 -0.14055523217E+02 -0.10958055152E+00  0.72461573648E+02  0.70000004368E+02 0.  0.
         12    1    1    2    0    0 -0.12373734405E+02  0.14055523217E+02  0.10958055152E+00  0.18726426352E+02  0.00000000000E+00 0. -1.
         11    1    3    3    0    0 -0.40463465056E+01  0.19234791483E+02  0.17767057674E+02  0.26495631000E+02  0.51100000000E-03 0. -1.
        -11    1    3    3    0    0  0.49416292204E+01 -0.29946647427E+02 -0.11916549061E+02  0.32607139299E+02  0.51100000000E-03 0.  1.
         12    1    3    3    0    0  0.11478451691E+02 -0.33436672734E+01 -0.59600891643E+01  0.13358803348E+02  0.00000000000E+00 0. -1.
</event>
<event>
 7    1  0.1345786E-013  0.7246160E+02  0.7816164E-02  0.1226708E+00
        -11   -1    0    0    0    0  0.00000000000E+00  0.00000000000E+00  0.45593999997E+02  0.45594000000E+02  0.51100000000E-03 0.  1.
         11   -1    0    0    0    0 -0.00000000000E+00 -0.00000000000E+00 -0.45593999997E+02  0.45594000000E+02  0.51100000000E-03 0. -1.
    9900012    2    1    2    0    0 -0.16570236287E+02  0.60609349865E+01  0.62745694573E+01  0.72461604581E+02  0.70000044664E+02 0.  0.
         12    1    1    2    0    0  0.16570236287E+02 -0.60609349865E+01 -0.62745694573E+01  0.18726395419E+02  0.00000000000E+00 0. -1.
         11    1    3    3    0    0  0.96940164340E+01 -0.58558405747E+01 -0.23772748947E+02  0.26332649244E+02  0.51100000000E-03 0. -1.
        -11    1    3    3    0    0 -0.27424311008E+02  0.14710572388E+02  0.29810265769E+02  0.43094613581E+02  0.51100000000E-03 0.  1.
        -12    1    3    3    0    0  0.11600582862E+01 -0.27937968269E+01  0.23705263503E+00  0.30343417555E+01  0.00000000000E+00 0.  1.
</event>
<event>
 7    1  0.1345786E-013  0.7246154E+02  0.7816164E-02  0.1226708E+00
        -11   -1    0    0    0    0  0.00000000000E+00  0.00000000000E+00  0.45593999997E+02  0.45594000000E+02  0.51100000000E-03 0.  1.
         11   -1    0    0    0    0 -0.00000000000E+00 -0.00000000000E+00 -0.45593999997E+02  0.45594000000E+02  0.51100000000E-03 0. -1.
    9900012    2    1    2    0    0  0.65734190633E+01 -0.85019892799E+01  0.15335799325E+02  0.72461537418E+02  0.69999957172E+02 0.  0.
         12    1    1    2    0    0 -0.65734190633E+01  0.85019892799E+01 -0.15335799325E+02  0.18726462582E+02  0.00000000000E+00 0. -1.
         11    1    3    3    0    0 -0.92473312931E+01 -0.27307986138E+02  0.25403545016E+02  0.38426284528E+02  0.51100000000E-03 0. -1.
        -11    1    3    3    0    0  0.15192488458E+02  0.37633698496E+01  0.46898459775E+00  0.15658691037E+02  0.51100000000E-03 0.  1.
         12    1    3    3    0    0  0.62826189804E+00  0.15042627009E+02 -0.10536730289E+02  0.18376561853E+02  0.00000000000E+00 0. -1.
</event>
<event>
 7    1  0.1345786E-013  0.7246161E+02  0.7816164E-02  0.1226708E+00
        -11   -1    0    0    0    0  0.00000000000E+00  0.00000000000E+00  0.45593999997E+02  0.45594000000E+02  0.51100000000E-03 0.  1.
         11   -1    0    0    0    0 -0.00000000000E+00 -0.00000000000E+00 -0.45593999997E+02  0.45594000000E+02  0.51100000000E-03 0. -1.
    9900012    2    1    2    0    0 -0.14299305497E+02 -0.11307685041E+02  0.42829540755E+01  0.72461612887E+02  0.70000055485E+02 0.  0.
         12    1    1    2    0    0  0.14299305497E+02  0.11307685041E+02 -0.42829540755E+01  0.18726387113E+02  0.00000000000E+00 0. -1.
         11    1    3    3    0    0  0.14622905280E+02  0.15454541577E+02  0.24935894733E+01  0.21421722688E+02  0.51100000000E-03 0. -1.
        -11    1    3    3    0    0 -0.29371327142E+02 -0.85307352576E+01  0.82736424955E+01  0.31684404090E+02  0.51100000000E-03 0.  1.
         12    1    3    3    0    0  0.44911636521E+00 -0.18231491361E+02 -0.64842778933E+01  0.19355486110E+02  0.00000000000E+00 0. -1.
</event>
<event>
 7    1  0.1345786E-013  0.7246155E+02  0.7816164E-02  0.1226708E+00
        -11   -1    0    0    0    0  0.00000000000E+00  0.00000000000E+00  0.45593999997E+02  0.45594000000E+02  0.51100000000E-03 0.  1.
         11   -1    0    0    0    0 -0.00000000000E+00 -0.00000000000E+00 -0.45593999997E+02  0.45594000000E+02  0.51100000000E-03 0. -1.
    9900012    2    1    2    0    0  0.87675726529E+01 -0.34789334012E+01  0.16177348171E+02  0.72461550745E+02  0.69999974534E+02 0.  0.
         12    1    1    2    0    0 -0.87675726529E+01  0.34789334012E+01 -0.16177348171E+02  0.18726449255E+02  0.00000000000E+00 0. -1.
         11    1    3    3    0    0 -0.13300693040E+02 -0.66718138481E+01  0.16591885372E+02  0.22287040984E+02  0.51100000000E-03 0. -1.
        -11    1    3    3    0    0  0.12506140919E+02  0.22947285885E+02  0.69196486579E+01  0.27034478504E+02  0.51100000000E-03 0.  1.
         12    1    3    3    0    0  0.95621247736E+01 -0.19754405438E+02 -0.73341858585E+01  0.23140031258E+02  0.00000000000E+00 0. -1.
</event>
<event>
 7    1  0.1345786E-013  0.7246160E+02  0.7816164E-02  0.1226708E+00
        -11   -1    0    0    0    0  0.00000000000E+00  0.00000000000E+00  0.45593999997E+02  0.45594000000E+02  0.51100000000E-03 0.  1.
         11   -1    0    0    0    0 -0.00000000000E+00 -0.00000000000E+00 -0.45593999997E+02  0.45594000000E+02  0.51100000000E-03 0. -1.
    9900012    2    1    2    0    0  0.15768599128E+02 -0.20055846128E+01 -0.98998379854E+01  0.72461604719E+02  0.70000044844E+02 0.  0.
         12    1    1    2    0    0 -0.15768599128E+02  0.20055846128E+01  0.98998379854E+01  0.18726395281E+02  0.00000000000E+00 0. -1.
         11    1    3    3    0    0 -0.38702698842E+01  0.79594041610E+01 -0.30786935598E+02  0.32033833791E+02  0.51100000000E-03 0. -1.
        -11    1    3    3    0    0  0.18413452380E+02 -0.45068602088E+00  0.11164919509E+01  0.18452774886E+02  0.51100000000E-03 0.  1.
         12    1    3    3    0    0  0.12254166320E+01 -0.95143027529E+01  0.19770605662E+02  0.21974996042E+02  0.00000000000E+00 0. -1.
</event>
<event>
 7    1  0.1345786E-013  0.7246159E+02  0.7816164E-02  0.1226708E+00
        -11   -1    0    0    0    0  0.00000000000E+00  0.00000000000E+00  0.45593999997E+02  0.45594000000E+02  0.51100000000E-03 0.  1.
         11   -1    0    0    0    0 -0.00000000000E+00 -0.00000000000E+00 -0.45593999997E+02  0.45594000000E+02  0.51100000000E-03 0. -1.
    9900012    2    1    2    0    0 -0.39050856727E+01 -0.18208300794E+02  0.19714375682E+01  0.72461588758E+02  0.70000024052E+02 0.  0.
         12    1    1    2    0    0  0.39050856727E+01  0.18208300794E+02 -0.19714375682E+01  0.18726411242E+02  0.00000000000E+00 0. -1.
         11    1    3    3    0    0  0.11181864496E+01 -0.15226246003E+02 -0.28276045339E+02  0.32134462009E+02  0.51100000000E-03 0. -1.
        -11    1    3    3    0    0  0.16420988189E+00 -0.14249345718E+02  0.16889404414E+02  0.22098027061E+02  0.51100000000E-03 0.  1.
        -12    1    3    3    0    0 -0.51874820042E+01  0.11267290927E+02  0.13358078493E+02  0.18229099687E+02  0.00000000000E+00 0.  1.
</event>
<event>
 7    1  0.1345786E-013  0.7246169E+02  0.7816164E-02  0.1226708E+00
        -11   -1    0    0    0    0  0.00000000000E+00  0.00000000000E+00  0.45593999997E+02  0.45594000000E+02  0.51100000000E-03 0.  1.
         11   -1    0    0    0    0 -0.00000000000E+00 -0.00000000000E+00 -0.45593999997E+02  0.45594000000E+02  0.51100000000E-03 0. -1.
    9900012    2    1    2    0    0 -0.12338485073E+02 -0.11197473843E+02 -0.85471065411E+01  0.72461690577E+02  0.70000156690E+02 0.  0.
         12    1    1    2    0    0  0.12338485073E+02  0.11197473843E+02  0.85471065411E+01  0.18726309423E+02  0.00000000000E+00 0. -1.
         11    1    3    3    0    0 -0.16267550267E+02 -0.15674515866E+02 -0.78069354640E+01  0.23901294545E+02  0.51100000000E-03 0. -1.
        -11    1    3    3    0    0 -0.18130717672E+02  0.63450900028E+01  0.12354495164E+02  0.22838928203E+02  0.51100000000E-03 0.  1.
         12    1    3    3    0    0  0.22059782866E+02 -0.18680479803E+01 -0.13094666241E+02  0.25721467829E+02  0.00000000000E+00 0. -1.
</event>
<event>
 7    1  0.1345786E-013  0.7246158E+02  0.7816164E-02  0.1226708E+00
        -11   -1    0    0    0    0  0.00000000000E+00  0.00000000000E+00  0.45593999997E+02  0.45594000000E+02  0.51100000000E-03 0.  1.
         11   -1    0    0    0    0 -0.00000000000E+00 -0.00000000000E+00 -0.45593999997E+02  0.45594000000E+02  0.51100000000E-03 0. -1.
    9900012    2    1    2    0    0 -0.56003953041E+01  0.16538642962E+02  0.67666679605E+01  0.72461576586E+02  0.70000008196E+02 0.  0.
         12    1    1    2    0    0  0.56003953041E+01 -0.16538642962E+02 -0.67666679605E+01  0.18726423414E+02  0.00000000000E+00 0. -1.
         11    1    3    3    0    0 -0.14940521558E+02 -0.49621169246E+01 -0.18244721796E+02  0.24097959716E+02  0.51100000000E-03 0. -1.
        -11    1    3    3    0    0 -0.66545768510E+01  0.11353528120E+02  0.26267882465E+02  0.29380055196E+02  0.51100000000E-03 0.  1.
         12    1    3    3    0    0  0.15994703104E+02  0.10147231767E+02 -0.12564927091E+01  0.18983561675E+02  0.00000000000E+00 0. -1.
</event>
<event>
 7    1  0.1345786E-013  0.7246161E+02  0.7816164E-02  0.1226708E+00
        -11   -1    0    0    0    0  0.00000000000E+00  0.00000000000E+00  0.45593999997E+02  0.45594000000E+02  0.51100000000E-03 0. -1.
         11   -1    0    0    0    0 -0.00000000000E+00 -0.00000000000E+00 -0.45593999997E+02  0.45594000000E+02  0.51100000000E-03 0.  1.
    9900012    2    1    2    0    0  0.25249178351E+01 -0.10819959793E+02 -0.15074181091E+02  0.72461610184E+02  0.70000051963E+02 0.  0.
         12    1    1    2    0    0 -0.25249178351E+01  0.10819959793E+02  0.15074181091E+02  0.18726389816E+02  0.00000000000E+00 0. -1.
         11    1    3    3    0    0  0.20134998958E+02  0.53159323657E+01  0.17059620118E+02  0.26920400420E+02  0.51100000000E-03 0. -1.
        -11    1    3    3    0    0 -0.20944825462E+02 -0.96858017020E+01 -0.30236799653E+02  0.38036357893E+02  0.51100000000E-03 0.  1.
        -12    1    3    3    0    0  0.33347443392E+01 -0.64500904565E+01 -0.18970015562E+01  0.75048518712E+01  0.00000000000E+00 0.  1.
</event>
<event>
 7    1  0.1345786E-013  0.7246158E+02  0.7816164E-02  0.1226708E+00
        -11   -1    0    0    0    0  0.00000000000E+00  0.00000000000E+00  0.45593999997E+02  0.45594000000E+02  0.51100000000E-03 0.  1.
         11   -1    0    0    0    0 -0.00000000000E+00 -0.00000000000E+00 -0.45593999997E+02  0.45594000000E+02  0.51100000000E-03 0. -1.
    9900012    2    1    2    0    0  0.28355547503E+01  0.16163868868E+01  0.18439784498E+02  0.72461582039E+02  0.70000015300E+02 0.  0.
         12    1    1    2    0    0 -0.28355547503E+01 -0.16163868868E+01 -0.18439784498E+02  0.18726417961E+02  0.00000000000E+00 0. -1.
         11    1    3    3    0    0  0.26786895033E+02  0.60837755805E+01  0.20720914736E+02  0.34407940632E+02  0.51100000000E-03 0.  1.
        -11    1    3    3    0    0 -0.15101210725E+02 -0.12571028331E+02  0.89743457477E+01  0.21601300899E+02  0.51100000000E-03 0. -1.
        -12    1    3    3    0    0 -0.88501295572E+01  0.81036396368E+01 -0.11255475985E+02  0.16452340508E+02  0.00000000000E+00 0.  1.
</event>
<event>
 7    1  0.1345786E-013  0.7246157E+02  0.7816164E-02  0.1226708E+00
        -11   -1    0    0    0    0  0.00000000000E+00  0.00000000000E+00  0.45593999997E+02  0.45594000000E+02  0.51100000000E-03 0.  1.
         11   -1    0    0    0    0 -0.00000000000E+00 -0.00000000000E+00 -0.45593999997E+02  0.45594000000E+02  0.51100000000E-03 0. -1.
    9900012    2    1    2    0    0  0.12152378782E+02  0.20508868238E+01  0.14099389323E+02  0.72461568783E+02  0.69999998032E+02 0.  0.
         12    1    1    2    0    0 -0.12152378782E+02 -0.20508868238E+01 -0.14099389323E+02  0.18726431217E+02  0.00000000000E+00 0. -1.
         11    1    3    3    0    0  0.18085461168E+01  0.12363326230E+02 -0.49963094460E+01  0.13456811765E+02  0.51100000000E-03 0. -1.
        -11    1    3    3    0    0 -0.18790903154E+02 -0.17267565445E+02  0.54785713468E+01  0.26101371650E+02  0.51100000000E-03 0.  1.
        -12    1    3    3    0    0  0.29134735820E+02  0.69551260389E+01  0.13617127422E+02  0.32903385369E+02  0.00000000000E+00 0.  1.
</event>
<event>
 7    1  0.1345786E-013  0.7246171E+02  0.7816164E-02  0.1226708E+00
        -11   -1    0    0    0    0  0.00000000000E+00  0.00000000000E+00  0.45593999997E+02  0.45594000000E+02  0.51100000000E-03 0. -1.
         11   -1    0    0    0    0 -0.00000000000E+00 -0.00000000000E+00 -0.45593999997E+02  0.45594000000E+02  0.51100000000E-03 0.  1.
    9900012    2    1    2    0    0 -0.10459514030E+02 -0.14887478772E+02  0.44312035161E+01  0.72461707720E+02  0.70000179022E+02 0.  0.
         12    1    1    2    0    0  0.10459514030E+02  0.14887478772E+02 -0.44312035161E+01  0.18726292280E+02  0.00000000000E+00 0. -1.
         11    1    3    3    0    0  0.74884988676E+01  0.18423488834E+02  0.13859447426E+02  0.24240190579E+02  0.51100000000E-03 0. -1.
        -11    1    3    3    0    0  0.16522879488E+01 -0.24471380219E+01 -0.11233830385E+02  0.11615398631E+02  0.51100000000E-03 0.  1.
         12    1    3    3    0    0 -0.19600300847E+02 -0.30863829584E+02  0.18055864749E+01  0.36606118510E+02  0.00000000000E+00 0. -1.
</event>
<event>
 7    1  0.1345786E-013  0.7246163E+02  0.7816164E-02  0.1226708E+00
        -11   -1    0    0    0    0  0.00000000000E+00  0.00000000000E+00  0.45593999997E+02  0.45594000000E+02  0.51100000000E-03 0.  1.
         11   -1    0    0    0    0 -0.00000000000E+00 -0.00000000000E+00 -0.45593999997E+02  0.45594000000E+02  0.51100000000E-03 0. -1.
    9900012    2    1    2    0    0 -0.72295635174E+01 -0.75193069588E+01  0.15552176544E+02  0.72461634601E+02  0.70000083771E+02 0.  0.
         12    1    1    2    0    0  0.72295635174E+01  0.75193069588E+01 -0.15552176544E+02  0.18726365399E+02  0.00000000000E+00 0. -1.
         11    1    3    3    0    0 -0.38150215197E+00 -0.18203671938E+02 -0.14873752245E+02  0.23510587446E+02  0.51100000000E-03 0. -1.
        -11    1    3    3    0    0  0.12906100073E+02 -0.20242803477E+01  0.18389998556E+02  0.22557862868E+02  0.51100000000E-03 0.  1.
        -12    1    3    3    0    0 -0.19754161439E+02  0.12708645327E+02  0.12035930233E+02  0.26393184287E+02  0.00000000000E+00 0.  1.
</event>
<event>
 7    1  0.1345786E-013  0.7246167E+02  0.7816164E-02  0.1226708E+00
        -11   -1    0    0    0    0  0.00000000000E+00  0.00000000000E+00  0.45593999997E+02  0.45594000000E+02  0.51100000000E-03 0. -1.
         11   -1    0    0    0    0 -0.00000000000E+00 -0.00000000000E+00 -0.45593999997E+02  0.45594000000E+02  0.51100000000E-03 0.  1.
    9900012    2    1    2    0    0 -0.16190952039E+02 -0.44101849520E+01 -0.83113751412E+01  0.72461665175E+02  0.70000123599E+02 0.  0.
         12    1    1    2    0    0  0.16190952039E+02  0.44101849520E+01  0.83113751412E+01  0.18726334825E+02  0.00000000000E+00 0. -1.
         11    1    3    3    0    0  0.22857667403E+02 -0.12701545925E+01  0.28726082233E+01  0.23072453924E+02  0.51100000000E-03 0. -1.
        -11    1    3    3    0    0 -0.95800849056E+01  0.52286383595E+01 -0.14965936406E+02  0.18522849097E+02  0.51100000000E-03 0.  1.
         12    1    3    3    0    0 -0.29468534536E+02 -0.83686687190E+01  0.37819530414E+01  0.30866362155E+02  0.00000000000E+00 0. -1.
</event>
<event>
 7    1  0.1345786E-013  0.7246159E+02  0.7816164E-02  0.1226708E+00
        -11   -1    0    0    0    0  0.00000000000E+00  0.00000000000E+00  0.45593999997E+02  0.45594000000E+02  0.51100000000E-03 0.  1.
         11   -1    0    0    0    0 -0.00000000000E+00 -0.00000000000E+00 -0.45593999997E+02  0.45594000000E+02  0.51100000000E-03 0. -1.
    9900012    2    1    2    0    0 -0.15792483855E+02 -0.94607989207E+01 -0.34306227337E+01  0.72461589910E+02  0.70000025552E+02 0.  0.
         12    1    1    2    0    0  0.15792483855E+02  0.94607989207E+01  0.34306227337E+01  0.18726410090E+02  0.00000000000E+00 0. -1.
         11    1    3    3    0    0 -0.23631469436E+02  0.55663159897E+01 -0.15979086507E+01  0.24330711738E+02  0.51100000000E-03 0. -1.
        -11    1    3    3    0    0  0.46723305566E+01 -0.96865953283E+01 -0.23365024942E+02  0.25721298425E+02  0.51100000000E-03 0.  1.
        -12    1    3    3    0    0  0.31666550237E+01 -0.53405195820E+01  0.21532310859E+02  0.22409579746E+02  0.00000000000E+00 0.  1.
</event>
<event>
 7    1  0.1345786E-013  0.7246165E+02  0.7816164E-02  0.1226708E+00
        -11   -1    0    0    0    0  0.00000000000E+00  0.00000000000E+00  0.45593999997E+02  0.45594000000E+02  0.51100000000E-03 0. -1.
         11   -1    0    0    0    0 -0.00000000000E+00 -0.00000000000E+00 -0.45593999997E+02  0.45594000000E+02  0.51100000000E-03 0.  1.
    9900012    2    1    2    0    0 -0.69079410625E+01 -0.14022733256E+02 -0.10311132825E+02  0.72461650707E+02  0.70000104752E+02 0.  0.
         12    1    1    2    0    0  0.69079410625E+01  0.14022733256E+02  0.10311132825E+02  0.18726349293E+02  0.00000000000E+00 0. -1.
         11    1    3    3    0    0 -0.22225037380E+02 -0.35107598544E+02 -0.67798290703E+01  0.42100615726E+02  0.51100000000E-03 0. -1.
        -11    1    3    3    0    0  0.12724587075E+01  0.14610830992E+02 -0.11151409940E+01  0.14708469436E+02  0.51100000000E-03 0.  1.
         12    1    3    3    0    0  0.14044637610E+02  0.64740342952E+01 -0.24161627612E+01  0.15652565545E+02  0.00000000000E+00 0. -1.
</event>
<event>
 7    1  0.1345786E-013  0.7246157E+02  0.7816164E-02  0.1226708E+00
        -11   -1    0    0    0    0  0.00000000000E+00  0.00000000000E+00  0.45593999997E+02  0.45594000000E+02  0.51100000000E-03 0.  1.
         11   -1    0    0    0    0 -0.00000000000E+00 -0.00000000000E+00 -0.45593999997E+02  0.45594000000E+02  0.51100000000E-03 0. -1.
    9900012    2    1    2    0    0 -0.14608394892E+00  0.66340619829E+01  0.17511340145E+02  0.72461570747E+02  0.70000000589E+02 0.  0.
         12    1    1    2    0    0  0.14608394892E+00 -0.66340619829E+01 -0.17511340145E+02  0.18726429253E+02  0.00000000000E+00 0. -1.
         11    1    3    3    0    0 -0.15356305430E+02 -0.58068942097E+01 -0.13622251329E+02  0.21333116706E+02  0.51100000000E-03 0. -1.
        -11    1    3    3    0    0  0.38387735859E+01 -0.63891102667E+01  0.27919814363E+02  0.28897628743E+02  0.51100000000E-03 0.  1.
        -12    1    3    3    0    0  0.11371447895E+02  0.18830066459E+02  0.32137771108E+01  0.22230825298E+02  0.00000000000E+00 0.  1.
</event>
<event>
 7    1  0.1345786E-013  0.7246158E+02  0.7816164E-02  0.1226708E+00
        -11   -1    0    0    0    0  0.00000000000E+00  0.00000000000E+00  0.45593999997E+02  0.45594000000E+02  0.51100000000E-03 0. -1.
         11   -1    0    0    0    0 -0.00000000000E+00 -0.00000000000E+00 -0.45593999997E+02  0.45594000000E+02  0.51100000000E-03 0.  1.
    9900012    2    1    2    0    0  0.11132560682E+01  0.16020374007E+02 -0.96325956426E+01  0.72461584935E+02  0.70000019072E+02 0.  0.
         12    1    1    2    0    0 -0.11132560682E+01 -0.16020374007E+02  0.96325956426E+01  0.18726415065E+02  0.00000000000E+00 0. -1.
         11    1    3    3    0    0  0.13384060257E+02 -0.12178638768E+02  0.19815910844E+01  0.18203818685E+02  0.51100000000E-03 0. -1.
        -11    1    3    3    0    0 -0.23255028142E+00  0.17275996223E+02 -0.26882759138E+02  0.31956170988E+02  0.51100000000E-03 0.  1.
         12    1    3    3    0    0 -0.12038253908E+02  0.10923016552E+02  0.15268572411E+02  0.22301595261E+02  0.00000000000E+00 0. -1.
</event>
<event>
 7    1  0.1345786E-013  0.7246148E+02  0.7816164E-02  0.1226708E+00
        -11   -1    0    0    0    0  0.00000000000E+00  0.00000000000E+00  0.45593999997E+02  0.45594000000E+02  0.51100000000E-03 0. -1.
         11   -1    0    0    0    0 -0.00000000000E+00 -0.00000000000E+00 -0.45593999997E+02  0.45594000000E+02  0.51100000000E-03 0.  1.
    9900012    2    1    2    0    0  0.17148217395E+02 -0.75244795098E+01  0.57516130531E-01  0.72461482443E+02  0.69999885557E+02 0.  0.
         12    1    1    2    0    0 -0.17148217395E+02  0.75244795098E+01 -0.57516130531E-01  0.18726517557E+02  0.00000000000E+00 0. -1.
         11    1    3    3    0    0  0.26358256948E+02  0.11631142973E+02 -0.19358239680E+02  0.34709978968E+02  0.51100000000E-03 0.  1.
        -11    1    3    3    0    0 -0.10088867489E+02 -0.23000210306E+02  0.91097676160E+01  0.26716713638E+02  0.51100000000E-03 0. -1.
        -12    1    3    3    0    0  0.87882793617E+00  0.38445878227E+01  0.10305988195E+02  0.11034789837E+02  0.00000000000E+00 0.  1.
</event>
<event>
 7    1  0.1345786E-013  0.7246153E+02  0.7816164E-02  0.1226708E+00
        -11   -1    0    0    0    0  0.00000000000E+00  0.00000000000E+00  0.45593999997E+02  0.45594000000E+02  0.51100000000E-03 0.  1.
         11   -1    0    0    0    0 -0.00000000000E+00 -0.00000000000E+00 -0.45593999997E+02  0.45594000000E+02  0.51100000000E-03 0. -1.
    9900012    2    1    2    0    0 -0.58999800221E+01 -0.12119099730E+02 -0.12999934089E+02  0.72461531330E+02  0.69999949241E+02 0.  0.
         12    1    1    2    0    0  0.58999800221E+01  0.12119099730E+02  0.12999934089E+02  0.18726468670E+02  0.00000000000E+00 0. -1.
         11    1    3    3    0    0  0.70709898275E+01  0.22769772942E+01  0.32409887635E-01  0.74286320007E+01  0.51100000000E-03 0. -1.
        -11    1    3    3    0    0  0.50797879570E+00 -0.35244818989E+02  0.31644247540E+01  0.35390237245E+02  0.51100000000E-03 0.  1.
        -12    1    3    3    0    0 -0.13478948645E+02  0.20848741964E+02 -0.16196768731E+02  0.29642662084E+02  0.00000000000E+00 0.  1.
</event>
<event>
 7    1  0.1345786E-013  0.7246153E+02  0.7816164E-02  0.1226708E+00
        -11   -1    0    0    0    0  0.00000000000E+00  0.00000000000E+00  0.45593999997E+02  0.45594000000E+02  0.51100000000E-03 0. -1.
         11   -1    0    0    0    0 -0.00000000000E+00 -0.00000000000E+00 -0.45593999997E+02  0.45594000000E+02  0.51100000000E-03 0.  1.
    9900012    2    1    2    0    0 -0.71154706023E+01 -0.74176240725E+01 -0.15653416674E+02  0.72461534174E+02  0.69999952946E+02 0.  0.
         12    1    1    2    0    0  0.71154706023E+01  0.74176240725E+01  0.15653416674E+02  0.18726465826E+02  0.00000000000E+00 0. -1.
         11    1    3    3    0    0 -0.61706393704E+01  0.13660046070E+02 -0.95221024833E+01  0.17757930196E+02  0.51100000000E-03 0. -1.
        -11    1    3    3    0    0 -0.10613384410E+02 -0.31830788016E+02 -0.16023394163E+02  0.37183224109E+02  0.51100000000E-03 0.  1.
        -12    1    3    3    0    0  0.96685531784E+01  0.10753117874E+02  0.98920799726E+01  0.17520379869E+02  0.00000000000E+00 0.  1.
</event>
<event>
 7    1  0.1345786E-013  0.7246156E+02  0.7816164E-02  0.1226708E+00
        -11   -1    0    0    0    0  0.00000000000E+00  0.00000000000E+00  0.45593999997E+02  0.45594000000E+02  0.51100000000E-03 0. -1.
         11   -1    0    0    0    0 -0.00000000000E+00 -0.00000000000E+00 -0.45593999997E+02  0.45594000000E+02  0.51100000000E-03 0.  1.
    9900012    2    1    2    0    0  0.30182984805E+01 -0.14993607889E+02 -0.10805599474E+02  0.72461564588E+02  0.69999992566E+02 0.  0.
         12    1    1    2    0    0 -0.30182984805E+01  0.14993607889E+02  0.10805599474E+02  0.18726435412E+02  0.00000000000E+00 0. -1.
         11    1    3    3    0    0  0.89366832594E+01  0.11915962812E+02  0.23513183948E+02  0.27833869603E+02  0.51100000000E-03 0. -1.
        -11    1    3    3    0    0  0.20601223256E+00 -0.51367369012E+01 -0.28622898739E+01  0.58839791481E+01  0.51100000000E-03 0.  1.
         12    1    3    3    0    0 -0.61243970115E+01 -0.21772833800E+02 -0.31456493549E+02  0.38743715837E+02  0.00000000000E+00 0. -1.
</event>
<event>
 7    1  0.1345786E-013  0.7246156E+02  0.7816164E-02  0.1226708E+00
        -11   -1    0    0    0    0  0.00000000000E+00  0.00000000000E+00  0.45593999997E+02  0.45594000000E+02  0.51100000000E-03 0. -1.
         11   -1    0    0    0    0 -0.00000000000E+00 -0.00000000000E+00 -0.45593999997E+02  0.45594000000E+02  0.51100000000E-03 0.  1.
    9900012    2    1    2    0    0  0.13852986128E+02  0.11970106809E+02 -0.39358301464E+01  0.72461563056E+02  0.69999990570E+02 0.  0.
         12    1    1    2    0    0 -0.13852986128E+02 -0.11970106809E+02  0.39358301464E+01  0.18726436944E+02  0.00000000000E+00 0. -1.
         11    1    3    3    0    0 -0.63888361861E+01 -0.10748853044E+02 -0.23875848274E+02  0.26952016634E+02  0.51100000000E-03 0. -1.
        -11    1    3    3    0    0  0.13050738089E+02  0.21316838063E+02  0.79132993821E+00  0.25007110049E+02  0.51100000000E-03 0.  1.
         12    1    3    3    0    0  0.71910842256E+01  0.14021217892E+01  0.19148688189E+02  0.20502436373E+02  0.00000000000E+00 0. -1.
</event>
<event>
 7    1  0.1756017E-013  0.7246162E+02  0.7816164E-02  0.1226708E+00
        -11   -1    0    0    0    0  0.00000000000E+00  0.00000000000E+00  0.45593999997E+02  0.45594000000E+02  0.51100000000E-03 0. -1.
         11   -1    0    0    0    0 -0.00000000000E+00 -0.00000000000E+00 -0.45593999997E+02  0.45594000000E+02  0.51100000000E-03 0.  1.
    9900012    2    1    2    0    0 -0.45379505507E+01 -0.47273446847E+01 -0.17542423293E+02  0.72461617596E+02  0.70000061619E+02 0.  0.
         12    1    1    2    0    0  0.45379505507E+01  0.47273446847E+01  0.17542423293E+02  0.18726382404E+02  0.00000000000E+00 0. -1.
         11    1    3    3    0    0  0.31856643458E+01 -0.37327048053E+01  0.20875435372E+02  0.21444471192E+02  0.51100000000E-03 0. -1.
        -11    1    3    3    0    0 -0.20419300973E+02 -0.30079941620E+01 -0.25301865904E+02  0.32652416443E+02  0.51100000000E-03 0.  1.
        -12    1    3    3    0    0  0.12695686076E+02  0.20133542826E+01 -0.13115992761E+02  0.18364729960E+02  0.00000000000E+00 0.  1.
</event>
<event>
 7    1  0.1345786E-013  0.7246158E+02  0.7816164E-02  0.1226708E+00
        -11   -1    0    0    0    0  0.00000000000E+00  0.00000000000E+00  0.45593999997E+02  0.45594000000E+02  0.51100000000E-03 0.  1.
         11   -1    0    0    0    0 -0.00000000000E+00 -0.00000000000E+00 -0.45593999997E+02  0.45594000000E+02  0.51100000000E-03 0. -1.
    9900012    2    1    2    0    0  0.98119815951E+00  0.11009191109E+02  0.15116674919E+02  0.72461577509E+02  0.70000009398E+02 0.  0.
         12    1    1    2    0    0 -0.98119815951E+00 -0.11009191109E+02 -0.15116674919E+02  0.18726422491E+02  0.00000000000E+00 0. -1.
         11    1    3    3    0    0 -0.13674331634E+02 -0.12128299620E+01  0.22348154956E+01  0.13908727574E+02  0.51100000000E-03 0. -1.
        -11    1    3    3    0    0  0.46685768188E-02  0.28945175111E+02 -0.57907832858E+01  0.29518745829E+02  0.51100000000E-03 0.  1.
        -12    1    3    3    0    0  0.14650861217E+02 -0.16723154040E+02  0.18672642710E+02  0.29034104106E+02  0.00000000000E+00 0.  1.
</event>
<event>
 7    1  0.1345786E-013  0.7246158E+02  0.7816164E-02  0.1226708E+00
        -11   -1    0    0    0    0  0.00000000000E+00  0.00000000000E+00  0.45593999997E+02  0.45594000000E+02  0.51100000000E-03 0. -1.
         11   -1    0    0    0    0 -0.00000000000E+00 -0.00000000000E+00 -0.45593999997E+02  0.45594000000E+02  0.51100000000E-03 0.  1.
    9900012    2    1    2    0    0 -0.14769588074E+02  0.71883822247E+01 -0.89925092466E+01  0.72461580336E+02  0.70000013081E+02 0.  0.
         12    1    1    2    0    0  0.14769588074E+02 -0.71883822247E+01  0.89925092466E+01  0.18726419664E+02  0.00000000000E+00 0. -1.
         11    1    3    3    0    0 -0.21694837430E+02 -0.19703711981E+02 -0.87548724233E+01  0.30586762306E+02  0.51100000000E-03 0. -1.
        -11    1    3    3    0    0  0.18172466488E+02  0.11745659337E+02  0.51747755341E+01  0.22248086515E+02  0.51100000000E-03 0.  1.
         12    1    3    3    0    0 -0.11247217132E+02  0.15146434869E+02 -0.54124123574E+01  0.19626731515E+02  0.00000000000E+00 0. -1.
</event>
<event>
 7    1  0.1345786E-013  0.7246158E+02  0.7816164E-02  0.1226708E+00
        -11   -1    0    0    0    0  0.00000000000E+00  0.00000000000E+00  0.45593999997E+02  0.45594000000E+02  0.51100000000E-03 0.  1.
         11   -1    0    0    0    0 -0.00000000000E+00 -0.00000000000E+00 -0.45593999997E+02  0.45594000000E+02  0.51100000000E-03 0. -1.
    9900012    2    1    2    0    0  0.15297003920E+02  0.93728740446E+01 -0.53693236443E+01  0.72461581945E+02  0.70000015177E+02 0.  0.
         12    1    1    2    0    0 -0.15297003920E+02 -0.93728740446E+01  0.53693236443E+01  0.18726418055E+02  0.00000000000E+00 0. -1.
         11    1    3    3    0    0 -0.61766688189E+01 -0.10957167265E+02  0.15034159366E+02  0.19601956542E+02  0.51100000000E-03 0. -1.
        -11    1    3    3    0    0  0.13664728783E+02  0.28275662936E+02 -0.25647374472E+02  0.40546587338E+02  0.51100000000E-03 0.  1.
        -12    1    3    3    0    0  0.78089439556E+01 -0.79456216270E+01  0.52438914614E+01  0.12313038065E+02  0.00000000000E+00 0.  1.
</event>
<event>
 7    1  0.1345786E-013  0.7246161E+02  0.7816164E-02  0.1226708E+00
        -11   -1    0    0    0    0  0.00000000000E+00  0.00000000000E+00  0.45593999997E+02  0.45594000000E+02  0.51100000000E-03 0. -1.
         11   -1    0    0    0    0 -0.00000000000E+00 -0.00000000000E+00 -0.45593999997E+02  0.45594000000E+02  0.51100000000E-03 0.  1.
    9900012    2    1    2    0    0  0.72703829371E+01 -0.13662609857E+02 -0.10542882968E+02  0.72461607998E+02  0.70000049115E+02 0.  0.
         12    1    1    2    0    0 -0.72703829371E+01  0.13662609857E+02  0.10542882968E+02  0.18726392002E+02  0.00000000000E+00 0. -1.
         11    1    3    3    0    0 -0.20699308695E+02 -0.30807691936E+02 -0.59815595734E+01  0.37594604906E+02  0.51100000000E-03 0. -1.
        -11    1    3    3    0    0  0.96239008155E+01  0.12148598040E+02 -0.30243561172E+01  0.15790966767E+02  0.51100000000E-03 0.  1.
         12    1    3    3    0    0  0.18345790817E+02  0.49964840391E+01 -0.15369672776E+01  0.19076036324E+02  0.00000000000E+00 0. -1.
</event>
<event>
 7    1  0.1345786E-013  0.7246146E+02  0.7816164E-02  0.1226708E+00
        -11   -1    0    0    0    0  0.00000000000E+00  0.00000000000E+00  0.45593999997E+02  0.45594000000E+02  0.51100000000E-03 0.  1.
         11   -1    0    0    0    0 -0.00000000000E+00 -0.00000000000E+00 -0.45593999997E+02  0.45594000000E+02  0.51100000000E-03 0. -1.
    9900012    2    1    2    0    0  0.41032942354E+00 -0.18522354993E+02  0.27271066324E+01  0.72461464941E+02  0.69999862758E+02 0.  0.
         12    1    1    2    0    0 -0.41032942354E+00  0.18522354993E+02 -0.27271066324E+01  0.18726535059E+02  0.00000000000E+00 0. -1.
         11    1    3    3    0    0 -0.24719559568E+00 -0.29093208246E+02  0.28055914768E+02  0.40417944350E+02  0.51100000000E-03 0.  1.
        -11    1    3    3    0    0  0.66139524285E+01  0.10717359173E+02 -0.21633893229E+02  0.25032608551E+02  0.51100000000E-03 0. -1.
        -12    1    3    3    0    0 -0.59564274092E+01 -0.14650591990E+00 -0.36949149063E+01  0.70109120399E+01  0.00000000000E+00 0.  1.
</event>
<event>
 7    1  0.1345786E-013  0.7246157E+02  0.7816164E-02  0.1226708E+00
        -11   -1    0    0    0    0  0.00000000000E+00  0.00000000000E+00  0.45593999997E+02  0.45594000000E+02  0.51100000000E-03 0.  1.
         11   -1    0    0    0    0 -0.00000000000E+00 -0.00000000000E+00 -0.45593999997E+02  0.45594000000E+02  0.51100000000E-03 0. -1.
    9900012    2    1    2    0    0 -0.10614385384E+01 -0.12991981965E+02  0.13444738432E+02  0.72461568449E+02  0.69999997596E+02 0.  0.
         12    1    1    2    0    0  0.10614385384E+01  0.12991981965E+02 -0.13444738432E+02  0.18726431551E+02  0.00000000000E+00 0. -1.
         11    1    3    3    0    0 -0.17685035902E+02 -0.74325759299E+01 -0.11451447900E+02  0.22341426523E+02  0.51100000000E-03 0. -1.
        -11    1    3    3    0    0  0.29398375800E+02 -0.30144013805E+01  0.21822655130E+02  0.36736621953E+02  0.51100000000E-03 0.  1.
         12    1    3    3    0    0 -0.12774778437E+02 -0.25450046545E+01  0.30735312023E+01  0.13383519972E+02  0.00000000000E+00 0. -1.
</event>
<event>
 7    1  0.1345786E-013  0.7246143E+02  0.7816164E-02  0.1226708E+00
        -11   -1    0    0    0    0  0.00000000000E+00  0.00000000000E+00  0.45593999997E+02  0.45594000000E+02  0.51100000000E-03 0.  1.
         11   -1    0    0    0    0 -0.00000000000E+00 -0.00000000000E+00 -0.45593999997E+02  0.45594000000E+02  0.51100000000E-03 0. -1.
    9900012    2    1    2    0    0 -0.18540753764E+02  0.20789719785E+01  0.16133539238E+01  0.72461425687E+02  0.69999811622E+02 0.  0.
         12    1    1    2    0    0  0.18540753764E+02 -0.20789719785E+01 -0.16133539238E+01  0.18726574313E+02  0.00000000000E+00 0. -1.
         11    1    3    3    0    0 -0.20472519925E+02  0.29165169900E+01 -0.13032395552E+02  0.24443270598E+02  0.51100000000E-03 0.  1.
        -11    1    3    3    0    0  0.19733167580E+02  0.11474385860E+02  0.19136378332E+01  0.22906799069E+02  0.51100000000E-03 0. -1.
        -12    1    3    3    0    0 -0.17801401419E+02 -0.12311930871E+02  0.12732111643E+02  0.25111356020E+02  0.00000000000E+00 0.  1.
</event>
<event>
 7    1  0.1345786E-013  0.7246159E+02  0.7816164E-02  0.1226708E+00
        -11   -1    0    0    0    0  0.00000000000E+00  0.00000000000E+00  0.45593999997E+02  0.45594000000E+02  0.51100000000E-03 0.  1.
         11   -1    0    0    0    0 -0.00000000000E+00 -0.00000000000E+00 -0.45593999997E+02  0.45594000000E+02  0.51100000000E-03 0. -1.
    9900012    2    1    2    0    0 -0.16758107737E+02  0.58189242870E+01  0.59986860230E+01  0.72461593811E+02  0.70000030634E+02 0.  0.
         12    1    1    2    0    0  0.16758107737E+02 -0.58189242870E+01 -0.59986860230E+01  0.18726406189E+02  0.00000000000E+00 0. -1.
         11    1    3    3    0    0  0.99460595077E+01 -0.16703352822E+02  0.50849769174E+01  0.20094354574E+02  0.51100000000E-03 0.  1.
        -11    1    3    3    0    0 -0.29068500803E+02  0.46168201395E+01  0.11306286436E+02  0.31529745961E+02  0.51100000000E-03 0. -1.
        -12    1    3    3    0    0  0.23643335586E+01  0.17905456969E+02 -0.10392577330E+02  0.20837493276E+02  0.00000000000E+00 0.  1.
</event>
<event>
 7    1  0.1345786E-013  0.7246150E+02  0.7816164E-02  0.1226708E+00
        -11   -1    0    0    0    0  0.00000000000E+00  0.00000000000E+00  0.45593999997E+02  0.45594000000E+02  0.51100000000E-03 0.  1.
         11   -1    0    0    0    0 -0.00000000000E+00 -0.00000000000E+00 -0.45593999997E+02  0.45594000000E+02  0.51100000000E-03 0. -1.
    9900012    2    1    2    0    0  0.39569850063E+01 -0.17905820598E+02  0.37954933509E+01  0.72461497086E+02  0.69999904632E+02 0.  0.
         12    1    1    2    0    0 -0.39569850063E+01  0.17905820598E+02 -0.37954933509E+01  0.18726502914E+02  0.00000000000E+00 0. -1.
         11    1    3    3    0    0  0.16652880957E+02 -0.90069203317E+01 -0.12943188893E+02  0.22934018335E+02  0.51100000000E-03 0. -1.
        -11    1    3    3    0    0 -0.25081762023E+02 -0.63083639398E+01  0.23704780906E+02  0.35082857350E+02  0.51100000000E-03 0.  1.
        -12    1    3    3    0    0  0.12385866073E+02 -0.25905363265E+01 -0.69660986620E+01  0.14444621401E+02  0.00000000000E+00 0.  1.
</event>
<event>
 7    1  0.1345786E-013  0.7246158E+02  0.7816164E-02  0.1226708E+00
        -11   -1    0    0    0    0  0.00000000000E+00  0.00000000000E+00  0.45593999997E+02  0.45594000000E+02  0.51100000000E-03 0.  1.
         11   -1    0    0    0    0 -0.00000000000E+00 -0.00000000000E+00 -0.45593999997E+02  0.45594000000E+02  0.51100000000E-03 0. -1.
    9900012    2    1    2    0    0  0.74959837257E+01  0.17115776199E+02 -0.12406808275E+01  0.72461578670E+02  0.70000010911E+02 0.  0.
         12    1    1    2    0    0 -0.74959837257E+01 -0.17115776199E+02  0.12406808275E+01  0.18726421330E+02  0.00000000000E+00 0. -1.
         11    1    3    3    0    0 -0.18670750013E+02  0.23823846301E+02  0.87506833958E+01  0.31507888199E+02  0.51100000000E-03 0.  1.
        -11    1    3    3    0    0  0.17957249614E+02  0.45663197867E+01 -0.17176084884E+02  0.25265232678E+02  0.51100000000E-03 0. -1.
        -12    1    3    3    0    0  0.82094841241E+01 -0.11274389888E+02  0.71847206605E+01  0.15688457792E+02  0.00000000000E+00 0.  1.
</event>
<event>
 7    1  0.1345786E-013  0.7246155E+02  0.7816164E-02  0.1226708E+00
        -11   -1    0    0    0    0  0.00000000000E+00  0.00000000000E+00  0.45593999997E+02  0.45594000000E+02  0.51100000000E-03 0.  1.
         11   -1    0    0    0    0 -0.00000000000E+00 -0.00000000000E+00 -0.45593999997E+02  0.45594000000E+02  0.51100000000E-03 0. -1.
    9900012    2    1    2    0    0  0.80100000577E+01 -0.48530965945E+01  0.16216263525E+02  0.72461552120E+02  0.69999976325E+02 0.  0.
         12    1    1    2    0    0 -0.80100000577E+01  0.48530965945E+01 -0.16216263525E+02  0.18726447880E+02  0.00000000000E+00 0. -1.
         11    1    3    3    0    0  0.29047994939E+02 -0.22672244629E+02  0.74630767898E+01  0.37596731267E+02  0.51100000000E-03 0. -1.
        -11    1    3    3    0    0 -0.11569472719E+02  0.10945808061E+02  0.14758411093E+02  0.21713454616E+02  0.51100000000E-03 0.  1.
         12    1    3    3    0    0 -0.94685221623E+01  0.68733399734E+01 -0.60052243570E+01  0.13151366237E+02  0.00000000000E+00 0. -1.
</event>
<event>
 7    1  0.1345786E-013  0.7246147E+02  0.7816164E-02  0.1226708E+00
        -11   -1    0    0    0    0  0.00000000000E+00  0.00000000000E+00  0.45593999997E+02  0.45594000000E+02  0.51100000000E-03 0.  1.
         11   -1    0    0    0    0 -0.00000000000E+00 -0.00000000000E+00 -0.45593999997E+02  0.45594000000E+02  0.51100000000E-03 0. -1.
    9900012    2    1    2    0    0  0.23697872240E+00  0.17887377285E+02  0.55379127668E+01  0.72461470614E+02  0.69999870148E+02 0.  0.
         12    1    1    2    0    0 -0.23697872240E+00 -0.17887377285E+02 -0.55379127668E+01  0.18726529386E+02  0.00000000000E+00 0. -1.
         11    1    3    3    0    0 -0.17762010492E+02  0.87535047615E+01 -0.14661312981E+02  0.24638728881E+02  0.51100000000E-03 0. -1.
        -11    1    3    3    0    0  0.10464783366E+02 -0.87694012775E-01  0.30394999017E+02  0.32146156017E+02  0.51100000000E-03 0.  1.
         12    1    3    3    0    0  0.75342058484E+01  0.92215665358E+01 -0.10195773270E+02  0.15676585716E+02  0.00000000000E+00 0. -1.
</event>
<event>
 7    1  0.1345786E-013  0.7246171E+02  0.7816164E-02  0.1226708E+00
        -11   -1    0    0    0    0  0.00000000000E+00  0.00000000000E+00  0.45593999997E+02  0.45594000000E+02  0.51100000000E-03 0.  1.
         11   -1    0    0    0    0 -0.00000000000E+00 -0.00000000000E+00 -0.45593999997E+02  0.45594000000E+02  0.51100000000E-03 0. -1.
    9900012    2    1    2    0    0 -0.15877431735E+02 -0.79853604932E+01  0.59004235409E+01  0.72461713164E+02  0.70000186114E+02 0.  0.
         12    1    1    2    0    0  0.15877431735E+02  0.79853604932E+01 -0.59004235409E+01  0.18726286836E+02  0.00000000000E+00 0. -1.
         11    1    3    3    0    0 -0.25304497107E+02 -0.15253561129E+02  0.21915731640E+02  0.36787062869E+02  0.51100000000E-03 0.  1.
        -11    1    3    3    0    0  0.80839339031E+00  0.11517696622E+02 -0.21649090236E+02  0.24535564874E+02  0.51100000000E-03 0. -1.
        -12    1    3    3    0    0  0.86186719813E+01 -0.42494959867E+01  0.56337821366E+01  0.11139085421E+02  0.00000000000E+00 0.  1.
</event>
<event>
 7    1  0.1345786E-013  0.7246153E+02  0.7816164E-02  0.1226708E+00
        -11   -1    0    0    0    0  0.00000000000E+00  0.00000000000E+00  0.45593999997E+02  0.45594000000E+02  0.51100000000E-03 0.  1.
         11   -1    0    0    0    0 -0.00000000000E+00 -0.00000000000E+00 -0.45593999997E+02  0.45594000000E+02  0.51100000000E-03 0. -1.
    9900012    2    1    2    0    0  0.93293064320E+01  0.16017327394E+02  0.26627210535E+01  0.72461526259E+02  0.69999942636E+02 0.  0.
         12    1    1    2    0    0 -0.93293064320E+01 -0.16017327394E+02 -0.26627210535E+01  0.18726473741E+02  0.00000000000E+00 0. -1.
         11    1    3    3    0    0 -0.11173715065E+02  0.27007449183E+02 -0.80450227301E+01  0.30314627009E+02  0.51100000000E-03 0. -1.
        -11    1    3    3    0    0  0.18986940106E+02  0.30151478647E+01 -0.61439176229E+01  0.20182733593E+02  0.51100000000E-03 0.  1.
         12    1    3    3    0    0  0.15160813903E+01 -0.14005269654E+02  0.16851661406E+02  0.21964165657E+02  0.00000000000E+00 0. -1.
</event>
<event>
 7    1  0.1345786E-013  0.7246160E+02  0.7816164E-02  0.1226708E+00
        -11   -1    0    0    0    0  0.00000000000E+00  0.00000000000E+00  0.45593999997E+02  0.45594000000E+02  0.51100000000E-03 0.  1.
         11   -1    0    0    0    0 -0.00000000000E+00 -0.00000000000E+00 -0.45593999997E+02  0.45594000000E+02  0.51100000000E-03 0. -1.
    9900012    2    1    2    0    0  0.12054172160E+02  0.97780057254E+01  0.10476907596E+02  0.72461600047E+02  0.70000038759E+02 0.  0.
         12    1    1    2    0    0 -0.12054172160E+02 -0.97780057254E+01 -0.10476907596E+02  0.18726399953E+02  0.00000000000E+00 0. -1.
         11    1    3    3    0    0  0.28283703350E+02 -0.43880570056E+01 -0.95770816811E+01  0.30181839130E+02  0.51100000000E-03 0. -1.
        -11    1    3    3    0    0 -0.10014840185E+02  0.23735651957E+02  0.14885770399E+02  0.29753392384E+02  0.51100000000E-03 0.  1.
         12    1    3    3    0    0 -0.62146910057E+01 -0.95695892257E+01  0.51682188781E+01  0.12526368533E+02  0.00000000000E+00 0. -1.
</event>
<event>
 7    1  0.1345786E-013  0.7246157E+02  0.7816164E-02  0.1226708E+00
        -11   -1    0    0    0    0  0.00000000000E+00  0.00000000000E+00  0.45593999997E+02  0.45594000000E+02  0.51100000000E-03 0.  1.
         11   -1    0    0    0    0 -0.00000000000E+00 -0.00000000000E+00 -0.45593999997E+02  0.45594000000E+02  0.51100000000E-03 0. -1.
    9900012    2    1    2    0    0 -0.79033171963E+01  0.76846487081E+01  0.15138134604E+02  0.72461565001E+02  0.69999993105E+02 0.  0.
         12    1    1    2    0    0  0.79033171963E+01 -0.76846487081E+01 -0.15138134604E+02  0.18726434999E+02  0.00000000000E+00 0. -1.
         11    1    3    3    0    0  0.29721721348E+02  0.39994875944E+01  0.59022178819E+01  0.30564894849E+02  0.51100000000E-03 0. -1.
        -11    1    3    3    0    0 -0.31493923817E+02  0.83135741761E+01  0.10251492609E+02  0.34147852845E+02  0.51100000000E-03 0.  1.
        -12    1    3    3    0    0 -0.61311147276E+01 -0.46284130624E+01 -0.10155758871E+01  0.77488173073E+01  0.00000000000E+00 0.  1.
</event>
<event>
 7    1  0.1345786E-013  0.7246156E+02  0.7816164E-02  0.1226708E+00
        -11   -1    0    0    0    0  0.00000000000E+00  0.00000000000E+00  0.45593999997E+02  0.45594000000E+02  0.51100000000E-03 0.  1.
         11   -1    0    0    0    0 -0.00000000000E+00 -0.00000000000E+00 -0.45593999997E+02  0.45594000000E+02  0.51100000000E-03 0. -1.
    9900012    2    1    2    0    0  0.24314482363E+01 -0.15768530472E+02  0.98041349150E+01  0.72461559997E+02  0.69999986585E+02 0.  0.
         12    1    1    2    0    0 -0.24314482363E+01  0.15768530472E+02 -0.98041349150E+01  0.18726440003E+02  0.00000000000E+00 0. -1.
         11    1    3    3    0    0  0.60936604109E+01 -0.33877937120E+02 -0.95359163932E+01  0.35718076970E+02  0.51100000000E-03 0. -1.
        -11    1    3    3    0    0 -0.14199853996E+02  0.11437316655E+02  0.14753737331E+02  0.23454654789E+02  0.51100000000E-03 0.  1.
        -12    1    3    3    0    0  0.10537641822E+02  0.66720899936E+01  0.45863139777E+01  0.13288828238E+02  0.00000000000E+00 0.  1.
</event>
<event>
 7    1  0.1345786E-013  0.7246162E+02  0.7816164E-02  0.1226708E+00
        -11   -1    0    0    0    0  0.00000000000E+00  0.00000000000E+00  0.45593999997E+02  0.45594000000E+02  0.51100000000E-03 0.  1.
         11   -1    0    0    0    0 -0.00000000000E+00 -0.00000000000E+00 -0.45593999997E+02  0.45594000000E+02  0.51100000000E-03 0. -1.
    9900012    2    1    2    0    0  0.43178909554E+01  0.11343481895E+02  0.14260381898E+02  0.72461621394E+02  0.70000066567E+02 0.  0.
         12    1    1    2    0    0 -0.43178909554E+01 -0.11343481895E+02 -0.14260381898E+02  0.18726378606E+02  0.00000000000E+00 0. -1.
         11    1    3    3    0    0  0.13361786182E+02  0.69763646714E+01  0.32513122254E+02  0.35837272678E+02  0.51100000000E-03 0.  1.
        -11    1    3    3    0    0 -0.15214136225E+02  0.62084858999E+01 -0.23252047644E+02  0.28472319156E+02  0.51100000000E-03 0. -1.
         12    1    3    3    0    0  0.61702409986E+01 -0.18413686758E+01  0.49993072879E+01  0.81520295595E+01  0.00000000000E+00 0. -1.
</event>
<event>
 7    1  0.1345786E-013  0.7246113E+02  0.7816164E-02  0.1226709E+00
        -11   -1    0    0    0    0  0.00000000000E+00  0.00000000000E+00  0.45593999997E+02  0.45594000000E+02  0.51100000000E-03 0. -1.
         11   -1    0    0    0    0 -0.00000000000E+00 -0.00000000000E+00 -0.45593999997E+02  0.45594000000E+02  0.51100000000E-03 0.  1.
    9900012    2    1    2    0    0  0.15890781430E+02  0.79009377807E+01 -0.59794671683E+01  0.72461126799E+02  0.69999422263E+02 0.  0.
         12    1    1    2    0    0 -0.15890781430E+02 -0.79009377807E+01  0.59794671683E+01  0.18726873201E+02  0.00000000000E+00 0. -1.
         11    1    3    3    0    0  0.16315314137E+01 -0.10085518665E+02  0.16116114547E+02  0.19081633312E+02  0.51100000000E-03 0. -1.
        -11    1    3    3    0    0  0.46064110298E+01  0.60572299590E+00 -0.31177684549E+02  0.31521959600E+02  0.51100000000E-03 0.  1.
        -12    1    3    3    0    0  0.96528389862E+01  0.17380733450E+02  0.90821028337E+01  0.21857533887E+02  0.00000000000E+00 0.  1.
</event>
<event>
 7    1  0.1345786E-013  0.7246154E+02  0.7816164E-02  0.1226708E+00
        -11   -1    0    0    0    0  0.00000000000E+00  0.00000000000E+00  0.45593999997E+02  0.45594000000E+02  0.51100000000E-03 0.  1.
         11   -1    0    0    0    0 -0.00000000000E+00 -0.00000000000E+00 -0.45593999997E+02  0.45594000000E+02  0.51100000000E-03 0. -1.
    9900012    2    1    2    0    0 -0.59567106264E+01 -0.11046259785E+02  0.13898856274E+02  0.72461535773E+02  0.69999955029E+02 0.  0.
         12    1    1    2    0    0  0.59567106264E+01  0.11046259785E+02 -0.13898856274E+02  0.18726464227E+02  0.00000000000E+00 0. -1.
         11    1    3    3    0    0  0.18059663621E+02 -0.18432283660E+02 -0.74657778822E+01  0.26863327617E+02  0.51100000000E-03 0. -1.
        -11    1    3    3    0    0 -0.18147782506E+02 -0.90864227763E+01  0.19270338992E+02  0.27986622767E+02  0.51100000000E-03 0.  1.
         12    1    3    3    0    0 -0.58685917417E+01  0.16472446651E+02  0.20942951635E+01  0.17611585389E+02  0.00000000000E+00 0. -1.
</event>
<event>
 7    1  0.1345786E-013  0.7246154E+02  0.7816164E-02  0.1226708E+00
        -11   -1    0    0    0    0  0.00000000000E+00  0.00000000000E+00  0.45593999997E+02  0.45594000000E+02  0.51100000000E-03 0.  1.
         11   -1    0    0    0    0 -0.00000000000E+00 -0.00000000000E+00 -0.45593999997E+02  0.45594000000E+02  0.51100000000E-03 0. -1.
    9900012    2    1    2    0    0 -0.14040389080E+02  0.88668625966E+01  0.86560123965E+01  0.72461539351E+02  0.69999959691E+02 0.  0.
         12    1    1    2    0    0  0.14040389080E+02 -0.88668625966E+01 -0.86560123965E+01  0.18726460649E+02  0.00000000000E+00 0. -1.
         11    1    3    3    0    0  0.95661696432E+01 -0.44059397040E+01 -0.23938677696E+02  0.26153091527E+02  0.51100000000E-03 0. -1.
        -11    1    3    3    0    0 -0.83848643615E+01 -0.36940196846E+00  0.69493213822E+00  0.84217182994E+01  0.51100000000E-03 0.  1.
         12    1    3    3    0    0 -0.15221694362E+02  0.13642204269E+02  0.31899757954E+02  0.37886729525E+02  0.00000000000E+00 0. -1.
</event>
<event>
 7    1  0.1345786E-013  0.7246223E+02  0.7816164E-02  0.1226706E+00
        -11   -1    0    0    0    0  0.00000000000E+00  0.00000000000E+00  0.45593999997E+02  0.45594000000E+02  0.51100000000E-03 0. -1.
         11   -1    0    0    0    0 -0.00000000000E+00 -0.00000000000E+00 -0.45593999997E+02  0.45594000000E+02  0.51100000000E-03 0.  1.
    9900012    2    1    2    0    0  0.18066992035E+02  0.48448254255E+01  0.87511458444E+00  0.72462232723E+02  0.70000862931E+02 0.  0.
         12    1    1    2    0    0 -0.18066992035E+02 -0.48448254255E+01 -0.87511458444E+00  0.18725767277E+02  0.00000000000E+00 0. -1.
         11    1    3    3    0    0 -0.28422430539E+01 -0.35936118815E+01  0.56448392430E+01  0.72702546223E+01  0.51100000000E-03 0. -1.
        -11    1    3    3    0    0 -0.90825516170E+00  0.28897495130E+02 -0.16237491452E+02  0.33159407129E+02  0.51100000000E-03 0.  1.
        -12    1    3    3    0    0  0.21817490250E+02 -0.20459057823E+02  0.11467766793E+02  0.32032570972E+02  0.00000000000E+00 0.  1.
</event>
<event>
 7    1  0.1345786E-013  0.7246096E+02  0.7816164E-02  0.1226710E+00
        -11   -1    0    0    0    0  0.00000000000E+00  0.00000000000E+00  0.45593999997E+02  0.45594000000E+02  0.51100000000E-03 0.  1.
         11   -1    0    0    0    0 -0.00000000000E+00 -0.00000000000E+00 -0.45593999997E+02  0.45594000000E+02  0.51100000000E-03 0. -1.
    9900012    2    1    2    0    0 -0.54729358633E+01 -0.17734051257E+02  0.25004490802E+01  0.72460964822E+02  0.69999211255E+02 0.  0.
         12    1    1    2    0    0  0.54729358633E+01  0.17734051257E+02 -0.25004490802E+01  0.18727035178E+02  0.00000000000E+00 0. -1.
         11    1    3    3    0    0  0.24493589280E+02 -0.31243246930E+01  0.30985521481E+01  0.24885705661E+02  0.51100000000E-03 0.  1.
        -11    1    3    3    0    0 -0.22301006280E+02  0.64808783809E+00  0.12933732593E+02  0.25788298470E+02  0.51100000000E-03 0. -1.
        -12    1    3    3    0    0 -0.76655188630E+01 -0.15257814402E+02 -0.13531835661E+02  0.21786960690E+02  0.00000000000E+00 0.  1.
</event>
<event>
 7    1  0.1345786E-013  0.7246155E+02  0.7816164E-02  0.1226708E+00
        -11   -1    0    0    0    0  0.00000000000E+00  0.00000000000E+00  0.45593999997E+02  0.45594000000E+02  0.51100000000E-03 0. -1.
         11   -1    0    0    0    0 -0.00000000000E+00 -0.00000000000E+00 -0.45593999997E+02  0.45594000000E+02  0.51100000000E-03 0.  1.
    9900012    2    1    2    0    0  0.13356693637E+02  0.84202584867E+01 -0.10068663912E+02  0.72461547830E+02  0.69999970737E+02 0.  0.
         12    1    1    2    0    0 -0.13356693637E+02 -0.84202584867E+01  0.10068663912E+02  0.18726452170E+02  0.00000000000E+00 0. -1.
         11    1    3    3    0    0  0.13762941901E+02 -0.24123297472E+00 -0.97033245173E+01  0.16841355945E+02  0.51100000000E-03 0. -1.
        -11    1    3    3    0    0 -0.26114995305E+02 -0.22100459797E+01  0.62301159247E+01  0.26938664178E+02  0.51100000000E-03 0.  1.
        -12    1    3    3    0    0  0.25708747041E+02  0.10871537441E+02 -0.65954553192E+01  0.28681527707E+02  0.00000000000E+00 0.  1.
</event>
<event>
 7    1  0.1345786E-013  0.7246164E+02  0.7816164E-02  0.1226708E+00
        -11   -1    0    0    0    0  0.00000000000E+00  0.00000000000E+00  0.45593999997E+02  0.45594000000E+02  0.51100000000E-03 0.  1.
         11   -1    0    0    0    0 -0.00000000000E+00 -0.00000000000E+00 -0.45593999997E+02  0.45594000000E+02  0.51100000000E-03 0. -1.
    9900012    2    1    2    0    0  0.54069063369E+00  0.14860557617E+02  0.11381912628E+02  0.72461642797E+02  0.70000094448E+02 0.  0.
         12    1    1    2    0    0 -0.54069063369E+00 -0.14860557617E+02 -0.11381912628E+02  0.18726357203E+02  0.00000000000E+00 0. -1.
         11    1    3    3    0    0  0.15197764005E+02  0.11850441807E+02 -0.17382291247E+02  0.25952823565E+02  0.51100000000E-03 0. -1.
        -11    1    3    3    0    0 -0.42093587950E+01 -0.44653570075E+01  0.32544077778E+02  0.33117595223E+02  0.51100000000E-03 0.  1.
        -12    1    3    3    0    0 -0.10447714576E+02  0.74754728173E+01 -0.37798739038E+01  0.13391224008E+02  0.00000000000E+00 0.  1.
</event>
<event>
 7    1  0.1345786E-013  0.7246153E+02  0.7816164E-02  0.1226708E+00
        -11   -1    0    0    0    0  0.00000000000E+00  0.00000000000E+00  0.45593999997E+02  0.45594000000E+02  0.51100000000E-03 0.  1.
         11   -1    0    0    0    0 -0.00000000000E+00 -0.00000000000E+00 -0.45593999997E+02  0.45594000000E+02  0.51100000000E-03 0. -1.
    9900012    2    1    2    0    0 -0.30413450756E+01 -0.17511369268E+02 -0.58977062324E+01  0.72461527499E+02  0.69999944251E+02 0.  0.
         12    1    1    2    0    0  0.30413450756E+01  0.17511369268E+02  0.58977062324E+01  0.18726472501E+02  0.00000000000E+00 0. -1.
         11    1    3    3    0    0 -0.13307156317E+02  0.15877643926E+02 -0.23010823390E+02  0.30962525402E+02  0.51100000000E-03 0. -1.
        -11    1    3    3    0    0 -0.15608893355E+01 -0.61504155916E+01 -0.14100189839E+01  0.65001647104E+01  0.51100000000E-03 0.  1.
         12    1    3    3    0    0  0.11826700577E+02 -0.27238597603E+02  0.18523136141E+02  0.34998837387E+02  0.00000000000E+00 0. -1.
</event>
<event>
 7    1  0.1345786E-013  0.7246161E+02  0.7816164E-02  0.1226708E+00
        -11   -1    0    0    0    0  0.00000000000E+00  0.00000000000E+00  0.45593999997E+02  0.45594000000E+02  0.51100000000E-03 0.  1.
         11   -1    0    0    0    0 -0.00000000000E+00 -0.00000000000E+00 -0.45593999997E+02  0.45594000000E+02  0.51100000000E-03 0. -1.
    9900012    2    1    2    0    0 -0.14852247760E+02  0.57614202082E+01  0.98435050878E+01  0.72461606360E+02  0.70000046982E+02 0.  0.
         12    1    1    2    0    0  0.14852247760E+02 -0.57614202082E+01 -0.98435050878E+01  0.18726393640E+02  0.00000000000E+00 0. -1.
         11    1    3    3    0    0 -0.17313973208E+02 -0.11982625798E+02 -0.58532919204E+01  0.21854473588E+02  0.51100000000E-03 0. -1.
        -11    1    3    3    0    0 -0.63264888710E+01  0.18325943131E+02  0.28861130327E+02  0.34768225394E+02  0.51100000000E-03 0.  1.
         12    1    3    3    0    0  0.87882143191E+01 -0.58189712548E+00 -0.13164333318E+02  0.15838907377E+02  0.00000000000E+00 0. -1.
</event>
<event>
 7    1  0.1345786E-013  0.7246156E+02  0.7816164E-02  0.1226708E+00
        -11   -1    0    0    0    0  0.00000000000E+00  0.00000000000E+00  0.45593999997E+02  0.45594000000E+02  0.51100000000E-03 0.  1.
         11   -1    0    0    0    0 -0.00000000000E+00 -0.00000000000E+00 -0.45593999997E+02  0.45594000000E+02  0.51100000000E-03 0. -1.
    9900012    2    1    2    0    0 -0.43114939088E+01  0.13482095953E+02  0.12260661362E+02  0.72461555915E+02  0.69999981269E+02 0.  0.
         12    1    1    2    0    0  0.43114939088E+01 -0.13482095953E+02 -0.12260661362E+02  0.18726444085E+02  0.00000000000E+00 0. -1.
         11    1    3    3    0    0  0.77936344219E+01 -0.14083510035E+02  0.23539666218E+02  0.28516694731E+02  0.51100000000E-03 0.  1.
        -11    1    3    3    0    0 -0.17754936704E+02  0.29509829737E+02 -0.14251154515E+02  0.37271480165E+02  0.51100000000E-03 0. -1.
         12    1    3    3    0    0  0.56498083731E+01 -0.19442237483E+01  0.29721496588E+01  0.66733810194E+01  0.00000000000E+00 0. -1.
</event>
<event>
 7    1  0.1345786E-013  0.7246154E+02  0.7816164E-02  0.1226708E+00
        -11   -1    0    0    0    0  0.00000000000E+00  0.00000000000E+00  0.45593999997E+02  0.45594000000E+02  0.51100000000E-03 0. -1.
         11   -1    0    0    0    0 -0.00000000000E+00 -0.00000000000E+00 -0.45593999997E+02  0.45594000000E+02  0.51100000000E-03 0.  1.
    9900012    2    1    2    0    0 -0.68124336055E+01 -0.72098316553E+01 -0.15883624645E+02  0.72461535946E+02  0.69999955255E+02 0.  0.
         12    1    1    2    0    0  0.68124336055E+01  0.72098316553E+01  0.15883624645E+02  0.18726464054E+02  0.00000000000E+00 0. -1.
         11    1    3    3    0    0  0.78366641704E+01  0.15340611383E+02 -0.84159612832E+01  0.19172273405E+02  0.51100000000E-03 0. -1.
        -11    1    3    3    0    0 -0.27904462325E+02 -0.24519884897E+02  0.14792094172E+01  0.37176226729E+02  0.51100000000E-03 0.  1.
         12    1    3    3    0    0  0.13255364549E+02  0.19694418588E+01 -0.89468727785E+01  0.16113035812E+02  0.00000000000E+00 0. -1.
</event>
<event>
 7    1  0.1345786E-013  0.7246156E+02  0.7816164E-02  0.1226708E+00
        -11   -1    0    0    0    0  0.00000000000E+00  0.00000000000E+00  0.45593999997E+02  0.45594000000E+02  0.51100000000E-03 0.  1.
         11   -1    0    0    0    0 -0.00000000000E+00 -0.00000000000E+00 -0.45593999997E+02  0.45594000000E+02  0.51100000000E-03 0. -1.
    9900012    2    1    2    0    0  0.19767403596E+01 -0.12495893629E+02  0.13806693106E+02  0.72461557878E+02  0.69999983825E+02 0.  0.
         12    1    1    2    0    0 -0.19767403596E+01  0.12495893629E+02 -0.13806693106E+02  0.18726442122E+02  0.00000000000E+00 0. -1.
         11    1    3    3    0    0 -0.25554092222E+02  0.11810344079E+02  0.39765153395E+01  0.28430767331E+02  0.51100000000E-03 0. -1.
        -11    1    3    3    0    0  0.27688620759E+02 -0.11645150304E+02  0.48611190118E+01  0.30428600419E+02  0.51100000000E-03 0.  1.
         12    1    3    3    0    0 -0.15778817763E+00 -0.12661087404E+02  0.49690587549E+01  0.13602190128E+02  0.00000000000E+00 0. -1.
</event>
<event>
 7    1  0.1345786E-013  0.7246157E+02  0.7816164E-02  0.1226708E+00
        -11   -1    0    0    0    0  0.00000000000E+00  0.00000000000E+00  0.45593999997E+02  0.45594000000E+02  0.51100000000E-03 0. -1.
         11   -1    0    0    0    0 -0.00000000000E+00 -0.00000000000E+00 -0.45593999997E+02  0.45594000000E+02  0.51100000000E-03 0.  1.
    9900012    2    1    2    0    0  0.33409691471E+01  0.76700573907E+00 -0.18410021120E+02  0.72461568137E+02  0.69999997190E+02 0.  0.
         12    1    1    2    0    0 -0.33409691471E+01 -0.76700573907E+00  0.18410021120E+02  0.18726431863E+02  0.00000000000E+00 0. -1.
         11    1    3    3    0    0  0.18359972731E+01 -0.26779625956E+02 -0.21174752753E+02  0.34189024653E+02  0.51100000000E-03 0. -1.
        -11    1    3    3    0    0  0.10206900336E+02  0.22337173682E+02  0.92402185356E+01  0.26239508025E+02  0.51100000000E-03 0.  1.
        -12    1    3    3    0    0 -0.87019284616E+01  0.52094580130E+01 -0.64754869031E+01  0.12033035460E+02  0.00000000000E+00 0.  1.
</event>
<event>
 7    1  0.1345786E-013  0.7246159E+02  0.7816164E-02  0.1226708E+00
        -11   -1    0    0    0    0  0.00000000000E+00  0.00000000000E+00  0.45593999997E+02  0.45594000000E+02  0.51100000000E-03 0. -1.
         11   -1    0    0    0    0 -0.00000000000E+00 -0.00000000000E+00 -0.45593999997E+02  0.45594000000E+02  0.51100000000E-03 0.  1.
    9900012    2    1    2    0    0  0.17177460587E+02  0.40392901395E+01 -0.62687782806E+01  0.72461585549E+02  0.70000019872E+02 0.  0.
         12    1    1    2    0    0 -0.17177460587E+02 -0.40392901395E+01  0.62687782806E+01  0.18726414451E+02  0.00000000000E+00 0. -1.
         11    1    3    3    0    0  0.29671643525E+02 -0.51777387768E+01  0.15542347669E+02  0.33893656923E+02  0.51100000000E-03 0. -1.
        -11    1    3    3    0    0 -0.14434645524E+02 -0.57246020245E+01 -0.57842359042E+01  0.16570680281E+02  0.51100000000E-03 0.  1.
         12    1    3    3    0    0  0.19404625862E+01  0.14941630941E+02 -0.16026890045E+02  0.21997248345E+02  0.00000000000E+00 0. -1.
</event>
<event>
 7    1  0.1345786E-013  0.7246160E+02  0.7816164E-02  0.1226708E+00
        -11   -1    0    0    0    0  0.00000000000E+00  0.00000000000E+00  0.45593999997E+02  0.45594000000E+02  0.51100000000E-03 0.  1.
         11   -1    0    0    0    0 -0.00000000000E+00 -0.00000000000E+00 -0.45593999997E+02  0.45594000000E+02  0.51100000000E-03 0. -1.
    9900012    2    1    2    0    0  0.19382466521E+00 -0.13911141476E+02  0.12534783190E+02  0.72461595786E+02  0.70000033208E+02 0.  0.
         12    1    1    2    0    0 -0.19382466521E+00  0.13911141476E+02 -0.12534783190E+02  0.18726404214E+02  0.00000000000E+00 0. -1.
         11    1    3    3    0    0  0.33426106631E+01  0.37870684695E+01 -0.15184396633E+02  0.16002525894E+02  0.51100000000E-03 0. -1.
        -11    1    3    3    0    0 -0.17957220335E+02 -0.83282229882E+01  0.32714702128E+02  0.38237060502E+02  0.51100000000E-03 0.  1.
         12    1    3    3    0    0  0.14808434337E+02 -0.93699869569E+01 -0.49955223045E+01  0.18222009389E+02  0.00000000000E+00 0. -1.
</event>
<event>
 7    1  0.1345786E-013  0.7246155E+02  0.7816164E-02  0.1226708E+00
        -11   -1    0    0    0    0  0.00000000000E+00  0.00000000000E+00  0.45593999997E+02  0.45594000000E+02  0.51100000000E-03 0.  1.
         11   -1    0    0    0    0 -0.00000000000E+00 -0.00000000000E+00 -0.45593999997E+02  0.45594000000E+02  0.51100000000E-03 0. -1.
    9900012    2    1    2    0    0  0.63866744178E+01  0.16508298502E+02 -0.61128087408E+01  0.72461549182E+02  0.69999972497E+02 0.  0.
         12    1    1    2    0    0 -0.63866744178E+01 -0.16508298502E+02  0.61128087408E+01  0.18726450818E+02  0.00000000000E+00 0. -1.
         11    1    3    3    0    0 -0.27515408389E+02  0.79213983055E-01 -0.74056027895E+01  0.28494682427E+02  0.51100000000E-03 0. -1.
        -11    1    3    3    0    0  0.16832599940E+02  0.20349915955E+02  0.14955357222E+01  0.26451694227E+02  0.51100000000E-03 0.  1.
         12    1    3    3    0    0  0.17069482867E+02 -0.39208314358E+01 -0.20274167346E+00  0.17515172528E+02  0.00000000000E+00 0. -1.
</event>
<event>
 7    1  0.1345786E-013  0.7246150E+02  0.7816164E-02  0.1226708E+00
        -11   -1    0    0    0    0  0.00000000000E+00  0.00000000000E+00  0.45593999997E+02  0.45594000000E+02  0.51100000000E-03 0.  1.
         11   -1    0    0    0    0 -0.00000000000E+00 -0.00000000000E+00 -0.45593999997E+02  0.45594000000E+02  0.51100000000E-03 0. -1.
    9900012    2    1    2    0    0  0.13642295477E+02  0.91992817423E+01  0.89410706324E+01  0.72461501275E+02  0.69999910089E+02 0.  0.
         12    1    1    2    0    0 -0.13642295477E+02 -0.91992817423E+01 -0.89410706324E+01  0.18726498725E+02  0.00000000000E+00 0. -1.
         11    1    3    3    0    0  0.32394477702E+02 -0.21555403035E-01 -0.12308133069E+02  0.34653900071E+02  0.51100000000E-03 0. -1.
        -11    1    3    3    0    0 -0.20660708682E+02  0.14756407436E+02  0.17863727399E+02  0.31043988154E+02  0.51100000000E-03 0.  1.
         12    1    3    3    0    0  0.19085264576E+01 -0.55355702909E+01  0.33854763029E+01  0.67636130494E+01  0.00000000000E+00 0. -1.
</event>
<event>
 7    1  0.1345786E-013  0.7246158E+02  0.7816164E-02  0.1226708E+00
        -11   -1    0    0    0    0  0.00000000000E+00  0.00000000000E+00  0.45593999997E+02  0.45594000000E+02  0.51100000000E-03 0.  1.
         11   -1    0    0    0    0 -0.00000000000E+00 -0.00000000000E+00 -0.45593999997E+02  0.45594000000E+02  0.51100000000E-03 0. -1.
    9900012    2    1    2    0    0  0.97768204718E+01  0.88702854957E+01  0.13281971555E+02  0.72461576110E+02  0.70000007576E+02 0.  0.
         12    1    1    2    0    0 -0.97768204718E+01 -0.88702854957E+01 -0.13281971555E+02  0.18726423890E+02  0.00000000000E+00 0. -1.
         11    1    3    3    0    0  0.18102519976E+02  0.11035287408E+02  0.34278765273E+02  0.40305242172E+02  0.51100000000E-03 0. -1.
        -11    1    3    3    0    0 -0.15185030414E+02  0.40457918469E+00 -0.78311230198E+01  0.17090211262E+02  0.51100000000E-03 0.  1.
         12    1    3    3    0    0  0.68593309093E+01 -0.25695810969E+01 -0.13165670698E+02  0.15066122675E+02  0.00000000000E+00 0. -1.
</event>
<event>
 7    1  0.1345786E-013  0.7246158E+02  0.7816164E-02  0.1226708E+00
        -11   -1    0    0    0    0  0.00000000000E+00  0.00000000000E+00  0.45593999997E+02  0.45594000000E+02  0.51100000000E-03 0. -1.
         11   -1    0    0    0    0 -0.00000000000E+00 -0.00000000000E+00 -0.45593999997E+02  0.45594000000E+02  0.51100000000E-03 0.  1.
    9900012    2    1    2    0    0 -0.12984602875E+02  0.32073303479E+01 -0.13106938724E+02  0.72461582230E+02  0.70000015548E+02 0.  0.
         12    1    1    2    0    0  0.12984602875E+02 -0.32073303479E+01  0.13106938724E+02  0.18726417770E+02  0.00000000000E+00 0. -1.
         11    1    3    3    0    0  0.23355168562E+02  0.70995614087E+01 -0.79814502423E+01  0.25682118663E+02  0.51100000000E-03 0.  1.
        -11    1    3    3    0    0 -0.40981332878E+02 -0.94406628695E+00 -0.42581711100E+01  0.41212776261E+02  0.51100000000E-03 0. -1.
         12    1    3    3    0    0  0.46415614414E+01 -0.29481647739E+01 -0.86731737194E+00  0.55666873068E+01  0.00000000000E+00 0. -1.
</event>
<event>
 7    1  0.1345786E-013  0.7246159E+02  0.7816164E-02  0.1226708E+00
        -11   -1    0    0    0    0  0.00000000000E+00  0.00000000000E+00  0.45593999997E+02  0.45594000000E+02  0.51100000000E-03 0.  1.
         11   -1    0    0    0    0 -0.00000000000E+00 -0.00000000000E+00 -0.45593999997E+02  0.45594000000E+02  0.51100000000E-03 0. -1.
    9900012    2    1    2    0    0 -0.11558633682E+02 -0.14481810283E+02  0.27117545382E+01  0.72461589389E+02  0.70000024874E+02 0.  0.
         12    1    1    2    0    0  0.11558633682E+02  0.14481810283E+02 -0.27117545382E+01  0.18726410611E+02  0.00000000000E+00 0. -1.
         11    1    3    3    0    0  0.25268812950E+02 -0.21259191336E+02 -0.34656228028E+01  0.33203564053E+02  0.51100000000E-03 0. -1.
        -11    1    3    3    0    0 -0.93052495187E+01  0.62300719456E+01  0.95048322901E+00  0.11238544554E+02  0.51100000000E-03 0.  1.
         12    1    3    3    0    0 -0.27522197114E+02  0.54730910701E+00  0.52268941119E+01  0.28019480782E+02  0.00000000000E+00 0. -1.
</event>
<event>
 7    1  0.1345786E-013  0.7246164E+02  0.7816164E-02  0.1226708E+00
        -11   -1    0    0    0    0  0.00000000000E+00  0.00000000000E+00  0.45593999997E+02  0.45594000000E+02  0.51100000000E-03 0.  1.
         11   -1    0    0    0    0 -0.00000000000E+00 -0.00000000000E+00 -0.45593999997E+02  0.45594000000E+02  0.51100000000E-03 0. -1.
    9900012    2    1    2    0    0 -0.15133545236E+02 -0.92567652122E+01  0.59970392549E+01  0.72461644951E+02  0.70000097254E+02 0.  0.
         12    1    1    2    0    0  0.15133545236E+02  0.92567652122E+01 -0.59970392549E+01  0.18726355049E+02  0.00000000000E+00 0. -1.
         11    1    3    3    0    0 -0.33899710330E+02 -0.10134446028E+02  0.77085630228E+00  0.35390557730E+02  0.51100000000E-03 0.  1.
        -11    1    3    3    0    0 -0.35249241754E+01  0.10104189641E+02  0.71487110655E+01  0.12869491400E+02  0.51100000000E-03 0. -1.
         12    1    3    3    0    0  0.22291089269E+02 -0.92265088258E+01 -0.19225281129E+01  0.24201595820E+02  0.00000000000E+00 0. -1.
</event>
<event>
 7    1  0.1345786E-013  0.7246157E+02  0.7816164E-02  0.1226708E+00
        -11   -1    0    0    0    0  0.00000000000E+00  0.00000000000E+00  0.45593999997E+02  0.45594000000E+02  0.51100000000E-03 0.  1.
         11   -1    0    0    0    0 -0.00000000000E+00 -0.00000000000E+00 -0.45593999997E+02  0.45594000000E+02  0.51100000000E-03 0. -1.
    9900012    2    1    2    0    0 -0.32506188400E+01  0.31610523032E+01  0.18169212438E+02  0.72461573349E+02  0.70000003979E+02 0.  0.
         12    1    1    2    0    0  0.32506188400E+01 -0.31610523032E+01 -0.18169212438E+02  0.18726426651E+02  0.00000000000E+00 0. -1.
         11    1    3    3    0    0  0.25114887614E+02 -0.12408296105E+02  0.67417249014E+01  0.28812744524E+02  0.51100000000E-03 0. -1.
        -11    1    3    3    0    0 -0.29281671792E+02  0.32611681062E+01  0.10476824956E+02  0.31270039682E+02  0.51100000000E-03 0.  1.
        -12    1    3    3    0    0  0.91616533799E+00  0.12308180303E+02  0.95066258115E+00  0.12378789142E+02  0.00000000000E+00 0.  1.
</event>
<event>
 7    1  0.1345786E-013  0.7246156E+02  0.7816164E-02  0.1226708E+00
        -11   -1    0    0    0    0  0.00000000000E+00  0.00000000000E+00  0.45593999997E+02  0.45594000000E+02  0.51100000000E-03 0.  1.
         11   -1    0    0    0    0 -0.00000000000E+00 -0.00000000000E+00 -0.45593999997E+02  0.45594000000E+02  0.51100000000E-03 0. -1.
    9900012    2    1    2    0    0  0.25532189653E+01 -0.38435877448E+01  0.18149039004E+02  0.72461555847E+02  0.69999981180E+02 0.  0.
         12    1    1    2    0    0 -0.25532189653E+01  0.38435877448E+01 -0.18149039004E+02  0.18726444153E+02  0.00000000000E+00 0. -1.
         11    1    3    3    0    0 -0.34281908867E+01 -0.18536947396E+02 -0.15141150848E+02  0.24179027292E+02  0.51100000000E-03 0. -1.
        -11    1    3    3    0    0  0.80482860250E+01 -0.65196318674E+01  0.21644209744E+02  0.23994839514E+02  0.51100000000E-03 0.  1.
         12    1    3    3    0    0 -0.20668761729E+01  0.21212991519E+02  0.11645980108E+02  0.24287689041E+02  0.00000000000E+00 0. -1.
</event>
<event>
 7    1  0.1345786E-013  0.7246150E+02  0.7816164E-02  0.1226708E+00
        -11   -1    0    0    0    0  0.00000000000E+00  0.00000000000E+00  0.45593999997E+02  0.45594000000E+02  0.51100000000E-03 0.  1.
         11   -1    0    0    0    0 -0.00000000000E+00 -0.00000000000E+00 -0.45593999997E+02  0.45594000000E+02  0.51100000000E-03 0. -1.
    9900012    2    1    2    0    0 -0.11742321810E+02  0.14107801146E+02 -0.37107407188E+01  0.72461500825E+02  0.69999909503E+02 0.  0.
         12    1    1    2    0    0  0.11742321810E+02 -0.14107801146E+02  0.37107407188E+01  0.18726499175E+02  0.00000000000E+00 0. -1.
         11    1    3    3    0    0  0.24911508859E+02  0.41507544856E+01 -0.14921563649E+02  0.29333685388E+02  0.51100000000E-03 0. -1.
        -11    1    3    3    0    0 -0.15172856487E+02 -0.41236425731E+01  0.65048329269E+01  0.17015664951E+02  0.51100000000E-03 0.  1.
         12    1    3    3    0    0 -0.21480974182E+02  0.14080689234E+02  0.47059900033E+01  0.26112150486E+02  0.00000000000E+00 0. -1.
</event>
<event>
 7    1  0.1345786E-013  0.7246132E+02  0.7816164E-02  0.1226709E+00
        -11   -1    0    0    0    0  0.00000000000E+00  0.00000000000E+00  0.45593999997E+02  0.45594000000E+02  0.51100000000E-03 0. -1.
         11   -1    0    0    0    0 -0.00000000000E+00 -0.00000000000E+00 -0.45593999997E+02  0.45594000000E+02  0.51100000000E-03 0.  1.
    9900012    2    1    2    0    0  0.29149194244E+01  0.18133668434E+02 -0.36554026643E+01  0.72461317038E+02  0.69999670086E+02 0.  0.
         12    1    1    2    0    0 -0.29149194244E+01 -0.18133668434E+02  0.36554026643E+01  0.18726682962E+02  0.00000000000E+00 0. -1.
         11    1    3    3    0    0 -0.48024590091E+01 -0.31495319669E+01  0.55635466271E+01  0.79960124736E+01  0.51100000000E-03 0. -1.
        -11    1    3    3    0    0 -0.54404581207E+01  0.39264537938E+02 -0.13303879795E+02  0.41812626585E+02  0.51100000000E-03 0.  1.
        -12    1    3    3    0    0  0.13157836554E+02 -0.17981337538E+02  0.40849305036E+01  0.22652677980E+02  0.00000000000E+00 0.  1.
</event>
<event>
 7    1  0.1345786E-013  0.7246156E+02  0.7816164E-02  0.1226708E+00
        -11   -1    0    0    0    0  0.00000000000E+00  0.00000000000E+00  0.45593999997E+02  0.45594000000E+02  0.51100000000E-03 0.  1.
         11   -1    0    0    0    0 -0.00000000000E+00 -0.00000000000E+00 -0.45593999997E+02  0.45594000000E+02  0.51100000000E-03 0. -1.
    9900012    2    1    2    0    0  0.53655371896E+01 -0.17371937922E+02  0.44840223660E+01  0.72461556849E+02  0.69999982485E+02 0.  0.
         12    1    1    2    0    0 -0.53655371896E+01  0.17371937922E+02 -0.44840223660E+01  0.18726443151E+02  0.00000000000E+00 0. -1.
         11    1    3    3    0    0 -0.25167678773E+01  0.74014677077E+01  0.10537613571E+02  0.13120866770E+02  0.51100000000E-03 0.  1.
        -11    1    3    3    0    0  0.29473658443E+02 -0.84389246066E+01 -0.93854951210E+01  0.32062431434E+02  0.51100000000E-03 0. -1.
        -12    1    3    3    0    0 -0.21591353377E+02 -0.16334481024E+02  0.33319039161E+01  0.27278258644E+02  0.00000000000E+00 0.  1.
</event>
<event>
 7    1  0.1345786E-013  0.7246158E+02  0.7816164E-02  0.1226708E+00
        -11   -1    0    0    0    0  0.00000000000E+00  0.00000000000E+00  0.45593999997E+02  0.45594000000E+02  0.51100000000E-03 0. -1.
         11   -1    0    0    0    0 -0.00000000000E+00 -0.00000000000E+00 -0.45593999997E+02  0.45594000000E+02  0.51100000000E-03 0.  1.
    9900012    2    1    2    0    0  0.30175562737E+01  0.14212316111E+02 -0.11814536146E+02  0.72461579108E+02  0.70000011481E+02 0.  0.
         12    1    1    2    0    0 -0.30175562737E+01 -0.14212316111E+02  0.11814536146E+02  0.18726420892E+02  0.00000000000E+00 0. -1.
         11    1    3    3    0    0  0.13884907584E+02  0.33504009807E+01  0.26458173383E+02  0.30067437276E+02  0.51100000000E-03 0. -1.
        -11    1    3    3    0    0 -0.40004926102E+01  0.10548730184E+02 -0.21845373264E+02  0.24586581359E+02  0.51100000000E-03 0.  1.
         12    1    3    3    0    0 -0.68668587005E+01  0.31318494563E+00 -0.16427336264E+02  0.17807560472E+02  0.00000000000E+00 0. -1.
</event>
<event>
 7    1  0.1345786E-013  0.7246149E+02  0.7816164E-02  0.1226708E+00
        -11   -1    0    0    0    0  0.00000000000E+00  0.00000000000E+00  0.45593999997E+02  0.45594000000E+02  0.51100000000E-03 0.  1.
         11   -1    0    0    0    0 -0.00000000000E+00 -0.00000000000E+00 -0.45593999997E+02  0.45594000000E+02  0.51100000000E-03 0. -1.
    9900012    2    1    2    0    0 -0.94525036209E+01  0.10312412514E+02  0.12449354682E+02  0.72461491822E+02  0.69999897775E+02 0.  0.
         12    1    1    2    0    0  0.94525036209E+01 -0.10312412514E+02 -0.12449354682E+02  0.18726508178E+02  0.00000000000E+00 0. -1.
         11    1    3    3    0    0  0.24141647507E+02  0.15469972328E+02  0.60416636363E+01  0.29302574766E+02  0.51100000000E-03 0. -1.
        -11    1    3    3    0    0 -0.25114039808E+02 -0.11039335762E+02 -0.48806560873E+01  0.27864004265E+02  0.51100000000E-03 0.  1.
         12    1    3    3    0    0 -0.84801113196E+01  0.58817759475E+01  0.11288347133E+02  0.15294912791E+02  0.00000000000E+00 0. -1.
</event>
<event>
 7    1  0.1345786E-013  0.7246157E+02  0.7816164E-02  0.1226708E+00
        -11   -1    0    0    0    0  0.00000000000E+00  0.00000000000E+00  0.45593999997E+02  0.45594000000E+02  0.51100000000E-03 0.  1.
         11   -1    0    0    0    0 -0.00000000000E+00 -0.00000000000E+00 -0.45593999997E+02  0.45594000000E+02  0.51100000000E-03 0. -1.
    9900012    2    1    2    0    0 -0.14921970625E+02 -0.11163972035E+02  0.18384417717E+01  0.72461565553E+02  0.69999993824E+02 0.  0.
         12    1    1    2    0    0  0.14921970625E+02  0.11163972035E+02 -0.18384417717E+01  0.18726434447E+02  0.00000000000E+00 0. -1.
         11    1    3    3    0    0  0.74288494866E+01  0.42760424641E+01  0.17754882301E+01  0.87535537107E+01  0.51100000000E-03 0. -1.
        -11    1    3    3    0    0 -0.14657561303E+02  0.91031586600E+01  0.23335280240E+02  0.29021490400E+02  0.51100000000E-03 0.  1.
        -12    1    3    3    0    0 -0.76932588091E+01 -0.24543173159E+02 -0.23272326698E+02  0.34686521442E+02  0.00000000000E+00 0.  1.
</event>
<event>
 7    1  0.1345786E-013  0.7246157E+02  0.7816164E-02  0.1226708E+00
        -11   -1    0    0    0    0  0.00000000000E+00  0.00000000000E+00  0.45593999997E+02  0.45594000000E+02  0.51100000000E-03 0.  1.
         11   -1    0    0    0    0 -0.00000000000E+00 -0.00000000000E+00 -0.45593999997E+02  0.45594000000E+02  0.51100000000E-03 0. -1.
    9900012    2    1    2    0    0 -0.17100781994E+02 -0.61550991898E+01  0.45118887665E+01  0.72461571321E+02  0.70000001337E+02 0.  0.
         12    1    1    2    0    0  0.17100781994E+02  0.61550991898E+01 -0.45118887665E+01  0.18726428679E+02  0.00000000000E+00 0. -1.
         11    1    3    3    0    0 -0.24499129909E+02  0.20469203527E+02 -0.17786508520E+02  0.36545253384E+02  0.51100000000E-03 0. -1.
        -11    1    3    3    0    0  0.60440626224E+01 -0.17823149841E+02  0.17945732712E+02  0.26004705076E+02  0.51100000000E-03 0.  1.
         12    1    3    3    0    0  0.13542852923E+01 -0.88011528757E+01  0.43526645743E+01  0.99116128602E+01  0.00000000000E+00 0. -1.
</event>
<event>
 7    1  0.1345786E-013  0.7246164E+02  0.7816164E-02  0.1226708E+00
        -11   -1    0    0    0    0  0.00000000000E+00  0.00000000000E+00  0.45593999997E+02  0.45594000000E+02  0.51100000000E-03 0. -1.
         11   -1    0    0    0    0 -0.00000000000E+00 -0.00000000000E+00 -0.45593999997E+02  0.45594000000E+02  0.51100000000E-03 0.  1.
    9900012    2    1    2    0    0 -0.30660384473E+01  0.12521689257E+02 -0.13582466324E+02  0.72461636630E+02  0.70000086415E+02 0.  0.
         12    1    1    2    0    0  0.30660384473E+01 -0.12521689257E+02  0.13582466324E+02  0.18726363370E+02  0.00000000000E+00 0. -1.
         11    1    3    3    0    0  0.24140562714E+02 -0.72370898305E+01 -0.21727771565E+02  0.33275190380E+02  0.51100000000E-03 0. -1.
        -11    1    3    3    0    0 -0.22885370296E+02  0.20332865587E+02  0.77436160327E+00  0.30622952710E+02  0.51100000000E-03 0.  1.
         12    1    3    3    0    0 -0.43212308659E+01 -0.57408649970E+00  0.73709436374E+01  0.85634935401E+01  0.00000000000E+00 0. -1.
</event>
<event>
 7    1  0.1345786E-013  0.7246166E+02  0.7816164E-02  0.1226708E+00
        -11   -1    0    0    0    0  0.00000000000E+00  0.00000000000E+00  0.45593999997E+02  0.45594000000E+02  0.51100000000E-03 0.  1.
         11   -1    0    0    0    0 -0.00000000000E+00 -0.00000000000E+00 -0.45593999997E+02  0.45594000000E+02  0.51100000000E-03 0. -1.
    9900012    2    1    2    0    0 -0.44085159315E+01  0.69682002952E+01  0.16813240291E+02  0.72461658202E+02  0.70000114516E+02 0.  0.
         12    1    1    2    0    0  0.44085159315E+01 -0.69682002952E+01 -0.16813240291E+02  0.18726341798E+02  0.00000000000E+00 0. -1.
         11    1    3    3    0    0  0.95581763551E+01  0.17163690392E+01  0.69740840464E+01  0.11955856576E+02  0.51100000000E-03 0. -1.
        -11    1    3    3    0    0 -0.78011798259E+01 -0.13723002245E+02 -0.19460829708E+02  0.25057994542E+02  0.51100000000E-03 0.  1.
        -12    1    3    3    0    0 -0.61655124607E+01  0.18974833501E+02  0.29299985952E+02  0.35447807084E+02  0.00000000000E+00 0.  1.
</event>
<event>
 7    1  0.1345786E-013  0.7246159E+02  0.7816164E-02  0.1226708E+00
        -11   -1    0    0    0    0  0.00000000000E+00  0.00000000000E+00  0.45593999997E+02  0.45594000000E+02  0.51100000000E-03 0.  1.
         11   -1    0    0    0    0 -0.00000000000E+00 -0.00000000000E+00 -0.45593999997E+02  0.45594000000E+02  0.51100000000E-03 0. -1.
    9900012    2    1    2    0    0  0.80635571265E+01 -0.15824302041E+02 -0.59370898599E+01  0.72461587514E+02  0.70000022431E+02 0.  0.
         12    1    1    2    0    0 -0.80635571265E+01  0.15824302041E+02  0.59370898599E+01  0.18726412486E+02  0.00000000000E+00 0. -1.
         11    1    3    3    0    0 -0.33956469126E+01  0.94214926823E+01  0.50998433209E+01  0.11238476074E+02  0.51100000000E-03 0. -1.
        -11    1    3    3    0    0  0.19170740453E+02 -0.19341944785E+02  0.16624574186E+02  0.31906184114E+02  0.51100000000E-03 0.  1.
        -12    1    3    3    0    0 -0.77115364140E+01 -0.59038499382E+01 -0.27661507367E+02  0.29316927325E+02  0.00000000000E+00 0.  1.
</event>
<event>
 7    1  0.1345786E-013  0.7246155E+02  0.7816164E-02  0.1226708E+00
        -11   -1    0    0    0    0  0.00000000000E+00  0.00000000000E+00  0.45593999997E+02  0.45594000000E+02  0.51100000000E-03 0.  1.
         11   -1    0    0    0    0 -0.00000000000E+00 -0.00000000000E+00 -0.45593999997E+02  0.45594000000E+02  0.51100000000E-03 0. -1.
    9900012    2    1    2    0    0  0.91361377658E+01 -0.24363793121E+01  0.16164004140E+02  0.72461548460E+02  0.69999971557E+02 0.  0.
         12    1    1    2    0    0 -0.91361377658E+01  0.24363793121E+01 -0.16164004140E+02  0.18726451540E+02  0.00000000000E+00 0. -1.
         11    1    3    3    0    0 -0.20974924027E+02  0.23724730882E+01  0.38499943447E+01  0.21456899198E+02  0.51100000000E-03 0.  1.
        -11    1    3    3    0    0  0.22242943758E+02 -0.20849399437E+02  0.24225632464E+01  0.30582917076E+02  0.51100000000E-03 0. -1.
         12    1    3    3    0    0  0.78681180345E+01  0.16040547037E+02  0.98914465491E+01  0.20421732186E+02  0.00000000000E+00 0. -1.
</event>
<event>
 7    1  0.1345786E-013  0.7246163E+02  0.7816164E-02  0.1226708E+00
        -11   -1    0    0    0    0  0.00000000000E+00  0.00000000000E+00  0.45593999997E+02  0.45594000000E+02  0.51100000000E-03 0. -1.
         11   -1    0    0    0    0 -0.00000000000E+00 -0.00000000000E+00 -0.45593999997E+02  0.45594000000E+02  0.51100000000E-03 0.  1.
    9900012    2    1    2    0    0  0.16101223775E+01 -0.17036803161E+02 -0.76047283372E+01  0.72461626910E+02  0.70000073753E+02 0.  0.
         12    1    1    2    0    0 -0.16101223775E+01  0.17036803161E+02  0.76047283372E+01  0.18726373090E+02  0.00000000000E+00 0. -1.
         11    1    3    3    0    0  0.26889393931E+02 -0.15823568353E+02  0.17188918446E+02  0.35621394400E+02  0.51100000000E-03 0. -1.
        -11    1    3    3    0    0 -0.11252285234E+02 -0.35588796784E+01 -0.59059031368E+01  0.13196940542E+02  0.51100000000E-03 0.  1.
         12    1    3    3    0    0 -0.14026986320E+02  0.23456448701E+01 -0.18887743646E+02  0.23643291969E+02  0.00000000000E+00 0. -1.
</event>
<event>
 7    1  0.1345786E-013  0.7246158E+02  0.7816164E-02  0.1226708E+00
        -11   -1    0    0    0    0  0.00000000000E+00  0.00000000000E+00  0.45593999997E+02  0.45594000000E+02  0.51100000000E-03 0. -1.
         11   -1    0    0    0    0 -0.00000000000E+00 -0.00000000000E+00 -0.45593999997E+02  0.45594000000E+02  0.51100000000E-03 0.  1.
    9900012    2    1    2    0    0 -0.14246917988E+02 -0.10270502077E+02  0.64977508041E+01  0.72461584150E+02  0.70000018050E+02 0.  0.
         12    1    1    2    0    0  0.14246917988E+02  0.10270502077E+02 -0.64977508041E+01  0.18726415850E+02  0.00000000000E+00 0. -1.
         11    1    3    3    0    0 -0.24634986583E+02 -0.32121378974E+02  0.72436701055E+00  0.40486914664E+02  0.51100000000E-03 0.  1.
        -11    1    3    3    0    0  0.15309162449E+02  0.10883444202E+02  0.34940643550E+00  0.18786747928E+02  0.51100000000E-03 0. -1.
        -12    1    3    3    0    0 -0.49210938544E+01  0.10967432695E+02  0.54239773581E+01  0.13187921558E+02  0.00000000000E+00 0.  1.
</event>
<event>
 7    1  0.1345786E-013  0.7246159E+02  0.7816164E-02  0.1226708E+00
        -11   -1    0    0    0    0  0.00000000000E+00  0.00000000000E+00  0.45593999997E+02  0.45594000000E+02  0.51100000000E-03 0.  1.
         11   -1    0    0    0    0 -0.00000000000E+00 -0.00000000000E+00 -0.45593999997E+02  0.45594000000E+02  0.51100000000E-03 0. -1.
    9900012    2    1    2    0    0 -0.11959609200E+02 -0.24592624478E+01  0.14198531468E+02  0.72461587640E+02  0.70000022596E+02 0.  0.
         12    1    1    2    0    0  0.11959609200E+02  0.24592624478E+01 -0.14198531468E+02  0.18726412360E+02  0.00000000000E+00 0. -1.
         11    1    3    3    0    0 -0.13616466892E+02  0.14456470484E+02 -0.11538097933E+02  0.22967921405E+02  0.51100000000E-03 0. -1.
        -11    1    3    3    0    0 -0.69668822066E+01 -0.25072157770E+02  0.27069922574E+02  0.37549051271E+02  0.51100000000E-03 0.  1.
         12    1    3    3    0    0  0.86237398983E+01  0.81564248378E+01 -0.13332931731E+01  0.11944614965E+02  0.00000000000E+00 0. -1.
</event>
<event>
 7    1  0.1345786E-013  0.7246157E+02  0.7816164E-02  0.1226708E+00
        -11   -1    0    0    0    0  0.00000000000E+00  0.00000000000E+00  0.45593999997E+02  0.45594000000E+02  0.51100000000E-03 0.  1.
         11   -1    0    0    0    0 -0.00000000000E+00 -0.00000000000E+00 -0.45593999997E+02  0.45594000000E+02  0.51100000000E-03 0. -1.
    9900012    2    1    2    0    0  0.72403504790E+01  0.62470372262E+01  0.16100649488E+02  0.72461573136E+02  0.70000003701E+02 0.  0.
         12    1    1    2    0    0 -0.72403504790E+01 -0.62470372262E+01 -0.16100649488E+02  0.18726426864E+02  0.00000000000E+00 0. -1.
         11    1    3    3    0    0  0.21956926298E+02 -0.16738484972E+02 -0.75503626335E+01  0.28623267944E+02  0.51100000000E-03 0. -1.
        -11    1    3    3    0    0 -0.10944189043E+02  0.27047152551E+02  0.13234485372E+02  0.32038653814E+02  0.51100000000E-03 0.  1.
        -12    1    3    3    0    0 -0.37723867762E+01 -0.40616303525E+01  0.10416526749E+02  0.11799651378E+02  0.00000000000E+00 0.  1.
</event>
<event>
 7    1  0.1345786E-013  0.7246158E+02  0.7816164E-02  0.1226708E+00
        -11   -1    0    0    0    0  0.00000000000E+00  0.00000000000E+00  0.45593999997E+02  0.45594000000E+02  0.51100000000E-03 0.  1.
         11   -1    0    0    0    0 -0.00000000000E+00 -0.00000000000E+00 -0.45593999997E+02  0.45594000000E+02  0.51100000000E-03 0. -1.
    9900012    2    1    2    0    0  0.14158542949E+01 -0.10255446129E+02  0.15604484907E+02  0.72461581017E+02  0.70000013968E+02 0.  0.
         12    1    1    2    0    0 -0.14158542949E+01  0.10255446129E+02 -0.15604484907E+02  0.18726418983E+02  0.00000000000E+00 0. -1.
         11    1    3    3    0    0  0.15840336513E+02 -0.47415609078E+01 -0.85180131992E+01  0.18599871231E+02  0.51100000000E-03 0. -1.
        -11    1    3    3    0    0 -0.31097457715E+02 -0.39343896729E+01  0.14379626442E+02  0.34486300981E+02  0.51100000000E-03 0.  1.
        -12    1    3    3    0    0  0.16672975497E+02 -0.15794955488E+01  0.97428716643E+01  0.19375408806E+02  0.00000000000E+00 0.  1.
</event>
<event>
 7    1  0.1345786E-013  0.7246171E+02  0.7816164E-02  0.1226708E+00
        -11   -1    0    0    0    0  0.00000000000E+00  0.00000000000E+00  0.45593999997E+02  0.45594000000E+02  0.51100000000E-03 0. -1.
         11   -1    0    0    0    0 -0.00000000000E+00 -0.00000000000E+00 -0.45593999997E+02  0.45594000000E+02  0.51100000000E-03 0.  1.
    9900012    2    1    2    0    0  0.15326663810E+02  0.81333086387E+01 -0.70438975864E+01  0.72461712964E+02  0.70000185854E+02 0.  0.
         12    1    1    2    0    0 -0.15326663810E+02 -0.81333086387E+01  0.70438975864E+01  0.18726287036E+02  0.00000000000E+00 0. -1.
         11    1    3    3    0    0 -0.14705548964E+02  0.14671772192E+02  0.74782181275E+01  0.22077993935E+02  0.51100000000E-03 0. -1.
        -11    1    3    3    0    0  0.95294769054E+01 -0.13093111051E+02 -0.22245102854E+02  0.27515179235E+02  0.51100000000E-03 0.  1.
         12    1    3    3    0    0  0.20502735869E+02  0.65546474979E+01  0.77229871405E+01  0.22868539794E+02  0.00000000000E+00 0. -1.
</event>
<event>
 7    1  0.1856326E-013  0.7246158E+02  0.7816164E-02  0.1226708E+00
        -11   -1    0    0    0    0  0.00000000000E+00  0.00000000000E+00  0.45593999997E+02  0.45594000000E+02  0.51100000000E-03 0. -1.
         11   -1    0    0    0    0 -0.00000000000E+00 -0.00000000000E+00 -0.45593999997E+02  0.45594000000E+02  0.51100000000E-03 0.  1.
    9900012    2    1    2    0    0  0.78515019119E+01  0.10628479029E+02 -0.13269062621E+02  0.72461583589E+02  0.70000017319E+02 0.  0.
         12    1    1    2    0    0 -0.78515019119E+01 -0.10628479029E+02  0.13269062621E+02  0.18726416411E+02  0.00000000000E+00 0. -1.
         11    1    3    3    0    0  0.18023040400E+02 -0.54247955956E+01  0.15893106257E+02  0.24634309799E+02  0.51100000000E-03 0. -1.
        -11    1    3    3    0    0 -0.63792815782E+01  0.24651150318E+02 -0.11754930712E+02  0.28045549411E+02  0.51100000000E-03 0.  1.
        -12    1    3    3    0    0 -0.37922569095E+01 -0.85978756926E+01 -0.17407238165E+02  0.19781724380E+02  0.00000000000E+00 0.  1.
</event>
<event>
 7    1  0.1345786E-013  0.7246164E+02  0.7816164E-02  0.1226708E+00
        -11   -1    0    0    0    0  0.00000000000E+00  0.00000000000E+00  0.45593999997E+02  0.45594000000E+02  0.51100000000E-03 0.  1.
         11   -1    0    0    0    0 -0.00000000000E+00 -0.00000000000E+00 -0.45593999997E+02  0.45594000000E+02  0.51100000000E-03 0. -1.
    9900012    2    1    2    0    0  0.95549030402E+01  0.12073482495E+02  0.10658862476E+02  0.72461641546E+02  0.70000092818E+02 0.  0.
         12    1    1    2    0    0 -0.95549030402E+01 -0.12073482495E+02 -0.10658862476E+02  0.18726358454E+02  0.00000000000E+00 0. -1.
         11    1    3    3    0    0  0.24242325181E+02  0.91704360499E+01  0.24839261541E+02  0.35899528433E+02  0.51100000000E-03 0. -1.
        -11    1    3    3    0    0 -0.12967141354E+02 -0.11899107301E+02 -0.28198497271E+01  0.17823778001E+02  0.51100000000E-03 0.  1.
         12    1    3    3    0    0 -0.17202807871E+01  0.14802153747E+02 -0.11360549338E+02  0.18738335112E+02  0.00000000000E+00 0. -1.
</event>
<event>
 7    1  0.1345786E-013  0.7246156E+02  0.7816164E-02  0.1226708E+00
        -11   -1    0    0    0    0  0.00000000000E+00  0.00000000000E+00  0.45593999997E+02  0.45594000000E+02  0.51100000000E-03 0.  1.
         11   -1    0    0    0    0 -0.00000000000E+00 -0.00000000000E+00 -0.45593999997E+02  0.45594000000E+02  0.51100000000E-03 0. -1.
    9900012    2    1    2    0    0 -0.16545668196E+02 -0.87461294614E+01  0.65239609594E+00  0.72461560476E+02  0.69999987209E+02 0.  0.
         12    1    1    2    0    0  0.16545668196E+02  0.87461294614E+01 -0.65239609594E+00  0.18726439524E+02  0.00000000000E+00 0. -1.
         11    1    3    3    0    0  0.17756563905E+02 -0.25602984980E+01  0.17314096764E+02  0.24932481567E+02  0.51100000000E-03 0. -1.
        -11    1    3    3    0    0 -0.12866475122E+02  0.95980536958E+01  0.13543284563E+00  0.16052637140E+02  0.51100000000E-03 0.  1.
         12    1    3    3    0    0 -0.21435756978E+02 -0.15783884659E+02 -0.16797133513E+02  0.31476441769E+02  0.00000000000E+00 0. -1.
</event>
<event>
 7    1  0.1345786E-013  0.7246157E+02  0.7816164E-02  0.1226708E+00
        -11   -1    0    0    0    0  0.00000000000E+00  0.00000000000E+00  0.45593999997E+02  0.45594000000E+02  0.51100000000E-03 0. -1.
         11   -1    0    0    0    0 -0.00000000000E+00 -0.00000000000E+00 -0.45593999997E+02  0.45594000000E+02  0.51100000000E-03 0.  1.
    9900012    2    1    2    0    0  0.46994478447E+01  0.10280590398E+02 -0.14929967177E+02  0.72461567641E+02  0.69999996544E+02 0.  0.
         12    1    1    2    0    0 -0.46994478447E+01 -0.10280590398E+02  0.14929967177E+02  0.18726432359E+02  0.00000000000E+00 0. -1.
         11    1    3    3    0    0 -0.29599293759E+02  0.98807813411E+01  0.29862276919E+01  0.31347497301E+02  0.51100000000E-03 0. -1.
        -11    1    3    3    0    0  0.65207157818E+01  0.41240224457E+01 -0.86603573296E+01  0.11598667371E+02  0.51100000000E-03 0.  1.
         12    1    3    3    0    0  0.27778025822E+02 -0.37242133886E+01 -0.92558375395E+01  0.29515402970E+02  0.00000000000E+00 0. -1.
</event>
<event>
 7    1  0.1345786E-013  0.7246170E+02  0.7816164E-02  0.1226708E+00
        -11   -1    0    0    0    0  0.00000000000E+00  0.00000000000E+00  0.45593999997E+02  0.45594000000E+02  0.51100000000E-03 0.  1.
         11   -1    0    0    0    0 -0.00000000000E+00 -0.00000000000E+00 -0.45593999997E+02  0.45594000000E+02  0.51100000000E-03 0. -1.
    9900012    2    1    2    0    0 -0.18013397601E+02 -0.31961750883E+01  0.39970167860E+01  0.72461703743E+02  0.70000173842E+02 0.  0.
         12    1    1    2    0    0  0.18013397601E+02  0.31961750883E+01 -0.39970167860E+01  0.18726296257E+02  0.00000000000E+00 0. -1.
         11    1    3    3    0    0  0.45417553793E+01  0.13731280664E+02 -0.15932802900E+02  0.21518127686E+02  0.51100000000E-03 0. -1.
        -11    1    3    3    0    0 -0.31744736282E+02 -0.61181265732E+01  0.10858451195E+02  0.34103749310E+02  0.51100000000E-03 0.  1.
        -12    1    3    3    0    0  0.91895833022E+01 -0.10809329179E+02  0.90713684913E+01  0.16839826747E+02  0.00000000000E+00 0.  1.
</event>
<event>
 7    1  0.1345786E-013  0.7246156E+02  0.7816164E-02  0.1226708E+00
        -11   -1    0    0    0    0  0.00000000000E+00  0.00000000000E+00  0.45593999997E+02  0.45594000000E+02  0.51100000000E-03 0.  1.
         11   -1    0    0    0    0 -0.00000000000E+00 -0.00000000000E+00 -0.45593999997E+02  0.45594000000E+02  0.51100000000E-03 0. -1.
    9900012    2    1    2    0    0  0.15792419404E+02  0.88324100543E+01 -0.48236363007E+01  0.72461562935E+02  0.69999990413E+02 0.  0.
         12    1    1    2    0    0 -0.15792419404E+02 -0.88324100543E+01  0.48236363007E+01  0.18726437065E+02  0.00000000000E+00 0. -1.
         11    1    3    3    0    0  0.15792516649E+02  0.19697819234E+02 -0.33294040037E+02  0.41783977395E+02  0.51100000000E-03 0. -1.
        -11    1    3    3    0    0 -0.17794673858E+00 -0.45453712410E+01  0.74695920167E+01  0.87456772132E+01  0.51100000000E-03 0.  1.
         12    1    3    3    0    0  0.17784949357E+00 -0.63200379389E+01  0.21000811719E+02  0.21931908327E+02  0.00000000000E+00 0. -1.
</event>
<event>
 7    1  0.1345786E-013  0.7246186E+02  0.7816164E-02  0.1226707E+00
        -11   -1    0    0    0    0  0.00000000000E+00  0.00000000000E+00  0.45593999997E+02  0.45594000000E+02  0.51100000000E-03 0.  1.
         11   -1    0    0    0    0 -0.00000000000E+00 -0.00000000000E+00 -0.45593999997E+02  0.45594000000E+02  0.51100000000E-03 0. -1.
    9900012    2    1    2    0    0 -0.90093801420E+01 -0.15475632819E+02  0.54776237032E+01  0.72461855092E+02  0.70000371001E+02 0.  0.
         12    1    1    2    0    0  0.90093801420E+01  0.15475632819E+02 -0.54776237032E+01  0.18726144908E+02  0.00000000000E+00 0. -1.
         11    1    3    3    0    0  0.18414816112E+02 -0.14717648402E+02  0.24501165092E+02  0.34000319382E+02  0.51100000000E-03 0. -1.
        -11    1    3    3    0    0 -0.17801011003E+02  0.13311927781E+01 -0.94582084428E+00  0.17875755768E+02  0.51100000000E-03 0.  1.
         12    1    3    3    0    0 -0.96231852517E+01 -0.20891771949E+01 -0.18077720545E+02  0.20585779942E+02  0.00000000000E+00 0. -1.
</event>
<event>
 7    1  0.1345786E-013  0.7246157E+02  0.7816164E-02  0.1226708E+00
        -11   -1    0    0    0    0  0.00000000000E+00  0.00000000000E+00  0.45593999997E+02  0.45594000000E+02  0.51100000000E-03 0.  1.
         11   -1    0    0    0    0 -0.00000000000E+00 -0.00000000000E+00 -0.45593999997E+02  0.45594000000E+02  0.51100000000E-03 0. -1.
    9900012    2    1    2    0    0  0.11696458075E+02 -0.69411427979E+01  0.12872165070E+02  0.72461568721E+02  0.69999997951E+02 0.  0.
         12    1    1    2    0    0 -0.11696458075E+02  0.69411427979E+01 -0.12872165070E+02  0.18726431279E+02  0.00000000000E+00 0. -1.
         11    1    3    3    0    0 -0.94893998767E+01  0.18546713818E+02  0.97360593269E+01  0.22996089992E+02  0.51100000000E-03 0. -1.
        -11    1    3    3    0    0  0.64945621848E+01 -0.14407894847E+02  0.19319619654E+02  0.24960257925E+02  0.51100000000E-03 0.  1.
         12    1    3    3    0    0  0.14691295767E+02 -0.11079961769E+02 -0.16183513910E+02  0.24505220803E+02  0.00000000000E+00 0. -1.
</event>
<event>
 7    1  0.1345786E-013  0.7246156E+02  0.7816164E-02  0.1226708E+00
        -11   -1    0    0    0    0  0.00000000000E+00  0.00000000000E+00  0.45593999997E+02  0.45594000000E+02  0.51100000000E-03 0.  1.
         11   -1    0    0    0    0 -0.00000000000E+00 -0.00000000000E+00 -0.45593999997E+02  0.45594000000E+02  0.51100000000E-03 0. -1.
    9900012    2    1    2    0    0 -0.11574726725E+01  0.18212027480E+02  0.42026174318E+01  0.72461556632E+02  0.69999982203E+02 0.  0.
         12    1    1    2    0    0  0.11574726725E+01 -0.18212027480E+02 -0.42026174318E+01  0.18726443368E+02  0.00000000000E+00 0. -1.
         11    1    3    3    0    0 -0.10826040542E+02  0.22846847180E+02 -0.27468280797E+02  0.37332131336E+02  0.51100000000E-03 0. -1.
        -11    1    3    3    0    0  0.43895346122E+01 -0.15259012679E+01  0.27074440830E+02  0.27470379235E+02  0.51100000000E-03 0.  1.
         12    1    3    3    0    0  0.52790332573E+01 -0.31089184323E+01  0.45964573991E+01  0.76590460615E+01  0.00000000000E+00 0. -1.
</event>
<event>
 7    1  0.1345786E-013  0.7246162E+02  0.7816164E-02  0.1226708E+00
        -11   -1    0    0    0    0  0.00000000000E+00  0.00000000000E+00  0.45593999997E+02  0.45594000000E+02  0.51100000000E-03 0.  1.
         11   -1    0    0    0    0 -0.00000000000E+00 -0.00000000000E+00 -0.45593999997E+02  0.45594000000E+02  0.51100000000E-03 0. -1.
    9900012    2    1    2    0    0  0.16600111789E+02  0.85491142723E+01 -0.14234212645E+01  0.72461623032E+02  0.70000068701E+02 0.  0.
         12    1    1    2    0    0 -0.16600111789E+02 -0.85491142723E+01  0.14234212645E+01  0.18726376968E+02  0.00000000000E+00 0. -1.
         11    1    3    3    0    0  0.77355669579E+01  0.16658874664E+01 -0.30562225217E+02  0.31569982384E+02  0.51100000000E-03 0. -1.
        -11    1    3    3    0    0 -0.78562987393E+01 -0.32063445345E+01  0.13160447324E+02  0.15658845717E+02  0.51100000000E-03 0.  1.
        -12    1    3    3    0    0  0.16720843570E+02  0.10089571340E+02  0.15978356629E+02  0.25232794932E+02  0.00000000000E+00 0.  1.
</event>
<event>
 7    1  0.1345786E-013  0.7246154E+02  0.7816164E-02  0.1226708E+00
        -11   -1    0    0    0    0  0.00000000000E+00  0.00000000000E+00  0.45593999997E+02  0.45594000000E+02  0.51100000000E-03 0.  1.
         11   -1    0    0    0    0 -0.00000000000E+00 -0.00000000000E+00 -0.45593999997E+02  0.45594000000E+02  0.51100000000E-03 0. -1.
    9900012    2    1    2    0    0  0.15614495458E+02 -0.99846356591E+01  0.26785737514E+01  0.72461543448E+02  0.69999965028E+02 0.  0.
         12    1    1    2    0    0 -0.15614495458E+02  0.99846356591E+01 -0.26785737514E+01  0.18726456552E+02  0.00000000000E+00 0. -1.
         11    1    3    3    0    0  0.33649821979E+01  0.21278023497E+02 -0.20492059963E+02  0.29732169630E+02  0.51100000000E-03 0. -1.
        -11    1    3    3    0    0  0.79813967470E+01 -0.17086143846E+02  0.54339103582E+01  0.19625656361E+02  0.51100000000E-03 0.  1.
         12    1    3    3    0    0  0.42681165127E+01 -0.14176515310E+02  0.17736723356E+02  0.23103717457E+02  0.00000000000E+00 0. -1.
</event>
<event>
 7    1  0.1345786E-013  0.7246156E+02  0.7816164E-02  0.1226708E+00
        -11   -1    0    0    0    0  0.00000000000E+00  0.00000000000E+00  0.45593999997E+02  0.45594000000E+02  0.51100000000E-03 0.  1.
         11   -1    0    0    0    0 -0.00000000000E+00 -0.00000000000E+00 -0.45593999997E+02  0.45594000000E+02  0.51100000000E-03 0. -1.
    9900012    2    1    2    0    0 -0.68778520083E+01  0.16344379157E+01  0.17340796400E+02  0.72461562663E+02  0.69999990058E+02 0.  0.
         12    1    1    2    0    0  0.68778520083E+01 -0.16344379157E+01 -0.17340796400E+02  0.18726437337E+02  0.00000000000E+00 0. -1.
         11    1    3    3    0    0  0.10607631934E+02  0.61440131417E+01  0.37679001255E+02  0.39622946491E+02  0.51100000000E-03 0.  1.
        -11    1    3    3    0    0 -0.14046755972E+02 -0.10811074441E+02 -0.10309954163E+02  0.20505751365E+02  0.51100000000E-03 0. -1.
        -12    1    3    3    0    0 -0.34387279706E+01  0.63014992154E+01 -0.10028250692E+02  0.12332864807E+02  0.00000000000E+00 0.  1.
</event>
<event>
 7    1  0.1345786E-013  0.7246152E+02  0.7816164E-02  0.1226708E+00
        -11   -1    0    0    0    0  0.00000000000E+00  0.00000000000E+00  0.45593999997E+02  0.45594000000E+02  0.51100000000E-03 0.  1.
         11   -1    0    0    0    0 -0.00000000000E+00 -0.00000000000E+00 -0.45593999997E+02  0.45594000000E+02  0.51100000000E-03 0. -1.
    9900012    2    1    2    0    0  0.22373195589E+01  0.16451855627E+02  0.86609446311E+01  0.72461518369E+02  0.69999932357E+02 0.  0.
         12    1    1    2    0    0 -0.22373195589E+01 -0.16451855627E+02 -0.86609446311E+01  0.18726481631E+02  0.00000000000E+00 0. -1.
         11    1    3    3    0    0  0.66520057285E+01  0.29787002382E+02  0.49718437802E+01  0.30923032224E+02  0.51100000000E-03 0. -1.
        -11    1    3    3    0    0 -0.13805992291E+02 -0.73267876350E+01 -0.13765392821E+02  0.20827224490E+02  0.51100000000E-03 0.  1.
        -12    1    3    3    0    0  0.93913061211E+01 -0.60083591195E+01  0.17454493672E+02  0.20711261654E+02  0.00000000000E+00 0.  1.
</event>
<event>
 7    1  0.1345786E-013  0.7246159E+02  0.7816164E-02  0.1226708E+00
        -11   -1    0    0    0    0  0.00000000000E+00  0.00000000000E+00  0.45593999997E+02  0.45594000000E+02  0.51100000000E-03 0.  1.
         11   -1    0    0    0    0 -0.00000000000E+00 -0.00000000000E+00 -0.45593999997E+02  0.45594000000E+02  0.51100000000E-03 0. -1.
    9900012    2    1    2    0    0 -0.12604262915E+01 -0.15832493988E+02  0.99207867060E+01  0.72461586857E+02  0.70000021576E+02 0.  0.
         12    1    1    2    0    0  0.12604262915E+01  0.15832493988E+02 -0.99207867060E+01  0.18726413143E+02  0.00000000000E+00 0. -1.
         11    1    3    3    0    0  0.25483249439E+02 -0.12716477450E+02 -0.50975080397E+01  0.28932497113E+02  0.51100000000E-03 0. -1.
        -11    1    3    3    0    0 -0.22807114737E+02  0.85966434048E+01  0.38484319582E+00  0.24376522824E+02  0.51100000000E-03 0.  1.
        -12    1    3    3    0    0 -0.39365609936E+01 -0.11712659943E+02  0.14633451550E+02  0.19152566921E+02  0.00000000000E+00 0.  1.
</event>
<event>
 7    1  0.1345786E-013  0.7246156E+02  0.7816164E-02  0.1226708E+00
        -11   -1    0    0    0    0  0.00000000000E+00  0.00000000000E+00  0.45593999997E+02  0.45594000000E+02  0.51100000000E-03 0.  1.
         11   -1    0    0    0    0 -0.00000000000E+00 -0.00000000000E+00 -0.45593999997E+02  0.45594000000E+02  0.51100000000E-03 0. -1.
    9900012    2    1    2    0    0  0.15334626484E+02  0.10137444114E+02  0.35722555857E+01  0.72461560067E+02  0.69999986677E+02 0.  0.
         12    1    1    2    0    0 -0.15334626484E+02 -0.10137444114E+02 -0.35722555857E+01  0.18726439933E+02  0.00000000000E+00 0. -1.
         11    1    3    3    0    0  0.83447020874E+01  0.67886238893E+01 -0.26716882903E+02  0.28801237813E+02  0.51100000000E-03 0. -1.
        -11    1    3    3    0    0  0.76688114794E+01  0.12950594383E+02  0.38673840723E+01  0.15539794857E+02  0.51100000000E-03 0.  1.
         12    1    3    3    0    0 -0.67888708248E+00 -0.96017741577E+01  0.26421754417E+02  0.28120527397E+02  0.00000000000E+00 0. -1.
</event>
<event>
 7    1  0.1345786E-013  0.7246158E+02  0.7816164E-02  0.1226708E+00
        -11   -1    0    0    0    0  0.00000000000E+00  0.00000000000E+00  0.45593999997E+02  0.45594000000E+02  0.51100000000E-03 0. -1.
         11   -1    0    0    0    0 -0.00000000000E+00 -0.00000000000E+00 -0.45593999997E+02  0.45594000000E+02  0.51100000000E-03 0.  1.
    9900012    2    1    2    0    0  0.11519866604E+02 -0.29600742747E+01 -0.14464075045E+02  0.72461579274E+02  0.70000011698E+02 0.  0.
         12    1    1    2    0    0 -0.11519866604E+02  0.29600742747E+01  0.14464075045E+02  0.18726420726E+02  0.00000000000E+00 0. -1.
         11    1    3    3    0    0  0.33575027883E+01 -0.10228190980E+02 -0.76359001301E+01  0.13198321361E+02  0.51100000000E-03 0. -1.
        -11    1    3    3    0    0  0.98241112803E+01  0.24395343558E+02  0.15918123153E+02  0.30741382447E+02  0.51100000000E-03 0.  1.
        -12    1    3    3    0    0 -0.16617474646E+01 -0.17127226853E+02 -0.22746298068E+02  0.28521875466E+02  0.00000000000E+00 0.  1.
</event>
<event>
 7    1  0.1345786E-013  0.7246166E+02  0.7816164E-02  0.1226708E+00
        -11   -1    0    0    0    0  0.00000000000E+00  0.00000000000E+00  0.45593999997E+02  0.45594000000E+02  0.51100000000E-03 0. -1.
         11   -1    0    0    0    0 -0.00000000000E+00 -0.00000000000E+00 -0.45593999997E+02  0.45594000000E+02  0.51100000000E-03 0.  1.
    9900012    2    1    2    0    0  0.13218367468E+01 -0.11178408286E+02 -0.14965687139E+02  0.72461658774E+02  0.70000115261E+02 0.  0.
         12    1    1    2    0    0 -0.13218367468E+01  0.11178408286E+02  0.14965687139E+02  0.18726341226E+02  0.00000000000E+00 0. -1.
         11    1    3    3    0    0 -0.38946098140E+01 -0.20313702792E+02  0.17863862652E+02  0.27330058467E+02  0.51100000000E-03 0. -1.
        -11    1    3    3    0    0  0.16095967923E+02 -0.95861952058E+00 -0.16746468382E+02  0.23247437241E+02  0.51100000000E-03 0.  1.
        -12    1    3    3    0    0 -0.10879521362E+02  0.10093914026E+02 -0.16083081409E+02  0.21884163065E+02  0.00000000000E+00 0.  1.
</event>
<event>
 7    1  0.1345786E-013  0.7246171E+02  0.7816164E-02  0.1226708E+00
        -11   -1    0    0    0    0  0.00000000000E+00  0.00000000000E+00  0.45593999997E+02  0.45594000000E+02  0.51100000000E-03 0.  1.
         11   -1    0    0    0    0 -0.00000000000E+00 -0.00000000000E+00 -0.45593999997E+02  0.45594000000E+02  0.51100000000E-03 0. -1.
    9900012    2    1    2    0    0  0.40925852232E+01 -0.17935856138E+02  0.34970871182E+01  0.72461713461E+02  0.70000186501E+02 0.  0.
         12    1    1    2    0    0 -0.40925852232E+01  0.17935856138E+02 -0.34970871182E+01  0.18726286539E+02  0.00000000000E+00 0. -1.
         11    1    3    3    0    0  0.73352541294E+01 -0.71361298963E+01 -0.62419903740E+01  0.11987190961E+02  0.51100000000E-03 0. -1.
        -11    1    3    3    0    0 -0.65403336645E+01  0.75619573359E+01  0.30774850692E+02  0.32358161236E+02  0.51100000000E-03 0.  1.
        -12    1    3    3    0    0  0.32976647583E+01 -0.18361683578E+02 -0.21035773199E+02  0.28116361265E+02  0.00000000000E+00 0.  1.
</event>
<event>
 7    1  0.1467941E-013  0.7246159E+02  0.7816164E-02  0.1226708E+00
        -11   -1    0    0    0    0  0.00000000000E+00  0.00000000000E+00  0.45593999997E+02  0.45594000000E+02  0.51100000000E-03 0.  1.
         11   -1    0    0    0    0 -0.00000000000E+00 -0.00000000000E+00 -0.45593999997E+02  0.45594000000E+02  0.51100000000E-03 0. -1.
    9900012    2    1    2    0    0 -0.16405104436E+02 -0.88948957453E+01 -0.15593968667E+01  0.72461592431E+02  0.70000028837E+02 0.  0.
         12    1    1    2    0    0  0.16405104436E+02  0.88948957453E+01  0.15593968667E+01  0.18726407569E+02  0.00000000000E+00 0. -1.
         11    1    3    3    0    0 -0.24519470013E+02  0.15666648660E+02 -0.36572767983E+01  0.29326165174E+02  0.51100000000E-03 0. -1.
        -11    1    3    3    0    0 -0.52066319695E+01 -0.25482757467E+02  0.97131053187E+01  0.27763723810E+02  0.51100000000E-03 0.  1.
         12    1    3    3    0    0  0.13320997547E+02  0.92121306129E+00 -0.76152253871E+01  0.15371703447E+02  0.00000000000E+00 0. -1.
</event>
<event>
 7    1  0.1345786E-013  0.7246158E+02  0.7816164E-02  0.1226708E+00
        -11   -1    0    0    0    0  0.00000000000E+00  0.00000000000E+00  0.45593999997E+02  0.45594000000E+02  0.51100000000E-03 0. -1.
         11   -1    0    0    0    0 -0.00000000000E+00 -0.00000000000E+00 -0.45593999997E+02  0.45594000000E+02  0.51100000000E-03 0.  1.
    9900012    2    1    2    0    0  0.16929368746E+02 -0.60224305033E+01  0.52731084299E+01  0.72461578350E+02  0.70000010494E+02 0.  0.
         12    1    1    2    0    0 -0.16929368746E+02  0.60224305033E+01 -0.52731084299E+01  0.18726421650E+02  0.00000000000E+00 0. -1.
         11    1    3    3    0    0 -0.94182683559E+01 -0.21052458997E+02  0.13675580995E+02  0.26812894742E+02  0.51100000000E-03 0. -1.
        -11    1    3    3    0    0  0.29521542905E+02  0.13300751845E+02 -0.16820271927E+02  0.36487710850E+02  0.51100000000E-03 0.  1.
        -12    1    3    3    0    0 -0.31739058031E+01  0.17292766486E+01  0.84177993616E+01  0.91609727577E+01  0.00000000000E+00 0.  1.
</event>
<event>
 7    1  0.1345786E-013  0.7246162E+02  0.7816164E-02  0.1226708E+00
        -11   -1    0    0    0    0  0.00000000000E+00  0.00000000000E+00  0.45593999997E+02  0.45594000000E+02  0.51100000000E-03 0.  1.
         11   -1    0    0    0    0 -0.00000000000E+00 -0.00000000000E+00 -0.45593999997E+02  0.45594000000E+02  0.51100000000E-03 0. -1.
    9900012    2    1    2    0    0 -0.17963526245E+02  0.52670266918E+01 -0.49751028622E+00  0.72461618561E+02  0.70000062876E+02 0.  0.
         12    1    1    2    0    0  0.17963526245E+02 -0.52670266918E+01  0.49751028622E+00  0.18726381439E+02  0.00000000000E+00 0. -1.
         11    1    3    3    0    0 -0.97850292574E+01  0.10611379548E+02 -0.24151782880E+02  0.28136396181E+02  0.51100000000E-03 0.  1.
        -11    1    3    3    0    0  0.92535068652E+00  0.11944531262E+02  0.21571701319E+02  0.24675218317E+02  0.51100000000E-03 0. -1.
        -12    1    3    3    0    0 -0.91038476739E+01 -0.17288884119E+02  0.20825712754E+01  0.19650004063E+02  0.00000000000E+00 0.  1.
</event>
<event>
 7    1  0.1345786E-013  0.7246156E+02  0.7816164E-02  0.1226708E+00
        -11   -1    0    0    0    0  0.00000000000E+00  0.00000000000E+00  0.45593999997E+02  0.45594000000E+02  0.51100000000E-03 0.  1.
         11   -1    0    0    0    0 -0.00000000000E+00 -0.00000000000E+00 -0.45593999997E+02  0.45594000000E+02  0.51100000000E-03 0. -1.
    9900012    2    1    2    0    0  0.68186735619E+01 -0.18173049185E+01  0.17345965970E+02  0.72461563026E+02  0.69999990531E+02 0.  0.
         12    1    1    2    0    0 -0.68186735619E+01  0.18173049185E+01 -0.17345965970E+02  0.18726436974E+02  0.00000000000E+00 0. -1.
         11    1    3    3    0    0  0.31010202445E+02  0.88792101141E+01  0.30851597467E+01  0.32403568304E+02  0.51100000000E-03 0. -1.
        -11    1    3    3    0    0 -0.26168676988E+02 -0.10650863252E+02  0.27591597712E+01  0.28387559004E+02  0.51100000000E-03 0.  1.
        -12    1    3    3    0    0  0.19771481050E+01 -0.45651780725E-01  0.11501646452E+02  0.11670435717E+02  0.00000000000E+00 0.  1.
</event>
<event>
 7    1  0.1345786E-013  0.7246157E+02  0.7816164E-02  0.1226708E+00
        -11   -1    0    0    0    0  0.00000000000E+00  0.00000000000E+00  0.45593999997E+02  0.45594000000E+02  0.51100000000E-03 0. -1.
         11   -1    0    0    0    0 -0.00000000000E+00 -0.00000000000E+00 -0.45593999997E+02  0.45594000000E+02  0.51100000000E-03 0.  1.
    9900012    2    1    2    0    0 -0.46574900854E+01 -0.21530079153E+01 -0.18009765030E+02  0.72461566987E+02  0.69999995691E+02 0.  0.
         12    1    1    2    0    0  0.46574900854E+01  0.21530079153E+01  0.18009765030E+02  0.18726433013E+02  0.00000000000E+00 0. -1.
         11    1    3    3    0    0 -0.21746129570E+02  0.20806677942E+02 -0.88326647141E+01  0.31366032017E+02  0.51100000000E-03 0. -1.
        -11    1    3    3    0    0  0.43123570221E+00 -0.12906098422E+02 -0.15924752226E+02  0.20502465082E+02  0.51100000000E-03 0.  1.
         12    1    3    3    0    0  0.16657403782E+02 -0.10053587436E+02  0.67476519104E+01  0.20593069888E+02  0.00000000000E+00 0. -1.
</event>
<event>
 7    1  0.1345786E-013  0.7246157E+02  0.7816164E-02  0.1226708E+00
        -11   -1    0    0    0    0  0.00000000000E+00  0.00000000000E+00  0.45593999997E+02  0.45594000000E+02  0.51100000000E-03 0.  1.
         11   -1    0    0    0    0 -0.00000000000E+00 -0.00000000000E+00 -0.45593999997E+02  0.45594000000E+02  0.51100000000E-03 0. -1.
    9900012    2    1    2    0    0  0.14256630451E+02  0.55977352641E+01  0.10774650030E+02  0.72461568541E+02  0.69999997716E+02 0.  0.
         12    1    1    2    0    0 -0.14256630451E+02 -0.55977352641E+01 -0.10774650030E+02  0.18726431459E+02  0.00000000000E+00 0. -1.
         11    1    3    3    0    0  0.10856000590E+02  0.12547424038E+02 -0.59697075132E+01  0.17633150792E+02  0.51100000000E-03 0. -1.
        -11    1    3    3    0    0 -0.27806478787E+01 -0.26126103112E+02  0.21704080337E+02  0.34078913862E+02  0.51100000000E-03 0.  1.
        -12    1    3    3    0    0  0.61812777401E+01  0.19176414338E+02 -0.49597227937E+01  0.20749503887E+02  0.00000000000E+00 0.  1.
</event>
<event>
 7    1  0.1345786E-013  0.7246157E+02  0.7816164E-02  0.1226708E+00
        -11   -1    0    0    0    0  0.00000000000E+00  0.00000000000E+00  0.45593999997E+02  0.45594000000E+02  0.51100000000E-03 0.  1.
         11   -1    0    0    0    0 -0.00000000000E+00 -0.00000000000E+00 -0.45593999997E+02  0.45594000000E+02  0.51100000000E-03 0. -1.
    9900012    2    1    2    0    0  0.30695257228E+01  0.11200449955E+02  0.14690369013E+02  0.72461574577E+02  0.70000005579E+02 0.  0.
         12    1    1    2    0    0 -0.30695257228E+01 -0.11200449955E+02 -0.14690369013E+02  0.18726425423E+02  0.00000000000E+00 0. -1.
         11    1    3    3    0    0  0.17840284807E+01  0.31407701120E+02  0.26597181868E+02  0.41195103239E+02  0.51100000000E-03 0.  1.
        -11    1    3    3    0    0 -0.61774742057E+01 -0.16632634313E+02 -0.14148520765E+02  0.22693310730E+02  0.51100000000E-03 0. -1.
        -12    1    3    3    0    0  0.74629714478E+01 -0.35746168517E+01  0.22417079110E+01  0.85731606089E+01  0.00000000000E+00 0.  1.
</event>
<event>
 7    1  0.1345786E-013  0.7246157E+02  0.7816164E-02  0.1226708E+00
        -11   -1    0    0    0    0  0.00000000000E+00  0.00000000000E+00  0.45593999997E+02  0.45594000000E+02  0.51100000000E-03 0.  1.
         11   -1    0    0    0    0 -0.00000000000E+00 -0.00000000000E+00 -0.45593999997E+02  0.45594000000E+02  0.51100000000E-03 0. -1.
    9900012    2    1    2    0    0 -0.35291014792E+01 -0.10610485022E+02 -0.15021395734E+02  0.72461567359E+02  0.69999996177E+02 0.  0.
         12    1    1    2    0    0  0.35291014792E+01  0.10610485022E+02  0.15021395734E+02  0.18726432641E+02  0.00000000000E+00 0. -1.
         11    1    3    3    0    0 -0.93425448302E+00 -0.31843388656E+02 -0.14335257461E+02  0.34933849477E+02  0.51100000000E-03 0. -1.
        -11    1    3    3    0    0 -0.49107608352E+01  0.21410061743E+02  0.11726151898E+02  0.24899979004E+02  0.51100000000E-03 0.  1.
        -12    1    3    3    0    0  0.23159138390E+01 -0.17715810866E+00 -0.12412290170E+02  0.12627738878E+02  0.00000000000E+00 0.  1.
</event>
<event>
 7    1  0.1345786E-013  0.7246200E+02  0.7816164E-02  0.1226707E+00
        -11   -1    0    0    0    0  0.00000000000E+00  0.00000000000E+00  0.45593999997E+02  0.45594000000E+02  0.51100000000E-03 0.  1.
         11   -1    0    0    0    0 -0.00000000000E+00 -0.00000000000E+00 -0.45593999997E+02  0.45594000000E+02  0.51100000000E-03 0. -1.
    9900012    2    1    2    0    0 -0.48195008926E+00  0.53882194799E+01  0.17927576467E+02  0.72461997142E+02  0.70000556046E+02 0.  0.
         12    1    1    2    0    0  0.48195008926E+00 -0.53882194799E+01 -0.17927576467E+02  0.18726002858E+02  0.00000000000E+00 0. -1.
         11    1    3    3    0    0  0.13204878806E+02 -0.13987880870E+02 -0.25126761893E+01  0.19399566423E+02  0.51100000000E-03 0. -1.
        -11    1    3    3    0    0 -0.14460873915E+02  0.26478259400E+02 -0.12805015685E+01  0.30196933284E+02  0.51100000000E-03 0.  1.
        -12    1    3    3    0    0  0.77404501938E+00 -0.71021590500E+01  0.21720754225E+02  0.22865497435E+02  0.00000000000E+00 0.  1.
</event>
<event>
 7    1  0.1345786E-013  0.7246158E+02  0.7816164E-02  0.1226708E+00
        -11   -1    0    0    0    0  0.00000000000E+00  0.00000000000E+00  0.45593999997E+02  0.45594000000E+02  0.51100000000E-03 0. -1.
         11   -1    0    0    0    0 -0.00000000000E+00 -0.00000000000E+00 -0.45593999997E+02  0.45594000000E+02  0.51100000000E-03 0.  1.
    9900012    2    1    2    0    0  0.26598084562E+01  0.13962207894E+02 -0.12192663762E+02  0.72461578027E+02  0.70000010073E+02 0.  0.
         12    1    1    2    0    0 -0.26598084562E+01 -0.13962207894E+02  0.12192663762E+02  0.18726421973E+02  0.00000000000E+00 0. -1.
         11    1    3    3    0    0  0.27521607123E+02  0.24982969188E+01 -0.11261962300E+01  0.27657705334E+02  0.51100000000E-03 0. -1.
        -11    1    3    3    0    0 -0.16296712833E+02  0.14397866756E+02 -0.21779823115E+02  0.30777298639E+02  0.51100000000E-03 0.  1.
         12    1    3    3    0    0 -0.85650858334E+01 -0.29339557807E+01  0.10713355583E+02  0.14026574055E+02  0.00000000000E+00 0. -1.
</event>
<event>
 7    1  0.1345786E-013  0.7246164E+02  0.7816164E-02  0.1226708E+00
        -11   -1    0    0    0    0  0.00000000000E+00  0.00000000000E+00  0.45593999997E+02  0.45594000000E+02  0.51100000000E-03 0.  1.
         11   -1    0    0    0    0 -0.00000000000E+00 -0.00000000000E+00 -0.45593999997E+02  0.45594000000E+02  0.51100000000E-03 0. -1.
    9900012    2    1    2    0    0 -0.17191551248E+01  0.13660937749E+02  0.12692516133E+02  0.72461636756E+02  0.70000086579E+02 0.  0.
         12    1    1    2    0    0  0.17191551248E+01 -0.13660937749E+02 -0.12692516133E+02  0.18726363244E+02  0.00000000000E+00 0. -1.
         11    1    3    3    0    0  0.14959022644E+02 -0.13494699373E+02  0.18354529000E+02  0.27253770468E+02  0.51100000000E-03 0. -1.
        -11    1    3    3    0    0 -0.51867170300E+01  0.22209163618E+02 -0.16903884325E+02  0.28388206842E+02  0.51100000000E-03 0.  1.
        -12    1    3    3    0    0 -0.11491460739E+02  0.49464735043E+01  0.11241871458E+02  0.16819659447E+02  0.00000000000E+00 0.  1.
</event>
<event>
 7    1  0.1345786E-013  0.7246157E+02  0.7816164E-02  0.1226708E+00
        -11   -1    0    0    0    0  0.00000000000E+00  0.00000000000E+00  0.45593999997E+02  0.45594000000E+02  0.51100000000E-03 0. -1.
         11   -1    0    0    0    0 -0.00000000000E+00 -0.00000000000E+00 -0.45593999997E+02  0.45594000000E+02  0.51100000000E-03 0.  1.
    9900012    2    1    2    0    0  0.94188304374E+01  0.82851010901E+01 -0.13904026158E+02  0.72461569206E+02  0.69999998582E+02 0.  0.
         12    1    1    2    0    0 -0.94188304374E+01 -0.82851010901E+01  0.13904026158E+02  0.18726430794E+02  0.00000000000E+00 0. -1.
         11    1    3    3    0    0 -0.10789745569E+02 -0.66723181287E+01  0.16431987968E+02  0.20759303155E+02  0.51100000000E-03 0. -1.
        -11    1    3    3    0    0 -0.33034722379E+00  0.17387920360E+02 -0.33640703060E+01  0.17713437640E+02  0.51100000000E-03 0.  1.
         12    1    3    3    0    0  0.20538923230E+02 -0.24305011414E+01 -0.26971943820E+02  0.33988828410E+02  0.00000000000E+00 0. -1.
</event>
<event>
 7    1  0.1345786E-013  0.7246155E+02  0.7816164E-02  0.1226708E+00
        -11   -1    0    0    0    0  0.00000000000E+00  0.00000000000E+00  0.45593999997E+02  0.45594000000E+02  0.51100000000E-03 0. -1.
         11   -1    0    0    0    0 -0.00000000000E+00 -0.00000000000E+00 -0.45593999997E+02  0.45594000000E+02  0.51100000000E-03 0.  1.
    9900012    2    1    2    0    0 -0.13942015521E+02 -0.44069267496E+00  0.12494242749E+02  0.72461545218E+02  0.69999967334E+02 0.  0.
         12    1    1    2    0    0  0.13942015521E+02  0.44069267496E+00 -0.12494242749E+02  0.18726454782E+02  0.00000000000E+00 0. -1.
         11    1    3    3    0    0 -0.91105417028E+01 -0.55082004003E+01  0.13479397816E+02  0.17176623868E+02  0.51100000000E-03 0. -1.
        -11    1    3    3    0    0  0.21927739321E+02  0.14059605725E+02 -0.56996894375E+01  0.26664296818E+02  0.51100000000E-03 0.  1.
        -12    1    3    3    0    0 -0.26759213139E+02 -0.89920979995E+01  0.47145343706E+01  0.28620624532E+02  0.00000000000E+00 0.  1.
</event>
<event>
 7    1  0.1345786E-013  0.7246155E+02  0.7816164E-02  0.1226708E+00
        -11   -1    0    0    0    0  0.00000000000E+00  0.00000000000E+00  0.45593999997E+02  0.45594000000E+02  0.51100000000E-03 0.  1.
         11   -1    0    0    0    0 -0.00000000000E+00 -0.00000000000E+00 -0.45593999997E+02  0.45594000000E+02  0.51100000000E-03 0. -1.
    9900012    2    1    2    0    0 -0.10219585684E+02 -0.96291367078E+01  0.12390308532E+02  0.72461549434E+02  0.69999972825E+02 0.  0.
         12    1    1    2    0    0  0.10219585684E+02  0.96291367078E+01 -0.12390308532E+02  0.18726450566E+02  0.00000000000E+00 0. -1.
         11    1    3    3    0    0 -0.15619177100E+02  0.22883054484E+02  0.10918129263E+01  0.27726971193E+02  0.51100000000E-03 0. -1.
        -11    1    3    3    0    0  0.10141791540E+02 -0.25573019329E+02  0.18920081512E+02  0.33388691767E+02  0.51100000000E-03 0.  1.
         12    1    3    3    0    0 -0.47422001238E+01 -0.69391718628E+01 -0.76215859063E+01  0.11345886474E+02  0.00000000000E+00 0. -1.
</event>
<event>
 8    1  0.1345786E-013  0.7246159E+02  0.7816164E-02  0.1226708E+00
        -11   -1    0    0    0    0  0.00000000000E+00  0.00000000000E+00  0.45593999997E+02  0.45594000000E+02  0.51100000000E-03 0. -1.
         11   -1    0    0    0    0 -0.00000000000E+00 -0.00000000000E+00 -0.45593999997E+02  0.45594000000E+02  0.51100000000E-03 0.  1.
    9900012    2    1    2    0    0  0.90056384644E+01 -0.44271120016E+01 -0.15810673839E+02  0.72461594791E+02  0.70000031911E+02 0.  0.
         24    2    3    3    0    0 -0.77890510419E+01 -0.90831308838E+01 -0.50683341461E+01  0.51988735445E+02  0.50338534140E+02 0.  0.
         12    1    1    2    0    0 -0.90056384644E+01  0.44271120016E+01  0.15810673839E+02  0.18726405209E+02  0.00000000000E+00 0. -1.
         11    1    3    3    0    0  0.16794689506E+02  0.46560188822E+01 -0.10742339693E+02  0.20472859345E+02  0.51100000000E-03 0. -1.
        -11    1    4    4    0    0 -0.12866200658E+02  0.12159040187E+02 -0.19089904708E+02  0.26034704524E+02  0.51100000000E-03 0.  1.
         12    1    4    4    0    0  0.50771496164E+01 -0.21242171071E+02  0.14021570562E+02  0.25954030921E+02  0.00000000000E+00 0. -1.
</event>
<event>
 7    1  0.1345786E-013  0.7246159E+02  0.7816164E-02  0.1226708E+00
        -11   -1    0    0    0    0  0.00000000000E+00  0.00000000000E+00  0.45593999997E+02  0.45594000000E+02  0.51100000000E-03 0. -1.
         11   -1    0    0    0    0 -0.00000000000E+00 -0.00000000000E+00 -0.45593999997E+02  0.45594000000E+02  0.51100000000E-03 0.  1.
    9900012    2    1    2    0    0  0.48426878613E+01  0.17870099390E+02  0.28082916254E+01  0.72461586041E+02  0.70000020513E+02 0.  0.
         12    1    1    2    0    0 -0.48426878613E+01 -0.17870099390E+02 -0.28082916254E+01  0.18726413959E+02  0.00000000000E+00 0. -1.
         11    1    3    3    0    0  0.14419823625E+02 -0.78663067363E+01  0.22967297290E+01  0.16585688492E+02  0.51100000000E-03 0. -1.
        -11    1    3    3    0    0  0.25585255704E+01  0.32486664843E+02 -0.14287483792E+02  0.35581759921E+02  0.51100000000E-03 0.  1.
        -12    1    3    3    0    0 -0.12135661334E+02 -0.67502587175E+01  0.14799045689E+02  0.20294137628E+02  0.00000000000E+00 0.  1.
</event>
<event>
 7    1  0.1345786E-013  0.7246164E+02  0.7816164E-02  0.1226708E+00
        -11   -1    0    0    0    0  0.00000000000E+00  0.00000000000E+00  0.45593999997E+02  0.45594000000E+02  0.51100000000E-03 0.  1.
         11   -1    0    0    0    0 -0.00000000000E+00 -0.00000000000E+00 -0.45593999997E+02  0.45594000000E+02  0.51100000000E-03 0. -1.
    9900012    2    1    2    0    0  0.33202211462E+01  0.10789291908E+02  0.14941347632E+02  0.72461640039E+02  0.70000090855E+02 0.  0.
         12    1    1    2    0    0 -0.33202211462E+01 -0.10789291908E+02 -0.14941347632E+02  0.18726359961E+02  0.00000000000E+00 0. -1.
         11    1    3    3    0    0  0.12902597201E+02  0.23425338588E+01 -0.31822872359E+00  0.13117383473E+02  0.51100000000E-03 0. -1.
        -11    1    3    3    0    0 -0.25276864691E+02 -0.13809893654E+02  0.15262285606E+01  0.28843758861E+02  0.51100000000E-03 0.  1.
        -12    1    3    3    0    0  0.15694488636E+02  0.22256651703E+02  0.13733347795E+02  0.30500497705E+02  0.00000000000E+00 0.  1.
</event>
<event>
 7    1  0.1345786E-013  0.7246157E+02  0.7816164E-02  0.1226708E+00
        -11   -1    0    0    0    0  0.00000000000E+00  0.00000000000E+00  0.45593999997E+02  0.45594000000E+02  0.51100000000E-03 0. -1.
         11   -1    0    0    0    0 -0.00000000000E+00 -0.00000000000E+00 -0.45593999997E+02  0.45594000000E+02  0.51100000000E-03 0.  1.
    9900012    2    1    2    0    0  0.53739302866E+01  0.16530690323E+02 -0.69668066440E+01  0.72461568303E+02  0.69999997406E+02 0.  0.
         12    1    1    2    0    0 -0.53739302866E+01 -0.16530690323E+02  0.69668066440E+01  0.18726431697E+02  0.00000000000E+00 0. -1.
         11    1    3    3    0    0 -0.45808424261E+01  0.52711766732E+01  0.13396122247E+02  0.15107134486E+02  0.51100000000E-03 0. -1.
        -11    1    3    3    0    0  0.16886018081E+02 -0.11930633372E+02 -0.25277978079E+02  0.32656604160E+02  0.51100000000E-03 0.  1.
        -12    1    3    3    0    0 -0.69312453680E+01  0.23190147022E+02  0.49150491877E+01  0.24697829657E+02  0.00000000000E+00 0.  1.
</event>
<event>
 7    1  0.1345786E-013  0.7246158E+02  0.7816164E-02  0.1226708E+00
        -11   -1    0    0    0    0  0.00000000000E+00  0.00000000000E+00  0.45593999997E+02  0.45594000000E+02  0.51100000000E-03 0.  1.
         11   -1    0    0    0    0 -0.00000000000E+00 -0.00000000000E+00 -0.45593999997E+02  0.45594000000E+02  0.51100000000E-03 0. -1.
    9900012    2    1    2    0    0  0.13473921836E+02  0.16233061663E+01  0.12903380766E+02  0.72461576750E+02  0.70000008410E+02 0.  0.
         12    1    1    2    0    0 -0.13473921836E+02 -0.16233061663E+01 -0.12903380766E+02  0.18726423250E+02  0.00000000000E+00 0. -1.
         11    1    3    3    0    0  0.23444274972E+02  0.24197119890E+02  0.13621696016E+02  0.36341233366E+02  0.51100000000E-03 0. -1.
        -11    1    3    3    0    0  0.69015261499E+01 -0.16914118133E+02 -0.13079166997E+01  0.18314723634E+02  0.51100000000E-03 0.  1.
         12    1    3    3    0    0 -0.16871879286E+02 -0.56596955902E+01  0.58960144898E+00  0.17805619750E+02  0.00000000000E+00 0. -1.
</event>
<event>
 7    1  0.1345786E-013  0.7246161E+02  0.7816164E-02  0.1226708E+00
        -11   -1    0    0    0    0  0.00000000000E+00  0.00000000000E+00  0.45593999997E+02  0.45594000000E+02  0.51100000000E-03 0.  1.
         11   -1    0    0    0    0 -0.00000000000E+00 -0.00000000000E+00 -0.45593999997E+02  0.45594000000E+02  0.51100000000E-03 0. -1.
    9900012    2    1    2    0    0  0.95910062326E+01 -0.10692192925E+02 -0.12015298584E+02  0.72461607123E+02  0.70000047976E+02 0.  0.
         12    1    1    2    0    0 -0.95910062326E+01  0.10692192925E+02  0.12015298584E+02  0.18726392877E+02  0.00000000000E+00 0. -1.
         11    1    3    3    0    0  0.29015875171E+02  0.88384559959E+01 -0.16479056572E+02  0.34519539714E+02  0.51100000000E-03 0. -1.
        -11    1    3    3    0    0 -0.12397426912E+01 -0.12304647796E+02  0.11752450258E+02  0.17060521875E+02  0.51100000000E-03 0.  1.
         12    1    3    3    0    0 -0.18185126247E+02 -0.72260011253E+01 -0.72886922701E+01  0.20881545534E+02  0.00000000000E+00 0. -1.
</event>
<event>
 7    1  0.1345786E-013  0.7246172E+02  0.7816164E-02  0.1226708E+00
        -11   -1    0    0    0    0  0.00000000000E+00  0.00000000000E+00  0.45593999997E+02  0.45594000000E+02  0.51100000000E-03 0. -1.
         11   -1    0    0    0    0 -0.00000000000E+00 -0.00000000000E+00 -0.45593999997E+02  0.45594000000E+02  0.51100000000E-03 0.  1.
    9900012    2    1    2    0    0 -0.75997922011E+01 -0.30044378630E+01 -0.16849032653E+02  0.72461724617E+02  0.70000201034E+02 0.  0.
         12    1    1    2    0    0  0.75997922011E+01  0.30044378630E+01  0.16849032653E+02  0.18726275383E+02  0.00000000000E+00 0. -1.
         11    1    3    3    0    0  0.35647205250E+00 -0.57054013188E+01  0.26103260383E+02  0.26721880163E+02  0.51100000000E-03 0. -1.
        -11    1    3    3    0    0 -0.74245506139E+01 -0.41586059175E+01 -0.28315973198E+02  0.29567081246E+02  0.51100000000E-03 0.  1.
         12    1    3    3    0    0 -0.53171363964E+00  0.68595693733E+01 -0.14636319838E+02  0.16172763208E+02  0.00000000000E+00 0. -1.
</event>
<event>
 7    1  0.1345786E-013  0.7246157E+02  0.7816164E-02  0.1226708E+00
        -11   -1    0    0    0    0  0.00000000000E+00  0.00000000000E+00  0.45593999997E+02  0.45594000000E+02  0.51100000000E-03 0.  1.
         11   -1    0    0    0    0 -0.00000000000E+00 -0.00000000000E+00 -0.45593999997E+02  0.45594000000E+02  0.51100000000E-03 0. -1.
    9900012    2    1    2    0    0 -0.13879792763E+02  0.98935234065E+01  0.77555679634E+01  0.72461567158E+02  0.69999995914E+02 0.  0.
         12    1    1    2    0    0  0.13879792763E+02 -0.98935234065E+01 -0.77555679634E+01  0.18726432842E+02  0.00000000000E+00 0. -1.
         11    1    3    3    0    0 -0.31379144543E+02  0.67913821250E+01  0.19475607587E+02  0.37550937067E+02  0.51100000000E-03 0. -1.
        -11    1    3    3    0    0  0.11755388665E+02 -0.99735899226E+00  0.78074938863E+01  0.14147114500E+02  0.51100000000E-03 0.  1.
         12    1    3    3    0    0  0.57439631149E+01  0.40995002737E+01 -0.19527533510E+02  0.20763515592E+02  0.00000000000E+00 0. -1.
</event>
<event>
 7    1  0.1345786E-013  0.7246153E+02  0.7816164E-02  0.1226708E+00
        -11   -1    0    0    0    0  0.00000000000E+00  0.00000000000E+00  0.45593999997E+02  0.45594000000E+02  0.51100000000E-03 0.  1.
         11   -1    0    0    0    0 -0.00000000000E+00 -0.00000000000E+00 -0.45593999997E+02  0.45594000000E+02  0.51100000000E-03 0. -1.
    9900012    2    1    2    0    0 -0.66657959834E+01 -0.17371403142E+02 -0.21171455595E+01  0.72461527066E+02  0.69999943687E+02 0.  0.
         12    1    1    2    0    0  0.66657959834E+01  0.17371403142E+02  0.21171455595E+01  0.18726472934E+02  0.00000000000E+00 0. -1.
         11    1    3    3    0    0  0.42108181244E+01 -0.27080463559E+02 -0.21758963030E+02  0.34993356058E+02  0.51100000000E-03 0. -1.
        -11    1    3    3    0    0  0.13176859178E+01 -0.83038619329E+01  0.11491836067E+02  0.14239126224E+02  0.51100000000E-03 0.  1.
         12    1    3    3    0    0 -0.12194300026E+02  0.18012922350E+02  0.81499814030E+01  0.23229044784E+02  0.00000000000E+00 0. -1.
</event>
<event>
 7    1  0.1345786E-013  0.7246159E+02  0.7816164E-02  0.1226708E+00
        -11   -1    0    0    0    0  0.00000000000E+00  0.00000000000E+00  0.45593999997E+02  0.45594000000E+02  0.51100000000E-03 0.  1.
         11   -1    0    0    0    0 -0.00000000000E+00 -0.00000000000E+00 -0.45593999997E+02  0.45594000000E+02  0.51100000000E-03 0. -1.
    9900012    2    1    2    0    0  0.96547999454E+01 -0.44288596429E+01  0.15422342269E+02  0.72461585480E+02  0.70000019782E+02 0.  0.
         12    1    1    2    0    0 -0.96547999454E+01  0.44288596429E+01 -0.15422342269E+02  0.18726414520E+02  0.00000000000E+00 0. -1.
         11    1    3    3    0    0 -0.12070205064E+02  0.23710268505E+02  0.13298464803E+02  0.29744173366E+02  0.51100000000E-03 0. -1.
        -11    1    3    3    0    0  0.22967882393E+02 -0.16569195857E+02  0.83420015702E+01  0.29523733900E+02  0.51100000000E-03 0.  1.
         12    1    3    3    0    0 -0.12428773837E+01 -0.11569932291E+02 -0.62181241043E+01  0.13193678213E+02  0.00000000000E+00 0. -1.
</event>
<event>
 7    1  0.1345786E-013  0.7246157E+02  0.7816164E-02  0.1226708E+00
        -11   -1    0    0    0    0  0.00000000000E+00  0.00000000000E+00  0.45593999997E+02  0.45594000000E+02  0.51100000000E-03 0.  1.
         11   -1    0    0    0    0 -0.00000000000E+00 -0.00000000000E+00 -0.45593999997E+02  0.45594000000E+02  0.51100000000E-03 0. -1.
    9900012    2    1    2    0    0  0.12613473223E+02 -0.11240285002E+02  0.80768553883E+01  0.72461566633E+02  0.69999995231E+02 0.  0.
         12    1    1    2    0    0 -0.12613473223E+02  0.11240285002E+02 -0.80768553883E+01  0.18726433367E+02  0.00000000000E+00 0. -1.
         11    1    3    3    0    0  0.98646797119E+01  0.69696749725E+01  0.22255027779E+02  0.25321424461E+02  0.51100000000E-03 0.  1.
        -11    1    3    3    0    0  0.15747204716E+02 -0.14518704316E+02 -0.22664353831E+02  0.31183972906E+02  0.51100000000E-03 0. -1.
         12    1    3    3    0    0 -0.12998411205E+02 -0.36912556590E+01  0.84861814412E+01  0.15956169266E+02  0.00000000000E+00 0. -1.
</event>
<event>
 7    1  0.1345786E-013  0.7246159E+02  0.7816164E-02  0.1226708E+00
        -11   -1    0    0    0    0  0.00000000000E+00  0.00000000000E+00  0.45593999997E+02  0.45594000000E+02  0.51100000000E-03 0. -1.
         11   -1    0    0    0    0 -0.00000000000E+00 -0.00000000000E+00 -0.45593999997E+02  0.45594000000E+02  0.51100000000E-03 0.  1.
    9900012    2    1    2    0    0 -0.25269288413E+01 -0.18338698449E+02  0.28258177428E+01  0.72461588809E+02  0.70000024119E+02 0.  0.
         12    1    1    2    0    0  0.25269288413E+01  0.18338698449E+02 -0.28258177428E+01  0.18726411191E+02  0.00000000000E+00 0. -1.
         11    1    3    3    0    0  0.11370348621E+02 -0.40181094713E+02  0.63510767365E+01  0.42239097719E+02  0.51100000000E-03 0. -1.
        -11    1    3    3    0    0 -0.43936974436E+01  0.59136986344E+01 -0.82712800335E+01  0.11076573587E+02  0.51100000000E-03 0.  1.
         12    1    3    3    0    0 -0.95035800187E+01  0.15928697630E+02  0.47460210399E+01  0.19145917504E+02  0.00000000000E+00 0. -1.
</event>
<event>
 7    1  0.1345786E-013  0.7246153E+02  0.7816164E-02  0.1226708E+00
        -11   -1    0    0    0    0  0.00000000000E+00  0.00000000000E+00  0.45593999997E+02  0.45594000000E+02  0.51100000000E-03 0.  1.
         11   -1    0    0    0    0 -0.00000000000E+00 -0.00000000000E+00 -0.45593999997E+02  0.45594000000E+02  0.51100000000E-03 0. -1.
    9900012    2    1    2    0    0  0.16864144711E+01 -0.28963049131E+01  0.18424119537E+02  0.72461527918E+02  0.69999944797E+02 0.  0.
         12    1    1    2    0    0 -0.16864144711E+01  0.28963049131E+01 -0.18424119537E+02  0.18726472082E+02  0.00000000000E+00 0. -1.
         11    1    3    3    0    0 -0.14035183515E+02  0.61035466957E+01 -0.95039146810E+01  0.18015661328E+02  0.51100000000E-03 0. -1.
        -11    1    3    3    0    0  0.29077939587E+02 -0.12379384264E+02  0.25154647906E+02  0.40392227432E+02  0.51100000000E-03 0.  1.
        -12    1    3    3    0    0 -0.13356341601E+02  0.33795326556E+01  0.27733863125E+01  0.14053639158E+02  0.00000000000E+00 0.  1.
</event>
<event>
 7    1  0.1345786E-013  0.7246151E+02  0.7816164E-02  0.1226708E+00
        -11   -1    0    0    0    0  0.00000000000E+00  0.00000000000E+00  0.45593999997E+02  0.45594000000E+02  0.51100000000E-03 0. -1.
         11   -1    0    0    0    0 -0.00000000000E+00 -0.00000000000E+00 -0.45593999997E+02  0.45594000000E+02  0.51100000000E-03 0.  1.
    9900012    2    1    2    0    0  0.12826883722E+02 -0.10843685455E+02 -0.82805254070E+01  0.72461506434E+02  0.69999916809E+02 0.  0.
         12    1    1    2    0    0 -0.12826883722E+02  0.10843685455E+02  0.82805254070E+01  0.18726493566E+02  0.00000000000E+00 0. -1.
         11    1    3    3    0    0  0.46760984393E+01  0.21868630255E+02  0.34245088203E+01  0.22623663425E+02  0.51100000000E-03 0. -1.
        -11    1    3    3    0    0  0.64720998595E+01 -0.34730359795E+02  0.24769379650E+01  0.35414985388E+02  0.51100000000E-03 0.  1.
         12    1    3    3    0    0  0.16786854234E+01  0.20180440840E+01 -0.14181972192E+02  0.14422857620E+02  0.00000000000E+00 0. -1.
</event>
<event>
 7    1  0.1345786E-013  0.7246154E+02  0.7816164E-02  0.1226708E+00
        -11   -1    0    0    0    0  0.00000000000E+00  0.00000000000E+00  0.45593999997E+02  0.45594000000E+02  0.51100000000E-03 0.  1.
         11   -1    0    0    0    0 -0.00000000000E+00 -0.00000000000E+00 -0.45593999997E+02  0.45594000000E+02  0.51100000000E-03 0. -1.
    9900012    2    1    2    0    0 -0.15895672114E+02  0.98955860178E+01 -0.29210951382E+00  0.72461538974E+02  0.69999959200E+02 0.  0.
         12    1    1    2    0    0  0.15895672114E+02 -0.98955860178E+01  0.29210951382E+00  0.18726461026E+02  0.00000000000E+00 0. -1.
         11    1    3    3    0    0  0.41732471968E+01 -0.24103417339E+02 -0.60256236140E+01  0.25193230436E+02  0.51100000000E-03 0. -1.
        -11    1    3    3    0    0 -0.20024739153E+02  0.10203965364E+02  0.67046184341E+01  0.23453421838E+02  0.51100000000E-03 0.  1.
         12    1    3    3    0    0 -0.44180157894E-01  0.23795037993E+02 -0.97110433391E+00  0.23814886701E+02  0.00000000000E+00 0. -1.
</event>
<event>
 7    1  0.1345786E-013  0.7246151E+02  0.7816164E-02  0.1226708E+00
        -11   -1    0    0    0    0  0.00000000000E+00  0.00000000000E+00  0.45593999997E+02  0.45594000000E+02  0.51100000000E-03 0. -1.
         11   -1    0    0    0    0 -0.00000000000E+00 -0.00000000000E+00 -0.45593999997E+02  0.45594000000E+02  0.51100000000E-03 0.  1.
    9900012    2    1    2    0    0 -0.12027184216E+02  0.89779724099E+01 -0.11199294975E+02  0.72461511896E+02  0.69999923925E+02 0.  0.
         12    1    1    2    0    0  0.12027184216E+02 -0.89779724099E+01  0.11199294975E+02  0.18726488104E+02  0.00000000000E+00 0. -1.
         11    1    3    3    0    0  0.37304530463E+01 -0.53969518692E+01  0.82951562816E+01  0.10576057271E+02  0.51100000000E-03 0. -1.
        -11    1    3    3    0    0 -0.12851817410E+02  0.19212428596E+02 -0.36925607006E+02  0.43563598065E+02  0.51100000000E-03 0.  1.
        -12    1    3    3    0    0 -0.29058198524E+01 -0.48375043173E+01  0.17431155750E+02  0.18321856560E+02  0.00000000000E+00 0.  1.
</event>
<event>
 7    1  0.1345786E-013  0.7246159E+02  0.7816164E-02  0.1226708E+00
        -11   -1    0    0    0    0  0.00000000000E+00  0.00000000000E+00  0.45593999997E+02  0.45594000000E+02  0.51100000000E-03 0. -1.
         11   -1    0    0    0    0 -0.00000000000E+00 -0.00000000000E+00 -0.45593999997E+02  0.45594000000E+02  0.51100000000E-03 0.  1.
    9900012    2    1    2    0    0 -0.82270733007E+01 -0.77376984468E+01 -0.14937264467E+02  0.72461585979E+02  0.70000020432E+02 0.  0.
         12    1    1    2    0    0  0.82270733007E+01  0.77376984468E+01  0.14937264467E+02  0.18726414021E+02  0.00000000000E+00 0. -1.
         11    1    3    3    0    0 -0.32086681925E+02 -0.13622406104E+02 -0.17943824890E+02  0.39205942878E+02  0.51100000000E-03 0.  1.
        -11    1    3    3    0    0  0.23812409908E+02 -0.24531105842E+01 -0.10950375599E+01  0.23963466458E+02  0.51100000000E-03 0. -1.
        -12    1    3    3    0    0  0.47198715671E-01  0.83378182415E+01  0.41015979827E+01  0.92921766427E+01  0.00000000000E+00 0.  1.
</event>
<event>
 8    1  0.1345786E-013  0.7246162E+02  0.7816164E-02  0.1226708E+00
        -11   -1    0    0    0    0  0.00000000000E+00  0.00000000000E+00  0.45593999997E+02  0.45594000000E+02  0.51100000000E-03 0. -1.
         11   -1    0    0    0    0 -0.00000000000E+00 -0.00000000000E+00 -0.45593999997E+02  0.45594000000E+02  0.51100000000E-03 0.  1.
    9900012    2    1    2    0    0  0.11023064907E+02  0.82085792999E+01  0.12719616242E+02  0.72461618304E+02  0.70000062542E+02 0.  0.
        -24    2    3    3    0    0  0.10843843666E+02  0.97148282615E+01 -0.80869500545E+01  0.51599832486E+02  0.48838275132E+02 0.  0.
         12    1    1    2    0    0 -0.11023064907E+02 -0.82085792999E+01 -0.12719616242E+02  0.18726381696E+02  0.00000000000E+00 0. -1.
         11    1    4    4    0    0 -0.26440102168E+01 -0.67066020873E+01 -0.23995019469E+02  0.25054545719E+02  0.51100000000E-03 0.  1.
        -11    1    3    3    0    0  0.17922124106E+00 -0.15062489616E+01  0.20806566297E+02  0.20861785818E+02  0.51100000000E-03 0. -1.
        -12    1    4    4    0    0  0.13487853883E+02  0.16421430349E+02  0.15908069415E+02  0.26545286768E+02  0.00000000000E+00 0.  1.
</event>
<event>
 7    1  0.1345786E-013  0.7246226E+02  0.7816164E-02  0.1226706E+00
        -11   -1    0    0    0    0  0.00000000000E+00  0.00000000000E+00  0.45593999997E+02  0.45594000000E+02  0.51100000000E-03 0. -1.
         11   -1    0    0    0    0 -0.00000000000E+00 -0.00000000000E+00 -0.45593999997E+02  0.45594000000E+02  0.51100000000E-03 0.  1.
    9900012    2    1    2    0    0  0.80558571787E+01  0.16127297691E+02 -0.50662301779E+01  0.72462262260E+02  0.70000901408E+02 0.  0.
         12    1    1    2    0    0 -0.80558571787E+01 -0.16127297691E+02  0.50662301779E+01  0.18725737740E+02  0.00000000000E+00 0. -1.
         11    1    3    3    0    0 -0.96327793158E+01  0.11759849319E+02 -0.13658422233E+02  0.20436168710E+02  0.51100000000E-03 0. -1.
        -11    1    3    3    0    0  0.41985054987E+01 -0.72299270166E+01  0.25893878181E+02  0.27210149221E+02  0.51100000000E-03 0.  1.
        -12    1    3    3    0    0  0.13490130996E+02  0.11597375389E+02 -0.17301686126E+02  0.24815944330E+02  0.00000000000E+00 0.  1.
</event>
<event>
 7    1  0.1345786E-013  0.7246155E+02  0.7816164E-02  0.1226708E+00
        -11   -1    0    0    0    0  0.00000000000E+00  0.00000000000E+00  0.45593999997E+02  0.45594000000E+02  0.51100000000E-03 0.  1.
         11   -1    0    0    0    0 -0.00000000000E+00 -0.00000000000E+00 -0.45593999997E+02  0.45594000000E+02  0.51100000000E-03 0. -1.
    9900012    2    1    2    0    0 -0.15311483706E+02  0.77803476792E+01  0.74635448327E+01  0.72461552266E+02  0.69999976514E+02 0.  0.
         12    1    1    2    0    0  0.15311483706E+02 -0.77803476792E+01 -0.74635448327E+01  0.18726447734E+02  0.00000000000E+00 0. -1.
         11    1    3    3    0    0 -0.30661455221E+02  0.21115465029E+01  0.99131327081E+01  0.32293244886E+02  0.51100000000E-03 0. -1.
        -11    1    3    3    0    0  0.13548887278E+02  0.20675535637E+01  0.16124732627E+02  0.21162564276E+02  0.51100000000E-03 0.  1.
         12    1    3    3    0    0  0.18010842375E+01  0.36012476127E+01 -0.18574320502E+02  0.19005743104E+02  0.00000000000E+00 0. -1.
</event>
<event>
 7    1  0.1345786E-013  0.7246156E+02  0.7816164E-02  0.1226708E+00
        -11   -1    0    0    0    0  0.00000000000E+00  0.00000000000E+00  0.45593999997E+02  0.45594000000E+02  0.51100000000E-03 0. -1.
         11   -1    0    0    0    0 -0.00000000000E+00 -0.00000000000E+00 -0.45593999997E+02  0.45594000000E+02  0.51100000000E-03 0.  1.
    9900012    2    1    2    0    0 -0.22426559142E+01 -0.61064098763E+01 -0.17560230758E+02  0.72461562768E+02  0.69999990196E+02 0.  0.
         12    1    1    2    0    0  0.22426559142E+01  0.61064098763E+01  0.17560230758E+02  0.18726437232E+02  0.00000000000E+00 0. -1.
         11    1    3    3    0    0 -0.29015131570E+02 -0.66199376278E+01 -0.17724524126E+02  0.34638998109E+02  0.51100000000E-03 0. -1.
        -11    1    3    3    0    0  0.30056562276E+02 -0.34598151264E+01 -0.48381694992E+01  0.30639437673E+02  0.51100000000E-03 0.  1.
         12    1    3    3    0    0 -0.32840866206E+01  0.39733428778E+01  0.50024628680E+01  0.71831269863E+01  0.00000000000E+00 0. -1.
</event>
<event>
 7    1  0.1345786E-013  0.7246155E+02  0.7816164E-02  0.1226708E+00
        -11   -1    0    0    0    0  0.00000000000E+00  0.00000000000E+00  0.45593999997E+02  0.45594000000E+02  0.51100000000E-03 0. -1.
         11   -1    0    0    0    0 -0.00000000000E+00 -0.00000000000E+00 -0.45593999997E+02  0.45594000000E+02  0.51100000000E-03 0.  1.
    9900012    2    1    2    0    0  0.18221003123E+02 -0.10323581197E+01 -0.41963246244E+01  0.72461551900E+02  0.69999976037E+02 0.  0.
         12    1    1    2    0    0 -0.18221003123E+02  0.10323581197E+01  0.41963246244E+01  0.18726448100E+02  0.00000000000E+00 0. -1.
         11    1    3    3    0    0  0.17108909833E+01  0.11785365556E+02  0.13599896210E+02  0.18077034227E+02  0.51100000000E-03 0. -1.
        -11    1    3    3    0    0  0.15059182409E+02 -0.46619577900E+01 -0.33279553654E+02  0.36824468997E+02  0.51100000000E-03 0.  1.
        -12    1    3    3    0    0  0.14509297310E+01 -0.81557658860E+01  0.15483332820E+02  0.17560048675E+02  0.00000000000E+00 0.  1.
</event>
<event>
 7    1  0.1345786E-013  0.7246157E+02  0.7816164E-02  0.1226708E+00
        -11   -1    0    0    0    0  0.00000000000E+00  0.00000000000E+00  0.45593999997E+02  0.45594000000E+02  0.51100000000E-03 0. -1.
         11   -1    0    0    0    0 -0.00000000000E+00 -0.00000000000E+00 -0.45593999997E+02  0.45594000000E+02  0.51100000000E-03 0.  1.
    9900012    2    1    2    0    0 -0.68344022088E+01  0.19806888826E+01 -0.17321863984E+02  0.72461570712E+02  0.70000000544E+02 0.  0.
         12    1    1    2    0    0  0.68344022088E+01 -0.19806888826E+01  0.17321863984E+02  0.18726429288E+02  0.00000000000E+00 0. -1.
         11    1    3    3    0    0  0.24978919129E+02  0.79674127912E+01 -0.88890289642E+01  0.27684669108E+02  0.51100000000E-03 0. -1.
        -11    1    3    3    0    0 -0.19218558375E+02 -0.18106925362E+02 -0.36568872058E+01  0.26656829451E+02  0.51100000000E-03 0.  1.
        -12    1    3    3    0    0 -0.12594762962E+02  0.12120201453E+02 -0.47759478135E+01  0.18120072154E+02  0.00000000000E+00 0.  1.
</event>
<event>
 7    1  0.1345786E-013  0.7246151E+02  0.7816164E-02  0.1226708E+00
        -11   -1    0    0    0    0  0.00000000000E+00  0.00000000000E+00  0.45593999997E+02  0.45594000000E+02  0.51100000000E-03 0. -1.
         11   -1    0    0    0    0 -0.00000000000E+00 -0.00000000000E+00 -0.45593999997E+02  0.45594000000E+02  0.51100000000E-03 0.  1.
    9900012    2    1    2    0    0 -0.53395374434E+01 -0.11505608181E+02 -0.13776498458E+02  0.72461505681E+02  0.69999915829E+02 0.  0.
         12    1    1    2    0    0  0.53395374434E+01  0.11505608181E+02  0.13776498458E+02  0.18726494319E+02  0.00000000000E+00 0. -1.
         11    1    3    3    0    0 -0.12824913501E+02 -0.26518942366E+01  0.19723450585E+02  0.23675418742E+02  0.51100000000E-03 0. -1.
        -11    1    3    3    0    0 -0.25656164370E+00 -0.12315072536E+02 -0.37455157875E+02  0.39428615080E+02  0.51100000000E-03 0.  1.
        -12    1    3    3    0    0  0.77419377018E+01  0.34613585912E+01  0.39552088325E+01  0.93574718586E+01  0.00000000000E+00 0.  1.
</event>
<event>
 7    1  0.1345786E-013  0.7246172E+02  0.7816164E-02  0.1226708E+00
        -11   -1    0    0    0    0  0.00000000000E+00  0.00000000000E+00  0.45593999997E+02  0.45594000000E+02  0.51100000000E-03 0.  1.
         11   -1    0    0    0    0 -0.00000000000E+00 -0.00000000000E+00 -0.45593999997E+02  0.45594000000E+02  0.51100000000E-03 0. -1.
    9900012    2    1    2    0    0 -0.11278067656E+02 -0.27739880067E-01  0.14949173783E+02  0.72461724974E+02  0.70000201499E+02 0.  0.
         12    1    1    2    0    0  0.11278067656E+02  0.27739880067E-01 -0.14949173783E+02  0.18726275026E+02  0.00000000000E+00 0. -1.
         11    1    3    3    0    0 -0.32866703155E+02  0.70625012175E+01 -0.57568221917E+01  0.34106305894E+02  0.51100000000E-03 0. -1.
        -11    1    3    3    0    0  0.88728286407E+01 -0.44224422777E+01  0.23105935387E+02  0.25142977830E+02  0.51100000000E-03 0.  1.
         12    1    3    3    0    0  0.12715806858E+02 -0.26677988199E+01 -0.23999394128E+01  0.13212441250E+02  0.00000000000E+00 0. -1.
</event>
<event>
 7    1  0.1345786E-013  0.7246154E+02  0.7816164E-02  0.1226708E+00
        -11   -1    0    0    0    0  0.00000000000E+00  0.00000000000E+00  0.45593999997E+02  0.45594000000E+02  0.51100000000E-03 0.  1.
         11   -1    0    0    0    0 -0.00000000000E+00 -0.00000000000E+00 -0.45593999997E+02  0.45594000000E+02  0.51100000000E-03 0. -1.
    9900012    2    1    2    0    0 -0.10170897133E+02  0.15014898732E+02  0.46675478998E+01  0.72461539154E+02  0.69999959434E+02 0.  0.
         12    1    1    2    0    0  0.10170897133E+02 -0.15014898732E+02 -0.46675478998E+01  0.18726460846E+02  0.00000000000E+00 0. -1.
         11    1    3    3    0    0  0.15911509347E+02 -0.74888680543E+01  0.99611504254E+01  0.20210981977E+02  0.51100000000E-03 0. -1.
        -11    1    3    3    0    0 -0.17532558040E+02  0.32106019968E+02  0.33866333452E+01  0.36737669977E+02  0.51100000000E-03 0.  1.
         12    1    3    3    0    0 -0.85498484395E+01 -0.96022531823E+01 -0.86802358709E+01  0.15512887200E+02  0.00000000000E+00 0. -1.
</event>
<event>
 7    1  0.1345786E-013  0.7246161E+02  0.7816164E-02  0.1226708E+00
        -11   -1    0    0    0    0  0.00000000000E+00  0.00000000000E+00  0.45593999997E+02  0.45594000000E+02  0.51100000000E-03 0.  1.
         11   -1    0    0    0    0 -0.00000000000E+00 -0.00000000000E+00 -0.45593999997E+02  0.45594000000E+02  0.51100000000E-03 0. -1.
    9900012    2    1    2    0    0  0.12991571142E+02 -0.13478260210E+02 -0.48285339392E+00  0.72461613097E+02  0.70000055759E+02 0.  0.
         12    1    1    2    0    0 -0.12991571142E+02  0.13478260210E+02  0.48285339392E+00  0.18726386903E+02  0.00000000000E+00 0. -1.
         11    1    3    3    0    0  0.24522041737E+01  0.95676996165E+01 -0.13892519642E+02  0.17045711588E+02  0.51100000000E-03 0. -1.
        -11    1    3    3    0    0  0.19364019185E+02 -0.34095205513E+02  0.12856900324E+02  0.41264369184E+02  0.51100000000E-03 0.  1.
        -12    1    3    3    0    0 -0.88246522172E+01  0.11049245686E+02  0.55276592479E+00  0.14151532325E+02  0.00000000000E+00 0.  1.
</event>
<event>
 7    1  0.1345786E-013  0.7246155E+02  0.7816164E-02  0.1226708E+00
        -11   -1    0    0    0    0  0.00000000000E+00  0.00000000000E+00  0.45593999997E+02  0.45594000000E+02  0.51100000000E-03 0.  1.
         11   -1    0    0    0    0 -0.00000000000E+00 -0.00000000000E+00 -0.45593999997E+02  0.45594000000E+02  0.51100000000E-03 0. -1.
    9900012    2    1    2    0    0 -0.53903523006E+01 -0.82923347580E+01  0.15901607934E+02  0.72461552164E+02  0.69999976382E+02 0.  0.
         12    1    1    2    0    0  0.53903523006E+01  0.82923347580E+01 -0.15901607934E+02  0.18726447836E+02  0.00000000000E+00 0. -1.
         11    1    3    3    0    0  0.26493391242E+02  0.50167702041E+01  0.79145254200E+01  0.28101734389E+02  0.51100000000E-03 0. -1.
        -11    1    3    3    0    0 -0.12089983005E+02  0.46495348398E+01  0.11602659456E+02  0.17389869753E+02  0.51100000000E-03 0.  1.
         12    1    3    3    0    0 -0.19793760537E+02 -0.17958639802E+02 -0.36155769424E+01  0.26969948023E+02  0.00000000000E+00 0. -1.
</event>
<event>
 7    1  0.1345786E-013  0.7246161E+02  0.7816164E-02  0.1226708E+00
        -11   -1    0    0    0    0  0.00000000000E+00  0.00000000000E+00  0.45593999997E+02  0.45594000000E+02  0.51100000000E-03 0.  1.
         11   -1    0    0    0    0 -0.00000000000E+00 -0.00000000000E+00 -0.45593999997E+02  0.45594000000E+02  0.51100000000E-03 0. -1.
    9900012    2    1    2    0    0 -0.11491292910E+02  0.10628610551E+01  0.14747818696E+02  0.72461611062E+02  0.70000053107E+02 0.  0.
         12    1    1    2    0    0  0.11491292910E+02 -0.10628610551E+01 -0.14747818696E+02  0.18726388938E+02  0.00000000000E+00 0. -1.
         11    1    3    3    0    0 -0.38072679302E+00  0.14446907403E+02 -0.12650735654E+02  0.19206748794E+02  0.51100000000E-03 0. -1.
        -11    1    3    3    0    0  0.24103541641E+01 -0.51937517841E+01  0.35174707665E+02  0.35637689661E+02  0.51100000000E-03 0.  1.
         12    1    3    3    0    0 -0.13520920281E+02 -0.81902945637E+01 -0.77761533142E+01  0.17617172607E+02  0.00000000000E+00 0. -1.
</event>
<event>
 7    1  0.1345786E-013  0.7246207E+02  0.7816164E-02  0.1226707E+00
        -11   -1    0    0    0    0  0.00000000000E+00  0.00000000000E+00  0.45593999997E+02  0.45594000000E+02  0.51100000000E-03 0. -1.
         11   -1    0    0    0    0 -0.00000000000E+00 -0.00000000000E+00 -0.45593999997E+02  0.45594000000E+02  0.51100000000E-03 0.  1.
    9900012    2    1    2    0    0  0.14979206716E+02  0.10555884401E+01 -0.11187921650E+02  0.72462069005E+02  0.70000649660E+02 0.  0.
         12    1    1    2    0    0 -0.14979206716E+02 -0.10555884401E+01  0.11187921650E+02  0.18725930995E+02  0.00000000000E+00 0. -1.
         11    1    3    3    0    0  0.72711492419E+01 -0.14874560254E+02 -0.78376213698E+01  0.18318036550E+02  0.51100000000E-03 0. -1.
        -11    1    3    3    0    0 -0.18648420679E+02  0.13399754850E+02 -0.12481252079E+02  0.26136156520E+02  0.51100000000E-03 0.  1.
        -12    1    3    3    0    0  0.26356478153E+02  0.25303938439E+01  0.91309517994E+01  0.28007875935E+02  0.00000000000E+00 0.  1.
</event>
<event>
 7    1  0.1345786E-013  0.7246158E+02  0.7816164E-02  0.1226708E+00
        -11   -1    0    0    0    0  0.00000000000E+00  0.00000000000E+00  0.45593999997E+02  0.45594000000E+02  0.51100000000E-03 0. -1.
         11   -1    0    0    0    0 -0.00000000000E+00 -0.00000000000E+00 -0.45593999997E+02  0.45594000000E+02  0.51100000000E-03 0.  1.
    9900012    2    1    2    0    0 -0.35780912072E+01  0.15385482702E+02 -0.10057978752E+02  0.72461581462E+02  0.70000014549E+02 0.  0.
         12    1    1    2    0    0  0.35780912072E+01 -0.15385482702E+02  0.10057978752E+02  0.18726418538E+02  0.00000000000E+00 0. -1.
         11    1    3    3    0    0 -0.14781618035E+02  0.14520866774E+02  0.51880887785E+01  0.21360432323E+02  0.51100000000E-03 0. -1.
        -11    1    3    3    0    0 -0.36792779780E+01 -0.68570193424E+01 -0.28616760950E+02  0.29655940522E+02  0.51100000000E-03 0.  1.
         12    1    3    3    0    0  0.14882804806E+02  0.77216352712E+01  0.13370693420E+02  0.21445208618E+02  0.00000000000E+00 0. -1.
</event>
<event>
 7    1  0.1345786E-013  0.7246155E+02  0.7816164E-02  0.1226708E+00
        -11   -1    0    0    0    0  0.00000000000E+00  0.00000000000E+00  0.45593999997E+02  0.45594000000E+02  0.51100000000E-03 0. -1.
         11   -1    0    0    0    0 -0.00000000000E+00 -0.00000000000E+00 -0.45593999997E+02  0.45594000000E+02  0.51100000000E-03 0.  1.
    9900012    2    1    2    0    0 -0.64034326942E+01 -0.86026278277E+01 -0.15351570401E+02  0.72461551602E+02  0.69999975650E+02 0.  0.
         12    1    1    2    0    0  0.64034326942E+01  0.86026278277E+01  0.15351570401E+02  0.18726448398E+02  0.00000000000E+00 0. -1.
         11    1    3    3    0    0 -0.28391072628E+02 -0.88107891325E+01  0.67948065465E+01  0.30493481375E+02  0.51100000000E-03 0. -1.
        -11    1    3    3    0    0  0.96499614579E+01 -0.93510654783E+01 -0.22668270228E+02  0.26351748654E+02  0.51100000000E-03 0.  1.
         12    1    3    3    0    0  0.12337678476E+02  0.95592267832E+01  0.52189328035E+00  0.15616321573E+02  0.00000000000E+00 0. -1.
</event>
<event>
 7    1  0.1345786E-013  0.7246157E+02  0.7816164E-02  0.1226708E+00
        -11   -1    0    0    0    0  0.00000000000E+00  0.00000000000E+00  0.45593999997E+02  0.45594000000E+02  0.51100000000E-03 0.  1.
         11   -1    0    0    0    0 -0.00000000000E+00 -0.00000000000E+00 -0.45593999997E+02  0.45594000000E+02  0.51100000000E-03 0. -1.
    9900012    2    1    2    0    0  0.28289304465E+00  0.78778049524E+01  0.16986440846E+02  0.72461574502E+02  0.70000005481E+02 0.  0.
         12    1    1    2    0    0 -0.28289304465E+00 -0.78778049524E+01 -0.16986440846E+02  0.18726425498E+02  0.00000000000E+00 0. -1.
         11    1    3    3    0    0 -0.13859413742E+02 -0.13563537239E+02  0.29329441648E+01  0.19612624848E+02  0.51100000000E-03 0. -1.
        -11    1    3    3    0    0 -0.35655545984E+01  0.21600422975E+02  0.24043061548E+02  0.32517076455E+02  0.51100000000E-03 0.  1.
        -12    1    3    3    0    0  0.17707861385E+02 -0.15908078424E+00 -0.99895648675E+01  0.20331873199E+02  0.00000000000E+00 0.  1.
</event>
<event>
 7    1  0.1345786E-013  0.7246155E+02  0.7816164E-02  0.1226708E+00
        -11   -1    0    0    0    0  0.00000000000E+00  0.00000000000E+00  0.45593999997E+02  0.45594000000E+02  0.51100000000E-03 0.  1.
         11   -1    0    0    0    0 -0.00000000000E+00 -0.00000000000E+00 -0.45593999997E+02  0.45594000000E+02  0.51100000000E-03 0. -1.
    9900012    2    1    2    0    0  0.18654586625E+02 -0.10731329106E+01  0.12387979996E+01  0.72461552476E+02  0.69999976788E+02 0.  0.
         12    1    1    2    0    0 -0.18654586625E+02  0.10731329106E+01 -0.12387979996E+01  0.18726447524E+02  0.00000000000E+00 0. -1.
         11    1    3    3    0    0  0.12878431462E+02 -0.14103129342E+02 -0.15511232724E+01  0.19161373589E+02  0.51100000000E-03 0. -1.
        -11    1    3    3    0    0  0.18026664848E+02  0.26688366861E+02  0.97925131369E+01  0.33661890693E+02  0.51100000000E-03 0.  1.
        -12    1    3    3    0    0 -0.12250509685E+02 -0.13658370429E+02 -0.70025918649E+01  0.19638288193E+02  0.00000000000E+00 0.  1.
</event>
<event>
 7    1  0.1345786E-013  0.7246157E+02  0.7816164E-02  0.1226708E+00
        -11   -1    0    0    0    0  0.00000000000E+00  0.00000000000E+00  0.45593999997E+02  0.45594000000E+02  0.51100000000E-03 0. -1.
         11   -1    0    0    0    0 -0.00000000000E+00 -0.00000000000E+00 -0.45593999997E+02  0.45594000000E+02  0.51100000000E-03 0.  1.
    9900012    2    1    2    0    0  0.13657989835E+02 -0.12764822957E+02  0.10943555066E+01  0.72461574676E+02  0.70000005708E+02 0.  0.
         12    1    1    2    0    0 -0.13657989835E+02  0.12764822957E+02 -0.10943555066E+01  0.18726425324E+02  0.00000000000E+00 0. -1.
         11    1    3    3    0    0 -0.23549371485E+01 -0.13482421883E+02 -0.16592372238E+02  0.21508794610E+02  0.51100000000E-03 0.  1.
        -11    1    3    3    0    0  0.10789298073E+02  0.16187555199E+02  0.26125602418E+02  0.32572887471E+02  0.51100000000E-03 0. -1.
         12    1    3    3    0    0  0.52236289102E+01 -0.15469956272E+02 -0.84388746735E+01  0.18379892595E+02  0.00000000000E+00 0. -1.
</event>
<event>
 7    1  0.1345786E-013  0.7246153E+02  0.7816164E-02  0.1226708E+00
        -11   -1    0    0    0    0  0.00000000000E+00  0.00000000000E+00  0.45593999997E+02  0.45594000000E+02  0.51100000000E-03 0.  1.
         11   -1    0    0    0    0 -0.00000000000E+00 -0.00000000000E+00 -0.45593999997E+02  0.45594000000E+02  0.51100000000E-03 0. -1.
    9900012    2    1    2    0    0  0.17505051683E+02  0.39921492981E+00 -0.66403808053E+01  0.72461525046E+02  0.69999941055E+02 0.  0.
         12    1    1    2    0    0 -0.17505051683E+02 -0.39921492981E+00  0.66403808053E+01  0.18726474954E+02  0.00000000000E+00 0. -1.
         11    1    3    3    0    0  0.65376705548E+01  0.41176848381E+01 -0.19559750473E+02  0.21030461325E+02  0.51100000000E-03 0. -1.
        -11    1    3    3    0    0 -0.12113465688E+01  0.18584820894E+02  0.17562123859E+02  0.25598654708E+02  0.51100000000E-03 0.  1.
        -12    1    3    3    0    0  0.12178727697E+02 -0.22303290802E+02 -0.46427541913E+01  0.25832409013E+02  0.00000000000E+00 0.  1.
</event>
<event>
 7    1  0.1345786E-013  0.7246160E+02  0.7816164E-02  0.1226708E+00
        -11   -1    0    0    0    0  0.00000000000E+00  0.00000000000E+00  0.45593999997E+02  0.45594000000E+02  0.51100000000E-03 0.  1.
         11   -1    0    0    0    0 -0.00000000000E+00 -0.00000000000E+00 -0.45593999997E+02  0.45594000000E+02  0.51100000000E-03 0. -1.
    9900012    2    1    2    0    0 -0.24822600028E+00  0.18408148086E+02 -0.34287813564E+01  0.72461599553E+02  0.70000038115E+02 0.  0.
         12    1    1    2    0    0  0.24822600028E+00 -0.18408148086E+02  0.34287813564E+01  0.18726400447E+02  0.00000000000E+00 0. -1.
         11    1    3    3    0    0  0.43298348275E+00 -0.12993395665E+02  0.21004058725E+02  0.24701949088E+02  0.51100000000E-03 0. -1.
        -11    1    3    3    0    0  0.84514785006E+01  0.12750697939E+02 -0.22078025668E+02  0.26859765532E+02  0.51100000000E-03 0.  1.
        -12    1    3    3    0    0 -0.91326879836E+01  0.18650845812E+02 -0.23548144131E+01  0.20899884933E+02  0.00000000000E+00 0.  1.
</event>
<event>
 7    1  0.1345786E-013  0.7246157E+02  0.7816164E-02  0.1226708E+00
        -11   -1    0    0    0    0  0.00000000000E+00  0.00000000000E+00  0.45593999997E+02  0.45594000000E+02  0.51100000000E-03 0.  1.
         11   -1    0    0    0    0 -0.00000000000E+00 -0.00000000000E+00 -0.45593999997E+02  0.45594000000E+02  0.51100000000E-03 0. -1.
    9900012    2    1    2    0    0  0.34390279470E+01  0.18040273379E+02 -0.36607164520E+01  0.72461568900E+02  0.69999998184E+02 0.  0.
         12    1    1    2    0    0 -0.34390279470E+01 -0.18040273379E+02  0.36607164520E+01  0.18726431100E+02  0.00000000000E+00 0. -1.
         11    1    3    3    0    0  0.16392216914E+01  0.39477050317E+02 -0.30012095900E+01  0.39624888754E+02  0.51100000000E-03 0. -1.
        -11    1    3    3    0    0  0.19244202434E+00  0.85636899975E+00  0.85992000457E+01  0.86438789605E+01  0.51100000000E-03 0.  1.
         12    1    3    3    0    0  0.16073642313E+01 -0.22293145938E+02 -0.92587069076E+01  0.24192801186E+02  0.00000000000E+00 0. -1.
</event>
<event>
 7    1  0.1345786E-013  0.7246157E+02  0.7816164E-02  0.1226708E+00
        -11   -1    0    0    0    0  0.00000000000E+00  0.00000000000E+00  0.45593999997E+02  0.45594000000E+02  0.51100000000E-03 0.  1.
         11   -1    0    0    0    0 -0.00000000000E+00 -0.00000000000E+00 -0.45593999997E+02  0.45594000000E+02  0.51100000000E-03 0. -1.
    9900012    2    1    2    0    0  0.11452653025E+02  0.36803676357E+01  0.14351678926E+02  0.72461573345E+02  0.70000003975E+02 0.  0.
         12    1    1    2    0    0 -0.11452653025E+02 -0.36803676357E+01 -0.14351678926E+02  0.18726426655E+02  0.00000000000E+00 0. -1.
         11    1    3    3    0    0 -0.16604583722E+02 -0.12485974758E+02 -0.12645103661E+02  0.24320987091E+02  0.51100000000E-03 0. -1.
        -11    1    3    3    0    0  0.28581429768E+02  0.16527870551E+02  0.15235223654E+02  0.36361802383E+02  0.51100000000E-03 0.  1.
         12    1    3    3    0    0 -0.52419302040E+00 -0.36152815686E+00  0.11761558934E+02  0.11778783871E+02  0.00000000000E+00 0. -1.
</event>
<event>
 7    1  0.1345786E-013  0.7246152E+02  0.7816164E-02  0.1226708E+00
        -11   -1    0    0    0    0  0.00000000000E+00  0.00000000000E+00  0.45593999997E+02  0.45594000000E+02  0.51100000000E-03 0.  1.
         11   -1    0    0    0    0 -0.00000000000E+00 -0.00000000000E+00 -0.45593999997E+02  0.45594000000E+02  0.51100000000E-03 0. -1.
    9900012    2    1    2    0    0  0.15425963803E+02  0.54920972880E+01  0.90861102878E+01  0.72461524303E+02  0.69999940088E+02 0.  0.
         12    1    1    2    0    0 -0.15425963803E+02 -0.54920972880E+01 -0.90861102878E+01  0.18726475697E+02  0.00000000000E+00 0. -1.
         11    1    3    3    0    0  0.17328972297E+02 -0.85790665245E+01  0.74478131373E+01  0.20721090321E+02  0.51100000000E-03 0. -1.
        -11    1    3    3    0    0 -0.17268369850E+02  0.13545164426E+02  0.18657125641E+02  0.28805492775E+02  0.51100000000E-03 0.  1.
        -12    1    3    3    0    0  0.15365361356E+02  0.52599938682E+00 -0.17018828490E+02  0.22934941206E+02  0.00000000000E+00 0.  1.
</event>
<event>
 7    1  0.1345786E-013  0.7246155E+02  0.7816164E-02  0.1226708E+00
        -11   -1    0    0    0    0  0.00000000000E+00  0.00000000000E+00  0.45593999997E+02  0.45594000000E+02  0.51100000000E-03 0.  1.
         11   -1    0    0    0    0 -0.00000000000E+00 -0.00000000000E+00 -0.45593999997E+02  0.45594000000E+02  0.51100000000E-03 0. -1.
    9900012    2    1    2    0    0 -0.11231563153E+02  0.73576522141E+00  0.14966316308E+02  0.72461548517E+02  0.69999971631E+02 0.  0.
         12    1    1    2    0    0  0.11231563153E+02 -0.73576522141E+00 -0.14966316308E+02  0.18726451483E+02  0.00000000000E+00 0. -1.
         11    1    3    3    0    0  0.16440505173E+02  0.43070809768E+01 -0.10623470782E+02  0.20042437192E+02  0.51100000000E-03 0. -1.
        -11    1    3    3    0    0 -0.30094765918E+02  0.96862670349E+01  0.13734161374E+02  0.34469492216E+02  0.51100000000E-03 0.  1.
        -12    1    3    3    0    0  0.24226975917E+01 -0.13257582790E+02  0.11855625715E+02  0.17949619109E+02  0.00000000000E+00 0.  1.
</event>
<event>
 7    1  0.1345786E-013  0.7246154E+02  0.7816164E-02  0.1226708E+00
        -11   -1    0    0    0    0  0.00000000000E+00  0.00000000000E+00  0.45593999997E+02  0.45594000000E+02  0.51100000000E-03 0. -1.
         11   -1    0    0    0    0 -0.00000000000E+00 -0.00000000000E+00 -0.45593999997E+02  0.45594000000E+02  0.51100000000E-03 0.  1.
    9900012    2    1    2    0    0  0.28211027676E+01  0.13454973604E+02 -0.12715557811E+02  0.72461538883E+02  0.69999959081E+02 0.  0.
         12    1    1    2    0    0 -0.28211027676E+01 -0.13454973604E+02  0.12715557811E+02  0.18726461117E+02  0.00000000000E+00 0. -1.
         11    1    3    3    0    0 -0.79075936069E+01  0.22680877655E+02  0.22258825404E+02  0.32747634364E+02  0.51100000000E-03 0. -1.
        -11    1    3    3    0    0  0.25466123737E+01  0.29291260976E+01 -0.48230576031E+01  0.61908722472E+01  0.51100000000E-03 0.  1.
         12    1    3    3    0    0  0.81820840008E+01 -0.12155030148E+02 -0.30151325612E+02  0.33523032271E+02  0.00000000000E+00 0. -1.
</event>
<event>
 7    1  0.1345786E-013  0.7246163E+02  0.7816164E-02  0.1226708E+00
        -11   -1    0    0    0    0  0.00000000000E+00  0.00000000000E+00  0.45593999997E+02  0.45594000000E+02  0.51100000000E-03 0.  1.
         11   -1    0    0    0    0 -0.00000000000E+00 -0.00000000000E+00 -0.45593999997E+02  0.45594000000E+02  0.51100000000E-03 0. -1.
    9900012    2    1    2    0    0  0.17810316723E+02 -0.25995719321E+01  0.51683418458E+01  0.72461630533E+02  0.70000078471E+02 0.  0.
         12    1    1    2    0    0 -0.17810316723E+02  0.25995719321E+01 -0.51683418458E+01  0.18726369467E+02  0.00000000000E+00 0. -1.
         11    1    3    3    0    0 -0.41935596577E-01  0.32398654603E+00  0.23249734169E+02  0.23252029268E+02  0.51100000000E-03 0. -1.
        -11    1    3    3    0    0  0.17733977720E+02 -0.20707291192E+02 -0.66309928764E+01  0.28058081565E+02  0.51100000000E-03 0.  1.
         12    1    3    3    0    0  0.11827459928E+00  0.17783732714E+02 -0.11450399447E+02  0.21151519700E+02  0.00000000000E+00 0. -1.
</event>
<event>
 7    1  0.1345786E-013  0.7246161E+02  0.7816164E-02  0.1226708E+00
        -11   -1    0    0    0    0  0.00000000000E+00  0.00000000000E+00  0.45593999997E+02  0.45594000000E+02  0.51100000000E-03 0. -1.
         11   -1    0    0    0    0 -0.00000000000E+00 -0.00000000000E+00 -0.45593999997E+02  0.45594000000E+02  0.51100000000E-03 0.  1.
    9900012    2    1    2    0    0  0.51059887260E+01  0.12004505794E+02 -0.13434972803E+02  0.72461607543E+02  0.70000048523E+02 0.  0.
         12    1    1    2    0    0 -0.51059887260E+01 -0.12004505794E+02  0.13434972803E+02  0.18726392457E+02  0.00000000000E+00 0. -1.
         11    1    3    3    0    0  0.33388021739E+02  0.30240192984E+01 -0.10775950226E+02  0.35213999942E+02  0.51100000000E-03 0. -1.
        -11    1    3    3    0    0 -0.29375975568E+02  0.13613222442E+02 -0.19579030571E+01  0.32436108744E+02  0.51100000000E-03 0.  1.
        -12    1    3    3    0    0  0.10939425545E+01 -0.46327359468E+01 -0.70111952044E+00  0.48114988566E+01  0.00000000000E+00 0.  1.
</event>
<event>
 7    1  0.1345786E-013  0.7246158E+02  0.7816164E-02  0.1226708E+00
        -11   -1    0    0    0    0  0.00000000000E+00  0.00000000000E+00  0.45593999997E+02  0.45594000000E+02  0.51100000000E-03 0. -1.
         11   -1    0    0    0    0 -0.00000000000E+00 -0.00000000000E+00 -0.45593999997E+02  0.45594000000E+02  0.51100000000E-03 0.  1.
    9900012    2    1    2    0    0 -0.24272069495E+01 -0.14393346297E+02  0.11731119987E+02  0.72461576761E+02  0.70000008424E+02 0.  0.
         12    1    1    2    0    0  0.24272069495E+01  0.14393346297E+02 -0.11731119987E+02  0.18726423239E+02  0.00000000000E+00 0. -1.
         11    1    3    3    0    0  0.10256756484E+02 -0.19777285052E+02 -0.18909098819E+02  0.29221500235E+02  0.51100000000E-03 0. -1.
        -11    1    3    3    0    0 -0.71752615156E+01  0.11705737082E+02  0.26011763052E+01  0.13974075171E+02  0.51100000000E-03 0.  1.
         12    1    3    3    0    0 -0.55087019181E+01 -0.63217983272E+01  0.28039042501E+02  0.29266001354E+02  0.00000000000E+00 0. -1.
</event>
<event>
 7    1  0.1345786E-013  0.7246155E+02  0.7816164E-02  0.1226708E+00
        -11   -1    0    0    0    0  0.00000000000E+00  0.00000000000E+00  0.45593999997E+02  0.45594000000E+02  0.51100000000E-03 0.  1.
         11   -1    0    0    0    0 -0.00000000000E+00 -0.00000000000E+00 -0.45593999997E+02  0.45594000000E+02  0.51100000000E-03 0. -1.
    9900012    2    1    2    0    0 -0.16081204021E+02  0.82787393963E+01  0.48515054021E+01  0.72461554704E+02  0.69999979691E+02 0.  0.
         12    1    1    2    0    0  0.16081204021E+02 -0.82787393963E+01 -0.48515054021E+01  0.18726445296E+02  0.00000000000E+00 0. -1.
         11    1    3    3    0    0  0.10500713537E+02  0.51893851265E+01  0.19079397109E+02  0.22387900685E+02  0.51100000000E-03 0. -1.
        -11    1    3    3    0    0 -0.28398986345E+02  0.16041042643E+02 -0.16885424975E+02  0.36727851167E+02  0.51100000000E-03 0.  1.
         12    1    3    3    0    0  0.18170687877E+01 -0.12951688373E+02  0.26575332678E+01  0.13345802852E+02  0.00000000000E+00 0. -1.
</event>
<event>
 7    1  0.1345786E-013  0.7246158E+02  0.7816164E-02  0.1226708E+00
        -11   -1    0    0    0    0  0.00000000000E+00  0.00000000000E+00  0.45593999997E+02  0.45594000000E+02  0.51100000000E-03 0.  1.
         11   -1    0    0    0    0 -0.00000000000E+00 -0.00000000000E+00 -0.45593999997E+02  0.45594000000E+02  0.51100000000E-03 0. -1.
    9900012    2    1    2    0    0 -0.91496388241E+01  0.79511823305E+01  0.14273811012E+02  0.72461578241E+02  0.70000010353E+02 0.  0.
         12    1    1    2    0    0  0.91496388241E+01 -0.79511823305E+01 -0.14273811012E+02  0.18726421759E+02  0.00000000000E+00 0. -1.
         11    1    3    3    0    0 -0.14587617990E+02  0.52052844178E+01 -0.12311266070E+02  0.19785369771E+02  0.51100000000E-03 0. -1.
        -11    1    3    3    0    0  0.55112045118E+01  0.93308231877E+01  0.37990643046E+02  0.39506032398E+02  0.51100000000E-03 0.  1.
         12    1    3    3    0    0 -0.73225346005E-01 -0.65849252749E+01 -0.11405565963E+02  0.13170176072E+02  0.00000000000E+00 0. -1.
</event>
<event>
 7    1  0.1345786E-013  0.7246158E+02  0.7816164E-02  0.1226708E+00
        -11   -1    0    0    0    0  0.00000000000E+00  0.00000000000E+00  0.45593999997E+02  0.45594000000E+02  0.51100000000E-03 0.  1.
         11   -1    0    0    0    0 -0.00000000000E+00 -0.00000000000E+00 -0.45593999997E+02  0.45594000000E+02  0.51100000000E-03 0. -1.
    9900012    2    1    2    0    0 -0.91360068522E+00  0.74587234439E+01  0.17152601802E+02  0.72461575616E+02  0.70000006933E+02 0.  0.
         12    1    1    2    0    0  0.91360068522E+00 -0.74587234439E+01 -0.17152601802E+02  0.18726424384E+02  0.00000000000E+00 0. -1.
         11    1    3    3    0    0  0.14903985251E+02  0.92413324269E+00  0.27531720157E+02  0.31320574926E+02  0.51100000000E-03 0.  1.
        -11    1    3    3    0    0 -0.42497868424E+01  0.99969746821E+01 -0.21903550456E+02  0.24449247715E+02  0.51100000000E-03 0. -1.
         12    1    3    3    0    0 -0.11567799093E+02 -0.34623844809E+01  0.11524432101E+02  0.16691752976E+02  0.00000000000E+00 0. -1.
</event>
<event>
 7    1  0.1345786E-013  0.7246192E+02  0.7816164E-02  0.1226707E+00
        -11   -1    0    0    0    0  0.00000000000E+00  0.00000000000E+00  0.45593999997E+02  0.45594000000E+02  0.51100000000E-03 0. -1.
         11   -1    0    0    0    0 -0.00000000000E+00 -0.00000000000E+00 -0.45593999997E+02  0.45594000000E+02  0.51100000000E-03 0.  1.
    9900012    2    1    2    0    0 -0.75860194794E+01  0.11538660985E+02 -0.12648225520E+02  0.72461921989E+02  0.70000458146E+02 0.  0.
         12    1    1    2    0    0  0.75860194794E+01 -0.11538660985E+02  0.12648225520E+02  0.18726078011E+02  0.00000000000E+00 0. -1.
         11    1    3    3    0    0 -0.36373078669E+02 -0.19379275296E+01 -0.11367694724E+02  0.38157317760E+02  0.51100000000E-03 0. -1.
        -11    1    3    3    0    0  0.24114211175E+02  0.14819571804E+02 -0.42293978959E+01  0.28618223143E+02  0.51100000000E-03 0.  1.
        -12    1    3    3    0    0  0.46728480152E+01 -0.13429832892E+01  0.29488670999E+01  0.56863810865E+01  0.00000000000E+00 0.  1.
</event>
<event>
 7    1  0.1345786E-013  0.7246154E+02  0.7816164E-02  0.1226708E+00
        -11   -1    0    0    0    0  0.00000000000E+00  0.00000000000E+00  0.45593999997E+02  0.45594000000E+02  0.51100000000E-03 0.  1.
         11   -1    0    0    0    0 -0.00000000000E+00 -0.00000000000E+00 -0.45593999997E+02  0.45594000000E+02  0.51100000000E-03 0. -1.
    9900012    2    1    2    0    0  0.18579493612E+02 -0.18308687392E+01  0.14596966084E+01  0.72461538043E+02  0.69999957987E+02 0.  0.
         12    1    1    2    0    0 -0.18579493612E+02  0.18308687392E+01 -0.14596966084E+01  0.18726461957E+02  0.00000000000E+00 0. -1.
         11    1    3    3    0    0  0.20461739977E+02 -0.22826916336E+02  0.17284075586E+01  0.30704043793E+02  0.51100000000E-03 0. -1.
        -11    1    3    3    0    0  0.12631733325E+02  0.21153323749E+02 -0.72060138375E+01  0.25670029765E+02  0.51100000000E-03 0.  1.
         12    1    3    3    0    0 -0.14513979690E+02 -0.15727615220E+00  0.69373028873E+01  0.16087464485E+02  0.00000000000E+00 0. -1.
</event>
<event>
 7    1  0.1345786E-013  0.7246156E+02  0.7816164E-02  0.1226708E+00
        -11   -1    0    0    0    0  0.00000000000E+00  0.00000000000E+00  0.45593999997E+02  0.45594000000E+02  0.51100000000E-03 0.  1.
         11   -1    0    0    0    0 -0.00000000000E+00 -0.00000000000E+00 -0.45593999997E+02  0.45594000000E+02  0.51100000000E-03 0. -1.
    9900012    2    1    2    0    0  0.10694384315E+02 -0.22993311476E+01  0.15199436496E+02  0.72461557482E+02  0.69999983310E+02 0.  0.
         12    1    1    2    0    0 -0.10694384315E+02  0.22993311476E+01 -0.15199436496E+02  0.18726442518E+02  0.00000000000E+00 0. -1.
         11    1    3    3    0    0  0.24750387213E+02 -0.18621822056E+02  0.32973056032E+01  0.31148453387E+02  0.51100000000E-03 0. -1.
        -11    1    3    3    0    0 -0.19301268103E+02  0.59432660758E+01 -0.49918902885E+01  0.20803373067E+02  0.51100000000E-03 0.  1.
         12    1    3    3    0    0  0.52452652050E+01  0.10379224833E+02  0.16894021181E+02  0.20509731029E+02  0.00000000000E+00 0. -1.
</event>
<event>
 7    1  0.1345786E-013  0.7246156E+02  0.7816164E-02  0.1226708E+00
        -11   -1    0    0    0    0  0.00000000000E+00  0.00000000000E+00  0.45593999997E+02  0.45594000000E+02  0.51100000000E-03 0. -1.
         11   -1    0    0    0    0 -0.00000000000E+00 -0.00000000000E+00 -0.45593999997E+02  0.45594000000E+02  0.51100000000E-03 0.  1.
    9900012    2    1    2    0    0 -0.60695323028E+01  0.98505196634E+01 -0.14724389412E+02  0.72461558705E+02  0.69999984902E+02 0.  0.
         12    1    1    2    0    0  0.60695323028E+01 -0.98505196634E+01  0.14724389412E+02  0.18726441295E+02  0.00000000000E+00 0. -1.
         11    1    3    3    0    0 -0.21794022504E+01 -0.24077139086E+02 -0.18327990749E+01  0.24244949442E+02  0.51100000000E-03 0. -1.
        -11    1    3    3    0    0 -0.15587348239E+01  0.31817277733E+02  0.30190466206E+01  0.31998179000E+02  0.51100000000E-03 0.  1.
        -12    1    3    3    0    0 -0.23313952285E+01  0.21103810169E+01 -0.15910636958E+02  0.16218430262E+02  0.00000000000E+00 0.  1.
</event>
<event>
 7    1  0.1345786E-013  0.7246154E+02  0.7816164E-02  0.1226708E+00
        -11   -1    0    0    0    0  0.00000000000E+00  0.00000000000E+00  0.45593999997E+02  0.45594000000E+02  0.51100000000E-03 0.  1.
         11   -1    0    0    0    0 -0.00000000000E+00 -0.00000000000E+00 -0.45593999997E+02  0.45594000000E+02  0.51100000000E-03 0. -1.
    9900012    2    1    2    0    0 -0.30682752544E+01  0.33149749218E+01  0.18173523754E+02  0.72461539112E+02  0.69999959379E+02 0.  0.
         12    1    1    2    0    0  0.30682752544E+01 -0.33149749218E+01 -0.18173523754E+02  0.18726460888E+02  0.00000000000E+00 0. -1.
         11    1    3    3    0    0 -0.11718983786E+02  0.13343342229E+00 -0.71332291165E+01  0.13719888606E+02  0.51100000000E-03 0. -1.
        -11    1    3    3    0    0  0.57582270544E+01 -0.81396004001E+01  0.39280571805E+02  0.40526208743E+02  0.51100000000E-03 0.  1.
        -12    1    3    3    0    0  0.28924814776E+01  0.11321141900E+02 -0.13973818935E+02  0.18215441763E+02  0.00000000000E+00 0.  1.
</event>
<event>
 7    1  0.1345786E-013  0.7246159E+02  0.7816164E-02  0.1226708E+00
        -11   -1    0    0    0    0  0.00000000000E+00  0.00000000000E+00  0.45593999997E+02  0.45594000000E+02  0.51100000000E-03 0.  1.
         11   -1    0    0    0    0 -0.00000000000E+00 -0.00000000000E+00 -0.45593999997E+02  0.45594000000E+02  0.51100000000E-03 0. -1.
    9900012    2    1    2    0    0  0.10242958444E+02 -0.13355180833E+02  0.82097036930E+01  0.72461593844E+02  0.70000030678E+02 0.  0.
         12    1    1    2    0    0 -0.10242958444E+02  0.13355180833E+02 -0.82097036930E+01  0.18726406156E+02  0.00000000000E+00 0. -1.
         11    1    3    3    0    0  0.10998612737E+02  0.83190447639E+01 -0.23839363095E+02  0.27540719325E+02  0.51100000000E-03 0. -1.
        -11    1    3    3    0    0 -0.88393409971E+01 -0.21528551881E+02  0.22022060698E+02  0.32040344146E+02  0.51100000000E-03 0.  1.
        -12    1    3    3    0    0  0.80836867044E+01 -0.14567371592E+00  0.10027006090E+02  0.12880530373E+02  0.00000000000E+00 0.  1.
</event>
<event>
 7    1  0.1345786E-013  0.7246156E+02  0.7816164E-02  0.1226708E+00
        -11   -1    0    0    0    0  0.00000000000E+00  0.00000000000E+00  0.45593999997E+02  0.45594000000E+02  0.51100000000E-03 0.  1.
         11   -1    0    0    0    0 -0.00000000000E+00 -0.00000000000E+00 -0.45593999997E+02  0.45594000000E+02  0.51100000000E-03 0. -1.
    9900012    2    1    2    0    0  0.77360215338E+01  0.14976837548E+02 -0.81564622753E+01  0.72461559629E+02  0.69999986107E+02 0.  0.
         12    1    1    2    0    0 -0.77360215338E+01 -0.14976837548E+02  0.81564622753E+01  0.18726440371E+02  0.00000000000E+00 0. -1.
         11    1    3    3    0    0 -0.13716691231E+02  0.71444733206E+00 -0.19753929001E+02  0.24059837168E+02  0.51100000000E-03 0. -1.
        -11    1    3    3    0    0  0.41652447535E+01  0.18255972660E+02  0.21152320947E+02  0.28249787314E+02  0.51100000000E-03 0.  1.
        -12    1    3    3    0    0  0.17287468011E+02 -0.39935824439E+01 -0.95548542213E+01  0.20151935147E+02  0.00000000000E+00 0.  1.
</event>
<event>
 7    1  0.1345786E-013  0.7246155E+02  0.7816164E-02  0.1226708E+00
        -11   -1    0    0    0    0  0.00000000000E+00  0.00000000000E+00  0.45593999997E+02  0.45594000000E+02  0.51100000000E-03 0. -1.
         11   -1    0    0    0    0 -0.00000000000E+00 -0.00000000000E+00 -0.45593999997E+02  0.45594000000E+02  0.51100000000E-03 0.  1.
    9900012    2    1    2    0    0 -0.16269524166E+02 -0.29387408722E+01  0.87946835941E+01  0.72461546144E+02  0.69999968540E+02 0.  0.
         12    1    1    2    0    0  0.16269524166E+02  0.29387408722E+01 -0.87946835941E+01  0.18726453856E+02  0.00000000000E+00 0. -1.
         11    1    3    3    0    0 -0.12459927704E+02  0.47399462742E+01  0.22481359010E+02  0.26136724972E+02  0.51100000000E-03 0. -1.
        -11    1    3    3    0    0  0.11516689814E+02  0.54558698275E+01 -0.21243047622E+02  0.24772317864E+02  0.51100000000E-03 0.  1.
        -12    1    3    3    0    0 -0.15326286276E+02 -0.13134556974E+02  0.75563722058E+01  0.21552503308E+02  0.00000000000E+00 0.  1.
</event>
<event>
 7    1  0.1345786E-013  0.7246159E+02  0.7816164E-02  0.1226708E+00
        -11   -1    0    0    0    0  0.00000000000E+00  0.00000000000E+00  0.45593999997E+02  0.45594000000E+02  0.51100000000E-03 0.  1.
         11   -1    0    0    0    0 -0.00000000000E+00 -0.00000000000E+00 -0.45593999997E+02  0.45594000000E+02  0.51100000000E-03 0. -1.
    9900012    2    1    2    0    0  0.94013151504E+01 -0.46931055552E+01  0.15500597260E+02  0.72461588658E+02  0.70000023922E+02 0.  0.
         12    1    1    2    0    0 -0.94013151504E+01  0.46931055552E+01 -0.15500597260E+02  0.18726411342E+02  0.00000000000E+00 0. -1.
         11    1    3    3    0    0  0.38869380309E+00  0.64874950830E+01 -0.18605035519E+02  0.19707511822E+02  0.51100000000E-03 0. -1.
        -11    1    3    3    0    0 -0.13747052446E+02 -0.33892141245E+01  0.21091374112E+02  0.25403036935E+02  0.51100000000E-03 0.  1.
         12    1    3    3    0    0  0.22759673794E+02 -0.77913865136E+01  0.13014258667E+02  0.27351039901E+02  0.00000000000E+00 0. -1.
</event>
<event>
 7    1  0.1345786E-013  0.7246158E+02  0.7816164E-02  0.1226708E+00
        -11   -1    0    0    0    0  0.00000000000E+00  0.00000000000E+00  0.45593999997E+02  0.45594000000E+02  0.51100000000E-03 0.  1.
         11   -1    0    0    0    0 -0.00000000000E+00 -0.00000000000E+00 -0.45593999997E+02  0.45594000000E+02  0.51100000000E-03 0. -1.
    9900012    2    1    2    0    0 -0.10696481905E+02 -0.69013054363E+01  0.13734480181E+02  0.72461583159E+02  0.70000016758E+02 0.  0.
         12    1    1    2    0    0  0.10696481905E+02  0.69013054363E+01 -0.13734480181E+02  0.18726416841E+02  0.00000000000E+00 0. -1.
         11    1    3    3    0    0 -0.56582280045E+01 -0.20730100646E+02 -0.18589443791E+02  0.28413377794E+02  0.51100000000E-03 0. -1.
        -11    1    3    3    0    0 -0.18139675467E+01 -0.55359772166E+01  0.20088295907E+02  0.20915954549E+02  0.51100000000E-03 0.  1.
         12    1    3    3    0    0 -0.32242863539E+01  0.19364772427E+02  0.12235628065E+02  0.23132250815E+02  0.00000000000E+00 0. -1.
</event>
<event>
 7    1  0.1345786E-013  0.7246160E+02  0.7816164E-02  0.1226708E+00
        -11   -1    0    0    0    0  0.00000000000E+00  0.00000000000E+00  0.45593999997E+02  0.45594000000E+02  0.51100000000E-03 0.  1.
         11   -1    0    0    0    0 -0.00000000000E+00 -0.00000000000E+00 -0.45593999997E+02  0.45594000000E+02  0.51100000000E-03 0. -1.
    9900012    2    1    2    0    0  0.65279977657E+01  0.17207077550E+02  0.34611913192E+01  0.72461598371E+02  0.70000036575E+02 0.  0.
         12    1    1    2    0    0 -0.65279977657E+01 -0.17207077550E+02 -0.34611913192E+01  0.18726401629E+02  0.00000000000E+00 0. -1.
         11    1    3    3    0    0 -0.30281761647E+01 -0.23277545626E+02  0.83739400497E+01  0.24922617308E+02  0.51100000000E-03 0. -1.
        -11    1    3    3    0    0  0.15036686301E+02  0.38584197329E+02 -0.51728852296E+01  0.41732492860E+02  0.51100000000E-03 0.  1.
        -12    1    3    3    0    0 -0.54805123710E+01  0.19004258475E+01  0.26013649909E+00  0.58064882027E+01  0.00000000000E+00 0.  1.
</event>
<event>
 7    1  0.1345786E-013  0.7246160E+02  0.7816164E-02  0.1226708E+00
        -11   -1    0    0    0    0  0.00000000000E+00  0.00000000000E+00  0.45593999997E+02  0.45594000000E+02  0.51100000000E-03 0. -1.
         11   -1    0    0    0    0 -0.00000000000E+00 -0.00000000000E+00 -0.45593999997E+02  0.45594000000E+02  0.51100000000E-03 0.  1.
    9900012    2    1    2    0    0  0.11748303139E+02 -0.98567125786E+01 -0.10747128775E+02  0.72461596544E+02  0.70000034195E+02 0.  0.
         12    1    1    2    0    0 -0.11748303139E+02  0.98567125786E+01  0.10747128775E+02  0.18726403456E+02  0.00000000000E+00 0. -1.
         11    1    3    3    0    0 -0.18330266490E+02  0.68141496751E+01  0.11389541798E+02  0.22630796893E+02  0.51100000000E-03 0. -1.
        -11    1    3    3    0    0  0.21046747683E+02 -0.15706088105E+02 -0.39068482477E+00  0.26264032945E+02  0.51100000000E-03 0.  1.
         12    1    3    3    0    0  0.90318219458E+01 -0.96477414820E+00 -0.21745985748E+02  0.23566766706E+02  0.00000000000E+00 0. -1.
</event>
<event>
 7    1  0.1345786E-013  0.7246195E+02  0.7816164E-02  0.1226707E+00
        -11   -1    0    0    0    0  0.00000000000E+00  0.00000000000E+00  0.45593999997E+02  0.45594000000E+02  0.51100000000E-03 0.  1.
         11   -1    0    0    0    0 -0.00000000000E+00 -0.00000000000E+00 -0.45593999997E+02  0.45594000000E+02  0.51100000000E-03 0. -1.
    9900012    2    1    2    0    0  0.20588418156E+01 -0.16053420691E+02  0.94188060248E+01  0.72461947227E+02  0.70000491023E+02 0.  0.
         12    1    1    2    0    0 -0.20588418156E+01  0.16053420691E+02 -0.94188060248E+01  0.18726052773E+02  0.00000000000E+00 0. -1.
         11    1    3    3    0    0  0.69375098673E+01  0.69964917833E+01 -0.15899603901E+02  0.18705008551E+02  0.51100000000E-03 0. -1.
        -11    1    3    3    0    0 -0.19073347799E+01 -0.29031809716E+02  0.32721821443E+02  0.43785859591E+02  0.51100000000E-03 0.  1.
        -12    1    3    3    0    0 -0.29713332718E+01  0.59818972415E+01 -0.74034115171E+01  0.99710790846E+01  0.00000000000E+00 0.  1.
</event>
<event>
 7    1  0.1345786E-013  0.7246180E+02  0.7816164E-02  0.1226707E+00
        -11   -1    0    0    0    0  0.00000000000E+00  0.00000000000E+00  0.45593999997E+02  0.45594000000E+02  0.51100000000E-03 0. -1.
         11   -1    0    0    0    0 -0.00000000000E+00 -0.00000000000E+00 -0.45593999997E+02  0.45594000000E+02  0.51100000000E-03 0.  1.
    9900012    2    1    2    0    0 -0.14724568170E+02 -0.10414396264E+02 -0.50396589367E+01  0.72461795912E+02  0.70000293908E+02 0.  0.
         12    1    1    2    0    0  0.14724568170E+02  0.10414396264E+02  0.50396589367E+01  0.18726204088E+02  0.00000000000E+00 0. -1.
         11    1    3    3    0    0 -0.31250388933E+02  0.81875015481E+01  0.15337588153E+02  0.35761202450E+02  0.51100000000E-03 0. -1.
        -11    1    3    3    0    0  0.31179747977E+01 -0.13721321720E+02 -0.33109744835E+01  0.14455413826E+02  0.51100000000E-03 0.  1.
         12    1    3    3    0    0  0.13407845965E+02 -0.48805760924E+01 -0.17066272606E+02  0.22245179637E+02  0.00000000000E+00 0. -1.
</event>
<event>
 7    1  0.1345786E-013  0.7246146E+02  0.7816164E-02  0.1226708E+00
        -11   -1    0    0    0    0  0.00000000000E+00  0.00000000000E+00  0.45593999997E+02  0.45594000000E+02  0.51100000000E-03 0.  1.
         11   -1    0    0    0    0 -0.00000000000E+00 -0.00000000000E+00 -0.45593999997E+02  0.45594000000E+02  0.51100000000E-03 0. -1.
    9900012    2    1    2    0    0  0.85575086364E+01 -0.76371710400E+01  0.14802903210E+02  0.72461460570E+02  0.69999857064E+02 0.  0.
         12    1    1    2    0    0 -0.85575086364E+01  0.76371710400E+01 -0.14802903210E+02  0.18726539430E+02  0.00000000000E+00 0. -1.
         11    1    3    3    0    0 -0.12633636632E+02 -0.23421299246E+02  0.92924130180E+01  0.28187141978E+02  0.51100000000E-03 0. -1.
        -11    1    3    3    0    0  0.24003813263E+02  0.65897305875E+01  0.16352726092E+02  0.29782868419E+02  0.51100000000E-03 0.  1.
        -12    1    3    3    0    0 -0.28126679943E+01  0.91943976184E+01 -0.10842235900E+02  0.14491450173E+02  0.00000000000E+00 0.  1.
</event>
<event>
 7    1  0.1345786E-013  0.7246156E+02  0.7816164E-02  0.1226708E+00
        -11   -1    0    0    0    0  0.00000000000E+00  0.00000000000E+00  0.45593999997E+02  0.45594000000E+02  0.51100000000E-03 0. -1.
         11   -1    0    0    0    0 -0.00000000000E+00 -0.00000000000E+00 -0.45593999997E+02  0.45594000000E+02  0.51100000000E-03 0.  1.
    9900012    2    1    2    0    0  0.16660532612E+02  0.72032197370E+01 -0.46065064903E+01  0.72461558172E+02  0.69999984208E+02 0.  0.
         12    1    1    2    0    0 -0.16660532612E+02 -0.72032197370E+01  0.46065064903E+01  0.18726441828E+02  0.00000000000E+00 0. -1.
         11    1    3    3    0    0  0.86574060018E+01  0.18165228471E+02  0.34682802867E+00  0.20125766917E+02  0.51100000000E-03 0. -1.
        -11    1    3    3    0    0  0.15638642430E+02 -0.18886402586E+02 -0.21400973016E+02  0.32546351347E+02  0.51100000000E-03 0.  1.
        -12    1    3    3    0    0 -0.76355158198E+01  0.79243938528E+01  0.16447638497E+02  0.19789439908E+02  0.00000000000E+00 0.  1.
</event>
<event>
 7    1  0.1345786E-013  0.7246181E+02  0.7816164E-02  0.1226707E+00
        -11   -1    0    0    0    0  0.00000000000E+00  0.00000000000E+00  0.45593999997E+02  0.45594000000E+02  0.51100000000E-03 0.  1.
         11   -1    0    0    0    0 -0.00000000000E+00 -0.00000000000E+00 -0.45593999997E+02  0.45594000000E+02  0.51100000000E-03 0. -1.
    9900012    2    1    2    0    0 -0.14073456044E+02 -0.61102338183E+00  0.12338346688E+02  0.72461806751E+02  0.70000308028E+02 0.  0.
         12    1    1    2    0    0  0.14073456044E+02  0.61102338183E+00 -0.12338346688E+02  0.18726193249E+02  0.00000000000E+00 0. -1.
         11    1    3    3    0    0 -0.29914389738E+02 -0.11106326225E+02 -0.61236092456E+01  0.32491841838E+02  0.51100000000E-03 0. -1.
        -11    1    3    3    0    0  0.15306384362E+01  0.15335749257E+01  0.22504005607E+02  0.22608073219E+02  0.51100000000E-03 0.  1.
         12    1    3    3    0    0  0.14310295258E+02  0.89617279171E+01 -0.40420496730E+01  0.17361891694E+02  0.00000000000E+00 0. -1.
</event>
<event>
 7    1  0.1345786E-013  0.7246153E+02  0.7816164E-02  0.1226708E+00
        -11   -1    0    0    0    0  0.00000000000E+00  0.00000000000E+00  0.45593999997E+02  0.45594000000E+02  0.51100000000E-03 0.  1.
         11   -1    0    0    0    0 -0.00000000000E+00 -0.00000000000E+00 -0.45593999997E+02  0.45594000000E+02  0.51100000000E-03 0. -1.
    9900012    2    1    2    0    0  0.98737235132E+01  0.15783200837E+02  0.20201382855E+01  0.72461526671E+02  0.69999943172E+02 0.  0.
         12    1    1    2    0    0 -0.98737235132E+01 -0.15783200837E+02 -0.20201382855E+01  0.18726473329E+02  0.00000000000E+00 0. -1.
         11    1    3    3    0    0  0.25274612499E+02 -0.10036411852E+01  0.84636186185E+01  0.26672948337E+02  0.51100000000E-03 0.  1.
        -11    1    3    3    0    0 -0.27559055058E+02  0.10234300377E+02  0.22251277940E+01  0.29482089714E+02  0.51100000000E-03 0. -1.
        -12    1    3    3    0    0  0.12158166073E+02  0.65525416451E+01 -0.86686081270E+01  0.16306488620E+02  0.00000000000E+00 0.  1.
</event>
<event>
 7    1  0.1345786E-013  0.7246155E+02  0.7816164E-02  0.1226708E+00
        -11   -1    0    0    0    0  0.00000000000E+00  0.00000000000E+00  0.45593999997E+02  0.45594000000E+02  0.51100000000E-03 0. -1.
         11   -1    0    0    0    0 -0.00000000000E+00 -0.00000000000E+00 -0.45593999997E+02  0.45594000000E+02  0.51100000000E-03 0.  1.
    9900012    2    1    2    0    0  0.13157619085E+02 -0.11502155194E+02 -0.67273677101E+01  0.72461548377E+02  0.69999971448E+02 0.  0.
         12    1    1    2    0    0 -0.13157619085E+02  0.11502155194E+02  0.67273677101E+01  0.18726451623E+02  0.00000000000E+00 0. -1.
         11    1    3    3    0    0 -0.31417547661E+01 -0.33810554216E+01  0.27521584464E+02  0.27905909239E+02  0.51100000000E-03 0. -1.
        -11    1    3    3    0    0  0.10347790915E+02  0.66883096496E+01 -0.17679958933E+02  0.21549738071E+02  0.51100000000E-03 0.  1.
         12    1    3    3    0    0  0.59515829358E+01 -0.14809409422E+02 -0.16568993241E+02  0.23005901067E+02  0.00000000000E+00 0. -1.
</event>
<event>
 8    1  0.1345786E-013  0.7246158E+02  0.7816164E-02  0.1226708E+00
        -11   -1    0    0    0    0  0.00000000000E+00  0.00000000000E+00  0.45593999997E+02  0.45594000000E+02  0.51100000000E-03 0.  1.
         11   -1    0    0    0    0 -0.00000000000E+00 -0.00000000000E+00 -0.45593999997E+02  0.45594000000E+02  0.51100000000E-03 0. -1.
    9900012    2    1    2    0    0  0.13201785986E+02 -0.10775076850E+02  0.77646188427E+01  0.72461581760E+02  0.70000014936E+02 0.  0.
         24    2    3    3    0    0  0.12273988102E+02  0.53694946023E+01  0.11025360163E+02  0.55964902382E+02  0.53207419367E+02 0.  0.
         12    1    1    2    0    0 -0.13201785986E+02  0.10775076850E+02 -0.77646188427E+01  0.18726418240E+02  0.00000000000E+00 0. -1.
         11    1    3    3    0    0  0.92779788458E+00 -0.16144571452E+02 -0.32607413204E+01  0.16496679378E+02  0.51100000000E-03 0. -1.
        -11    1    4    4    0    0  0.26217132300E+02  0.21897985815E+01  0.24766648307E+02  0.36131981851E+02  0.51100000000E-03 0.  1.
         12    1    4    4    0    0 -0.13943144199E+02  0.31796960208E+01 -0.13741288143E+02  0.19832920531E+02  0.00000000000E+00 0. -1.
</event>
<event>
 7    1  0.1345786E-013  0.7246157E+02  0.7816164E-02  0.1226708E+00
        -11   -1    0    0    0    0  0.00000000000E+00  0.00000000000E+00  0.45593999997E+02  0.45594000000E+02  0.51100000000E-03 0.  1.
         11   -1    0    0    0    0 -0.00000000000E+00 -0.00000000000E+00 -0.45593999997E+02  0.45594000000E+02  0.51100000000E-03 0. -1.
    9900012    2    1    2    0    0 -0.14139319036E+02 -0.11035083511E+02 -0.53838393725E+01  0.72461571154E+02  0.70000001120E+02 0.  0.
         12    1    1    2    0    0  0.14139319036E+02  0.11035083511E+02  0.53838393725E+01  0.18726428846E+02  0.00000000000E+00 0. -1.
         11    1    3    3    0    0 -0.67888450386E+01  0.20701111909E+02 -0.10158458755E+02  0.24037860466E+02  0.51100000000E-03 0. -1.
        -11    1    3    3    0    0 -0.13444659501E+01 -0.25277070636E+02 -0.13092440223E+02  0.28498243452E+02  0.51100000000E-03 0.  1.
         12    1    3    3    0    0 -0.60060080477E+01 -0.64591247845E+01  0.17867059605E+02  0.19925467236E+02  0.00000000000E+00 0. -1.
</event>
<event>
 7    1  0.1345786E-013  0.7246156E+02  0.7816164E-02  0.1226708E+00
        -11   -1    0    0    0    0  0.00000000000E+00  0.00000000000E+00  0.45593999997E+02  0.45594000000E+02  0.51100000000E-03 0.  1.
         11   -1    0    0    0    0 -0.00000000000E+00 -0.00000000000E+00 -0.45593999997E+02  0.45594000000E+02  0.51100000000E-03 0. -1.
    9900012    2    1    2    0    0 -0.27834435409E+01  0.82628490747E+01  0.16572788695E+02  0.72461559924E+02  0.69999986491E+02 0.  0.
         12    1    1    2    0    0  0.27834435409E+01 -0.82628490747E+01 -0.16572788695E+02  0.18726440076E+02  0.00000000000E+00 0. -1.
         11    1    3    3    0    0  0.52524722015E+01 -0.15879499812E+02 -0.13695658430E+02  0.21617540068E+02  0.51100000000E-03 0. -1.
        -11    1    3    3    0    0  0.99433411349E+01  0.10313397790E+01  0.14428562359E+02  0.17553264844E+02  0.51100000000E-03 0.  1.
         12    1    3    3    0    0 -0.17979256877E+02  0.23111009108E+02  0.15839884766E+02  0.33290755012E+02  0.00000000000E+00 0. -1.
</event>
<event>
 7    1  0.1345786E-013  0.7246151E+02  0.7816164E-02  0.1226708E+00
        -11   -1    0    0    0    0  0.00000000000E+00  0.00000000000E+00  0.45593999997E+02  0.45594000000E+02  0.51100000000E-03 0.  1.
         11   -1    0    0    0    0 -0.00000000000E+00 -0.00000000000E+00 -0.45593999997E+02  0.45594000000E+02  0.51100000000E-03 0. -1.
    9900012    2    1    2    0    0 -0.43707883606E+01 -0.60085730523E+01  0.17189373942E+02  0.72461512942E+02  0.69999925288E+02 0.  0.
         12    1    1    2    0    0  0.43707883606E+01  0.60085730523E+01 -0.17189373942E+02  0.18726487058E+02  0.00000000000E+00 0. -1.
         11    1    3    3    0    0 -0.93479841611E+01  0.24239795324E+02 -0.12765444090E+02  0.28946658673E+02  0.51100000000E-03 0. -1.
        -11    1    3    3    0    0  0.97202257097E+00 -0.24687418528E+02  0.23725099377E+02  0.34253376508E+02  0.51100000000E-03 0.  1.
         12    1    3    3    0    0  0.40051732294E+01 -0.55609498482E+01  0.62297186546E+01  0.92614777616E+01  0.00000000000E+00 0. -1.
</event>
<event>
 7    1  0.1345786E-013  0.7246165E+02  0.7816164E-02  0.1226708E+00
        -11   -1    0    0    0    0  0.00000000000E+00  0.00000000000E+00  0.45593999997E+02  0.45594000000E+02  0.51100000000E-03 0. -1.
         11   -1    0    0    0    0 -0.00000000000E+00 -0.00000000000E+00 -0.45593999997E+02  0.45594000000E+02  0.51100000000E-03 0.  1.
    9900012    2    1    2    0    0  0.17922906524E+01  0.12341986126E+02 -0.13969225434E+02  0.72461649941E+02  0.70000103754E+02 0.  0.
         12    1    1    2    0    0 -0.17922906524E+01 -0.12341986126E+02  0.13969225434E+02  0.18726350059E+02  0.00000000000E+00 0. -1.
         11    1    3    3    0    0 -0.54633369722E+01  0.72361198602E+01  0.85282297724E+01  0.12447497131E+02  0.51100000000E-03 0. -1.
        -11    1    3    3    0    0  0.28104959006E+02 -0.14676866781E+01 -0.25463201726E+02  0.37952832139E+02  0.51100000000E-03 0.  1.
        -12    1    3    3    0    0 -0.20849331381E+02  0.65735529437E+01  0.29657465202E+01  0.22061320672E+02  0.00000000000E+00 0.  1.
</event>
<event>
 7    1  0.1345786E-013  0.7246227E+02  0.7816164E-02  0.1226706E+00
        -11   -1    0    0    0    0  0.00000000000E+00  0.00000000000E+00  0.45593999997E+02  0.45594000000E+02  0.51100000000E-03 0. -1.
         11   -1    0    0    0    0 -0.00000000000E+00 -0.00000000000E+00 -0.45593999997E+02  0.45594000000E+02  0.51100000000E-03 0.  1.
    9900012    2    1    2    0    0 -0.62515002307E+01  0.13903461520E+01 -0.17596550086E+02  0.72462271911E+02  0.70000913980E+02 0.  0.
         12    1    1    2    0    0  0.62515002307E+01 -0.13903461520E+01  0.17596550086E+02  0.18725728089E+02  0.00000000000E+00 0. -1.
         11    1    3    3    0    0  0.39620267735E+01 -0.41588265054E+01 -0.51101787286E+01  0.76881350765E+01  0.51100000000E-03 0. -1.
        -11    1    3    3    0    0 -0.19506726971E+02  0.19760086902E+02  0.15678295472E+02  0.31887025272E+02  0.51100000000E-03 0.  1.
        -12    1    3    3    0    0  0.92931999672E+01 -0.14210914245E+02 -0.28164666829E+02  0.32887111562E+02  0.00000000000E+00 0.  1.
</event>
<event>
 7    1  0.1345786E-013  0.7246167E+02  0.7816164E-02  0.1226708E+00
        -11   -1    0    0    0    0  0.00000000000E+00  0.00000000000E+00  0.45593999997E+02  0.45594000000E+02  0.51100000000E-03 0.  1.
         11   -1    0    0    0    0 -0.00000000000E+00 -0.00000000000E+00 -0.45593999997E+02  0.45594000000E+02  0.51100000000E-03 0. -1.
    9900012    2    1    2    0    0  0.85337935798E+01  0.80609382492E+00  0.16649325252E+02  0.72461669568E+02  0.70000129322E+02 0.  0.
         12    1    1    2    0    0 -0.85337935798E+01 -0.80609382492E+00 -0.16649325252E+02  0.18726330432E+02  0.00000000000E+00 0. -1.
         11    1    3    3    0    0  0.19081747821E+02 -0.18101442529E+02 -0.83468562173E+01  0.27594298877E+02  0.51100000000E-03 0. -1.
        -11    1    3    3    0    0  0.59244080643E+01  0.19599559283E+02  0.16637084721E+02  0.26382454838E+02  0.51100000000E-03 0.  1.
        -12    1    3    3    0    0 -0.16472362306E+02 -0.69202292928E+00  0.83590967475E+01  0.18484915853E+02  0.00000000000E+00 0.  1.
</event>
<event>
 7    1  0.1345786E-013  0.7246156E+02  0.7816164E-02  0.1226708E+00
        -11   -1    0    0    0    0  0.00000000000E+00  0.00000000000E+00  0.45593999997E+02  0.45594000000E+02  0.51100000000E-03 0.  1.
         11   -1    0    0    0    0 -0.00000000000E+00 -0.00000000000E+00 -0.45593999997E+02  0.45594000000E+02  0.51100000000E-03 0. -1.
    9900012    2    1    2    0    0  0.11832895925E+02  0.10244157447E+02  0.10281992810E+02  0.72461559764E+02  0.69999986282E+02 0.  0.
         12    1    1    2    0    0 -0.11832895925E+02 -0.10244157447E+02 -0.10281992810E+02  0.18726440236E+02  0.00000000000E+00 0. -1.
         11    1    3    3    0    0  0.12739337093E+02  0.25260502535E+01 -0.28025248970E+02  0.30888286122E+02  0.51100000000E-03 0. -1.
        -11    1    3    3    0    0 -0.75136599519E+01  0.46488228014E+01  0.19700644830E+02  0.21591249299E+02  0.51100000000E-03 0.  1.
         12    1    3    3    0    0  0.66072187842E+01  0.30692843918E+01  0.18606596951E+02  0.19982024343E+02  0.00000000000E+00 0. -1.
</event>
<event>
 7    1  0.1345786E-013  0.7246168E+02  0.7816164E-02  0.1226708E+00
        -11   -1    0    0    0    0  0.00000000000E+00  0.00000000000E+00  0.45593999997E+02  0.45594000000E+02  0.51100000000E-03 0.  1.
         11   -1    0    0    0    0 -0.00000000000E+00 -0.00000000000E+00 -0.45593999997E+02  0.45594000000E+02  0.51100000000E-03 0. -1.
    9900012    2    1    2    0    0  0.11504149544E+01  0.18433382803E+02 -0.30922527876E+01  0.72461679394E+02  0.70000142123E+02 0.  0.
         12    1    1    2    0    0 -0.11504149544E+01 -0.18433382803E+02  0.30922527876E+01  0.18726320606E+02  0.00000000000E+00 0. -1.
         11    1    3    3    0    0 -0.98977038618E+01 -0.28555003637E+01  0.20055748545E+02  0.22546651060E+02  0.51100000000E-03 0.  1.
        -11    1    3    3    0    0 -0.36481679000E+01  0.22823655148E+02 -0.26082720763E+02  0.34850203529E+02  0.51100000000E-03 0. -1.
        -12    1    3    3    0    0  0.14696286716E+02 -0.15347719807E+01  0.29347194313E+01  0.15064824805E+02  0.00000000000E+00 0.  1.
</event>
<event>
 7    1  0.1345786E-013  0.7246159E+02  0.7816164E-02  0.1226708E+00
        -11   -1    0    0    0    0  0.00000000000E+00  0.00000000000E+00  0.45593999997E+02  0.45594000000E+02  0.51100000000E-03 0.  1.
         11   -1    0    0    0    0 -0.00000000000E+00 -0.00000000000E+00 -0.45593999997E+02  0.45594000000E+02  0.51100000000E-03 0. -1.
    9900012    2    1    2    0    0  0.13027999279E+02 -0.35677046417E+01  0.12970006590E+02  0.72461592107E+02  0.70000028415E+02 0.  0.
         12    1    1    2    0    0 -0.13027999279E+02  0.35677046417E+01 -0.12970006590E+02  0.18726407893E+02  0.00000000000E+00 0. -1.
         11    1    3    3    0    0 -0.44892895821E+01 -0.48514376471E+01  0.12351834271E+02  0.14009210481E+02  0.51100000000E-03 0. -1.
        -11    1    3    3    0    0  0.16311228759E+02  0.18870774183E+02 -0.19531174466E+02  0.31680105401E+02  0.51100000000E-03 0.  1.
        -12    1    3    3    0    0  0.12060601015E+01 -0.17587041178E+02  0.20149346786E+02  0.26772276225E+02  0.00000000000E+00 0.  1.
</event>
<event>
 7    1  0.1345786E-013  0.7246159E+02  0.7816164E-02  0.1226708E+00
        -11   -1    0    0    0    0  0.00000000000E+00  0.00000000000E+00  0.45593999997E+02  0.45594000000E+02  0.51100000000E-03 0. -1.
         11   -1    0    0    0    0 -0.00000000000E+00 -0.00000000000E+00 -0.45593999997E+02  0.45594000000E+02  0.51100000000E-03 0.  1.
    9900012    2    1    2    0    0 -0.18712722492E+02  0.70046943690E+00 -0.14791117300E+00  0.72461587684E+02  0.70000022653E+02 0.  0.
         12    1    1    2    0    0  0.18712722492E+02 -0.70046943690E+00  0.14791117300E+00  0.18726412316E+02  0.00000000000E+00 0. -1.
         11    1    3    3    0    0 -0.83489552734E+01  0.30491093910E+01  0.27481376099E+02  0.28883008064E+02  0.51100000000E-03 0. -1.
        -11    1    3    3    0    0 -0.19435158773E+02 -0.95137213540E+01 -0.14310003192E+02  0.25942484117E+02  0.51100000000E-03 0.  1.
         12    1    3    3    0    0  0.90713915543E+01  0.71650813999E+01 -0.13319284080E+02  0.17636095504E+02  0.00000000000E+00 0. -1.
</event>
<event>
 7    1  0.1345786E-013  0.7246162E+02  0.7816164E-02  0.1226708E+00
        -11   -1    0    0    0    0  0.00000000000E+00  0.00000000000E+00  0.45593999997E+02  0.45594000000E+02  0.51100000000E-03 0. -1.
         11   -1    0    0    0    0 -0.00000000000E+00 -0.00000000000E+00 -0.45593999997E+02  0.45594000000E+02  0.51100000000E-03 0.  1.
    9900012    2    1    2    0    0 -0.18045882774E+01  0.59380037602E+01 -0.17668076786E+02  0.72461618480E+02  0.70000062771E+02 0.  0.
         12    1    1    2    0    0  0.18045882774E+01 -0.59380037602E+01  0.17668076786E+02  0.18726381520E+02  0.00000000000E+00 0. -1.
         11    1    3    3    0    0  0.32741152766E+01  0.13449408282E+02  0.19506747792E+02  0.23919022214E+02  0.51100000000E-03 0. -1.
        -11    1    3    3    0    0 -0.10710527071E+02  0.82405960485E+01 -0.22714594829E+02  0.26430581376E+02  0.51100000000E-03 0.  1.
        -12    1    3    3    0    0  0.56318235169E+01 -0.15752000570E+02 -0.14460229749E+02  0.22112014890E+02  0.00000000000E+00 0.  1.
</event>
<event>
 7    1  0.1534680E-013  0.7246173E+02  0.7816164E-02  0.1226708E+00
        -11   -1    0    0    0    0  0.00000000000E+00  0.00000000000E+00  0.45593999997E+02  0.45594000000E+02  0.51100000000E-03 0. -1.
         11   -1    0    0    0    0 -0.00000000000E+00 -0.00000000000E+00 -0.45593999997E+02  0.45594000000E+02  0.51100000000E-03 0.  1.
    9900012    2    1    2    0    0 -0.14049506711E+02  0.12262547531E+02  0.17071804052E+01  0.72461730331E+02  0.70000208477E+02 0.  0.
         12    1    1    2    0    0  0.14049506711E+02 -0.12262547531E+02 -0.17071804052E+01  0.18726269669E+02  0.00000000000E+00 0. -1.
         11    1    3    3    0    0  0.68868391051E+01  0.18834891007E+02 -0.15804098319E+02  0.25533334997E+02  0.51100000000E-03 0. -1.
        -11    1    3    3    0    0 -0.19747448694E+02  0.50218077618E+01  0.25616618263E+02  0.32732115951E+02  0.51100000000E-03 0.  1.
         12    1    3    3    0    0 -0.11888971225E+01 -0.11594151238E+02 -0.81053395385E+01  0.14196279383E+02  0.00000000000E+00 0. -1.
</event>
<event>
 7    1  0.1345786E-013  0.7246161E+02  0.7816164E-02  0.1226708E+00
        -11   -1    0    0    0    0  0.00000000000E+00  0.00000000000E+00  0.45593999997E+02  0.45594000000E+02  0.51100000000E-03 0.  1.
         11   -1    0    0    0    0 -0.00000000000E+00 -0.00000000000E+00 -0.45593999997E+02  0.45594000000E+02  0.51100000000E-03 0. -1.
    9900012    2    1    2    0    0 -0.15660457084E+02 -0.69617791718E+01  0.75472728502E+01  0.72461611860E+02  0.70000054146E+02 0.  0.
         12    1    1    2    0    0  0.15660457084E+02  0.69617791718E+01 -0.75472728502E+01  0.18726388140E+02  0.00000000000E+00 0. -1.
         11    1    3    3    0    0 -0.79960139087E+01 -0.56515953557E+01 -0.16864023305E+02  0.19500565397E+02  0.51100000000E-03 0. -1.
        -11    1    3    3    0    0  0.19714186343E+01 -0.14998061654E+02  0.31374720060E+02  0.34831040810E+02  0.51100000000E-03 0.  1.
        -12    1    3    3    0    0 -0.96358618094E+01  0.13687877838E+02 -0.69634239041E+01  0.18130005653E+02  0.00000000000E+00 0.  1.
</event>
<event>
 7    1  0.1345786E-013  0.7246159E+02  0.7816164E-02  0.1226708E+00
        -11   -1    0    0    0    0  0.00000000000E+00  0.00000000000E+00  0.45593999997E+02  0.45594000000E+02  0.51100000000E-03 0. -1.
         11   -1    0    0    0    0 -0.00000000000E+00 -0.00000000000E+00 -0.45593999997E+02  0.45594000000E+02  0.51100000000E-03 0.  1.
    9900012    2    1    2    0    0  0.50869507141E+01  0.12908250493E+02 -0.12576904837E+02  0.72461587273E+02  0.70000022117E+02 0.  0.
         12    1    1    2    0    0 -0.50869507141E+01 -0.12908250493E+02  0.12576904837E+02  0.18726412727E+02  0.00000000000E+00 0. -1.
         11    1    3    3    0    0  0.29079654485E+02 -0.13084685906E+02 -0.10106110205E+02  0.33450990627E+02  0.51100000000E-03 0.  1.
        -11    1    3    3    0    0 -0.19224027857E+02  0.14609651879E+02  0.48967116622E+01  0.24637024180E+02  0.51100000000E-03 0. -1.
        -12    1    3    3    0    0 -0.47686759133E+01  0.11383284520E+02 -0.73675062940E+01  0.14373572466E+02  0.00000000000E+00 0.  1.
</event>
<event>
 7    1  0.1345786E-013  0.7246157E+02  0.7816164E-02  0.1226708E+00
        -11   -1    0    0    0    0  0.00000000000E+00  0.00000000000E+00  0.45593999997E+02  0.45594000000E+02  0.51100000000E-03 0.  1.
         11   -1    0    0    0    0 -0.00000000000E+00 -0.00000000000E+00 -0.45593999997E+02  0.45594000000E+02  0.51100000000E-03 0. -1.
    9900012    2    1    2    0    0  0.22012530378E+01  0.13521331744E+02  0.12767429342E+02  0.72461570039E+02  0.69999999668E+02 0.  0.
         12    1    1    2    0    0 -0.22012530378E+01 -0.13521331744E+02 -0.12767429342E+02  0.18726429961E+02  0.00000000000E+00 0. -1.
         11    1    3    3    0    0 -0.30912706522E+02  0.35809772774E+01  0.85169020314E+01  0.32263856608E+02  0.51100000000E-03 0. -1.
        -11    1    3    3    0    0  0.17406281905E+02  0.62809240324E+01 -0.77829276946E+01  0.20074925161E+02  0.51100000000E-03 0.  1.
        -12    1    3    3    0    0  0.15707677654E+02  0.36594304343E+01  0.12033455005E+02  0.20122788270E+02  0.00000000000E+00 0.  1.
</event>
<event>
 7    1  0.1345786E-013  0.7246160E+02  0.7816164E-02  0.1226708E+00
        -11   -1    0    0    0    0  0.00000000000E+00  0.00000000000E+00  0.45593999997E+02  0.45594000000E+02  0.51100000000E-03 0. -1.
         11   -1    0    0    0    0 -0.00000000000E+00 -0.00000000000E+00 -0.45593999997E+02  0.45594000000E+02  0.51100000000E-03 0.  1.
    9900012    2    1    2    0    0 -0.62313200649E+01 -0.17406122908E+02 -0.29791652011E+01  0.72461604465E+02  0.70000044514E+02 0.  0.
         12    1    1    2    0    0  0.62313200649E+01  0.17406122908E+02  0.29791652011E+01  0.18726395535E+02  0.00000000000E+00 0. -1.
         11    1    3    3    0    0 -0.38532912690E+01 -0.51397918537E+01  0.18127054585E+00  0.64263654716E+01  0.51100000000E-03 0. -1.
        -11    1    3    3    0    0  0.47363579296E+01  0.20678868965E+01 -0.32342845839E+02  0.32753151296E+02  0.51100000000E-03 0.  1.
        -12    1    3    3    0    0 -0.71143867255E+01 -0.14334217950E+02  0.29182410092E+02  0.33282087697E+02  0.00000000000E+00 0.  1.
</event>
<event>
 7    1  0.1345786E-013  0.7246099E+02  0.7816164E-02  0.1226710E+00
        -11   -1    0    0    0    0  0.00000000000E+00  0.00000000000E+00  0.45593999997E+02  0.45594000000E+02  0.51100000000E-03 0. -1.
         11   -1    0    0    0    0 -0.00000000000E+00 -0.00000000000E+00 -0.45593999997E+02  0.45594000000E+02  0.51100000000E-03 0.  1.
    9900012    2    1    2    0    0  0.99703639488E+01  0.26877391057E+01 -0.15622697858E+02  0.72460993108E+02  0.69999248104E+02 0.  0.
         12    1    1    2    0    0 -0.99703639488E+01 -0.26877391057E+01  0.15622697858E+02  0.18727006892E+02  0.00000000000E+00 0. -1.
         11    1    3    3    0    0  0.31052565200E+02 -0.10955939917E+02 -0.21696596259E+02  0.39433953827E+02  0.51100000000E-03 0.  1.
        -11    1    3    3    0    0 -0.24771310473E+02  0.91272939799E+01  0.34199015790E+01  0.26619936984E+02  0.51100000000E-03 0. -1.
         12    1    3    3    0    0  0.36891092220E+01  0.45163850431E+01  0.26539968218E+01  0.64071022966E+01  0.00000000000E+00 0. -1.
</event>
<event>
 8    1  0.1345786E-013  0.7246156E+02  0.7816164E-02  0.1226708E+00
        -11   -1    0    0    0    0  0.00000000000E+00  0.00000000000E+00  0.45593999997E+02  0.45594000000E+02  0.51100000000E-03 0. -1.
         11   -1    0    0    0    0 -0.00000000000E+00 -0.00000000000E+00 -0.45593999997E+02  0.45594000000E+02  0.51100000000E-03 0.  1.
    9900012    2    1    2    0    0 -0.43042833604E+01  0.74074788932E+01 -0.16651790681E+02  0.72461555285E+02  0.69999980447E+02 0.  0.
        -24    2    3    3    0    0  0.27186618129E+01  0.29279785507E+01 -0.20530448532E+01  0.55653489893E+02  0.55471900667E+02 0.  0.
         12    1    1    2    0    0  0.43042833604E+01 -0.74074788932E+01  0.16651790681E+02  0.18726444715E+02  0.00000000000E+00 0. -1.
         11    1    4    4    0    0  0.21580789997E+02  0.20471022330E+02 -0.28518364212E+01  0.29881871149E+02  0.51100000000E-03 0. -1.
        -11    1    3    3    0    0 -0.70229451733E+01  0.44795003425E+01 -0.14598745828E+02  0.16808065392E+02  0.51100000000E-03 0.  1.
        -12    1    4    4    0    0 -0.18862128184E+02 -0.17543043780E+02  0.79879156801E+00  0.25771618743E+02  0.00000000000E+00 0.  1.
</event>
<event>
 7    1  0.1345786E-013  0.7246096E+02  0.7816164E-02  0.1226710E+00
        -11   -1    0    0    0    0  0.00000000000E+00  0.00000000000E+00  0.45593999997E+02  0.45594000000E+02  0.51100000000E-03 0. -1.
         11   -1    0    0    0    0 -0.00000000000E+00 -0.00000000000E+00 -0.45593999997E+02  0.45594000000E+02  0.51100000000E-03 0.  1.
    9900012    2    1    2    0    0  0.51158035833E+01  0.17930180983E+02 -0.17433346128E+01  0.72460959338E+02  0.69999204111E+02 0.  0.
         12    1    1    2    0    0 -0.51158035833E+01 -0.17930180983E+02  0.17433346128E+01  0.18727040662E+02  0.00000000000E+00 0. -1.
         11    1    3    3    0    0 -0.39593343510E+01  0.15209835756E+01  0.17232986892E+02  0.17747269002E+02  0.51100000000E-03 0. -1.
        -11    1    3    3    0    0  0.54659921768E+01  0.31600310181E+02 -0.21892678029E+02  0.38829705453E+02  0.51100000000E-03 0.  1.
        -12    1    3    3    0    0  0.36091457575E+01 -0.15191112773E+02  0.29163565246E+01  0.15883984883E+02  0.00000000000E+00 0.  1.
</event>
<event>
 7    1  0.1345786E-013  0.7246157E+02  0.7816164E-02  0.1226708E+00
        -11   -1    0    0    0    0  0.00000000000E+00  0.00000000000E+00  0.45593999997E+02  0.45594000000E+02  0.51100000000E-03 0. -1.
         11   -1    0    0    0    0 -0.00000000000E+00 -0.00000000000E+00 -0.45593999997E+02  0.45594000000E+02  0.51100000000E-03 0.  1.
    9900012    2    1    2    0    0  0.36891773113E+01  0.16611243395E+02 -0.78189450234E+01  0.72461565806E+02  0.69999994153E+02 0.  0.
         12    1    1    2    0    0 -0.36891773113E+01 -0.16611243395E+02  0.78189450234E+01  0.18726434194E+02  0.00000000000E+00 0. -1.
         11    1    3    3    0    0  0.11368600336E+02  0.28806055212E+00  0.14037015586E+02  0.18065598780E+02  0.51100000000E-03 0. -1.
        -11    1    3    3    0    0 -0.21693568280E+02  0.10690027878E+01 -0.25357215363E+02  0.33387752888E+02  0.51100000000E-03 0.  1.
        -12    1    3    3    0    0  0.14014145256E+02  0.15254180055E+02  0.35012547534E+01  0.21008214137E+02  0.00000000000E+00 0.  1.
</event>
<event>
 7    1  0.1345786E-013  0.7246158E+02  0.7816164E-02  0.1226708E+00
        -11   -1    0    0    0    0  0.00000000000E+00  0.00000000000E+00  0.45593999997E+02  0.45594000000E+02  0.51100000000E-03 0. -1.
         11   -1    0    0    0    0 -0.00000000000E+00 -0.00000000000E+00 -0.45593999997E+02  0.45594000000E+02  0.51100000000E-03 0.  1.
    9900012    2    1    2    0    0  0.14925291936E+02  0.76909286591E+01 -0.82924113948E+01  0.72461579900E+02  0.70000012513E+02 0.  0.
         12    1    1    2    0    0 -0.14925291936E+02 -0.76909286591E+01  0.82924113948E+01  0.18726420100E+02  0.00000000000E+00 0. -1.
         11    1    3    3    0    0  0.80836275326E+01  0.48582114583E+01  0.21382680487E+02  0.23370200635E+02  0.51100000000E-03 0. -1.
        -11    1    3    3    0    0 -0.84099170302E+01 -0.85631008629E+01 -0.27404650152E+02  0.29917691272E+02  0.51100000000E-03 0.  1.
         12    1    3    3    0    0  0.15251581434E+02  0.11395818064E+02 -0.22704417297E+01  0.19173687992E+02  0.00000000000E+00 0. -1.
</event>
<event>
 7    1  0.1345786E-013  0.7246159E+02  0.7816164E-02  0.1226708E+00
        -11   -1    0    0    0    0  0.00000000000E+00  0.00000000000E+00  0.45593999997E+02  0.45594000000E+02  0.51100000000E-03 0.  1.
         11   -1    0    0    0    0 -0.00000000000E+00 -0.00000000000E+00 -0.45593999997E+02  0.45594000000E+02  0.51100000000E-03 0. -1.
    9900012    2    1    2    0    0 -0.63879282025E+01 -0.98986464964E+01  0.14556429508E+02  0.72461588993E+02  0.70000024358E+02 0.  0.
         12    1    1    2    0    0  0.63879282025E+01  0.98986464964E+01 -0.14556429508E+02  0.18726411007E+02  0.00000000000E+00 0. -1.
         11    1    3    3    0    0 -0.26854632876E+02  0.98044318476E+01 -0.45081699423E+01  0.28941696344E+02  0.51100000000E-03 0. -1.
        -11    1    3    3    0    0  0.78812806319E+00  0.10050861186E+01  0.14540939782E+02  0.14596926867E+02  0.51100000000E-03 0.  1.
         12    1    3    3    0    0  0.19678576611E+02 -0.20708164463E+02  0.45236596685E+01  0.28922965782E+02  0.00000000000E+00 0. -1.
</event>
<event>
 7    1  0.1345786E-013  0.7246153E+02  0.7816164E-02  0.1226708E+00
        -11   -1    0    0    0    0  0.00000000000E+00  0.00000000000E+00  0.45593999997E+02  0.45594000000E+02  0.51100000000E-03 0.  1.
         11   -1    0    0    0    0 -0.00000000000E+00 -0.00000000000E+00 -0.45593999997E+02  0.45594000000E+02  0.51100000000E-03 0. -1.
    9900012    2    1    2    0    0  0.10710657279E+02 -0.61287542290E+00  0.15348837387E+02  0.72461531973E+02  0.69999950079E+02 0.  0.
         12    1    1    2    0    0 -0.10710657279E+02  0.61287542290E+00 -0.15348837387E+02  0.18726468027E+02  0.00000000000E+00 0. -1.
         11    1    3    3    0    0  0.96683918417E+01  0.24089685212E+02  0.24116772964E+02  0.35431757970E+02  0.51100000000E-03 0. -1.
        -11    1    3    3    0    0 -0.94515338724E+01 -0.93642445189E+01  0.46647920817E+01  0.14098966394E+02  0.51100000000E-03 0.  1.
         12    1    3    3    0    0  0.10493799310E+02 -0.15338316116E+02 -0.13432727659E+02  0.22930807609E+02  0.00000000000E+00 0. -1.
</event>
<event>
 7    1  0.1345786E-013  0.7246139E+02  0.7816164E-02  0.1226709E+00
        -11   -1    0    0    0    0  0.00000000000E+00  0.00000000000E+00  0.45593999997E+02  0.45594000000E+02  0.51100000000E-03 0.  1.
         11   -1    0    0    0    0 -0.00000000000E+00 -0.00000000000E+00 -0.45593999997E+02  0.45594000000E+02  0.51100000000E-03 0. -1.
    9900012    2    1    2    0    0 -0.81958039565E+01 -0.89881265810E+01  0.14238275244E+02  0.72461385147E+02  0.69999758811E+02 0.  0.
         12    1    1    2    0    0  0.81958039565E+01  0.89881265810E+01 -0.14238275244E+02  0.18726614853E+02  0.00000000000E+00 0. -1.
         11    1    3    3    0    0 -0.26514466930E+02 -0.13980634840E+00  0.47964906125E+01  0.26945181848E+02  0.51100000000E-03 0. -1.
        -11    1    3    3    0    0  0.29568330194E+02 -0.65963584215E+00  0.17737225712E+01  0.29628826537E+02  0.51100000000E-03 0.  1.
         12    1    3    3    0    0 -0.11249667221E+02 -0.81886843904E+01  0.76680620599E+01  0.15887376762E+02  0.00000000000E+00 0. -1.
</event>
<event>
 7    1  0.1345786E-013  0.7246155E+02  0.7816164E-02  0.1226708E+00
        -11   -1    0    0    0    0  0.00000000000E+00  0.00000000000E+00  0.45593999997E+02  0.45594000000E+02  0.51100000000E-03 0.  1.
         11   -1    0    0    0    0 -0.00000000000E+00 -0.00000000000E+00 -0.45593999997E+02  0.45594000000E+02  0.51100000000E-03 0. -1.
    9900012    2    1    2    0    0  0.17914562301E+02  0.11018044927E+01  0.53417738841E+01  0.72461546417E+02  0.69999968895E+02 0.  0.
         12    1    1    2    0    0 -0.17914562301E+02 -0.11018044927E+01 -0.53417738841E+01  0.18726453583E+02  0.00000000000E+00 0. -1.
         11    1    3    3    0    0 -0.17294821728E+02  0.66118870356E+01  0.17416821047E+02  0.25419944225E+02  0.51100000000E-03 0.  1.
        -11    1    3    3    0    0  0.13004915667E+02 -0.29160425586E+01 -0.19382076700E+02  0.23522245496E+02  0.51100000000E-03 0. -1.
        -12    1    3    3    0    0  0.22204468362E+02 -0.25940399843E+01  0.73070295378E+01  0.23519356695E+02  0.00000000000E+00 0.  1.
</event>
<event>
 7    1  0.1345786E-013  0.7246158E+02  0.7816164E-02  0.1226708E+00
        -11   -1    0    0    0    0  0.00000000000E+00  0.00000000000E+00  0.45593999997E+02  0.45594000000E+02  0.51100000000E-03 0. -1.
         11   -1    0    0    0    0 -0.00000000000E+00 -0.00000000000E+00 -0.45593999997E+02  0.45594000000E+02  0.51100000000E-03 0.  1.
    9900012    2    1    2    0    0 -0.83813498541E+01 -0.19115099166E+01 -0.16636641392E+02  0.72461581967E+02  0.70000015206E+02 0.  0.
         12    1    1    2    0    0  0.83813498541E+01  0.19115099166E+01  0.16636641392E+02  0.18726418033E+02  0.00000000000E+00 0. -1.
         11    1    3    3    0    0 -0.14976557472E+02 -0.26890249322E+02  0.38307482751E+01  0.31017050391E+02  0.51100000000E-03 0. -1.
        -11    1    3    3    0    0  0.15973860104E+02  0.12746211770E+02 -0.95596841576E+01  0.22561420225E+02  0.51100000000E-03 0.  1.
        -12    1    3    3    0    0 -0.93786524859E+01  0.12232527635E+02 -0.10907705510E+02  0.18883111351E+02  0.00000000000E+00 0.  1.
</event>
<event>
 7    1  0.1345786E-013  0.7246156E+02  0.7816164E-02  0.1226708E+00
        -11   -1    0    0    0    0  0.00000000000E+00  0.00000000000E+00  0.45593999997E+02  0.45594000000E+02  0.51100000000E-03 0. -1.
         11   -1    0    0    0    0 -0.00000000000E+00 -0.00000000000E+00 -0.45593999997E+02  0.45594000000E+02  0.51100000000E-03 0.  1.
    9900012    2    1    2    0    0  0.14797849457E+02  0.48776223666E+01 -0.10388070381E+02  0.72461560009E+02  0.69999986602E+02 0.  0.
         12    1    1    2    0    0 -0.14797849457E+02 -0.48776223666E+01  0.10388070381E+02  0.18726439991E+02  0.00000000000E+00 0. -1.
         11    1    3    3    0    0  0.30269477466E+02 -0.36628528797E+01 -0.15893786547E+02  0.34384156357E+02  0.51100000000E-03 0.  1.
        -11    1    3    3    0    0 -0.15716334899E+02 -0.95900400417E+01  0.74081180864E+01  0.19845711489E+02  0.51100000000E-03 0. -1.
         12    1    3    3    0    0  0.24470688965E+00  0.18130515288E+02 -0.19024019206E+01  0.18231692163E+02  0.00000000000E+00 0. -1.
</event>
<event>
 7    1  0.1345786E-013  0.7246157E+02  0.7816164E-02  0.1226708E+00
        -11   -1    0    0    0    0  0.00000000000E+00  0.00000000000E+00  0.45593999997E+02  0.45594000000E+02  0.51100000000E-03 0. -1.
         11   -1    0    0    0    0 -0.00000000000E+00 -0.00000000000E+00 -0.45593999997E+02  0.45594000000E+02  0.51100000000E-03 0.  1.
    9900012    2    1    2    0    0  0.55872440376E+01 -0.12426778341E+02 -0.12846681330E+02  0.72461565821E+02  0.69999994172E+02 0.  0.
         12    1    1    2    0    0 -0.55872440376E+01  0.12426778341E+02  0.12846681330E+02  0.18726434179E+02  0.00000000000E+00 0. -1.
         11    1    3    3    0    0 -0.12857481498E+02 -0.19928374013E+02  0.77646846967E+01  0.24954864255E+02  0.51100000000E-03 0. -1.
        -11    1    3    3    0    0  0.56889638729E+01  0.33025782702E+01 -0.30262576721E+02  0.30969257066E+02  0.51100000000E-03 0.  1.
         12    1    3    3    0    0  0.12755761663E+02  0.41990174018E+01  0.96512106936E+01  0.16537444500E+02  0.00000000000E+00 0. -1.
</event>
<event>
 7    1  0.1345786E-013  0.7246157E+02  0.7816164E-02  0.1226708E+00
        -11   -1    0    0    0    0  0.00000000000E+00  0.00000000000E+00  0.45593999997E+02  0.45594000000E+02  0.51100000000E-03 0.  1.
         11   -1    0    0    0    0 -0.00000000000E+00 -0.00000000000E+00 -0.45593999997E+02  0.45594000000E+02  0.51100000000E-03 0. -1.
    9900012    2    1    2    0    0 -0.15137633614E+02 -0.27928031249E+01  0.10664496079E+02  0.72461570086E+02  0.69999999728E+02 0.  0.
         12    1    1    2    0    0  0.15137633614E+02  0.27928031249E+01 -0.10664496079E+02  0.18726429914E+02  0.00000000000E+00 0. -1.
         11    1    3    3    0    0 -0.15087531311E+02 -0.99011534026E+01 -0.22019815054E+02  0.28469961276E+02  0.51100000000E-03 0. -1.
        -11    1    3    3    0    0  0.13361554540E+02  0.86914387084E+01  0.17809258281E+02  0.23900667927E+02  0.51100000000E-03 0.  1.
         12    1    3    3    0    0 -0.13411656843E+02 -0.15830884307E+01  0.14875052851E+02  0.20090940883E+02  0.00000000000E+00 0. -1.
</event>
<event>
 7    1  0.1345786E-013  0.7246148E+02  0.7816164E-02  0.1226708E+00
        -11   -1    0    0    0    0  0.00000000000E+00  0.00000000000E+00  0.45593999997E+02  0.45594000000E+02  0.51100000000E-03 0. -1.
         11   -1    0    0    0    0 -0.00000000000E+00 -0.00000000000E+00 -0.45593999997E+02  0.45594000000E+02  0.51100000000E-03 0.  1.
    9900012    2    1    2    0    0 -0.57595649290E+01  0.19946176112E+01 -0.17706823868E+02  0.72461476055E+02  0.69999877235E+02 0.  0.
         12    1    1    2    0    0  0.57595649290E+01 -0.19946176112E+01  0.17706823868E+02  0.18726523945E+02  0.00000000000E+00 0. -1.
         11    1    3    3    0    0  0.55109528142E+01 -0.25225896793E+02  0.13133065925E+02  0.28968843449E+02  0.51100000000E-03 0. -1.
        -11    1    3    3    0    0  0.88010399817E+00  0.21390732123E+01 -0.49026411480E+01  0.54208954742E+01  0.51100000000E-03 0.  1.
         12    1    3    3    0    0 -0.12150621741E+02  0.25081441192E+02 -0.25937248645E+02  0.38071737131E+02  0.00000000000E+00 0. -1.
</event>
<event>
 7    1  0.1345786E-013  0.7246149E+02  0.7816164E-02  0.1226708E+00
        -11   -1    0    0    0    0  0.00000000000E+00  0.00000000000E+00  0.45593999997E+02  0.45594000000E+02  0.51100000000E-03 0.  1.
         11   -1    0    0    0    0 -0.00000000000E+00 -0.00000000000E+00 -0.45593999997E+02  0.45594000000E+02  0.51100000000E-03 0. -1.
    9900012    2    1    2    0    0  0.48802089804E+01  0.96245663318E+01  0.15304685641E+02  0.72461491534E+02  0.69999897400E+02 0.  0.
         12    1    1    2    0    0 -0.48802089804E+01 -0.96245663318E+01 -0.15304685641E+02  0.18726508466E+02  0.00000000000E+00 0. -1.
         11    1    3    3    0    0 -0.18765053421E+02  0.18330455519E+02  0.15250270619E+02  0.30343097792E+02  0.51100000000E-03 0. -1.
        -11    1    3    3    0    0  0.84394026831E+01 -0.88984870666E+01  0.15950153705E+02  0.20119989890E+02  0.51100000000E-03 0.  1.
         12    1    3    3    0    0  0.15205859719E+02  0.19259787970E+00 -0.15895738683E+02  0.21998403851E+02  0.00000000000E+00 0. -1.
</event>
<event>
 7    1  0.1345786E-013  0.7246162E+02  0.7816164E-02  0.1226708E+00
        -11   -1    0    0    0    0  0.00000000000E+00  0.00000000000E+00  0.45593999997E+02  0.45594000000E+02  0.51100000000E-03 0. -1.
         11   -1    0    0    0    0 -0.00000000000E+00 -0.00000000000E+00 -0.45593999997E+02  0.45594000000E+02  0.51100000000E-03 0.  1.
    9900012    2    1    2    0    0  0.13860383966E+02  0.38269158243E+01 -0.11996747904E+02  0.72461615173E+02  0.70000058462E+02 0.  0.
         12    1    1    2    0    0 -0.13860383966E+02 -0.38269158243E+01  0.11996747904E+02  0.18726384827E+02  0.00000000000E+00 0. -1.
         11    1    3    3    0    0  0.60558801989E+01  0.23745375168E+02  0.27348005451E+01  0.24657568029E+02  0.51100000000E-03 0. -1.
        -11    1    3    3    0    0  0.28832643913E+01 -0.32148033434E+02 -0.11065506306E+02  0.34121176669E+02  0.51100000000E-03 0.  1.
        -12    1    3    3    0    0  0.49212393761E+01  0.12229574090E+02 -0.36660421435E+01  0.13682870475E+02  0.00000000000E+00 0.  1.
</event>
<event>
 7    1  0.1345786E-013  0.7246156E+02  0.7816164E-02  0.1226708E+00
        -11   -1    0    0    0    0  0.00000000000E+00  0.00000000000E+00  0.45593999997E+02  0.45594000000E+02  0.51100000000E-03 0.  1.
         11   -1    0    0    0    0 -0.00000000000E+00 -0.00000000000E+00 -0.45593999997E+02  0.45594000000E+02  0.51100000000E-03 0. -1.
    9900012    2    1    2    0    0 -0.97497997319E+01  0.77562009007E+01  0.13980784020E+02  0.72461559627E+02  0.69999986104E+02 0.  0.
         12    1    1    2    0    0  0.97497997319E+01 -0.77562009007E+01 -0.13980784020E+02  0.18726440373E+02  0.00000000000E+00 0. -1.
         11    1    3    3    0    0  0.15106546277E+02 -0.41720022002E+01 -0.11738451833E+02  0.19580719968E+02  0.51100000000E-03 0. -1.
        -11    1    3    3    0    0 -0.19554846492E+02 -0.10368736938E+02  0.18514989308E+02  0.28856672649E+02  0.51100000000E-03 0.  1.
        -12    1    3    3    0    0 -0.53014995167E+01  0.22296940039E+02  0.72042465450E+01  0.24024167010E+02  0.00000000000E+00 0.  1.
</event>
<event>
 7    1  0.1345786E-013  0.7246159E+02  0.7816164E-02  0.1226708E+00
        -11   -1    0    0    0    0  0.00000000000E+00  0.00000000000E+00  0.45593999997E+02  0.45594000000E+02  0.51100000000E-03 0. -1.
         11   -1    0    0    0    0 -0.00000000000E+00 -0.00000000000E+00 -0.45593999997E+02  0.45594000000E+02  0.51100000000E-03 0.  1.
    9900012    2    1    2    0    0  0.11941900060E+02  0.57594561645E+01 -0.13224912185E+02  0.72461585110E+02  0.70000019300E+02 0.  0.
         12    1    1    2    0    0 -0.11941900060E+02 -0.57594561645E+01  0.13224912185E+02  0.18726414890E+02  0.00000000000E+00 0. -1.
         11    1    3    3    0    0  0.19024104394E+01  0.25945013084E+02  0.15133574573E+02  0.30096311219E+02  0.51100000000E-03 0. -1.
        -11    1    3    3    0    0  0.42923833764E+01  0.26504105239E+01 -0.13768720149E+02  0.14663795068E+02  0.51100000000E-03 0.  1.
         12    1    3    3    0    0  0.57471062438E+01 -0.22835967443E+02 -0.14589766609E+02  0.27701478822E+02  0.00000000000E+00 0. -1.
</event>
<event>
 7    1  0.1345786E-013  0.7246156E+02  0.7816164E-02  0.1226708E+00
        -11   -1    0    0    0    0  0.00000000000E+00  0.00000000000E+00  0.45593999997E+02  0.45594000000E+02  0.51100000000E-03 0.  1.
         11   -1    0    0    0    0 -0.00000000000E+00 -0.00000000000E+00 -0.45593999997E+02  0.45594000000E+02  0.51100000000E-03 0. -1.
    9900012    2    1    2    0    0 -0.16763478195E+02 -0.17144001076E+01 -0.81686017096E+01  0.72461563532E+02  0.69999991190E+02 0.  0.
         12    1    1    2    0    0  0.16763478195E+02  0.17144001076E+01  0.81686017096E+01  0.18726436468E+02  0.00000000000E+00 0. -1.
         11    1    3    3    0    0 -0.20496986170E+02 -0.23651074191E+02 -0.14997607840E+02  0.34704869884E+02  0.51100000000E-03 0. -1.
        -11    1    3    3    0    0 -0.52794436570E+00 -0.10218035240E+01  0.13439320100E+02  0.13488444414E+02  0.51100000000E-03 0.  1.
         12    1    3    3    0    0  0.42614523407E+01  0.22958477608E+02 -0.66103139692E+01  0.24268249234E+02  0.00000000000E+00 0. -1.
</event>
<event>
 7    1  0.1345786E-013  0.7246154E+02  0.7816164E-02  0.1226708E+00
        -11   -1    0    0    0    0  0.00000000000E+00  0.00000000000E+00  0.45593999997E+02  0.45594000000E+02  0.51100000000E-03 0.  1.
         11   -1    0    0    0    0 -0.00000000000E+00 -0.00000000000E+00 -0.45593999997E+02  0.45594000000E+02  0.51100000000E-03 0. -1.
    9900012    2    1    2    0    0 -0.17706094382E+02 -0.55987135245E+01  0.24143526863E+01  0.72461535563E+02  0.69999954756E+02 0.  0.
         12    1    1    2    0    0  0.17706094382E+02  0.55987135245E+01 -0.24143526863E+01  0.18726464437E+02  0.00000000000E+00 0. -1.
         11    1    3    3    0    0 -0.15599051413E+02 -0.30734455635E+02  0.32110073869E+01  0.34615715172E+02  0.51100000000E-03 0.  1.
        -11    1    3    3    0    0 -0.33884648887E+01  0.18377556776E+02 -0.13735463697E+02  0.23192223925E+02  0.51100000000E-03 0. -1.
        -12    1    3    3    0    0  0.12814219192E+01  0.67581853339E+01  0.12938808997E+02  0.14653596466E+02  0.00000000000E+00 0.  1.
</event>
<event>
 7    1  0.1345786E-013  0.7246157E+02  0.7816164E-02  0.1226708E+00
        -11   -1    0    0    0    0  0.00000000000E+00  0.00000000000E+00  0.45593999997E+02  0.45594000000E+02  0.51100000000E-03 0. -1.
         11   -1    0    0    0    0 -0.00000000000E+00 -0.00000000000E+00 -0.45593999997E+02  0.45594000000E+02  0.51100000000E-03 0.  1.
    9900012    2    1    2    0    0  0.45059863320E+00 -0.11582312258E+02 -0.14708029699E+02  0.72461571242E+02  0.70000001235E+02 0.  0.
         12    1    1    2    0    0 -0.45059863320E+00  0.11582312258E+02  0.14708029699E+02  0.18726428758E+02  0.00000000000E+00 0. -1.
         11    1    3    3    0    0 -0.12321109698E+02  0.21854145295E+02 -0.18352438416E+02  0.31084166497E+02  0.51100000000E-03 0. -1.
        -11    1    3    3    0    0  0.13742556260E+01 -0.28309418438E+02 -0.58571510934E-01  0.28342815345E+02  0.51100000000E-03 0.  1.
         12    1    3    3    0    0  0.11397452705E+02 -0.51270391156E+01  0.37029802275E+01  0.13034589400E+02  0.00000000000E+00 0. -1.
</event>
<event>
 7    1  0.1345786E-013  0.7246151E+02  0.7816164E-02  0.1226708E+00
        -11   -1    0    0    0    0  0.00000000000E+00  0.00000000000E+00  0.45593999997E+02  0.45594000000E+02  0.51100000000E-03 0.  1.
         11   -1    0    0    0    0 -0.00000000000E+00 -0.00000000000E+00 -0.45593999997E+02  0.45594000000E+02  0.51100000000E-03 0. -1.
    9900012    2    1    2    0    0  0.47425973377E+01  0.14298262666E+02  0.11124250510E+02  0.72461508226E+02  0.69999919144E+02 0.  0.
         12    1    1    2    0    0 -0.47425973377E+01 -0.14298262666E+02 -0.11124250510E+02  0.18726491774E+02  0.00000000000E+00 0. -1.
         11    1    3    3    0    0 -0.32777432009E+01  0.10144049144E+02  0.37102226554E+01  0.11287651923E+02  0.51100000000E-03 0. -1.
        -11    1    3    3    0    0 -0.76522976088E+01 -0.15604988070E+02  0.24985536590E+02  0.30436004177E+02  0.51100000000E-03 0.  1.
        -12    1    3    3    0    0  0.15672638147E+02  0.19759201591E+02 -0.17571508735E+02  0.30737852125E+02  0.00000000000E+00 0.  1.
</event>
<event>
 7    1  0.1345786E-013  0.7246153E+02  0.7816164E-02  0.1226708E+00
        -11   -1    0    0    0    0  0.00000000000E+00  0.00000000000E+00  0.45593999997E+02  0.45594000000E+02  0.51100000000E-03 0.  1.
         11   -1    0    0    0    0 -0.00000000000E+00 -0.00000000000E+00 -0.45593999997E+02  0.45594000000E+02  0.51100000000E-03 0. -1.
    9900012    2    1    2    0    0 -0.12198506500E+02 -0.97251840164E+01 -0.10358471228E+02  0.72461529666E+02  0.69999947074E+02 0.  0.
         12    1    1    2    0    0  0.12198506500E+02  0.97251840164E+01  0.10358471228E+02  0.18726470334E+02  0.00000000000E+00 0. -1.
         11    1    3    3    0    0  0.99451838619E+01 -0.73253154368E+01 -0.25097248981E+02  0.27972108161E+02  0.51100000000E-03 0. -1.
        -11    1    3    3    0    0 -0.19417137008E+02  0.12261217710E+02  0.18055715144E+02  0.29212523324E+02  0.51100000000E-03 0.  1.
        -12    1    3    3    0    0 -0.27265533539E+01 -0.14661086289E+02 -0.33169373914E+01  0.15276898181E+02  0.00000000000E+00 0.  1.
</event>
<event>
 7    1  0.1345786E-013  0.7246157E+02  0.7816164E-02  0.1226708E+00
        -11   -1    0    0    0    0  0.00000000000E+00  0.00000000000E+00  0.45593999997E+02  0.45594000000E+02  0.51100000000E-03 0.  1.
         11   -1    0    0    0    0 -0.00000000000E+00 -0.00000000000E+00 -0.45593999997E+02  0.45594000000E+02  0.51100000000E-03 0. -1.
    9900012    2    1    2    0    0  0.16431845399E+02 -0.24272358233E+01  0.86476770737E+01  0.72461565856E+02  0.69999994219E+02 0.  0.
         12    1    1    2    0    0 -0.16431845399E+02  0.24272358233E+01 -0.86476770737E+01  0.18726434144E+02  0.00000000000E+00 0. -1.
         11    1    3    3    0    0 -0.11087900266E+02  0.44884258814E+01 -0.13501162399E+02  0.18037984521E+02  0.51100000000E-03 0. -1.
        -11    1    3    3    0    0  0.27562420987E+02  0.11857195264E+02  0.18646840753E+02  0.35326828340E+02  0.51100000000E-03 0.  1.
        -12    1    3    3    0    0 -0.42675322386E-01 -0.18772856969E+02  0.35019987199E+01  0.19096752996E+02  0.00000000000E+00 0.  1.
</event>
<event>
 7    1  0.1345786E-013  0.7246159E+02  0.7816164E-02  0.1226708E+00
        -11   -1    0    0    0    0  0.00000000000E+00  0.00000000000E+00  0.45593999997E+02  0.45594000000E+02  0.51100000000E-03 0.  1.
         11   -1    0    0    0    0 -0.00000000000E+00 -0.00000000000E+00 -0.45593999997E+02  0.45594000000E+02  0.51100000000E-03 0. -1.
    9900012    2    1    2    0    0 -0.14449149794E+02  0.11272263652E+02 -0.38518031538E+01  0.72461594975E+02  0.70000032151E+02 0.  0.
         12    1    1    2    0    0  0.14449149794E+02 -0.11272263652E+02  0.38518031538E+01  0.18726405025E+02  0.00000000000E+00 0. -1.
         11    1    3    3    0    0 -0.13717437501E+02 -0.25704667465E+02 -0.89781012461E+01  0.30487773342E+02  0.51100000000E-03 0. -1.
        -11    1    3    3    0    0  0.21072065054E+01  0.19267779713E+02  0.11965840579E+02  0.22778696085E+02  0.51100000000E-03 0.  1.
        -12    1    3    3    0    0 -0.28389187979E+01  0.17709151404E+02 -0.68395424862E+01  0.19195125549E+02  0.00000000000E+00 0.  1.
</event>
<event>
 7    1  0.1345786E-013  0.7246185E+02  0.7816164E-02  0.1226707E+00
        -11   -1    0    0    0    0  0.00000000000E+00  0.00000000000E+00  0.45593999997E+02  0.45594000000E+02  0.51100000000E-03 0. -1.
         11   -1    0    0    0    0 -0.00000000000E+00 -0.00000000000E+00 -0.45593999997E+02  0.45594000000E+02  0.51100000000E-03 0.  1.
    9900012    2    1    2    0    0 -0.34748470503E+01  0.32492443887E+01 -0.18111782590E+02  0.72461846638E+02  0.70000359989E+02 0.  0.
         12    1    1    2    0    0  0.34748470503E+01 -0.32492443887E+01  0.18111782590E+02  0.18726153362E+02  0.00000000000E+00 0. -1.
         11    1    3    3    0    0 -0.22239098236E+01  0.35321206524E+01  0.20918146652E+02  0.21330506577E+02  0.51100000000E-03 0. -1.
        -11    1    3    3    0    0 -0.99246093644E+01 -0.54026724607E+01 -0.39464107494E+02  0.41050000260E+02  0.51100000000E-03 0.  1.
        -12    1    3    3    0    0  0.86736721377E+01  0.51197961969E+01  0.43417825216E+00  0.10081339802E+02  0.00000000000E+00 0.  1.
</event>
<event>
 7    1  0.1345786E-013  0.7246163E+02  0.7816164E-02  0.1226708E+00
        -11   -1    0    0    0    0  0.00000000000E+00  0.00000000000E+00  0.45593999997E+02  0.45594000000E+02  0.51100000000E-03 0. -1.
         11   -1    0    0    0    0 -0.00000000000E+00 -0.00000000000E+00 -0.45593999997E+02  0.45594000000E+02  0.51100000000E-03 0.  1.
    9900012    2    1    2    0    0 -0.15597193641E+02 -0.42148160683E+01 -0.94678375300E+01  0.72461626314E+02  0.70000072975E+02 0.  0.
         12    1    1    2    0    0  0.15597193641E+02  0.42148160683E+01  0.94678375300E+01  0.18726373686E+02  0.00000000000E+00 0. -1.
         11    1    3    3    0    0 -0.10377090977E+02 -0.31284037201E+02  0.83777650846E+01  0.34008262949E+02  0.51100000000E-03 0. -1.
        -11    1    3    3    0    0  0.19426222446E+01  0.21645405474E+02 -0.42294794373E+01  0.22140141280E+02  0.51100000000E-03 0.  1.
        -12    1    3    3    0    0 -0.71627249083E+01  0.54238156583E+01 -0.13616123177E+02  0.16313222085E+02  0.00000000000E+00 0.  1.
</event>
<event>
 7    1  0.1345786E-013  0.7246160E+02  0.7816164E-02  0.1226708E+00
        -11   -1    0    0    0    0  0.00000000000E+00  0.00000000000E+00  0.45593999997E+02  0.45594000000E+02  0.51100000000E-03 0.  1.
         11   -1    0    0    0    0 -0.00000000000E+00 -0.00000000000E+00 -0.45593999997E+02  0.45594000000E+02  0.51100000000E-03 0. -1.
    9900012    2    1    2    0    0  0.27079990321E+01 -0.17941282677E+02  0.46319700348E+01  0.72461600740E+02  0.70000039661E+02 0.  0.
         12    1    1    2    0    0 -0.27079990321E+01  0.17941282677E+02 -0.46319700348E+01  0.18726399260E+02  0.00000000000E+00 0. -1.
         11    1    3    3    0    0  0.20247945805E+02 -0.61267701338E+00 -0.21924537535E+02  0.29850293614E+02  0.51100000000E-03 0. -1.
        -11    1    3    3    0    0 -0.67336959035E+01  0.24797025467E+01  0.16331527219E+02  0.17838451917E+02  0.51100000000E-03 0.  1.
        -12    1    3    3    0    0 -0.10806250870E+02 -0.19808308210E+02  0.10224980351E+02  0.24772855209E+02  0.00000000000E+00 0.  1.
</event>
<event>
 7    1  0.1345786E-013  0.7246149E+02  0.7816164E-02  0.1226708E+00
        -11   -1    0    0    0    0  0.00000000000E+00  0.00000000000E+00  0.45593999997E+02  0.45594000000E+02  0.51100000000E-03 0.  1.
         11   -1    0    0    0    0 -0.00000000000E+00 -0.00000000000E+00 -0.45593999997E+02  0.45594000000E+02  0.51100000000E-03 0. -1.
    9900012    2    1    2    0    0  0.63806165335E+01 -0.10106873529E+01  0.17576931440E+02  0.72461487374E+02  0.69999891981E+02 0.  0.
         12    1    1    2    0    0 -0.63806165335E+01  0.10106873529E+01 -0.17576931440E+02  0.18726512626E+02  0.00000000000E+00 0. -1.
         11    1    3    3    0    0  0.15386646409E+02  0.25209101244E+02  0.22821350579E+02  0.37323741985E+02  0.51100000000E-03 0. -1.
        -11    1    3    3    0    0 -0.12449621170E+02 -0.94836511426E+01  0.33597961579E+01  0.16006902785E+02  0.51100000000E-03 0.  1.
         12    1    3    3    0    0  0.34435912946E+01 -0.16736137454E+02 -0.86042152968E+01  0.19130842605E+02  0.00000000000E+00 0. -1.
</event>
<event>
 7    1  0.1345786E-013  0.7246152E+02  0.7816164E-02  0.1226708E+00
        -11   -1    0    0    0    0  0.00000000000E+00  0.00000000000E+00  0.45593999997E+02  0.45594000000E+02  0.51100000000E-03 0.  1.
         11   -1    0    0    0    0 -0.00000000000E+00 -0.00000000000E+00 -0.45593999997E+02  0.45594000000E+02  0.51100000000E-03 0. -1.
    9900012    2    1    2    0    0 -0.19029799794E+01  0.63511867365E-01  0.18629432618E+02  0.72461518050E+02  0.69999931942E+02 0.  0.
         12    1    1    2    0    0  0.19029799794E+01 -0.63511867365E-01 -0.18629432618E+02  0.18726481950E+02  0.00000000000E+00 0. -1.
         11    1    3    3    0    0 -0.74579806691E+01  0.68915962670E+01 -0.17792126221E+01  0.10309276046E+02  0.51100000000E-03 0. -1.
        -11    1    3    3    0    0 -0.97445499326E+01 -0.20270192758E+02  0.31698206560E+02  0.38866608641E+02  0.51100000000E-03 0.  1.
        -12    1    3    3    0    0  0.15299550622E+02  0.13442108358E+02 -0.11289561320E+02  0.23285633364E+02  0.00000000000E+00 0.  1.
</event>
<event>
 7    1  0.1345786E-013  0.7246157E+02  0.7816164E-02  0.1226708E+00
        -11   -1    0    0    0    0  0.00000000000E+00  0.00000000000E+00  0.45593999997E+02  0.45594000000E+02  0.51100000000E-03 0.  1.
         11   -1    0    0    0    0 -0.00000000000E+00 -0.00000000000E+00 -0.45593999997E+02  0.45594000000E+02  0.51100000000E-03 0. -1.
    9900012    2    1    2    0    0  0.56360772952E+01 -0.17470569607E+02  0.37003845739E+01  0.72461574402E+02  0.70000005351E+02 0.  0.
         12    1    1    2    0    0 -0.56360772952E+01  0.17470569607E+02 -0.37003845739E+01  0.18726425598E+02  0.00000000000E+00 0. -1.
         11    1    3    3    0    0 -0.23542590421E+02  0.30726196867E+01 -0.59461358958E+01  0.24475520174E+02  0.51100000000E-03 0. -1.
        -11    1    3    3    0    0  0.15187628004E+02  0.35512768468E+01  0.12486452512E+02  0.19979667370E+02  0.51100000000E-03 0.  1.
         12    1    3    3    0    0  0.13991039712E+02 -0.24094466141E+02 -0.28399320419E+01  0.28006386858E+02  0.00000000000E+00 0. -1.
</event>
<event>
 7    1  0.1345786E-013  0.7246158E+02  0.7816164E-02  0.1226708E+00
        -11   -1    0    0    0    0  0.00000000000E+00  0.00000000000E+00  0.45593999997E+02  0.45594000000E+02  0.51100000000E-03 0.  1.
         11   -1    0    0    0    0 -0.00000000000E+00 -0.00000000000E+00 -0.45593999997E+02  0.45594000000E+02  0.51100000000E-03 0. -1.
    9900012    2    1    2    0    0  0.16471986568E+02 -0.22292888033E+01  0.86245365442E+01  0.72461582813E+02  0.70000016307E+02 0.  0.
         12    1    1    2    0    0 -0.16471986568E+02  0.22292888033E+01 -0.86245365442E+01  0.18726417187E+02  0.00000000000E+00 0. -1.
         11    1    3    3    0    0  0.40300715627E+01  0.13153254475E+02 -0.23973658495E+02  0.27640294535E+02  0.51100000000E-03 0. -1.
        -11    1    3    3    0    0 -0.94666932353E+00 -0.88703406718E+01  0.27773068448E+02  0.29170575203E+02  0.51100000000E-03 0.  1.
        -12    1    3    3    0    0  0.13388584329E+02 -0.65122026061E+01  0.48251265915E+01  0.15650713075E+02  0.00000000000E+00 0.  1.
</event>
<event>
 7    1  0.1345786E-013  0.7246161E+02  0.7816164E-02  0.1226708E+00
        -11   -1    0    0    0    0  0.00000000000E+00  0.00000000000E+00  0.45593999997E+02  0.45594000000E+02  0.51100000000E-03 0.  1.
         11   -1    0    0    0    0 -0.00000000000E+00 -0.00000000000E+00 -0.45593999997E+02  0.45594000000E+02  0.51100000000E-03 0. -1.
    9900012    2    1    2    0    0  0.12244790287E+02  0.11681809418E+02  0.80173555725E+01  0.72461613514E+02  0.70000056301E+02 0.  0.
         12    1    1    2    0    0 -0.12244790287E+02 -0.11681809418E+02 -0.80173555725E+01  0.18726386486E+02  0.00000000000E+00 0. -1.
         11    1    3    3    0    0 -0.43725965799E+01  0.14093439117E+02 -0.18293446438E+02  0.23503080859E+02  0.51100000000E-03 0. -1.
        -11    1    3    3    0    0  0.16111691350E+02 -0.15109378313E+02  0.28420050979E+01  0.22270089906E+02  0.51100000000E-03 0.  1.
        -12    1    3    3    0    0  0.50569551624E+00  0.12697748615E+02  0.23468796913E+02  0.26688442749E+02  0.00000000000E+00 0.  1.
</event>
<event>
 7    1  0.1345786E-013  0.7246157E+02  0.7816164E-02  0.1226708E+00
        -11   -1    0    0    0    0  0.00000000000E+00  0.00000000000E+00  0.45593999997E+02  0.45594000000E+02  0.51100000000E-03 0. -1.
         11   -1    0    0    0    0 -0.00000000000E+00 -0.00000000000E+00 -0.45593999997E+02  0.45594000000E+02  0.51100000000E-03 0.  1.
    9900012    2    1    2    0    0  0.16075543585E+02 -0.75719812434E+00 -0.95751136934E+01  0.72461568071E+02  0.69999997104E+02 0.  0.
         12    1    1    2    0    0 -0.16075543585E+02  0.75719812434E+00  0.95751136934E+01  0.18726431929E+02  0.00000000000E+00 0. -1.
         11    1    3    3    0    0  0.10658034271E+02 -0.12295593422E+02 -0.78730675849E+01  0.18076518072E+02  0.51100000000E-03 0. -1.
        -11    1    3    3    0    0  0.10568395317E+02  0.31662891160E+02 -0.33432815239E+01  0.33547089111E+02  0.51100000000E-03 0.  1.
        -12    1    3    3    0    0 -0.51508860040E+01 -0.20124495862E+02  0.16412354154E+01  0.20837960889E+02  0.00000000000E+00 0.  1.
</event>
<event>
 7    1  0.1345786E-013  0.7246114E+02  0.7816164E-02  0.1226709E+00
        -11   -1    0    0    0    0  0.00000000000E+00  0.00000000000E+00  0.45593999997E+02  0.45594000000E+02  0.51100000000E-03 0.  1.
         11   -1    0    0    0    0 -0.00000000000E+00 -0.00000000000E+00 -0.45593999997E+02  0.45594000000E+02  0.51100000000E-03 0. -1.
    9900012    2    1    2    0    0 -0.15969832700E+02  0.82040640558E+01 -0.53247712801E+01  0.72461136603E+02  0.69999435034E+02 0.  0.
         12    1    1    2    0    0  0.15969832700E+02 -0.82040640558E+01  0.53247712801E+01  0.18726863397E+02  0.00000000000E+00 0. -1.
         11    1    3    3    0    0  0.14030173008E+01  0.19894613687E+02 -0.10346097420E+02  0.22467884711E+02  0.51100000000E-03 0. -1.
        -11    1    3    3    0    0  0.33081932021E+01 -0.10921579193E+02  0.20964347863E+02  0.23868994866E+02  0.51100000000E-03 0.  1.
        -12    1    3    3    0    0 -0.20681043203E+02 -0.76897043789E+00 -0.15943021723E+02  0.26124257026E+02  0.00000000000E+00 0.  1.
</event>
<event>
 7    1  0.1345786E-013  0.7246153E+02  0.7816164E-02  0.1226708E+00
        -11   -1    0    0    0    0  0.00000000000E+00  0.00000000000E+00  0.45593999997E+02  0.45594000000E+02  0.51100000000E-03 0. -1.
         11   -1    0    0    0    0 -0.00000000000E+00 -0.00000000000E+00 -0.45593999997E+02  0.45594000000E+02  0.51100000000E-03 0.  1.
    9900012    2    1    2    0    0 -0.10120139386E+02 -0.32471788529E+01 -0.15418143928E+02  0.72461533332E+02  0.69999951849E+02 0.  0.
         12    1    1    2    0    0  0.10120139386E+02  0.32471788529E+01  0.15418143928E+02  0.18726466668E+02  0.00000000000E+00 0. -1.
         11    1    3    3    0    0 -0.18532254623E+01 -0.16177985813E+02 -0.70001041446E+01  0.17724647468E+02  0.51100000000E-03 0. -1.
        -11    1    3    3    0    0 -0.45006309619E+01  0.14208910494E+02 -0.29623465665E+02  0.33161702832E+02  0.51100000000E-03 0.  1.
        -12    1    3    3    0    0 -0.37662829622E+01 -0.12781035341E+01  0.21205425882E+02  0.21575183031E+02  0.00000000000E+00 0.  1.
</event>
<event>
 8    1  0.1345786E-013  0.7246166E+02  0.7816164E-02  0.1226708E+00
        -11   -1    0    0    0    0  0.00000000000E+00  0.00000000000E+00  0.45593999997E+02  0.45594000000E+02  0.51100000000E-03 0. -1.
         11   -1    0    0    0    0 -0.00000000000E+00 -0.00000000000E+00 -0.45593999997E+02  0.45594000000E+02  0.51100000000E-03 0.  1.
    9900012    2    1    2    0    0 -0.12469736851E+02  0.44745384458E+00 -0.13963567926E+02  0.72461660761E+02  0.70000117849E+02 0.  0.
         24    2    3    3    0    0  0.77383711474E+00  0.67118261280E+01 -0.21252556936E+02  0.56098165640E+02  0.51475096678E+02 0.  0.
         12    1    1    2    0    0  0.12469736851E+02 -0.44745384458E+00  0.13963567926E+02  0.18726339239E+02  0.00000000000E+00 0. -1.
         11    1    3    3    0    0 -0.13243573966E+02 -0.62643722834E+01  0.72889890102E+01  0.16363495120E+02  0.51100000000E-03 0. -1.
        -11    1    4    4    0    0  0.25588207684E+01 -0.95511412468E+01 -0.33967632162E+02  0.35377562066E+02  0.51100000000E-03 0.  1.
         12    1    4    4    0    0 -0.17849836537E+01  0.16262967375E+02  0.12715075225E+02  0.20720603574E+02  0.00000000000E+00 0. -1.
</event>
<event>
 7    1  0.1345786E-013  0.7246156E+02  0.7816164E-02  0.1226708E+00
        -11   -1    0    0    0    0  0.00000000000E+00  0.00000000000E+00  0.45593999997E+02  0.45594000000E+02  0.51100000000E-03 0. -1.
         11   -1    0    0    0    0 -0.00000000000E+00 -0.00000000000E+00 -0.45593999997E+02  0.45594000000E+02  0.51100000000E-03 0.  1.
    9900012    2    1    2    0    0 -0.50577895882E+01  0.17756195529E+02  0.31330312508E+01  0.72461558800E+02  0.69999985027E+02 0.  0.
         12    1    1    2    0    0  0.50577895882E+01 -0.17756195529E+02 -0.31330312508E+01  0.18726441200E+02  0.00000000000E+00 0. -1.
         11    1    3    3    0    0 -0.79276461982E+01 -0.61650043516E+01  0.24912961610E+02  0.26860947663E+02  0.51100000000E-03 0. -1.
        -11    1    3    3    0    0  0.15925624163E+02  0.17879160732E+02 -0.19818265894E+02  0.31081402104E+02  0.51100000000E-03 0.  1.
        -12    1    3    3    0    0 -0.13055767553E+02  0.60420391483E+01 -0.19616644659E+01  0.14519209033E+02  0.00000000000E+00 0.  1.
</event>
<event>
 7    1  0.1345786E-013  0.7246160E+02  0.7816164E-02  0.1226708E+00
        -11   -1    0    0    0    0  0.00000000000E+00  0.00000000000E+00  0.45593999997E+02  0.45594000000E+02  0.51100000000E-03 0. -1.
         11   -1    0    0    0    0 -0.00000000000E+00 -0.00000000000E+00 -0.45593999997E+02  0.45594000000E+02  0.51100000000E-03 0.  1.
    9900012    2    1    2    0    0  0.94262294872E+01  0.95612135197E+01 -0.13054013421E+02  0.72461604920E+02  0.70000045106E+02 0.  0.
         12    1    1    2    0    0 -0.94262294872E+01 -0.95612135197E+01  0.13054013421E+02  0.18726395080E+02  0.00000000000E+00 0. -1.
         11    1    3    3    0    0  0.11290624414E+02 -0.48200823630E+01  0.24410295116E+02  0.27323504562E+02  0.51100000000E-03 0. -1.
        -11    1    3    3    0    0  0.86308370081E+01  0.57750307448E+01 -0.95921422551E+01  0.14136885119E+02  0.51100000000E-03 0.  1.
         12    1    3    3    0    0 -0.10495231935E+02  0.86062651379E+01 -0.27872166282E+02  0.31001215238E+02  0.00000000000E+00 0. -1.
</event>
<event>
 7    1  0.1345786E-013  0.7246153E+02  0.7816164E-02  0.1226708E+00
        -11   -1    0    0    0    0  0.00000000000E+00  0.00000000000E+00  0.45593999997E+02  0.45594000000E+02  0.51100000000E-03 0.  1.
         11   -1    0    0    0    0 -0.00000000000E+00 -0.00000000000E+00 -0.45593999997E+02  0.45594000000E+02  0.51100000000E-03 0. -1.
    9900012    2    1    2    0    0  0.12765432396E+02 -0.97937868400E+01  0.95815471420E+01  0.72461532886E+02  0.69999951269E+02 0.  0.
         12    1    1    2    0    0 -0.12765432396E+02  0.97937868400E+01 -0.95815471420E+01  0.18726467114E+02  0.00000000000E+00 0. -1.
         11    1    3    3    0    0 -0.87855728008E+01  0.15728354985E+02 -0.16409604942E+02  0.24368885379E+02  0.51100000000E-03 0. -1.
        -11    1    3    3    0    0  0.35476535788E+01  0.27713302305E+01  0.99435562763E+01  0.10915146762E+02  0.51100000000E-03 0.  1.
         12    1    3    3    0    0  0.18003351618E+02 -0.28293472056E+02  0.16047595808E+02  0.37177500745E+02  0.00000000000E+00 0. -1.
</event>
<event>
 7    1  0.1345786E-013  0.7246154E+02  0.7816164E-02  0.1226708E+00
        -11   -1    0    0    0    0  0.00000000000E+00  0.00000000000E+00  0.45593999997E+02  0.45594000000E+02  0.51100000000E-03 0.  1.
         11   -1    0    0    0    0 -0.00000000000E+00 -0.00000000000E+00 -0.45593999997E+02  0.45594000000E+02  0.51100000000E-03 0. -1.
    9900012    2    1    2    0    0  0.36209423114E+01 -0.12626678133E+02 -0.13346758820E+02  0.72461542916E+02  0.69999964335E+02 0.  0.
         12    1    1    2    0    0 -0.36209423114E+01  0.12626678133E+02  0.13346758820E+02  0.18726457084E+02  0.00000000000E+00 0. -1.
         11    1    3    3    0    0  0.20122905653E+02  0.17613685359E+02 -0.11922549033E+02  0.29280034487E+02  0.51100000000E-03 0. -1.
        -11    1    3    3    0    0 -0.10657434394E+01 -0.22922362984E+02 -0.87967709872E+01  0.24575469760E+02  0.51100000000E-03 0.  1.
         12    1    3    3    0    0 -0.15436219903E+02 -0.73180005080E+01  0.73725611997E+01  0.18606038669E+02  0.00000000000E+00 0. -1.
</event>
<event>
 7    1  0.1630555E-013  0.7246158E+02  0.7816164E-02  0.1226708E+00
        -11   -1    0    0    0    0  0.00000000000E+00  0.00000000000E+00  0.45593999997E+02  0.45594000000E+02  0.51100000000E-03 0. -1.
         11   -1    0    0    0    0 -0.00000000000E+00 -0.00000000000E+00 -0.45593999997E+02  0.45594000000E+02  0.51100000000E-03 0.  1.
    9900012    2    1    2    0    0  0.22323491818E+01 -0.64280441807E+01 -0.17446367111E+02  0.72461578552E+02  0.70000010758E+02 0.  0.
         12    1    1    2    0    0 -0.22323491818E+01  0.64280441807E+01  0.17446367111E+02  0.18726421448E+02  0.00000000000E+00 0. -1.
         11    1    3    3    0    0  0.86837036158E+01  0.18603181939E+02  0.83330820898E+01  0.22156835156E+02  0.51100000000E-03 0. -1.
        -11    1    3    3    0    0  0.38965641612E+00 -0.40638117461E+01 -0.27854558267E+02  0.28152136944E+02  0.51100000000E-03 0.  1.
         12    1    3    3    0    0 -0.68410108501E+01 -0.20967414374E+02  0.20751090661E+01  0.22152606452E+02  0.00000000000E+00 0. -1.
</event>
<event>
 7    1  0.1552517E-013  0.7246157E+02  0.7816164E-02  0.1226708E+00
        -11   -1    0    0    0    0  0.00000000000E+00  0.00000000000E+00  0.45593999997E+02  0.45594000000E+02  0.51100000000E-03 0.  1.
         11   -1    0    0    0    0 -0.00000000000E+00 -0.00000000000E+00 -0.45593999997E+02  0.45594000000E+02  0.51100000000E-03 0. -1.
    9900012    2    1    2    0    0  0.16775373798E+02 -0.73915146402E+01  0.38251380863E+01  0.72461565847E+02  0.69999994206E+02 0.  0.
         12    1    1    2    0    0 -0.16775373798E+02  0.73915146402E+01 -0.38251380863E+01  0.18726434153E+02  0.00000000000E+00 0. -1.
         11    1    3    3    0    0 -0.17939405527E+02 -0.15399017723E+02 -0.10030052776E+02  0.25681782969E+02  0.51100000000E-03 0. -1.
        -11    1    3    3    0    0  0.13949038150E+02 -0.86100989272E+01  0.11613203247E+02  0.20089200053E+02  0.51100000000E-03 0.  1.
         12    1    3    3    0    0  0.20765741174E+02  0.16617602010E+02  0.22419876157E+01  0.26690582825E+02  0.00000000000E+00 0. -1.
</event>
