<event>
 7    1  0.6963701E-013  0.5930199E+02  0.7816164E-02  0.1266605E+00
        -11   -1    0    0    0    0  0.00000000000E+00  0.00000000000E+00  0.45593999997E+02  0.45594000000E+02  0.51100000000E-03 0.  1.
         11   -1    0    0    0    0 -0.00000000000E+00 -0.00000000000E+00 -0.45593999997E+02  0.45594000000E+02  0.51100000000E-03 0. -1.
    9900012    2    1    2    0    0  0.15191880270E+01  0.19952549278E+02  0.24825497544E+02  0.59301992360E+02  0.50000088146E+02 0.  0.
         12    1    1    2    0    0 -0.15191880270E+01 -0.19952549278E+02 -0.24825497544E+02  0.31886007640E+02  0.00000000000E+00 0. -1.
         11    1    3    3    0    0  0.17255018567E+02  0.30646769588E+01 -0.53476680958E+01  0.18322812691E+02  0.51100000000E-03 0.  1.
        -11    1    3    3    0    0 -0.34968110526E+01  0.31888385178E+00 -0.96732907010E+00  0.36421285315E+01  0.51100000000E-03 0. -1.
        -12    1    3    3    0    0 -0.12239019487E+02  0.16568988467E+02  0.31140494710E+02  0.37337051137E+02  0.00000000000E+00 0.  1.
</event>
<event>
 7    1  0.6963701E-013  0.5930195E+02  0.7816164E-02  0.1266605E+00
        -11   -1    0    0    0    0  0.00000000000E+00  0.00000000000E+00  0.45593999997E+02  0.45594000000E+02  0.51100000000E-03 0.  1.
         11   -1    0    0    0    0 -0.00000000000E+00 -0.00000000000E+00 -0.45593999997E+02  0.45594000000E+02  0.51100000000E-03 0. -1.
    9900012    2    1    2    0    0 -0.19898916755E+02  0.31645769127E-01  0.24914899191E+02  0.59301951465E+02  0.50000013564E+02 0.  0.
         12    1    1    2    0    0  0.19898916755E+02 -0.31645769127E-01 -0.24914899191E+02  0.31886048535E+02  0.00000000000E+00 0. -1.
         11    1    3    3    0    0  0.92234460037E+01 -0.20907604737E+01  0.12354749827E+02  0.15559019220E+02  0.51100000000E-03 0. -1.
        -11    1    3    3    0    0 -0.56271747791E+01  0.97699629001E-01 -0.97640770173E+01  0.11269953038E+02  0.51100000000E-03 0.  1.
        -12    1    3    3    0    0 -0.23495187979E+02  0.20247066139E+01  0.22324226381E+02  0.32472979207E+02  0.00000000000E+00 0.  1.
</event>
<event>
 7    1  0.6963701E-013  0.5930215E+02  0.7816164E-02  0.1266604E+00
        -11   -1    0    0    0    0  0.00000000000E+00  0.00000000000E+00  0.45593999997E+02  0.45594000000E+02  0.51100000000E-03 0.  1.
         11   -1    0    0    0    0 -0.00000000000E+00 -0.00000000000E+00 -0.45593999997E+02  0.45594000000E+02  0.51100000000E-03 0. -1.
    9900012    2    1    2    0    0 -0.78220707922E+01 -0.31016193818E+01  0.30755527030E+02  0.59302152400E+02  0.50000380020E+02 0.  0.
         12    1    1    2    0    0  0.78220707922E+01  0.31016193818E+01 -0.30755527030E+02  0.31885847600E+02  0.00000000000E+00 0. -1.
         11    1    3    3    0    0 -0.52146133067E+01  0.13174033452E+02  0.55918257891E+01  0.15232067005E+02  0.51100000000E-03 0. -1.
        -11    1    3    3    0    0 -0.12879383748E+01  0.71693578240E+00  0.26897975000E+02  0.26938334053E+02  0.51100000000E-03 0.  1.
        -12    1    3    3    0    0 -0.13195191106E+01 -0.16992588616E+02 -0.17342737593E+01  0.17131751342E+02  0.00000000000E+00 0.  1.
</event>
<event>
 7    1  0.6963701E-013  0.5930195E+02  0.7816164E-02  0.1266605E+00
        -11   -1    0    0    0    0  0.00000000000E+00  0.00000000000E+00  0.45593999997E+02  0.45594000000E+02  0.51100000000E-03 0. -1.
         11   -1    0    0    0    0 -0.00000000000E+00 -0.00000000000E+00 -0.45593999997E+02  0.45594000000E+02  0.51100000000E-03 0.  1.
    9900012    2    1    2    0    0 -0.27829488579E+02 -0.53073433942E+01 -0.14631199075E+02  0.59301947958E+02  0.50000007168E+02 0.  0.
         12    1    1    2    0    0  0.27829488579E+02  0.53073433942E+01  0.14631199075E+02  0.31886052042E+02  0.00000000000E+00 0. -1.
         11    1    3    3    0    0 -0.22659685975E+01  0.58587139566E+01  0.72968292621E+01  0.96282324677E+01  0.51100000000E-03 0. -1.
        -11    1    3    3    0    0  0.22920578341E+00  0.10668795962E+02 -0.38220717588E+01  0.11335077210E+02  0.51100000000E-03 0.  1.
        -12    1    3    3    0    0 -0.25792725765E+02 -0.21834853313E+02 -0.18105956578E+02  0.38338638280E+02  0.00000000000E+00 0.  1.
</event>
<event>
 7    1  0.6963701E-013  0.5930195E+02  0.7816164E-02  0.1266605E+00
        -11   -1    0    0    0    0  0.00000000000E+00  0.00000000000E+00  0.45593999997E+02  0.45594000000E+02  0.51100000000E-03 0. -1.
         11   -1    0    0    0    0 -0.00000000000E+00 -0.00000000000E+00 -0.45593999997E+02  0.45594000000E+02  0.51100000000E-03 0.  1.
    9900012    2    1    2    0    0 -0.22322895289E+02 -0.80899736229E+01 -0.21282874134E+02  0.59301951974E+02  0.50000014493E+02 0.  0.
         12    1    1    2    0    0  0.22322895289E+02  0.80899736229E+01  0.21282874134E+02  0.31886048026E+02  0.00000000000E+00 0. -1.
         11    1    3    3    0    0 -0.17579277473E+02 -0.84635874082E+01 -0.19675706743E+02  0.27709145501E+02  0.51100000000E-03 0.  1.
        -11    1    3    3    0    0 -0.16312698827E+02 -0.11445908214E+01  0.62709655724E+01  0.17513972726E+02  0.51100000000E-03 0. -1.
         12    1    3    3    0    0  0.11569081012E+02  0.15182046067E+01 -0.78781329636E+01  0.14078833747E+02  0.00000000000E+00 0. -1.
</event>
<event>
 7    1  0.6963701E-013  0.5930196E+02  0.7816164E-02  0.1266605E+00
        -11   -1    0    0    0    0  0.00000000000E+00  0.00000000000E+00  0.45593999997E+02  0.45594000000E+02  0.51100000000E-03 0.  1.
         11   -1    0    0    0    0 -0.00000000000E+00 -0.00000000000E+00 -0.45593999997E+02  0.45594000000E+02  0.51100000000E-03 0. -1.
    9900012    2    1    2    0    0 -0.19759938366E+02 -0.24962121244E+02 -0.17767846853E+01  0.59301958774E+02  0.50000026893E+02 0.  0.
         12    1    1    2    0    0  0.19759938366E+02  0.24962121244E+02  0.17767846853E+01  0.31886041226E+02  0.00000000000E+00 0. -1.
         11    1    3    3    0    0 -0.41647324391E+01 -0.76155486715E+01 -0.55356676490E+01  0.10294911094E+02  0.51100000000E-03 0. -1.
        -11    1    3    3    0    0 -0.30160244403E+02 -0.16213969709E+02  0.31191067190E+01  0.34384036749E+02  0.51100000000E-03 0.  1.
        -12    1    3    3    0    0  0.14565038475E+02 -0.11326028637E+01  0.63977624469E+00  0.14623010931E+02  0.00000000000E+00 0.  1.
</event>
<event>
 7    1  0.6963701E-013  0.5930196E+02  0.7816164E-02  0.1266605E+00
        -11   -1    0    0    0    0  0.00000000000E+00  0.00000000000E+00  0.45593999997E+02  0.45594000000E+02  0.51100000000E-03 0.  1.
         11   -1    0    0    0    0 -0.00000000000E+00 -0.00000000000E+00 -0.45593999997E+02  0.45594000000E+02  0.51100000000E-03 0. -1.
    9900012    2    1    2    0    0  0.66843453262E+01 -0.50798827973E+01  0.30760912729E+02  0.59301961776E+02  0.50000032369E+02 0.  0.
         12    1    1    2    0    0 -0.66843453262E+01  0.50798827973E+01 -0.30760912729E+02  0.31886038224E+02  0.00000000000E+00 0. -1.
         11    1    3    3    0    0  0.11257053024E+01 -0.52306042528E+01 -0.40770559290E+00  0.53658789950E+01  0.51100000000E-03 0. -1.
        -11    1    3    3    0    0 -0.62016402602E+01  0.43268879831E+01 -0.90687531600E+01  0.11807818836E+02  0.51100000000E-03 0.  1.
        -12    1    3    3    0    0  0.11760280284E+02 -0.41761665276E+01  0.40237371482E+02  0.42128263945E+02  0.00000000000E+00 0.  1.
</event>
<event>
 7    1  0.9088549E-013  0.5930197E+02  0.7816164E-02  0.1266605E+00
        -11   -1    0    0    0    0  0.00000000000E+00  0.00000000000E+00  0.45593999997E+02  0.45594000000E+02  0.51100000000E-03 0. -1.
         11   -1    0    0    0    0 -0.00000000000E+00 -0.00000000000E+00 -0.45593999997E+02  0.45594000000E+02  0.51100000000E-03 0.  1.
    9900012    2    1    2    0    0  0.12186220371E+02  0.19513808850E+02 -0.22077735762E+02  0.59301966708E+02  0.50000041363E+02 0.  0.
         12    1    1    2    0    0 -0.12186220371E+02 -0.19513808850E+02  0.22077735762E+02  0.31886033292E+02  0.00000000000E+00 0. -1.
         11    1    3    3    0    0 -0.17284173946E+02  0.46578372739E+01 -0.28418361318E+01  0.18124959308E+02  0.51100000000E-03 0. -1.
        -11    1    3    3    0    0  0.26450400473E+01  0.40100091705E+01 -0.95043231630E+01  0.10649345963E+02  0.51100000000E-03 0.  1.
        -12    1    3    3    0    0  0.26825354270E+02  0.10845962406E+02 -0.97315764669E+01  0.30527661436E+02  0.00000000000E+00 0.  1.
</event>
<event>
 7    1  0.6963701E-013  0.5930196E+02  0.7816164E-02  0.1266605E+00
        -11   -1    0    0    0    0  0.00000000000E+00  0.00000000000E+00  0.45593999997E+02  0.45594000000E+02  0.51100000000E-03 0. -1.
         11   -1    0    0    0    0 -0.00000000000E+00 -0.00000000000E+00 -0.45593999997E+02  0.45594000000E+02  0.51100000000E-03 0.  1.
    9900012    2    1    2    0    0  0.15816915297E+02 -0.27304273312E+02 -0.45848999322E+01  0.59301961394E+02  0.50000031672E+02 0.  0.
         12    1    1    2    0    0 -0.15816915297E+02  0.27304273312E+02  0.45848999322E+01  0.31886038606E+02  0.00000000000E+00 0. -1.
         11    1    3    3    0    0 -0.33096295461E+01  0.31823828124E+00 -0.63228163976E+01  0.71437336733E+01  0.51100000000E-03 0. -1.
        -11    1    3    3    0    0 -0.22714345670E+01  0.90885483174E+01 -0.17238853908E+01  0.95253822292E+01  0.51100000000E-03 0.  1.
         12    1    3    3    0    0  0.21397979411E+02 -0.36711059910E+02  0.34618018562E+01  0.42632845491E+02  0.00000000000E+00 0. -1.
</event>
<event>
 7    1  0.6963701E-013  0.5930197E+02  0.7816164E-02  0.1266605E+00
        -11   -1    0    0    0    0  0.00000000000E+00  0.00000000000E+00  0.45593999997E+02  0.45594000000E+02  0.51100000000E-03 0. -1.
         11   -1    0    0    0    0 -0.00000000000E+00 -0.00000000000E+00 -0.45593999997E+02  0.45594000000E+02  0.51100000000E-03 0.  1.
    9900012    2    1    2    0    0 -0.21812365623E+02 -0.18942864483E+02 -0.13494728109E+02  0.59301967076E+02  0.50000042035E+02 0.  0.
         12    1    1    2    0    0  0.21812365623E+02  0.18942864483E+02  0.13494728109E+02  0.31886032924E+02  0.00000000000E+00 0. -1.
         11    1    3    3    0    0 -0.70491296965E+01 -0.86084561824E+01 -0.26266051725E+01  0.11432182745E+02  0.51100000000E-03 0. -1.
        -11    1    3    3    0    0 -0.91482658469E+01  0.11324165225E+02 -0.19111909873E+02  0.24024832680E+02  0.51100000000E-03 0.  1.
         12    1    3    3    0    0 -0.56149700800E+01 -0.21658573526E+02  0.82437869373E+01  0.23844951651E+02  0.00000000000E+00 0. -1.
</event>
<event>
 7    1  0.6963701E-013  0.5930194E+02  0.7816164E-02  0.1266605E+00
        -11   -1    0    0    0    0  0.00000000000E+00  0.00000000000E+00  0.45593999997E+02  0.45594000000E+02  0.51100000000E-03 0.  1.
         11   -1    0    0    0    0 -0.00000000000E+00 -0.00000000000E+00 -0.45593999997E+02  0.45594000000E+02  0.51100000000E-03 0. -1.
    9900012    2    1    2    0    0 -0.26177950123E+02  0.74902479538E+01  0.16593136689E+02  0.59301936082E+02  0.49999985508E+02 0.  0.
         12    1    1    2    0    0  0.26177950123E+02 -0.74902479538E+01 -0.16593136689E+02  0.31886063918E+02  0.00000000000E+00 0. -1.
         11    1    3    3    0    0 -0.57556553392E+01  0.16411221016E+01 -0.12339130859E+02  0.13714043924E+02  0.51100000000E-03 0. -1.
        -11    1    3    3    0    0  0.23705474672E+01  0.78240592540E+01  0.18927725415E+02  0.20617812400E+02  0.51100000000E-03 0.  1.
         12    1    3    3    0    0 -0.22792842251E+02 -0.19749334018E+01  0.10004542132E+02  0.24970079757E+02  0.00000000000E+00 0. -1.
</event>
<event>
 7    1  0.6963701E-013  0.5930192E+02  0.7816164E-02  0.1266605E+00
        -11   -1    0    0    0    0  0.00000000000E+00  0.00000000000E+00  0.45593999997E+02  0.45594000000E+02  0.51100000000E-03 0. -1.
         11   -1    0    0    0    0 -0.00000000000E+00 -0.00000000000E+00 -0.45593999997E+02  0.45594000000E+02  0.51100000000E-03 0.  1.
    9900012    2    1    2    0    0 -0.27112701973E+01 -0.28491836067E+02 -0.14056539096E+02  0.59301921534E+02  0.49999958977E+02 0.  0.
         12    1    1    2    0    0  0.27112701973E+01  0.28491836067E+02  0.14056539096E+02  0.31886078466E+02  0.00000000000E+00 0. -1.
         11    1    3    3    0    0  0.97951958287E+01 -0.27185152686E+01 -0.14246192355E+02  0.17501148062E+02  0.51100000000E-03 0. -1.
        -11    1    3    3    0    0  0.32027456420E+01 -0.10844467550E+02 -0.12364785688E+02  0.16755535845E+02  0.51100000000E-03 0.  1.
        -12    1    3    3    0    0 -0.15709211668E+02 -0.14928853249E+02  0.12554438947E+02  0.25045237628E+02  0.00000000000E+00 0.  1.
</event>
<event>
 7    1  0.6963701E-013  0.5930191E+02  0.7816164E-02  0.1266605E+00
        -11   -1    0    0    0    0  0.00000000000E+00  0.00000000000E+00  0.45593999997E+02  0.45594000000E+02  0.51100000000E-03 0.  1.
         11   -1    0    0    0    0 -0.00000000000E+00 -0.00000000000E+00 -0.45593999997E+02  0.45594000000E+02  0.51100000000E-03 0. -1.
    9900012    2    1    2    0    0  0.27583871224E+02  0.56764104912E+01  0.14954300778E+02  0.59301910564E+02  0.49999938970E+02 0.  0.
         12    1    1    2    0    0 -0.27583871224E+02 -0.56764104912E+01 -0.14954300778E+02  0.31886089436E+02  0.00000000000E+00 0. -1.
         11    1    3    3    0    0 -0.41273710817E-01  0.20705107666E+02  0.82158420591E+01  0.22275620035E+02  0.51100000000E-03 0. -1.
        -11    1    3    3    0    0 -0.17380669112E+01  0.16324964707E+01 -0.63930327256E+00  0.24687304936E+01  0.51100000000E-03 0.  1.
        -12    1    3    3    0    0  0.29363211846E+02 -0.16661193645E+02  0.73777619914E+01  0.34557560035E+02  0.00000000000E+00 0.  1.
</event>
<event>
 7    1  0.6963701E-013  0.5930199E+02  0.7816164E-02  0.1266605E+00
        -11   -1    0    0    0    0  0.00000000000E+00  0.00000000000E+00  0.45593999997E+02  0.45594000000E+02  0.51100000000E-03 0. -1.
         11   -1    0    0    0    0 -0.00000000000E+00 -0.00000000000E+00 -0.45593999997E+02  0.45594000000E+02  0.51100000000E-03 0.  1.
    9900012    2    1    2    0    0  0.18109422683E+00 -0.23095368223E+02 -0.21983824145E+02  0.59301994410E+02  0.50000091885E+02 0.  0.
         12    1    1    2    0    0 -0.18109422683E+00  0.23095368223E+02  0.21983824145E+02  0.31886005590E+02  0.00000000000E+00 0. -1.
         11    1    3    3    0    0 -0.52308274775E+01  0.72765519175E+01 -0.12189765649E+02  0.15129446479E+02  0.51100000000E-03 0. -1.
        -11    1    3    3    0    0 -0.43073254555E+00 -0.34592401729E+00  0.85081847841E+01  0.85261012505E+01  0.51100000000E-03 0.  1.
        -12    1    3    3    0    0  0.58426542499E+01 -0.30025996123E+02 -0.18302243279E+02  0.35646446680E+02  0.00000000000E+00 0.  1.
</event>
<event>
 7    1  0.6963701E-013  0.5930195E+02  0.7816164E-02  0.1266605E+00
        -11   -1    0    0    0    0  0.00000000000E+00  0.00000000000E+00  0.45593999997E+02  0.45594000000E+02  0.51100000000E-03 0. -1.
         11   -1    0    0    0    0 -0.00000000000E+00 -0.00000000000E+00 -0.45593999997E+02  0.45594000000E+02  0.51100000000E-03 0.  1.
    9900012    2    1    2    0    0  0.86244912750E+01  0.27785224064E+02 -0.13050668597E+02  0.59301945417E+02  0.50000002534E+02 0.  0.
         12    1    1    2    0    0 -0.86244912750E+01 -0.27785224064E+02  0.13050668597E+02  0.31886054583E+02  0.00000000000E+00 0. -1.
         11    1    3    3    0    0  0.24016286431E+02  0.10889688588E+02  0.12730592818E+01  0.26400530519E+02  0.51100000000E-03 0. -1.
        -11    1    3    3    0    0 -0.30972207436E+01  0.14339553888E+02 -0.11712935447E+01  0.14716912409E+02  0.51100000000E-03 0.  1.
        -12    1    3    3    0    0 -0.12294574413E+02  0.25559815888E+01 -0.13152434334E+02  0.18184502489E+02  0.00000000000E+00 0.  1.
</event>
<event>
 7    1  0.8597566E-013  0.5930193E+02  0.7816164E-02  0.1266605E+00
        -11   -1    0    0    0    0  0.00000000000E+00  0.00000000000E+00  0.45593999997E+02  0.45594000000E+02  0.51100000000E-03 0. -1.
         11   -1    0    0    0    0 -0.00000000000E+00 -0.00000000000E+00 -0.45593999997E+02  0.45594000000E+02  0.51100000000E-03 0.  1.
    9900012    2    1    2    0    0  0.14335625326E+02  0.21920568329E+02 -0.18185154383E+02  0.59301932364E+02  0.49999978728E+02 0.  0.
         12    1    1    2    0    0 -0.14335625326E+02 -0.21920568329E+02  0.18185154383E+02  0.31886067636E+02  0.00000000000E+00 0. -1.
         11    1    3    3    0    0  0.38164601048E+01 -0.13487280195E+01  0.94572923877E+01  0.10287118866E+02  0.51100000000E-03 0. -1.
        -11    1    3    3    0    0  0.22390879717E+01 -0.75085550102E+01 -0.95948473564E+01  0.12387615159E+02  0.51100000000E-03 0.  1.
        -12    1    3    3    0    0  0.82800772500E+01  0.30777851358E+02 -0.18047599414E+02  0.36627198338E+02  0.00000000000E+00 0.  1.
</event>
<event>
 7    1  0.6963701E-013  0.5930194E+02  0.7816164E-02  0.1266605E+00
        -11   -1    0    0    0    0  0.00000000000E+00  0.00000000000E+00  0.45593999997E+02  0.45594000000E+02  0.51100000000E-03 0. -1.
         11   -1    0    0    0    0 -0.00000000000E+00 -0.00000000000E+00 -0.45593999997E+02  0.45594000000E+02  0.51100000000E-03 0.  1.
    9900012    2    1    2    0    0  0.18853657049E+02 -0.16768863114E+01 -0.25660252626E+02  0.59301938834E+02  0.49999990528E+02 0.  0.
         12    1    1    2    0    0 -0.18853657049E+02  0.16768863114E+01  0.25660252626E+02  0.31886061166E+02  0.00000000000E+00 0. -1.
         11    1    3    3    0    0  0.22502621070E+00 -0.29017379130E+01 -0.17410334333E+01  0.33914476832E+01  0.51100000000E-03 0. -1.
        -11    1    3    3    0    0 -0.15749161037E+02 -0.12484414349E+01 -0.10249361981E+02  0.18831996725E+02  0.51100000000E-03 0.  1.
         12    1    3    3    0    0  0.34377791876E+02  0.24732930365E+01 -0.13669857212E+02  0.37078494426E+02  0.00000000000E+00 0. -1.
</event>
<event>
 7    1  0.6963701E-013  0.5930197E+02  0.7816164E-02  0.1266605E+00
        -11   -1    0    0    0    0  0.00000000000E+00  0.00000000000E+00  0.45593999997E+02  0.45594000000E+02  0.51100000000E-03 0.  1.
         11   -1    0    0    0    0 -0.00000000000E+00 -0.00000000000E+00 -0.45593999997E+02  0.45594000000E+02  0.51100000000E-03 0. -1.
    9900012    2    1    2    0    0 -0.64840856433E+01  0.53481855895E+01  0.30758292969E+02  0.59301967915E+02  0.50000043565E+02 0.  0.
         12    1    1    2    0    0  0.64840856433E+01 -0.53481855895E+01 -0.30758292969E+02  0.31886032085E+02  0.00000000000E+00 0. -1.
         11    1    3    3    0    0  0.99981417153E+01 -0.17777947350E+01  0.12053206682E+00  0.10155684129E+02  0.51100000000E-03 0. -1.
        -11    1    3    3    0    0 -0.93242394200E+01 -0.25844466683E+01 -0.54433857117E+01  0.11101858115E+02  0.51100000000E-03 0.  1.
         12    1    3    3    0    0 -0.71579879386E+01  0.97104269927E+01  0.36081146614E+02  0.38044425672E+02  0.00000000000E+00 0. -1.
</event>
<event>
 7    1  0.6963701E-013  0.5930194E+02  0.7816164E-02  0.1266605E+00
        -11   -1    0    0    0    0  0.00000000000E+00  0.00000000000E+00  0.45593999997E+02  0.45594000000E+02  0.51100000000E-03 0.  1.
         11   -1    0    0    0    0 -0.00000000000E+00 -0.00000000000E+00 -0.45593999997E+02  0.45594000000E+02  0.51100000000E-03 0. -1.
    9900012    2    1    2    0    0 -0.29297747528E+02  0.47964169382E+01 -0.11634315185E+02  0.59301938539E+02  0.49999989990E+02 0.  0.
         12    1    1    2    0    0  0.29297747528E+02 -0.47964169382E+01  0.11634315185E+02  0.31886061461E+02  0.00000000000E+00 0. -1.
         11    1    3    3    0    0 -0.21010947376E+02  0.16853936368E+02 -0.16314465500E+02  0.31490901314E+02  0.51100000000E-03 0. -1.
        -11    1    3    3    0    0 -0.20502078386E+01  0.60827374064E+01 -0.30784882803E+01  0.71189983066E+01  0.51100000000E-03 0.  1.
         12    1    3    3    0    0 -0.62365923137E+01 -0.18140256836E+02  0.77586385955E+01  0.20692038919E+02  0.00000000000E+00 0. -1.
</event>
<event>
 7    1  0.6963701E-013  0.5930196E+02  0.7816164E-02  0.1266605E+00
        -11   -1    0    0    0    0  0.00000000000E+00  0.00000000000E+00  0.45593999997E+02  0.45594000000E+02  0.51100000000E-03 0. -1.
         11   -1    0    0    0    0 -0.00000000000E+00 -0.00000000000E+00 -0.45593999997E+02  0.45594000000E+02  0.51100000000E-03 0.  1.
    9900012    2    1    2    0    0 -0.21159622203E+02  0.22008326067E+02 -0.91990971354E+01  0.59301962050E+02  0.50000032868E+02 0.  0.
         12    1    1    2    0    0  0.21159622203E+02 -0.22008326067E+02  0.91990971354E+01  0.31886037950E+02  0.00000000000E+00 0. -1.
         11    1    3    3    0    0  0.65282568951E+01 -0.44758757291E+01  0.82322100927E+00  0.79579705153E+01  0.51100000000E-03 0. -1.
        -11    1    3    3    0    0 -0.10166676724E+01  0.14706340134E+02 -0.15812986761E+02  0.21618524553E+02  0.51100000000E-03 0.  1.
         12    1    3    3    0    0 -0.26671211426E+02  0.11777861662E+02  0.57906686163E+01  0.29725466982E+02  0.00000000000E+00 0. -1.
</event>
<event>
 7    1  0.6963701E-013  0.5930196E+02  0.7816164E-02  0.1266605E+00
        -11   -1    0    0    0    0  0.00000000000E+00  0.00000000000E+00  0.45593999997E+02  0.45594000000E+02  0.51100000000E-03 0.  1.
         11   -1    0    0    0    0 -0.00000000000E+00 -0.00000000000E+00 -0.45593999997E+02  0.45594000000E+02  0.51100000000E-03 0. -1.
    9900012    2    1    2    0    0  0.11567987335E+02 -0.28191579578E+02  0.93880896573E+01  0.59301957324E+02  0.50000024249E+02 0.  0.
         12    1    1    2    0    0 -0.11567987335E+02  0.28191579578E+02 -0.93880896573E+01  0.31886042676E+02  0.00000000000E+00 0. -1.
         11    1    3    3    0    0  0.19197377765E+02 -0.31942681369E+01  0.11678838883E+02  0.22696650411E+02  0.51100000000E-03 0.  1.
        -11    1    3    3    0    0 -0.46653211889E+01  0.52340055885E+00 -0.89126024281E+01  0.10073413138E+02  0.51100000000E-03 0. -1.
        -12    1    3    3    0    0 -0.29640692405E+01 -0.25520712000E+02  0.66218532028E+01  0.26531893775E+02  0.00000000000E+00 0.  1.
</event>
<event>
 7    1  0.6963701E-013  0.5930193E+02  0.7816164E-02  0.1266605E+00
        -11   -1    0    0    0    0  0.00000000000E+00  0.00000000000E+00  0.45593999997E+02  0.45594000000E+02  0.51100000000E-03 0.  1.
         11   -1    0    0    0    0 -0.00000000000E+00 -0.00000000000E+00 -0.45593999997E+02  0.45594000000E+02  0.51100000000E-03 0. -1.
    9900012    2    1    2    0    0 -0.23958813883E+02 -0.71094391905E+01  0.19802844528E+02  0.59301928751E+02  0.49999972139E+02 0.  0.
         12    1    1    2    0    0  0.23958813883E+02  0.71094391905E+01 -0.19802844528E+02  0.31886071249E+02  0.00000000000E+00 0. -1.
         11    1    3    3    0    0 -0.83783014786E+01 -0.74978648874E+01 -0.12099597962E+02  0.16517087656E+02  0.51100000000E-03 0. -1.
        -11    1    3    3    0    0 -0.91221654630E+01 -0.11261830623E+02  0.11897737182E+02  0.18750970163E+02  0.51100000000E-03 0.  1.
         12    1    3    3    0    0 -0.64583469415E+01  0.11650256320E+02  0.20004705308E+02  0.24033870932E+02  0.00000000000E+00 0. -1.
</event>
<event>
 7    1  0.6963701E-013  0.5930194E+02  0.7816164E-02  0.1266605E+00
        -11   -1    0    0    0    0  0.00000000000E+00  0.00000000000E+00  0.45593999997E+02  0.45594000000E+02  0.51100000000E-03 0.  1.
         11   -1    0    0    0    0 -0.00000000000E+00 -0.00000000000E+00 -0.45593999997E+02  0.45594000000E+02  0.51100000000E-03 0. -1.
    9900012    2    1    2    0    0 -0.92244356521E+01  0.15229918262E+02  0.26451474332E+02  0.59301935368E+02  0.49999984208E+02 0.  0.
         12    1    1    2    0    0  0.92244356521E+01 -0.15229918262E+02 -0.26451474332E+02  0.31886064632E+02  0.00000000000E+00 0. -1.
         11    1    3    3    0    0  0.85248346518E+01  0.11172795654E+01 -0.41125594303E+01  0.95307011702E+01  0.51100000000E-03 0. -1.
        -11    1    3    3    0    0 -0.10945778527E+01 -0.89624983055E+00  0.27039078976E+02  0.27076062428E+02  0.51100000000E-03 0.  1.
        -12    1    3    3    0    0 -0.16654692451E+02  0.15008888527E+02  0.35249547858E+01  0.22695171771E+02  0.00000000000E+00 0.  1.
</event>
<event>
 7    1  0.6963701E-013  0.5930193E+02  0.7816164E-02  0.1266605E+00
        -11   -1    0    0    0    0  0.00000000000E+00  0.00000000000E+00  0.45593999997E+02  0.45594000000E+02  0.51100000000E-03 0.  1.
         11   -1    0    0    0    0 -0.00000000000E+00 -0.00000000000E+00 -0.45593999997E+02  0.45594000000E+02  0.51100000000E-03 0. -1.
    9900012    2    1    2    0    0  0.28044386996E+02 -0.21533339323E+01  0.15019880499E+02  0.59301932522E+02  0.49999979017E+02 0.  0.
         12    1    1    2    0    0 -0.28044386996E+02  0.21533339323E+01 -0.15019880499E+02  0.31886067478E+02  0.00000000000E+00 0. -1.
         11    1    3    3    0    0  0.14214932280E+02 -0.42866317680E+01  0.45702718621E+01  0.15534699766E+02  0.51100000000E-03 0. -1.
        -11    1    3    3    0    0  0.16729245211E+02 -0.16562764115E+02  0.67428032728E+01  0.24487919403E+02  0.51100000000E-03 0.  1.
        -12    1    3    3    0    0 -0.28997904960E+01  0.18696061951E+02  0.37068053642E+01  0.19279313354E+02  0.00000000000E+00 0.  1.
</event>
<event>
 7    1  0.6963701E-013  0.5930195E+02  0.7816164E-02  0.1266605E+00
        -11   -1    0    0    0    0  0.00000000000E+00  0.00000000000E+00  0.45593999997E+02  0.45594000000E+02  0.51100000000E-03 0. -1.
         11   -1    0    0    0    0 -0.00000000000E+00 -0.00000000000E+00 -0.45593999997E+02  0.45594000000E+02  0.51100000000E-03 0.  1.
    9900012    2    1    2    0    0  0.28679579788E+02  0.12456240173E+02  0.62485148944E+01  0.59301950473E+02  0.50000011754E+02 0.  0.
         12    1    1    2    0    0 -0.28679579788E+02 -0.12456240173E+02 -0.62485148944E+01  0.31886049527E+02  0.00000000000E+00 0. -1.
         11    1    3    3    0    0  0.24922694849E+02  0.88932883652E+00  0.12274860215E+02  0.27795751796E+02  0.51100000000E-03 0. -1.
        -11    1    3    3    0    0  0.13877552806E+02  0.21244821847E+01  0.37844752931E+01  0.14540362786E+02  0.51100000000E-03 0.  1.
        -12    1    3    3    0    0 -0.10120667867E+02  0.94424291520E+01 -0.98108206138E+01  0.16965835891E+02  0.00000000000E+00 0.  1.
</event>
<event>
 7    1  0.6963701E-013  0.5930194E+02  0.7816164E-02  0.1266605E+00
        -11   -1    0    0    0    0  0.00000000000E+00  0.00000000000E+00  0.45593999997E+02  0.45594000000E+02  0.51100000000E-03 0. -1.
         11   -1    0    0    0    0 -0.00000000000E+00 -0.00000000000E+00 -0.45593999997E+02  0.45594000000E+02  0.51100000000E-03 0.  1.
    9900012    2    1    2    0    0  0.30045591541E+02  0.10672179531E+02 -0.29649753244E+00  0.59301938817E+02  0.49999990497E+02 0.  0.
         12    1    1    2    0    0 -0.30045591541E+02 -0.10672179531E+02  0.29649753244E+00  0.31886061183E+02  0.00000000000E+00 0. -1.
         11    1    3    3    0    0  0.57317090725E+01  0.54165849462E+01  0.15969670360E+02  0.17810734208E+02  0.51100000000E-03 0. -1.
        -11    1    3    3    0    0  0.14525644220E+02  0.16849359750E+02 -0.55881562966E+01  0.22937365913E+02  0.51100000000E-03 0.  1.
        -12    1    3    3    0    0  0.97882382484E+01 -0.11593765165E+02 -0.10678011596E+02  0.18553838696E+02  0.00000000000E+00 0.  1.
</event>
<event>
 7    1  0.6963701E-013  0.5930197E+02  0.7816164E-02  0.1266605E+00
        -11   -1    0    0    0    0  0.00000000000E+00  0.00000000000E+00  0.45593999997E+02  0.45594000000E+02  0.51100000000E-03 0.  1.
         11   -1    0    0    0    0 -0.00000000000E+00 -0.00000000000E+00 -0.45593999997E+02  0.45594000000E+02  0.51100000000E-03 0. -1.
    9900012    2    1    2    0    0  0.12848250691E+02  0.28572031916E+02 -0.59397116636E+01  0.59301972837E+02  0.50000052541E+02 0.  0.
         12    1    1    2    0    0 -0.12848250691E+02 -0.28572031916E+02  0.59397116636E+01  0.31886027163E+02  0.00000000000E+00 0. -1.
         11    1    3    3    0    0  0.23386552874E+01  0.83486850316E+01 -0.19763900740E+02  0.21581974494E+02  0.51100000000E-03 0. -1.
        -11    1    3    3    0    0 -0.23992060892E+01 -0.47720648481E+01 -0.16791481302E+01  0.55989580706E+01  0.51100000000E-03 0.  1.
        -12    1    3    3    0    0  0.12908801493E+02  0.24995411732E+02  0.15503337207E+02  0.32121040273E+02  0.00000000000E+00 0.  1.
</event>
<event>
 7    1  0.6963701E-013  0.5930211E+02  0.7816164E-02  0.1266604E+00
        -11   -1    0    0    0    0  0.00000000000E+00  0.00000000000E+00  0.45593999997E+02  0.45594000000E+02  0.51100000000E-03 0. -1.
         11   -1    0    0    0    0 -0.00000000000E+00 -0.00000000000E+00 -0.45593999997E+02  0.45594000000E+02  0.51100000000E-03 0.  1.
    9900012    2    1    2    0    0  0.16370037806E+02  0.22240656802E+02 -0.15940050147E+02  0.59302107329E+02  0.50000297821E+02 0.  0.
         12    1    1    2    0    0 -0.16370037806E+02 -0.22240656802E+02  0.15940050147E+02  0.31885892671E+02  0.00000000000E+00 0. -1.
         11    1    3    3    0    0 -0.69748842003E+00 -0.28157107651E+01 -0.16892346519E+02  0.17139605841E+02  0.51100000000E-03 0.  1.
        -11    1    3    3    0    0  0.30583416001E+01  0.15669620335E+01 -0.11579296088E+02  0.12078448639E+02  0.51100000000E-03 0. -1.
         12    1    3    3    0    0  0.14009184626E+02  0.23489405534E+02  0.12531592461E+02  0.30084052849E+02  0.00000000000E+00 0. -1.
</event>
<event>
 7    1  0.6963701E-013  0.5930193E+02  0.7816164E-02  0.1266605E+00
        -11   -1    0    0    0    0  0.00000000000E+00  0.00000000000E+00  0.45593999997E+02  0.45594000000E+02  0.51100000000E-03 0.  1.
         11   -1    0    0    0    0 -0.00000000000E+00 -0.00000000000E+00 -0.45593999997E+02  0.45594000000E+02  0.51100000000E-03 0. -1.
    9900012    2    1    2    0    0 -0.27197267773E+02  0.13455761763E+02 -0.97965644693E+01  0.59301928208E+02  0.49999971148E+02 0.  0.
         12    1    1    2    0    0  0.27197267773E+02 -0.13455761763E+02  0.97965644693E+01  0.31886071792E+02  0.00000000000E+00 0. -1.
         11    1    3    3    0    0 -0.27436677597E+01  0.14470612017E+02 -0.13663258030E+02  0.20090070811E+02  0.51100000000E-03 0. -1.
        -11    1    3    3    0    0 -0.15348512089E+02  0.94180337089E+01 -0.91571090231E+01  0.20202198599E+02  0.51100000000E-03 0.  1.
        -12    1    3    3    0    0 -0.91050879244E+01 -0.10432883963E+02  0.13023802584E+02  0.19009658799E+02  0.00000000000E+00 0.  1.
</event>
<event>
 7    1  0.6963701E-013  0.5930192E+02  0.7816164E-02  0.1266605E+00
        -11   -1    0    0    0    0  0.00000000000E+00  0.00000000000E+00  0.45593999997E+02  0.45594000000E+02  0.51100000000E-03 0.  1.
         11   -1    0    0    0    0 -0.00000000000E+00 -0.00000000000E+00 -0.45593999997E+02  0.45594000000E+02  0.51100000000E-03 0. -1.
    9900012    2    1    2    0    0  0.23267081338E+02  0.58648872217E+00  0.21794981526E+02  0.59301917414E+02  0.49999951462E+02 0.  0.
         12    1    1    2    0    0 -0.23267081338E+02 -0.58648872217E+00 -0.21794981526E+02  0.31886082586E+02  0.00000000000E+00 0. -1.
         11    1    3    3    0    0  0.25153917441E+02 -0.67666798252E+00  0.82932759766E+01  0.26494449775E+02  0.51100000000E-03 0. -1.
        -11    1    3    3    0    0  0.96553310937E+01 -0.92716502186E+01  0.23047211849E+01  0.13583101866E+02  0.51100000000E-03 0.  1.
        -12    1    3    3    0    0 -0.11542167197E+02  0.10534806923E+02  0.11196984364E+02  0.19224365773E+02  0.00000000000E+00 0.  1.
</event>
<event>
 7    1  0.6963701E-013  0.5930194E+02  0.7816164E-02  0.1266605E+00
        -11   -1    0    0    0    0  0.00000000000E+00  0.00000000000E+00  0.45593999997E+02  0.45594000000E+02  0.51100000000E-03 0. -1.
         11   -1    0    0    0    0 -0.00000000000E+00 -0.00000000000E+00 -0.45593999997E+02  0.45594000000E+02  0.51100000000E-03 0.  1.
    9900012    2    1    2    0    0  0.22668094434E+02 -0.15176351709E+02 -0.16509282414E+02  0.59301944077E+02  0.50000000090E+02 0.  0.
         12    1    1    2    0    0 -0.22668094434E+02  0.15176351709E+02  0.16509282414E+02  0.31886055923E+02  0.00000000000E+00 0. -1.
         11    1    3    3    0    0 -0.10918865636E+02 -0.11397985730E+02  0.13405611269E+01  0.15840858874E+02  0.51100000000E-03 0. -1.
        -11    1    3    3    0    0 -0.44517701709E-01 -0.32546906432E+01 -0.76489121901E+01  0.83126921609E+01  0.51100000000E-03 0.  1.
        -12    1    3    3    0    0  0.33631477772E+02 -0.52367533583E+00 -0.10200931351E+02  0.35148393042E+02  0.00000000000E+00 0.  1.
</event>
<event>
 7    1  0.6963701E-013  0.5930196E+02  0.7816164E-02  0.1266605E+00
        -11   -1    0    0    0    0  0.00000000000E+00  0.00000000000E+00  0.45593999997E+02  0.45594000000E+02  0.51100000000E-03 0. -1.
         11   -1    0    0    0    0 -0.00000000000E+00 -0.00000000000E+00 -0.45593999997E+02  0.45594000000E+02  0.51100000000E-03 0.  1.
    9900012    2    1    2    0    0 -0.16560812492E+01 -0.28959131018E+02 -0.13241823050E+02  0.59301956782E+02  0.50000023261E+02 0.  0.
         12    1    1    2    0    0  0.16560812492E+01  0.28959131018E+02  0.13241823050E+02  0.31886043218E+02  0.00000000000E+00 0. -1.
         11    1    3    3    0    0 -0.40522465061E+01 -0.29151780746E+02  0.54673410565E+01  0.29935578178E+02  0.51100000000E-03 0.  1.
        -11    1    3    3    0    0 -0.75700644859E+01  0.40016377696E+01 -0.90529990728E+00  0.86103745182E+01  0.51100000000E-03 0. -1.
        -12    1    3    3    0    0  0.99662297429E+01 -0.38089880416E+01 -0.17803864199E+02  0.20756004086E+02  0.00000000000E+00 0.  1.
</event>
<event>
 7    1  0.6963701E-013  0.5930195E+02  0.7816164E-02  0.1266605E+00
        -11   -1    0    0    0    0  0.00000000000E+00  0.00000000000E+00  0.45593999997E+02  0.45594000000E+02  0.51100000000E-03 0.  1.
         11   -1    0    0    0    0 -0.00000000000E+00 -0.00000000000E+00 -0.45593999997E+02  0.45594000000E+02  0.51100000000E-03 0. -1.
    9900012    2    1    2    0    0 -0.17555877601E+02  0.17478573697E+02 -0.20075127887E+02  0.59301950754E+02  0.50000012267E+02 0.  0.
         12    1    1    2    0    0  0.17555877601E+02 -0.17478573697E+02  0.20075127887E+02  0.31886049246E+02  0.00000000000E+00 0. -1.
         11    1    3    3    0    0 -0.20368365602E+02 -0.10393071688E+02 -0.38415343731E+01  0.23187143916E+02  0.51100000000E-03 0. -1.
        -11    1    3    3    0    0 -0.20360028116E+01  0.99351024633E+01 -0.14162859723E+02  0.17419476577E+02  0.51100000000E-03 0.  1.
        -12    1    3    3    0    0  0.48484908124E+01  0.17936542922E+02 -0.20707337908E+01  0.18695330261E+02  0.00000000000E+00 0.  1.
</event>
<event>
 7    1  0.6963701E-013  0.5930195E+02  0.7816164E-02  0.1266605E+00
        -11   -1    0    0    0    0  0.00000000000E+00  0.00000000000E+00  0.45593999997E+02  0.45594000000E+02  0.51100000000E-03 0. -1.
         11   -1    0    0    0    0 -0.00000000000E+00 -0.00000000000E+00 -0.45593999997E+02  0.45594000000E+02  0.51100000000E-03 0.  1.
    9900012    2    1    2    0    0 -0.95194416285E+01  0.30256335967E+02 -0.32641160886E+01  0.59301951501E+02  0.50000013629E+02 0.  0.
         12    1    1    2    0    0  0.95194416285E+01 -0.30256335967E+02  0.32641160886E+01  0.31886048499E+02  0.00000000000E+00 0. -1.
         11    1    3    3    0    0 -0.12710187440E+02  0.22949666635E+02  0.17573107167E+01  0.26293044796E+02  0.51100000000E-03 0. -1.
        -11    1    3    3    0    0 -0.12829448788E+02  0.10093130212E+02 -0.33348955229E+01  0.16660959218E+02  0.51100000000E-03 0.  1.
        -12    1    3    3    0    0  0.16020194600E+02 -0.27864608795E+01 -0.16865312824E+01  0.16347947486E+02  0.00000000000E+00 0.  1.
</event>
<event>
 7    1  0.6963701E-013  0.5930188E+02  0.7816164E-02  0.1266605E+00
        -11   -1    0    0    0    0  0.00000000000E+00  0.00000000000E+00  0.45593999997E+02  0.45594000000E+02  0.51100000000E-03 0.  1.
         11   -1    0    0    0    0 -0.00000000000E+00 -0.00000000000E+00 -0.45593999997E+02  0.45594000000E+02  0.51100000000E-03 0. -1.
    9900012    2    1    2    0    0  0.26617969966E+02  0.27459902497E+00  0.17553716906E+02  0.59301879086E+02  0.49999881562E+02 0.  0.
         12    1    1    2    0    0 -0.26617969966E+02 -0.27459902497E+00 -0.17553716906E+02  0.31886120914E+02  0.00000000000E+00 0. -1.
         11    1    3    3    0    0  0.31991046561E+01 -0.11630321658E+02 -0.73273641484E+01  0.14113430416E+02  0.51100000000E-03 0. -1.
        -11    1    3    3    0    0  0.35176568451E+01 -0.31379755134E+01 -0.45879156225E+01  0.65779761343E+01  0.51100000000E-03 0.  1.
        -12    1    3    3    0    0  0.19901208464E+02  0.15042896197E+02  0.29468996677E+02  0.38610472536E+02  0.00000000000E+00 0.  1.
</event>
<event>
 7    1  0.6963701E-013  0.5930195E+02  0.7816164E-02  0.1266605E+00
        -11   -1    0    0    0    0  0.00000000000E+00  0.00000000000E+00  0.45593999997E+02  0.45594000000E+02  0.51100000000E-03 0.  1.
         11   -1    0    0    0    0 -0.00000000000E+00 -0.00000000000E+00 -0.45593999997E+02  0.45594000000E+02  0.51100000000E-03 0. -1.
    9900012    2    1    2    0    0  0.85096780672E+01 -0.13800339811E+02  0.27456444880E+02  0.59301947169E+02  0.50000005728E+02 0.  0.
         12    1    1    2    0    0 -0.85096780672E+01  0.13800339811E+02 -0.27456444880E+02  0.31886052831E+02  0.00000000000E+00 0. -1.
         11    1    3    3    0    0  0.92728450388E+01 -0.16944796009E+02  0.16458259061E+02  0.25376880393E+02  0.51100000000E-03 0. -1.
        -11    1    3    3    0    0  0.22613093858E+01 -0.11520591878E+02  0.14390295622E+02  0.18571972585E+02  0.51100000000E-03 0.  1.
        -12    1    3    3    0    0 -0.30244763574E+01  0.14665048076E+02 -0.33921098024E+01  0.15353094191E+02  0.00000000000E+00 0.  1.
</event>
<event>
 7    1  0.6963701E-013  0.5930192E+02  0.7816164E-02  0.1266605E+00
        -11   -1    0    0    0    0  0.00000000000E+00  0.00000000000E+00  0.45593999997E+02  0.45594000000E+02  0.51100000000E-03 0.  1.
         11   -1    0    0    0    0 -0.00000000000E+00 -0.00000000000E+00 -0.45593999997E+02  0.45594000000E+02  0.51100000000E-03 0. -1.
    9900012    2    1    2    0    0 -0.30558747274E+02 -0.63635578163E+01 -0.65107656671E+01  0.59301921963E+02  0.49999959759E+02 0.  0.
         12    1    1    2    0    0  0.30558747274E+02  0.63635578163E+01  0.65107656671E+01  0.31886078037E+02  0.00000000000E+00 0. -1.
         11    1    3    3    0    0 -0.14414032392E+02  0.64096059858E+01 -0.13845936715E+02  0.20989457889E+02  0.51100000000E-03 0. -1.
        -11    1    3    3    0    0 -0.23926430739E+01 -0.10619167266E+02 -0.10878071326E+02  0.15389083480E+02  0.51100000000E-03 0.  1.
        -12    1    3    3    0    0 -0.13752071807E+02 -0.21539965356E+01  0.18213242374E+02  0.22923380594E+02  0.00000000000E+00 0.  1.
</event>
<event>
 7    1  0.6963701E-013  0.5930194E+02  0.7816164E-02  0.1266605E+00
        -11   -1    0    0    0    0  0.00000000000E+00  0.00000000000E+00  0.45593999997E+02  0.45594000000E+02  0.51100000000E-03 0. -1.
         11   -1    0    0    0    0 -0.00000000000E+00 -0.00000000000E+00 -0.45593999997E+02  0.45594000000E+02  0.51100000000E-03 0.  1.
    9900012    2    1    2    0    0 -0.18636911797E+02  0.20444344884E+02 -0.15856084285E+02  0.59301935208E+02  0.49999983915E+02 0.  0.
         12    1    1    2    0    0  0.18636911797E+02 -0.20444344884E+02  0.15856084285E+02  0.31886064792E+02  0.00000000000E+00 0. -1.
         11    1    3    3    0    0 -0.15332352583E+01 -0.93514738878E+01  0.96634541398E+01  0.13534519585E+02  0.51100000000E-03 0. -1.
        -11    1    3    3    0    0 -0.95744768775E+01  0.13755668613E+02 -0.28594911725E+01  0.17001932729E+02  0.51100000000E-03 0.  1.
        -12    1    3    3    0    0 -0.75291996615E+01  0.16040150158E+02 -0.22660047252E+02  0.28765482894E+02  0.00000000000E+00 0.  1.
</event>
<event>
 7    1  0.6963701E-013  0.5930198E+02  0.7816164E-02  0.1266605E+00
        -11   -1    0    0    0    0  0.00000000000E+00  0.00000000000E+00  0.45593999997E+02  0.45594000000E+02  0.51100000000E-03 0.  1.
         11   -1    0    0    0    0 -0.00000000000E+00 -0.00000000000E+00 -0.45593999997E+02  0.45594000000E+02  0.51100000000E-03 0. -1.
    9900012    2    1    2    0    0  0.88688321158E+01  0.22522265687E+02 -0.20755959230E+02  0.59301976756E+02  0.50000059688E+02 0.  0.
         12    1    1    2    0    0 -0.88688321158E+01 -0.22522265687E+02  0.20755959230E+02  0.31886023244E+02  0.00000000000E+00 0. -1.
         11    1    3    3    0    0 -0.10209928135E+02 -0.57453303693E+01 -0.72539826720E+00  0.11737872741E+02  0.51100000000E-03 0. -1.
        -11    1    3    3    0    0 -0.41879971767E+01  0.13655847900E+02 -0.13644909574E+01  0.14348635407E+02  0.51100000000E-03 0.  1.
         12    1    3    3    0    0  0.23266757428E+02  0.14611748156E+02 -0.18666070005E+02  0.33215468607E+02  0.00000000000E+00 0. -1.
</event>
<event>
 7    1  0.6963701E-013  0.5930194E+02  0.7816164E-02  0.1266605E+00
        -11   -1    0    0    0    0  0.00000000000E+00  0.00000000000E+00  0.45593999997E+02  0.45594000000E+02  0.51100000000E-03 0. -1.
         11   -1    0    0    0    0 -0.00000000000E+00 -0.00000000000E+00 -0.45593999997E+02  0.45594000000E+02  0.51100000000E-03 0.  1.
    9900012    2    1    2    0    0 -0.12298251773E+02 -0.16364849064E+02 -0.24447202571E+02  0.59301937291E+02  0.49999987714E+02 0.  0.
         12    1    1    2    0    0  0.12298251773E+02  0.16364849064E+02  0.24447202571E+02  0.31886062709E+02  0.00000000000E+00 0. -1.
         11    1    3    3    0    0 -0.16158178243E+02  0.29256487309E+01 -0.14789591670E+02  0.22099279777E+02  0.51100000000E-03 0. -1.
        -11    1    3    3    0    0 -0.63810737271E+01  0.58873500710E+01 -0.13937494178E+01  0.87932662003E+01  0.51100000000E-03 0.  1.
        -12    1    3    3    0    0  0.10241000198E+02 -0.25177847866E+02 -0.82638614832E+01  0.28409391314E+02  0.00000000000E+00 0.  1.
</event>
<event>
 7    1  0.6963701E-013  0.5930195E+02  0.7816164E-02  0.1266605E+00
        -11   -1    0    0    0    0  0.00000000000E+00  0.00000000000E+00  0.45593999997E+02  0.45594000000E+02  0.51100000000E-03 0. -1.
         11   -1    0    0    0    0 -0.00000000000E+00 -0.00000000000E+00 -0.45593999997E+02  0.45594000000E+02  0.51100000000E-03 0.  1.
    9900012    2    1    2    0    0  0.11521387518E+02  0.20111268482E+02 -0.21897820564E+02  0.59301952334E+02  0.50000015149E+02 0.  0.
         12    1    1    2    0    0 -0.11521387518E+02 -0.20111268482E+02  0.21897820564E+02  0.31886047666E+02  0.00000000000E+00 0. -1.
         11    1    3    3    0    0 -0.24582775368E+01 -0.73869141113E+01 -0.86816104834E+01  0.11661045810E+02  0.51100000000E-03 0. -1.
        -11    1    3    3    0    0  0.21159637714E+01  0.25597432710E+02 -0.21125352396E+02  0.33256373497E+02  0.51100000000E-03 0.  1.
         12    1    3    3    0    0  0.11863701283E+02  0.19007498833E+01  0.79091423156E+01  0.14384533028E+02  0.00000000000E+00 0. -1.
</event>
<event>
 7    1  0.6963701E-013  0.5930196E+02  0.7816164E-02  0.1266605E+00
        -11   -1    0    0    0    0  0.00000000000E+00  0.00000000000E+00  0.45593999997E+02  0.45594000000E+02  0.51100000000E-03 0.  1.
         11   -1    0    0    0    0 -0.00000000000E+00 -0.00000000000E+00 -0.45593999997E+02  0.45594000000E+02  0.51100000000E-03 0. -1.
    9900012    2    1    2    0    0  0.90499292976E+00 -0.30331141484E+02  0.97939828953E+01  0.59301964548E+02  0.50000037423E+02 0.  0.
         12    1    1    2    0    0 -0.90499292976E+00  0.30331141484E+02 -0.97939828953E+01  0.31886035452E+02  0.00000000000E+00 0. -1.
         11    1    3    3    0    0 -0.46571479566E+01 -0.25562392119E+02  0.17926985048E+02  0.31567415337E+02  0.51100000000E-03 0.  1.
        -11    1    3    3    0    0  0.51419832068E+01 -0.21753358303E+01  0.88966406164E+01  0.10503441902E+02  0.51100000000E-03 0. -1.
         12    1    3    3    0    0  0.42015767960E+00 -0.25934135348E+01 -0.17029642769E+02  0.17231107308E+02  0.00000000000E+00 0. -1.
</event>
<event>
 7    1  0.6963701E-013  0.5930196E+02  0.7816164E-02  0.1266605E+00
        -11   -1    0    0    0    0  0.00000000000E+00  0.00000000000E+00  0.45593999997E+02  0.45594000000E+02  0.51100000000E-03 0.  1.
         11   -1    0    0    0    0 -0.00000000000E+00 -0.00000000000E+00 -0.45593999997E+02  0.45594000000E+02  0.51100000000E-03 0. -1.
    9900012    2    1    2    0    0 -0.21974015420E+02 -0.72286616376E+01  0.21945583438E+02  0.59301960183E+02  0.50000029464E+02 0.  0.
         12    1    1    2    0    0  0.21974015420E+02  0.72286616376E+01 -0.21945583438E+02  0.31886039817E+02  0.00000000000E+00 0. -1.
         11    1    3    3    0    0 -0.10595958344E+02 -0.16728592938E+02 -0.50066878689E+01  0.20425157982E+02  0.51100000000E-03 0. -1.
        -11    1    3    3    0    0 -0.13129483945E+02 -0.12076516615E+01  0.44849209209E+01  0.13926818988E+02  0.51100000000E-03 0.  1.
         12    1    3    3    0    0  0.17514268696E+01  0.10707582962E+02  0.22467350386E+02  0.24949983213E+02  0.00000000000E+00 0. -1.
</event>
<event>
 7    1  0.6963701E-013  0.5930194E+02  0.7816164E-02  0.1266605E+00
        -11   -1    0    0    0    0  0.00000000000E+00  0.00000000000E+00  0.45593999997E+02  0.45594000000E+02  0.51100000000E-03 0.  1.
         11   -1    0    0    0    0 -0.00000000000E+00 -0.00000000000E+00 -0.45593999997E+02  0.45594000000E+02  0.51100000000E-03 0. -1.
    9900012    2    1    2    0    0  0.56365453815E-01  0.28477586863E+02 -0.14343805617E+02  0.59301938936E+02  0.49999990714E+02 0.  0.
         12    1    1    2    0    0 -0.56365453815E-01 -0.28477586863E+02  0.14343805617E+02  0.31886061064E+02  0.00000000000E+00 0. -1.
         11    1    3    3    0    0  0.67156771505E+01  0.76893119656E+01 -0.29812122531E+01  0.10635481411E+02  0.51100000000E-03 0. -1.
        -11    1    3    3    0    0 -0.21709087088E+02  0.21390369923E+02 -0.13717637226E+02  0.33421639082E+02  0.51100000000E-03 0.  1.
         12    1    3    3    0    0  0.15049775391E+02 -0.60209502527E+00  0.23550438622E+01  0.15244818442E+02  0.00000000000E+00 0. -1.
</event>
<event>
 7    1  0.6963701E-013  0.5930189E+02  0.7816164E-02  0.1266605E+00
        -11   -1    0    0    0    0  0.00000000000E+00  0.00000000000E+00  0.45593999997E+02  0.45594000000E+02  0.51100000000E-03 0.  1.
         11   -1    0    0    0    0 -0.00000000000E+00 -0.00000000000E+00 -0.45593999997E+02  0.45594000000E+02  0.51100000000E-03 0. -1.
    9900012    2    1    2    0    0  0.63060726979E+01 -0.23319679219E+02  0.20812254543E+02  0.59301891255E+02  0.49999903755E+02 0.  0.
         12    1    1    2    0    0 -0.63060726979E+01  0.23319679219E+02 -0.20812254543E+02  0.31886108745E+02  0.00000000000E+00 0. -1.
         11    1    3    3    0    0 -0.68316118001E+00 -0.39589142507E+01  0.12527260695E+02  0.13155682119E+02  0.51100000000E-03 0. -1.
        -11    1    3    3    0    0  0.54146149065E+01 -0.15599913707E+01  0.22573334892E+02  0.23266006878E+02  0.51100000000E-03 0.  1.
         12    1    3    3    0    0  0.15746189714E+01 -0.17800773597E+02 -0.14288341044E+02  0.22880202258E+02  0.00000000000E+00 0. -1.
</event>
<event>
 7    1  0.6963701E-013  0.5930196E+02  0.7816164E-02  0.1266605E+00
        -11   -1    0    0    0    0  0.00000000000E+00  0.00000000000E+00  0.45593999997E+02  0.45594000000E+02  0.51100000000E-03 0.  1.
         11   -1    0    0    0    0 -0.00000000000E+00 -0.00000000000E+00 -0.45593999997E+02  0.45594000000E+02  0.51100000000E-03 0. -1.
    9900012    2    1    2    0    0  0.17192943198E+02  0.98237483085E+01 -0.24992320211E+02  0.59301962364E+02  0.50000033440E+02 0.  0.
         12    1    1    2    0    0 -0.17192943198E+02 -0.98237483085E+01  0.24992320211E+02  0.31886037636E+02  0.00000000000E+00 0. -1.
         11    1    3    3    0    0  0.13556998958E+02 -0.66073703719E+01 -0.34071399519E+01  0.15461505971E+02  0.51100000000E-03 0. -1.
        -11    1    3    3    0    0  0.83862389569E+01 -0.89900959553E+01 -0.72061467816E+01  0.14250592297E+02  0.51100000000E-03 0.  1.
         12    1    3    3    0    0 -0.47502947168E+01  0.25421214636E+02 -0.14379033477E+02  0.29589864096E+02  0.00000000000E+00 0. -1.
</event>
<event>
 7    1  0.9490452E-013  0.5930195E+02  0.7816164E-02  0.1266605E+00
        -11   -1    0    0    0    0  0.00000000000E+00  0.00000000000E+00  0.45593999997E+02  0.45594000000E+02  0.51100000000E-03 0. -1.
         11   -1    0    0    0    0 -0.00000000000E+00 -0.00000000000E+00 -0.45593999997E+02  0.45594000000E+02  0.51100000000E-03 0.  1.
    9900012    2    1    2    0    0  0.10609332218E+02  0.11988577318E+02 -0.27576008204E+02  0.59301950626E+02  0.50000012034E+02 0.  0.
         12    1    1    2    0    0 -0.10609332218E+02 -0.11988577318E+02  0.27576008204E+02  0.31886049374E+02  0.00000000000E+00 0. -1.
         11    1    3    3    0    0  0.72453643624E+01 -0.13751834820E+02  0.90066335195E-01  0.15544014214E+02  0.51100000000E-03 0. -1.
        -11    1    3    3    0    0  0.66038046792E-01  0.13602694753E+02 -0.26213132892E+00  0.13605380504E+02  0.51100000000E-03 0.  1.
        -12    1    3    3    0    0  0.32979298092E+01  0.12137717385E+02 -0.27403943210E+02  0.30152555908E+02  0.00000000000E+00 0.  1.
</event>
<event>
 7    1  0.6963701E-013  0.5930196E+02  0.7816164E-02  0.1266605E+00
        -11   -1    0    0    0    0  0.00000000000E+00  0.00000000000E+00  0.45593999997E+02  0.45594000000E+02  0.51100000000E-03 0. -1.
         11   -1    0    0    0    0 -0.00000000000E+00 -0.00000000000E+00 -0.45593999997E+02  0.45594000000E+02  0.51100000000E-03 0.  1.
    9900012    2    1    2    0    0  0.20365246302E+02 -0.24519878011E+02  0.86714553409E+00  0.59301958916E+02  0.50000027152E+02 0.  0.
         12    1    1    2    0    0 -0.20365246302E+02  0.24519878011E+02 -0.86714553409E+00  0.31886041084E+02  0.00000000000E+00 0. -1.
         11    1    3    3    0    0 -0.38586455852E+00 -0.60669052454E+01  0.36872467685E+01  0.71099943535E+01  0.51100000000E-03 0. -1.
        -11    1    3    3    0    0 -0.12000474764E+02 -0.14763684303E+02  0.74973498838E+00  0.19040479815E+02  0.51100000000E-03 0.  1.
        -12    1    3    3    0    0  0.32751585625E+02 -0.36892884633E+01 -0.35698362228E+01  0.33151484748E+02  0.00000000000E+00 0.  1.
</event>
<event>
 7    1  0.6963701E-013  0.5930195E+02  0.7816164E-02  0.1266605E+00
        -11   -1    0    0    0    0  0.00000000000E+00  0.00000000000E+00  0.45593999997E+02  0.45594000000E+02  0.51100000000E-03 0.  1.
         11   -1    0    0    0    0 -0.00000000000E+00 -0.00000000000E+00 -0.45593999997E+02  0.45594000000E+02  0.51100000000E-03 0. -1.
    9900012    2    1    2    0    0  0.14656424532E+02  0.52680193123E+01  0.27823683420E+02  0.59301950282E+02  0.50000011406E+02 0.  0.
         12    1    1    2    0    0 -0.14656424532E+02 -0.52680193123E+01 -0.27823683420E+02  0.31886049718E+02  0.00000000000E+00 0. -1.
         11    1    3    3    0    0 -0.72442221115E+01  0.50709222774E+01  0.10427983418E+02  0.13672448397E+02  0.51100000000E-03 0. -1.
        -11    1    3    3    0    0 -0.83534959627E+00 -0.11799160925E+02  0.15982956627E+02  0.19883986278E+02  0.51100000000E-03 0.  1.
         12    1    3    3    0    0  0.22735996240E+02  0.11996257960E+02  0.14127433760E+01  0.25745515608E+02  0.00000000000E+00 0. -1.
</event>
<event>
 7    1  0.6963701E-013  0.5930195E+02  0.7816164E-02  0.1266605E+00
        -11   -1    0    0    0    0  0.00000000000E+00  0.00000000000E+00  0.45593999997E+02  0.45594000000E+02  0.51100000000E-03 0. -1.
         11   -1    0    0    0    0 -0.00000000000E+00 -0.00000000000E+00 -0.45593999997E+02  0.45594000000E+02  0.51100000000E-03 0.  1.
    9900012    2    1    2    0    0  0.91212964962E+01 -0.72600106411E+01 -0.29678521904E+02  0.59301945577E+02  0.50000002825E+02 0.  0.
         12    1    1    2    0    0 -0.91212964962E+01  0.72600106411E+01  0.29678521904E+02  0.31886054423E+02  0.00000000000E+00 0. -1.
         11    1    3    3    0    0 -0.69516061746E+01  0.78828364024E+01  0.46370467435E+01  0.11487651671E+02  0.51100000000E-03 0. -1.
        -11    1    3    3    0    0  0.53586136602E+01 -0.19505710279E+02 -0.28268798492E+02  0.34760788862E+02  0.51100000000E-03 0.  1.
        -12    1    3    3    0    0  0.10714289011E+02  0.43628632353E+01 -0.60467701555E+01  0.13053505044E+02  0.00000000000E+00 0.  1.
</event>
<event>
 7    1  0.6963701E-013  0.5930195E+02  0.7816164E-02  0.1266605E+00
        -11   -1    0    0    0    0  0.00000000000E+00  0.00000000000E+00  0.45593999997E+02  0.45594000000E+02  0.51100000000E-03 0. -1.
         11   -1    0    0    0    0 -0.00000000000E+00 -0.00000000000E+00 -0.45593999997E+02  0.45594000000E+02  0.51100000000E-03 0.  1.
    9900012    2    1    2    0    0 -0.79576344181E+01 -0.30592130274E+02  0.41854594406E+01  0.59301945823E+02  0.50000003274E+02 0.  0.
         12    1    1    2    0    0  0.79576344181E+01  0.30592130274E+02 -0.41854594406E+01  0.31886054177E+02  0.00000000000E+00 0. -1.
         11    1    3    3    0    0 -0.27503369286E+01 -0.91189829109E+01  0.19232531472E+01  0.97169493917E+01  0.51100000000E-03 0. -1.
        -11    1    3    3    0    0 -0.69944474986E+01 -0.31255899673E+02 -0.10225209335E+02  0.33621547650E+02  0.51100000000E-03 0.  1.
         12    1    3    3    0    0  0.17871500091E+01  0.97827523101E+01  0.12487415628E+02  0.15963448781E+02  0.00000000000E+00 0. -1.
</event>
<event>
 7    1  0.6963701E-013  0.5930202E+02  0.7816164E-02  0.1266604E+00
        -11   -1    0    0    0    0  0.00000000000E+00  0.00000000000E+00  0.45593999997E+02  0.45594000000E+02  0.51100000000E-03 0. -1.
         11   -1    0    0    0    0 -0.00000000000E+00 -0.00000000000E+00 -0.45593999997E+02  0.45594000000E+02  0.51100000000E-03 0.  1.
    9900012    2    1    2    0    0 -0.83589918483E+01 -0.30653252348E+02 -0.26871792924E+01  0.59302022568E+02  0.50000143239E+02 0.  0.
         12    1    1    2    0    0  0.83589918483E+01  0.30653252348E+02  0.26871792924E+01  0.31885977432E+02  0.00000000000E+00 0. -1.
         11    1    3    3    0    0 -0.15550853883E+02 -0.10136870187E+02  0.30827442595E+01  0.18817239598E+02  0.51100000000E-03 0. -1.
        -11    1    3    3    0    0 -0.57700716517E+01 -0.25392799850E+02 -0.19203569397E+01  0.26110836488E+02  0.51100000000E-03 0.  1.
         12    1    3    3    0    0  0.12961933686E+02  0.48764176887E+01 -0.38495666123E+01  0.14373946482E+02  0.00000000000E+00 0. -1.
</event>
<event>
 7    1  0.6963701E-013  0.5930194E+02  0.7816164E-02  0.1266605E+00
        -11   -1    0    0    0    0  0.00000000000E+00  0.00000000000E+00  0.45593999997E+02  0.45594000000E+02  0.51100000000E-03 0.  1.
         11   -1    0    0    0    0 -0.00000000000E+00 -0.00000000000E+00 -0.45593999997E+02  0.45594000000E+02  0.51100000000E-03 0. -1.
    9900012    2    1    2    0    0  0.22374095224E+02 -0.72050911169E+01  0.21545468368E+02  0.59301942196E+02  0.49999996659E+02 0.  0.
         12    1    1    2    0    0 -0.22374095224E+02  0.72050911169E+01 -0.21545468368E+02  0.31886057804E+02  0.00000000000E+00 0. -1.
         11    1    3    3    0    0  0.70946995699E+01  0.55422757461E+01  0.31697069768E+01  0.95445599696E+01  0.51100000000E-03 0. -1.
        -11    1    3    3    0    0 -0.22624657654E+01 -0.26486712182E+01  0.27382287041E+02  0.27602968218E+02  0.51100000000E-03 0.  1.
        -12    1    3    3    0    0  0.17541861420E+02 -0.10098695645E+02 -0.90065256500E+01  0.22154414009E+02  0.00000000000E+00 0.  1.
</event>
<event>
 7    1  0.6963701E-013  0.5930196E+02  0.7816164E-02  0.1266605E+00
        -11   -1    0    0    0    0  0.00000000000E+00  0.00000000000E+00  0.45593999997E+02  0.45594000000E+02  0.51100000000E-03 0. -1.
         11   -1    0    0    0    0 -0.00000000000E+00 -0.00000000000E+00 -0.45593999997E+02  0.45594000000E+02  0.51100000000E-03 0.  1.
    9900012    2    1    2    0    0  0.12061968999E+02  0.92880653100E+01 -0.28017142810E+02  0.59301960036E+02  0.50000029195E+02 0.  0.
         12    1    1    2    0    0 -0.12061968999E+02 -0.92880653100E+01  0.28017142810E+02  0.31886039964E+02  0.00000000000E+00 0. -1.
         11    1    3    3    0    0  0.12413475242E+02  0.86725305755E+01 -0.22240347667E+02  0.26906137195E+02  0.51100000000E-03 0. -1.
        -11    1    3    3    0    0  0.56733828825E+01 -0.11279639586E+02 -0.12233754542E+02  0.17580736417E+02  0.51100000000E-03 0.  1.
        -12    1    3    3    0    0 -0.60248891248E+01  0.11895174320E+02  0.64569593981E+01  0.14815086424E+02  0.00000000000E+00 0.  1.
</event>
<event>
 7    1  0.6963701E-013  0.5930194E+02  0.7816164E-02  0.1266605E+00
        -11   -1    0    0    0    0  0.00000000000E+00  0.00000000000E+00  0.45593999997E+02  0.45594000000E+02  0.51100000000E-03 0. -1.
         11   -1    0    0    0    0 -0.00000000000E+00 -0.00000000000E+00 -0.45593999997E+02  0.45594000000E+02  0.51100000000E-03 0.  1.
    9900012    2    1    2    0    0  0.21915350214E+01  0.31354720236E+02 -0.53665371275E+01  0.59301936781E+02  0.49999986784E+02 0.  0.
         12    1    1    2    0    0 -0.21915350214E+01 -0.31354720236E+02  0.53665371275E+01  0.31886063219E+02  0.00000000000E+00 0. -1.
         11    1    3    3    0    0 -0.43840332585E+01  0.25610678463E+02  0.52347140947E+01  0.26505260437E+02  0.51100000000E-03 0. -1.
        -11    1    3    3    0    0 -0.88000057485E+01  0.38210016688E+01 -0.13962611367E+02  0.16940917076E+02  0.51100000000E-03 0.  1.
         12    1    3    3    0    0  0.15375574028E+02  0.19230401048E+01  0.33613601447E+01  0.15855759268E+02  0.00000000000E+00 0. -1.
</event>
<event>
 7    1  0.6963701E-013  0.5930197E+02  0.7816164E-02  0.1266605E+00
        -11   -1    0    0    0    0  0.00000000000E+00  0.00000000000E+00  0.45593999997E+02  0.45594000000E+02  0.51100000000E-03 0.  1.
         11   -1    0    0    0    0 -0.00000000000E+00 -0.00000000000E+00 -0.45593999997E+02  0.45594000000E+02  0.51100000000E-03 0. -1.
    9900012    2    1    2    0    0  0.18688683618E+02  0.25222905949E+02  0.55908128669E+01  0.59301967503E+02  0.50000042813E+02 0.  0.
         12    1    1    2    0    0 -0.18688683618E+02 -0.25222905949E+02 -0.55908128669E+01  0.31886032497E+02  0.00000000000E+00 0. -1.
         11    1    3    3    0    0  0.25162135588E+02  0.64456807954E+01  0.18945404302E+01  0.26043600979E+02  0.51100000000E-03 0. -1.
        -11    1    3    3    0    0  0.85363567214E+01  0.29736547467E+00 -0.20136078257E+01  0.87756725689E+01  0.51100000000E-03 0.  1.
        -12    1    3    3    0    0 -0.15009808691E+02  0.18479859679E+02  0.57098802624E+01  0.24482693955E+02  0.00000000000E+00 0.  1.
</event>
<event>
 7    1  0.6963701E-013  0.5930198E+02  0.7816164E-02  0.1266605E+00
        -11   -1    0    0    0    0  0.00000000000E+00  0.00000000000E+00  0.45593999997E+02  0.45594000000E+02  0.51100000000E-03 0. -1.
         11   -1    0    0    0    0 -0.00000000000E+00 -0.00000000000E+00 -0.45593999997E+02  0.45594000000E+02  0.51100000000E-03 0.  1.
    9900012    2    1    2    0    0 -0.95308920528E+01 -0.24058229732E+02 -0.18630144058E+02  0.59301975024E+02  0.50000056530E+02 0.  0.
         12    1    1    2    0    0  0.95308920528E+01  0.24058229732E+02  0.18630144058E+02  0.31886024976E+02  0.00000000000E+00 0. -1.
         11    1    3    3    0    0 -0.16557364385E+02 -0.62916901632E+01 -0.26308376595E+01  0.17906786076E+02  0.51100000000E-03 0. -1.
        -11    1    3    3    0    0 -0.24684189906E+01 -0.25329698043E+00  0.90534050366E+01  0.93872996485E+01  0.51100000000E-03 0.  1.
        -12    1    3    3    0    0  0.94948913233E+01 -0.17513242588E+02 -0.25052711435E+02  0.32007889300E+02  0.00000000000E+00 0.  1.
</event>
<event>
 7    1  0.6963701E-013  0.5930168E+02  0.7816164E-02  0.1266606E+00
        -11   -1    0    0    0    0  0.00000000000E+00  0.00000000000E+00  0.45593999997E+02  0.45594000000E+02  0.51100000000E-03 0.  1.
         11   -1    0    0    0    0 -0.00000000000E+00 -0.00000000000E+00 -0.45593999997E+02  0.45594000000E+02  0.51100000000E-03 0. -1.
    9900012    2    1    2    0    0  0.12620353490E+02  0.28348442074E+02  0.73368827773E+01  0.59301681004E+02  0.49999520306E+02 0.  0.
         12    1    1    2    0    0 -0.12620353490E+02 -0.28348442074E+02 -0.73368827773E+01  0.31886318996E+02  0.00000000000E+00 0. -1.
         11    1    3    3    0    0  0.76012811000E+01  0.18906549471E+02 -0.11276478224E+02  0.23289397773E+02  0.51100000000E-03 0. -1.
        -11    1    3    3    0    0 -0.54208716849E+01  0.13316939378E+01 -0.59244106500E+01  0.81398956000E+01  0.51100000000E-03 0.  1.
        -12    1    3    3    0    0  0.10439944075E+02  0.81101986650E+01  0.24537771651E+02  0.27872387631E+02  0.00000000000E+00 0.  1.
</event>
<event>
 7    1  0.6963701E-013  0.5930196E+02  0.7816164E-02  0.1266605E+00
        -11   -1    0    0    0    0  0.00000000000E+00  0.00000000000E+00  0.45593999997E+02  0.45594000000E+02  0.51100000000E-03 0.  1.
         11   -1    0    0    0    0 -0.00000000000E+00 -0.00000000000E+00 -0.45593999997E+02  0.45594000000E+02  0.51100000000E-03 0. -1.
    9900012    2    1    2    0    0  0.22354952972E+01 -0.25648538032E+02  0.18811552040E+02  0.59301961793E+02  0.50000032399E+02 0.  0.
         12    1    1    2    0    0 -0.22354952972E+01  0.25648538032E+02 -0.18811552040E+02  0.31886038207E+02  0.00000000000E+00 0. -1.
         11    1    3    3    0    0  0.87237617106E+01 -0.76082592041E+01  0.87009067978E+01  0.14480863437E+02  0.51100000000E-03 0. -1.
        -11    1    3    3    0    0  0.10012263592E+02 -0.90304823730E+01  0.19578055515E+02  0.23771733048E+02  0.51100000000E-03 0.  1.
         12    1    3    3    0    0 -0.16500530005E+02 -0.90097964545E+01 -0.94674102725E+01  0.21049365308E+02  0.00000000000E+00 0. -1.
</event>
<event>
 7    1  0.6963701E-013  0.5930195E+02  0.7816164E-02  0.1266605E+00
        -11   -1    0    0    0    0  0.00000000000E+00  0.00000000000E+00  0.45593999997E+02  0.45594000000E+02  0.51100000000E-03 0.  1.
         11   -1    0    0    0    0 -0.00000000000E+00 -0.00000000000E+00 -0.45593999997E+02  0.45594000000E+02  0.51100000000E-03 0. -1.
    9900012    2    1    2    0    0 -0.78796680158E+01  0.18851868522E+02  0.24479340764E+02  0.59301949146E+02  0.50000009335E+02 0.  0.
         12    1    1    2    0    0  0.78796680158E+01 -0.18851868522E+02 -0.24479340764E+02  0.31886050854E+02  0.00000000000E+00 0. -1.
         11    1    3    3    0    0 -0.21203796579E+02  0.17324812181E+02  0.23352060859E+02  0.35987065081E+02  0.51100000000E-03 0. -1.
        -11    1    3    3    0    0 -0.38765711195E+00  0.38301677824E+01  0.71829165288E+01  0.81495247345E+01  0.51100000000E-03 0.  1.
         12    1    3    3    0    0  0.13711785675E+02 -0.23031114417E+01 -0.60556366242E+01  0.15165359331E+02  0.00000000000E+00 0. -1.
</event>
<event>
 7    1  0.6963701E-013  0.5930194E+02  0.7816164E-02  0.1266605E+00
        -11   -1    0    0    0    0  0.00000000000E+00  0.00000000000E+00  0.45593999997E+02  0.45594000000E+02  0.51100000000E-03 0. -1.
         11   -1    0    0    0    0 -0.00000000000E+00 -0.00000000000E+00 -0.45593999997E+02  0.45594000000E+02  0.51100000000E-03 0.  1.
    9900012    2    1    2    0    0  0.17138415083E+02  0.16347167174E+02 -0.21348666755E+02  0.59301941630E+02  0.49999995626E+02 0.  0.
         12    1    1    2    0    0 -0.17138415083E+02 -0.16347167174E+02  0.21348666755E+02  0.31886058370E+02  0.00000000000E+00 0. -1.
         11    1    3    3    0    0  0.54515640346E+01 -0.90485254069E+00 -0.26454728158E+02  0.27025746072E+02  0.51100000000E-03 0. -1.
        -11    1    3    3    0    0  0.53777032742E+01  0.87223049128E+01 -0.96676395215E+01  0.14087638187E+02  0.51100000000E-03 0.  1.
         12    1    3    3    0    0  0.63091477738E+01  0.85297148024E+01  0.14773700924E+02  0.18188557371E+02  0.00000000000E+00 0. -1.
</event>
<event>
 7    1  0.6963701E-013  0.5930194E+02  0.7816164E-02  0.1266605E+00
        -11   -1    0    0    0    0  0.00000000000E+00  0.00000000000E+00  0.45593999997E+02  0.45594000000E+02  0.51100000000E-03 0. -1.
         11   -1    0    0    0    0 -0.00000000000E+00 -0.00000000000E+00 -0.45593999997E+02  0.45594000000E+02  0.51100000000E-03 0.  1.
    9900012    2    1    2    0    0 -0.31689391504E+02  0.12653556893E+00 -0.35337443263E+01  0.59301938875E+02  0.49999990602E+02 0.  0.
         12    1    1    2    0    0  0.31689391504E+02 -0.12653556893E+00  0.35337443263E+01  0.31886061125E+02  0.00000000000E+00 0. -1.
         11    1    3    3    0    0 -0.75980965144E+01 -0.81639570652E+01 -0.19303897568E+02  0.22293984103E+02  0.51100000000E-03 0. -1.
        -11    1    3    3    0    0 -0.15384598854E+01 -0.60925657725E+00 -0.48847158679E+01  0.51573735338E+01  0.51100000000E-03 0.  1.
         12    1    3    3    0    0 -0.22552835104E+02  0.88997492113E+01  0.20654869110E+02  0.31850581238E+02  0.00000000000E+00 0. -1.
</event>
<event>
 7    1  0.6963701E-013  0.5930192E+02  0.7816164E-02  0.1266605E+00
        -11   -1    0    0    0    0  0.00000000000E+00  0.00000000000E+00  0.45593999997E+02  0.45594000000E+02  0.51100000000E-03 0.  1.
         11   -1    0    0    0    0 -0.00000000000E+00 -0.00000000000E+00 -0.45593999997E+02  0.45594000000E+02  0.51100000000E-03 0. -1.
    9900012    2    1    2    0    0 -0.71397241498E+01  0.13125923855E+02  0.28168358570E+02  0.59301922121E+02  0.49999960048E+02 0.  0.
         12    1    1    2    0    0  0.71397241498E+01 -0.13125923855E+02 -0.28168358570E+02  0.31886077879E+02  0.00000000000E+00 0. -1.
         11    1    3    3    0    0  0.62294272697E+01  0.47647546059E+01 -0.80366757216E+01  0.11229283480E+02  0.51100000000E-03 0. -1.
        -11    1    3    3    0    0  0.25634468171E+01  0.13512676534E+02  0.22782789203E+02  0.26612387545E+02  0.51100000000E-03 0.  1.
         12    1    3    3    0    0 -0.15932598237E+02 -0.51515072858E+01  0.13422245088E+02  0.21460251096E+02  0.00000000000E+00 0. -1.
</event>
<event>
 7    1  0.6963701E-013  0.5930198E+02  0.7816164E-02  0.1266605E+00
        -11   -1    0    0    0    0  0.00000000000E+00  0.00000000000E+00  0.45593999997E+02  0.45594000000E+02  0.51100000000E-03 0.  1.
         11   -1    0    0    0    0 -0.00000000000E+00 -0.00000000000E+00 -0.45593999997E+02  0.45594000000E+02  0.51100000000E-03 0. -1.
    9900012    2    1    2    0    0  0.60811095181E+01 -0.25353491581E+02 -0.18355893078E+02  0.59301980509E+02  0.50000066532E+02 0.  0.
         12    1    1    2    0    0 -0.60811095181E+01  0.25353491581E+02  0.18355893078E+02  0.31886019491E+02  0.00000000000E+00 0. -1.
         11    1    3    3    0    0  0.29866484624E+01  0.68325024269E+01 -0.47124567618E+00  0.74716284169E+01  0.51100000000E-03 0. -1.
        -11    1    3    3    0    0  0.63007514168E+01 -0.21526818042E+02  0.78721523302E+01  0.23771288269E+02  0.51100000000E-03 0.  1.
         12    1    3    3    0    0 -0.32062903610E+01 -0.10659175967E+02 -0.25756799732E+02  0.28059063822E+02  0.00000000000E+00 0. -1.
</event>
<event>
 7    1  0.6963701E-013  0.5930192E+02  0.7816164E-02  0.1266605E+00
        -11   -1    0    0    0    0  0.00000000000E+00  0.00000000000E+00  0.45593999997E+02  0.45594000000E+02  0.51100000000E-03 0.  1.
         11   -1    0    0    0    0 -0.00000000000E+00 -0.00000000000E+00 -0.45593999997E+02  0.45594000000E+02  0.51100000000E-03 0. -1.
    9900012    2    1    2    0    0  0.24500900787E+02 -0.13435420347E+02  0.15359594906E+02  0.59301924435E+02  0.49999964267E+02 0.  0.
         12    1    1    2    0    0 -0.24500900787E+02  0.13435420347E+02 -0.15359594906E+02  0.31886075565E+02  0.00000000000E+00 0. -1.
         11    1    3    3    0    0 -0.50588705629E+01 -0.20567634308E+01 -0.12619410184E+02  0.13750344026E+02  0.51100000000E-03 0.  1.
        -11    1    3    3    0    0  0.88656627613E+00 -0.47431625784E+00 -0.22618659426E+01  0.24752804846E+01  0.51100000000E-03 0. -1.
        -12    1    3    3    0    0  0.28673205074E+02 -0.10904340658E+02  0.30240871032E+02  0.43076299924E+02  0.00000000000E+00 0.  1.
</event>
<event>
 7    1  0.6963701E-013  0.5930197E+02  0.7816164E-02  0.1266605E+00
        -11   -1    0    0    0    0  0.00000000000E+00  0.00000000000E+00  0.45593999997E+02  0.45594000000E+02  0.51100000000E-03 0. -1.
         11   -1    0    0    0    0 -0.00000000000E+00 -0.00000000000E+00 -0.45593999997E+02  0.45594000000E+02  0.51100000000E-03 0.  1.
    9900012    2    1    2    0    0  0.12581284733E+02  0.24910670581E+02  0.15423647299E+02  0.59301966532E+02  0.50000041043E+02 0.  0.
         12    1    1    2    0    0 -0.12581284733E+02 -0.24910670581E+02 -0.15423647299E+02  0.31886033468E+02  0.00000000000E+00 0. -1.
         11    1    3    3    0    0  0.78762290388E+01  0.11202196027E+02 -0.67659682351E+01  0.15274243226E+02  0.51100000000E-03 0.  1.
        -11    1    3    3    0    0 -0.91183876042E+01  0.35685662130E+01 -0.56706857388E+01  0.11315314151E+02  0.51100000000E-03 0. -1.
        -12    1    3    3    0    0  0.13823443298E+02  0.10139908341E+02  0.27860301273E+02  0.32712409156E+02  0.00000000000E+00 0.  1.
</event>
<event>
 7    1  0.6963701E-013  0.5930191E+02  0.7816164E-02  0.1266605E+00
        -11   -1    0    0    0    0  0.00000000000E+00  0.00000000000E+00  0.45593999997E+02  0.45594000000E+02  0.51100000000E-03 0. -1.
         11   -1    0    0    0    0 -0.00000000000E+00 -0.00000000000E+00 -0.45593999997E+02  0.45594000000E+02  0.51100000000E-03 0.  1.
    9900012    2    1    2    0    0  0.17215658313E+02  0.18078480365E+02 -0.19837140877E+02  0.59301913666E+02  0.49999944628E+02 0.  0.
         12    1    1    2    0    0 -0.17215658313E+02 -0.18078480365E+02  0.19837140877E+02  0.31886086334E+02  0.00000000000E+00 0. -1.
         11    1    3    3    0    0  0.12513075986E+02  0.10519873325E+02 -0.30909919366E+02  0.34966668713E+02  0.51100000000E-03 0.  1.
        -11    1    3    3    0    0  0.38861039090E+01  0.12071112200E+02  0.36462106088E+00  0.12686469253E+02  0.51100000000E-03 0. -1.
        -12    1    3    3    0    0  0.81647841877E+00 -0.45125051593E+01  0.10708157428E+02  0.11648775700E+02  0.00000000000E+00 0.  1.
</event>
<event>
 7    1  0.6963701E-013  0.5930199E+02  0.7816164E-02  0.1266605E+00
        -11   -1    0    0    0    0  0.00000000000E+00  0.00000000000E+00  0.45593999997E+02  0.45594000000E+02  0.51100000000E-03 0. -1.
         11   -1    0    0    0    0 -0.00000000000E+00 -0.00000000000E+00 -0.45593999997E+02  0.45594000000E+02  0.51100000000E-03 0.  1.
    9900012    2    1    2    0    0  0.98527193005E+01 -0.14721432813E+02 -0.26512658181E+02  0.59301988874E+02  0.50000081789E+02 0.  0.
         12    1    1    2    0    0 -0.98527193005E+01  0.14721432813E+02  0.26512658181E+02  0.31886011126E+02  0.00000000000E+00 0. -1.
         11    1    3    3    0    0 -0.47410330996E+01  0.28053267820E+01  0.41417714808E+00  0.55243819723E+01  0.51100000000E-03 0. -1.
        -11    1    3    3    0    0  0.20134709514E+02  0.38623607443E+00  0.97362574107E+00  0.20161935742E+02  0.51100000000E-03 0.  1.
        -12    1    3    3    0    0 -0.55409571141E+01 -0.17912995669E+02 -0.27900461070E+02  0.33615671160E+02  0.00000000000E+00 0.  1.
</event>
<event>
 7    1  0.6963701E-013  0.5930191E+02  0.7816164E-02  0.1266605E+00
        -11   -1    0    0    0    0  0.00000000000E+00  0.00000000000E+00  0.45593999997E+02  0.45594000000E+02  0.51100000000E-03 0.  1.
         11   -1    0    0    0    0 -0.00000000000E+00 -0.00000000000E+00 -0.45593999997E+02  0.45594000000E+02  0.51100000000E-03 0. -1.
    9900012    2    1    2    0    0  0.18611085028E+02 -0.79360074131E+01 -0.24644875511E+02  0.59301912304E+02  0.49999942144E+02 0.  0.
         12    1    1    2    0    0 -0.18611085028E+02  0.79360074131E+01  0.24644875511E+02  0.31886087696E+02  0.00000000000E+00 0. -1.
         11    1    3    3    0    0  0.13779654750E+00  0.82912956164E+01 -0.21724500753E+02  0.23253354685E+02  0.51100000000E-03 0. -1.
        -11    1    3    3    0    0  0.13358496837E+02 -0.11337332995E+02 -0.14321880266E+02  0.22629644535E+02  0.51100000000E-03 0.  1.
        -12    1    3    3    0    0  0.51147916436E+01 -0.48899700346E+01  0.11401505508E+02  0.13418913083E+02  0.00000000000E+00 0.  1.
</event>
<event>
 7    1  0.6963701E-013  0.5930191E+02  0.7816164E-02  0.1266605E+00
        -11   -1    0    0    0    0  0.00000000000E+00  0.00000000000E+00  0.45593999997E+02  0.45594000000E+02  0.51100000000E-03 0. -1.
         11   -1    0    0    0    0 -0.00000000000E+00 -0.00000000000E+00 -0.45593999997E+02  0.45594000000E+02  0.51100000000E-03 0.  1.
    9900012    2    1    2    0    0 -0.28372987374E+02  0.14459380391E+02 -0.16194983483E+01  0.59301907910E+02  0.49999934131E+02 0.  0.
         12    1    1    2    0    0  0.28372987374E+02 -0.14459380391E+02  0.16194983483E+01  0.31886092090E+02  0.00000000000E+00 0. -1.
         11    1    3    3    0    0 -0.14932132718E+02 -0.71792457713E+00  0.88522526773E+01  0.17373726743E+02  0.51100000000E-03 0. -1.
        -11    1    3    3    0    0 -0.19390727072E+02  0.23405940994E+02 -0.69380887040E+01  0.31176520738E+02  0.51100000000E-03 0.  1.
        -12    1    3    3    0    0  0.59498724157E+01 -0.82286360252E+01 -0.35336623216E+01  0.10751660430E+02  0.00000000000E+00 0.  1.
</event>
<event>
 7    1  0.6963701E-013  0.5930194E+02  0.7816164E-02  0.1266605E+00
        -11   -1    0    0    0    0  0.00000000000E+00  0.00000000000E+00  0.45593999997E+02  0.45594000000E+02  0.51100000000E-03 0.  1.
         11   -1    0    0    0    0 -0.00000000000E+00 -0.00000000000E+00 -0.45593999997E+02  0.45594000000E+02  0.51100000000E-03 0. -1.
    9900012    2    1    2    0    0  0.23239372641E+02  0.21171767152E+02  0.53299944031E+01  0.59301937129E+02  0.49999987418E+02 0.  0.
         12    1    1    2    0    0 -0.23239372641E+02 -0.21171767152E+02 -0.53299944031E+01  0.31886062871E+02  0.00000000000E+00 0. -1.
         11    1    3    3    0    0  0.13292360777E+02  0.10221414496E+02 -0.56093588128E+01  0.17681319970E+02  0.51100000000E-03 0. -1.
        -11    1    3    3    0    0 -0.91698438102E+01  0.13570638121E+02 -0.44133016744E+01  0.16962472887E+02  0.51100000000E-03 0.  1.
        -12    1    3    3    0    0  0.19116855674E+02 -0.26202854645E+01  0.15352654890E+02  0.24658144272E+02  0.00000000000E+00 0.  1.
</event>
<event>
 7    1  0.6963701E-013  0.5930199E+02  0.7816164E-02  0.1266605E+00
        -11   -1    0    0    0    0  0.00000000000E+00  0.00000000000E+00  0.45593999997E+02  0.45594000000E+02  0.51100000000E-03 0.  1.
         11   -1    0    0    0    0 -0.00000000000E+00 -0.00000000000E+00 -0.45593999997E+02  0.45594000000E+02  0.51100000000E-03 0. -1.
    9900012    2    1    2    0    0  0.39588726546E+01  0.31564556989E+02 -0.21733524850E+01  0.59301993796E+02  0.50000090766E+02 0.  0.
         12    1    1    2    0    0 -0.39588726546E+01 -0.31564556989E+02  0.21733524850E+01  0.31886006204E+02  0.00000000000E+00 0. -1.
         11    1    3    3    0    0  0.33703644646E+01  0.21908911186E+00 -0.14738413443E+02  0.15120455937E+02  0.51100000000E-03 0. -1.
        -11    1    3    3    0    0  0.71773361003E+01  0.11143236794E+02 -0.72662421309E+01  0.15115692333E+02  0.51100000000E-03 0.  1.
        -12    1    3    3    0    0 -0.65888279103E+01  0.20202231083E+02  0.19831303089E+02  0.29065845526E+02  0.00000000000E+00 0.  1.
</event>
<event>
 7    1  0.6963701E-013  0.5930192E+02  0.7816164E-02  0.1266605E+00
        -11   -1    0    0    0    0  0.00000000000E+00  0.00000000000E+00  0.45593999997E+02  0.45594000000E+02  0.51100000000E-03 0.  1.
         11   -1    0    0    0    0 -0.00000000000E+00 -0.00000000000E+00 -0.45593999997E+02  0.45594000000E+02  0.51100000000E-03 0. -1.
    9900012    2    1    2    0    0 -0.11815062763E+02 -0.15780366751E+01  0.29574253368E+02  0.59301915729E+02  0.49999948391E+02 0.  0.
         12    1    1    2    0    0  0.11815062763E+02  0.15780366751E+01 -0.29574253368E+02  0.31886084271E+02  0.00000000000E+00 0. -1.
         11    1    3    3    0    0 -0.16215097434E+02  0.60666458713E+00  0.23766940469E+00  0.16228182699E+02  0.51100000000E-03 0. -1.
        -11    1    3    3    0    0 -0.12570946312E+02  0.10774216630E+01  0.58318712832E+01  0.13899649332E+02  0.51100000000E-03 0.  1.
        -12    1    3    3    0    0  0.16970980983E+02 -0.32621229253E+01  0.23504712680E+02  0.29174083699E+02  0.00000000000E+00 0.  1.
</event>
<event>
 7    1  0.6963701E-013  0.5930193E+02  0.7816164E-02  0.1266605E+00
        -11   -1    0    0    0    0  0.00000000000E+00  0.00000000000E+00  0.45593999997E+02  0.45594000000E+02  0.51100000000E-03 0.  1.
         11   -1    0    0    0    0 -0.00000000000E+00 -0.00000000000E+00 -0.45593999997E+02  0.45594000000E+02  0.51100000000E-03 0. -1.
    9900012    2    1    2    0    0  0.21559748548E+02  0.21753305229E+02 -0.88708742795E+01  0.59301930058E+02  0.49999974523E+02 0.  0.
         12    1    1    2    0    0 -0.21559748548E+02 -0.21753305229E+02  0.88708742795E+01  0.31886069942E+02  0.00000000000E+00 0. -1.
         11    1    3    3    0    0  0.22742198176E+02  0.25230245938E+02 -0.16441308887E+02  0.37737110729E+02  0.51100000000E-03 0. -1.
        -11    1    3    3    0    0  0.58482300311E+01 -0.31185553811E+01 -0.42023781864E+01  0.78477490304E+01  0.51100000000E-03 0.  1.
         12    1    3    3    0    0 -0.70306796596E+01 -0.35838532727E+00  0.11772812794E+02  0.13717070300E+02  0.00000000000E+00 0. -1.
</event>
<event>
 7    1  0.6963701E-013  0.5930226E+02  0.7816164E-02  0.1266604E+00
        -11   -1    0    0    0    0  0.00000000000E+00  0.00000000000E+00  0.45593999997E+02  0.45594000000E+02  0.51100000000E-03 0.  1.
         11   -1    0    0    0    0 -0.00000000000E+00 -0.00000000000E+00 -0.45593999997E+02  0.45594000000E+02  0.51100000000E-03 0. -1.
    9900012    2    1    2    0    0 -0.78193653187E+00  0.52765925487E+01  0.31436384665E+02  0.59302264404E+02  0.50000584286E+02 0.  0.
         12    1    1    2    0    0  0.78193653187E+00 -0.52765925487E+01 -0.31436384665E+02  0.31885735596E+02  0.00000000000E+00 0. -1.
         11    1    3    3    0    0 -0.12340888145E+02 -0.13718853883E+02  0.19730206266E+02  0.27014542596E+02  0.51100000000E-03 0. -1.
        -11    1    3    3    0    0 -0.16181718945E+01 -0.32433361971E+01 -0.57353884686E+00  0.36696944066E+01  0.51100000000E-03 0.  1.
        -12    1    3    3    0    0  0.13177123508E+02  0.22238782629E+02  0.12279717246E+02  0.28618027402E+02  0.00000000000E+00 0.  1.
</event>
<event>
 7    1  0.6963701E-013  0.5930194E+02  0.7816164E-02  0.1266605E+00
        -11   -1    0    0    0    0  0.00000000000E+00  0.00000000000E+00  0.45593999997E+02  0.45594000000E+02  0.51100000000E-03 0. -1.
         11   -1    0    0    0    0 -0.00000000000E+00 -0.00000000000E+00 -0.45593999997E+02  0.45594000000E+02  0.51100000000E-03 0.  1.
    9900012    2    1    2    0    0 -0.19245716851E+02  0.54751557397E+01 -0.24826314790E+02  0.59301939510E+02  0.49999991762E+02 0.  0.
         12    1    1    2    0    0  0.19245716851E+02 -0.54751557397E+01  0.24826314790E+02  0.31886060490E+02  0.00000000000E+00 0. -1.
         11    1    3    3    0    0 -0.14825882975E+02 -0.21092519037E+01  0.54470732802E+01  0.15935066901E+02  0.51100000000E-03 0. -1.
        -11    1    3    3    0    0 -0.10255686612E+02  0.59921228277E+01 -0.34167116983E+02  0.36172870042E+02  0.51100000000E-03 0.  1.
         12    1    3    3    0    0  0.58358527362E+01  0.15922848156E+01  0.38937289124E+01  0.71940025672E+01  0.00000000000E+00 0. -1.
</event>
<event>
 7    1  0.6963701E-013  0.5930195E+02  0.7816164E-02  0.1266605E+00
        -11   -1    0    0    0    0  0.00000000000E+00  0.00000000000E+00  0.45593999997E+02  0.45594000000E+02  0.51100000000E-03 0. -1.
         11   -1    0    0    0    0 -0.00000000000E+00 -0.00000000000E+00 -0.45593999997E+02  0.45594000000E+02  0.51100000000E-03 0.  1.
    9900012    2    1    2    0    0  0.23738633622E+02 -0.35748719936E+01 -0.20986126921E+02  0.59301953535E+02  0.50000017339E+02 0.  0.
         12    1    1    2    0    0 -0.23738633622E+02  0.35748719936E+01  0.20986126921E+02  0.31886046465E+02  0.00000000000E+00 0. -1.
         11    1    3    3    0    0 -0.57341523598E+00 -0.67039930855E+01 -0.10639555817E+02  0.12588585169E+02  0.51100000000E-03 0. -1.
        -11    1    3    3    0    0  0.97960557672E+01 -0.14198227278E+02 -0.15875039276E+02  0.23442893139E+02  0.51100000000E-03 0.  1.
         12    1    3    3    0    0  0.14515993091E+02  0.17327348370E+02  0.55284681717E+01  0.23270475227E+02  0.00000000000E+00 0. -1.
</event>
<event>
 7    1  0.8758470E-013  0.5930195E+02  0.7816164E-02  0.1266605E+00
        -11   -1    0    0    0    0  0.00000000000E+00  0.00000000000E+00  0.45593999997E+02  0.45594000000E+02  0.51100000000E-03 0. -1.
         11   -1    0    0    0    0 -0.00000000000E+00 -0.00000000000E+00 -0.45593999997E+02  0.45594000000E+02  0.51100000000E-03 0.  1.
    9900012    2    1    2    0    0 -0.10363853213E+02  0.11091154028E+01 -0.30134374924E+02  0.59301950661E+02  0.50000012097E+02 0.  0.
         12    1    1    2    0    0  0.10363853213E+02 -0.11091154028E+01  0.30134374924E+02  0.31886049339E+02  0.00000000000E+00 0. -1.
         11    1    3    3    0    0  0.90524594018E+01  0.56509490006E+01  0.70123801311E+01  0.12769249046E+02  0.51100000000E-03 0. -1.
        -11    1    3    3    0    0 -0.12151013435E+02  0.27062084664E+01 -0.61574127704E+01  0.13888283697E+02  0.51100000000E-03 0.  1.
        -12    1    3    3    0    0 -0.72652991796E+01 -0.72480420642E+01 -0.30989342285E+02  0.32644417918E+02  0.00000000000E+00 0.  1.
</event>
<event>
 7    1  0.6963701E-013  0.5930198E+02  0.7816164E-02  0.1266605E+00
        -11   -1    0    0    0    0  0.00000000000E+00  0.00000000000E+00  0.45593999997E+02  0.45594000000E+02  0.51100000000E-03 0. -1.
         11   -1    0    0    0    0 -0.00000000000E+00 -0.00000000000E+00 -0.45593999997E+02  0.45594000000E+02  0.51100000000E-03 0.  1.
    9900012    2    1    2    0    0 -0.60122098227E+00  0.27532543538E+02 -0.16072198449E+02  0.59301984518E+02  0.50000073844E+02 0.  0.
         12    1    1    2    0    0  0.60122098227E+00 -0.27532543538E+02  0.16072198449E+02  0.31886015482E+02  0.00000000000E+00 0. -1.
         11    1    3    3    0    0  0.43189545955E+01  0.74881615250E+01 -0.35525979098E+01  0.93459554885E+01  0.51100000000E-03 0. -1.
        -11    1    3    3    0    0  0.83617537012E+01  0.30137762153E+02 -0.50627523780E+01  0.31683356742E+02  0.51100000000E-03 0.  1.
         12    1    3    3    0    0 -0.13281929279E+02 -0.10093380140E+02 -0.74568481612E+01  0.18272672287E+02  0.00000000000E+00 0. -1.
</event>
<event>
 7    1  0.6963701E-013  0.5930187E+02  0.7816164E-02  0.1266605E+00
        -11   -1    0    0    0    0  0.00000000000E+00  0.00000000000E+00  0.45593999997E+02  0.45594000000E+02  0.51100000000E-03 0.  1.
         11   -1    0    0    0    0 -0.00000000000E+00 -0.00000000000E+00 -0.45593999997E+02  0.45594000000E+02  0.51100000000E-03 0. -1.
    9900012    2    1    2    0    0  0.30188409582E+01  0.24132157495E+02  0.20621610167E+02  0.59301870853E+02  0.49999866547E+02 0.  0.
         12    1    1    2    0    0 -0.30188409582E+01 -0.24132157495E+02 -0.20621610167E+02  0.31886129147E+02  0.00000000000E+00 0. -1.
         11    1    3    3    0    0  0.35610063720E+01 -0.24388088234E+01  0.55267688034E+01  0.70123982008E+01  0.51100000000E-03 0. -1.
        -11    1    3    3    0    0  0.68358931007E+01 -0.91275058952E+01  0.10584292043E+02  0.15558535814E+02  0.51100000000E-03 0.  1.
        -12    1    3    3    0    0 -0.73780585146E+01  0.35698472214E+02  0.45105493197E+01  0.36730936838E+02  0.00000000000E+00 0.  1.
</event>
<event>
 7    1  0.6963701E-013  0.5930197E+02  0.7816164E-02  0.1266605E+00
        -11   -1    0    0    0    0  0.00000000000E+00  0.00000000000E+00  0.45593999997E+02  0.45594000000E+02  0.51100000000E-03 0. -1.
         11   -1    0    0    0    0 -0.00000000000E+00 -0.00000000000E+00 -0.45593999997E+02  0.45594000000E+02  0.51100000000E-03 0.  1.
    9900012    2    1    2    0    0  0.13545827509E+02  0.28822570208E+02  0.15775792546E+01  0.59301972455E+02  0.50000051844E+02 0.  0.
         12    1    1    2    0    0 -0.13545827509E+02 -0.28822570208E+02 -0.15775792546E+01  0.31886027545E+02  0.00000000000E+00 0. -1.
         11    1    3    3    0    0  0.22026192862E+01 -0.65383568179E+01 -0.10152540096E+02  0.12275003554E+02  0.51100000000E-03 0. -1.
        -11    1    3    3    0    0  0.55336529401E+01  0.14923113341E+02  0.18801517759E+02  0.24633669985E+02  0.51100000000E-03 0.  1.
        -12    1    3    3    0    0  0.58095552829E+01  0.20437813686E+02 -0.70713984089E+01  0.22393298915E+02  0.00000000000E+00 0.  1.
</event>
<event>
 7    1  0.6963701E-013  0.5930204E+02  0.7816164E-02  0.1266604E+00
        -11   -1    0    0    0    0  0.00000000000E+00  0.00000000000E+00  0.45593999997E+02  0.45594000000E+02  0.51100000000E-03 0.  1.
         11   -1    0    0    0    0 -0.00000000000E+00 -0.00000000000E+00 -0.45593999997E+02  0.45594000000E+02  0.51100000000E-03 0. -1.
    9900012    2    1    2    0    0 -0.14328217718E+02 -0.48798682101E+01  0.28064269968E+02  0.59302044070E+02  0.50000182454E+02 0.  0.
         12    1    1    2    0    0  0.14328217718E+02  0.48798682101E+01 -0.28064269968E+02  0.31885955930E+02  0.00000000000E+00 0. -1.
         11    1    3    3    0    0  0.87830793132E+00 -0.62992065281E+00 -0.73533692706E-01  0.10833431202E+01  0.51100000000E-03 0. -1.
        -11    1    3    3    0    0  0.13235775552E+02  0.54366720339E+01  0.23926201199E+02  0.27878419276E+02  0.51100000000E-03 0.  1.
         12    1    3    3    0    0 -0.28442301202E+02 -0.96866195912E+01  0.42116024613E+01  0.30340281674E+02  0.00000000000E+00 0. -1.
</event>
<event>
 7    1  0.6963701E-013  0.5930197E+02  0.7816164E-02  0.1266605E+00
        -11   -1    0    0    0    0  0.00000000000E+00  0.00000000000E+00  0.45593999997E+02  0.45594000000E+02  0.51100000000E-03 0. -1.
         11   -1    0    0    0    0 -0.00000000000E+00 -0.00000000000E+00 -0.45593999997E+02  0.45594000000E+02  0.51100000000E-03 0.  1.
    9900012    2    1    2    0    0  0.14346553122E+01 -0.31818186398E+02 -0.15046137810E+01  0.59301967256E+02  0.50000042363E+02 0.  0.
         12    1    1    2    0    0 -0.14346553122E+01  0.31818186398E+02  0.15046137810E+01  0.31886032744E+02  0.00000000000E+00 0. -1.
         11    1    3    3    0    0 -0.10073416394E+02 -0.15336622800E+01  0.86458706244E+01  0.13363267450E+02  0.51100000000E-03 0. -1.
        -11    1    3    3    0    0  0.16653630402E+01 -0.26247593541E+02  0.56405367859E+01  0.26898424791E+02  0.51100000000E-03 0.  1.
        -12    1    3    3    0    0  0.98427086659E+01 -0.40369305765E+01 -0.15791021191E+02  0.19040275014E+02  0.00000000000E+00 0.  1.
</event>
<event>
 7    1  0.6963701E-013  0.5930195E+02  0.7816164E-02  0.1266605E+00
        -11   -1    0    0    0    0  0.00000000000E+00  0.00000000000E+00  0.45593999997E+02  0.45594000000E+02  0.51100000000E-03 0.  1.
         11   -1    0    0    0    0 -0.00000000000E+00 -0.00000000000E+00 -0.45593999997E+02  0.45594000000E+02  0.51100000000E-03 0. -1.
    9900012    2    1    2    0    0 -0.20385997802E+02  0.79167124351E+01  0.23204674520E+02  0.59301950358E+02  0.50000011545E+02 0.  0.
         12    1    1    2    0    0  0.20385997802E+02 -0.79167124351E+01 -0.23204674520E+02  0.31886049642E+02  0.00000000000E+00 0. -1.
         11    1    3    3    0    0 -0.95023634951E+01  0.94340166076E+01  0.97724958490E+01  0.16577009885E+02  0.51100000000E-03 0. -1.
        -11    1    3    3    0    0 -0.22894775686E+02  0.41313239632E+01  0.17194385441E+02  0.28928973061E+02  0.51100000000E-03 0.  1.
         12    1    3    3    0    0  0.12011141379E+02 -0.56486281358E+01 -0.37622067697E+01  0.13795967412E+02  0.00000000000E+00 0. -1.
</event>
<event>
 7    1  0.6963701E-013  0.5930178E+02  0.7816164E-02  0.1266605E+00
        -11   -1    0    0    0    0  0.00000000000E+00  0.00000000000E+00  0.45593999997E+02  0.45594000000E+02  0.51100000000E-03 0.  1.
         11   -1    0    0    0    0 -0.00000000000E+00 -0.00000000000E+00 -0.45593999997E+02  0.45594000000E+02  0.51100000000E-03 0. -1.
    9900012    2    1    2    0    0 -0.11251683865E+02 -0.13565750629E+02  0.26572566136E+02  0.59301776470E+02  0.49999694414E+02 0.  0.
         12    1    1    2    0    0  0.11251683865E+02  0.13565750629E+02 -0.26572566136E+02  0.31886223530E+02  0.00000000000E+00 0. -1.
         11    1    3    3    0    0 -0.46320504536E+01 -0.17519561355E+01 -0.79089050317E+01  0.93314533041E+01  0.51100000000E-03 0. -1.
        -11    1    3    3    0    0  0.13610017098E+02 -0.70735725555E+01  0.13339149595E+02  0.20327343808E+02  0.51100000000E-03 0.  1.
        -12    1    3    3    0    0 -0.20229650509E+02 -0.47402219382E+01  0.21142321573E+02  0.29642979358E+02  0.00000000000E+00 0.  1.
</event>
<event>
 7    1  0.6963701E-013  0.5930200E+02  0.7816164E-02  0.1266605E+00
        -11   -1    0    0    0    0  0.00000000000E+00  0.00000000000E+00  0.45593999997E+02  0.45594000000E+02  0.51100000000E-03 0.  1.
         11   -1    0    0    0    0 -0.00000000000E+00 -0.00000000000E+00 -0.45593999997E+02  0.45594000000E+02  0.51100000000E-03 0. -1.
    9900012    2    1    2    0    0 -0.20639577364E+02  0.34371080423E+01  0.24060577625E+02  0.59301995843E+02  0.50000094499E+02 0.  0.
         12    1    1    2    0    0  0.20639577364E+02 -0.34371080423E+01 -0.24060577625E+02  0.31886004157E+02  0.00000000000E+00 0. -1.
         11    1    3    3    0    0  0.15337748414E+02  0.66041579016E+00  0.12147766737E+02  0.19576795253E+02  0.51100000000E-03 0. -1.
        -11    1    3    3    0    0 -0.14751117966E+02  0.56955130594E+00 -0.97610590651E+00  0.14794345302E+02  0.51100000000E-03 0.  1.
        -12    1    3    3    0    0 -0.21226207812E+02  0.22071409462E+01  0.12888916794E+02  0.24930855287E+02  0.00000000000E+00 0.  1.
</event>
<event>
 7    1  0.6963701E-013  0.5930191E+02  0.7816164E-02  0.1266605E+00
        -11   -1    0    0    0    0  0.00000000000E+00  0.00000000000E+00  0.45593999997E+02  0.45594000000E+02  0.51100000000E-03 0. -1.
         11   -1    0    0    0    0 -0.00000000000E+00 -0.00000000000E+00 -0.45593999997E+02  0.45594000000E+02  0.51100000000E-03 0.  1.
    9900012    2    1    2    0    0  0.12431528499E+02 -0.25885487225E+02 -0.13860774957E+02  0.59301914757E+02  0.49999946618E+02 0.  0.
         12    1    1    2    0    0 -0.12431528499E+02  0.25885487225E+02  0.13860774957E+02  0.31886085243E+02  0.00000000000E+00 0. -1.
         11    1    3    3    0    0 -0.27984187963E+01 -0.11555475545E+00  0.51044768062E+01  0.58223864855E+01  0.51100000000E-03 0. -1.
        -11    1    3    3    0    0 -0.92588978290E+01 -0.78015560336E+01  0.65904240769E+01  0.13784961202E+02  0.51100000000E-03 0.  1.
        -12    1    3    3    0    0  0.24488845125E+02 -0.17968376435E+02 -0.25555675840E+02  0.39694567070E+02  0.00000000000E+00 0.  1.
</event>
<event>
 7    1  0.8390508E-013  0.5930205E+02  0.7816164E-02  0.1266604E+00
        -11   -1    0    0    0    0  0.00000000000E+00  0.00000000000E+00  0.45593999997E+02  0.45594000000E+02  0.51100000000E-03 0. -1.
         11   -1    0    0    0    0 -0.00000000000E+00 -0.00000000000E+00 -0.45593999997E+02  0.45594000000E+02  0.51100000000E-03 0.  1.
    9900012    2    1    2    0    0  0.25698831250E+02 -0.18861541541E+02 -0.72541356252E+00  0.59302048520E+02  0.50000190569E+02 0.  0.
         12    1    1    2    0    0 -0.25698831250E+02  0.18861541541E+02  0.72541356252E+00  0.31885951480E+02  0.00000000000E+00 0. -1.
         11    1    3    3    0    0 -0.91372238022E+01 -0.38484456925E+01 -0.63991544007E+00  0.99352345262E+01  0.51100000000E-03 0. -1.
        -11    1    3    3    0    0  0.17337002247E+02 -0.24021368057E+02  0.11487446863E+01  0.29646540858E+02  0.51100000000E-03 0.  1.
        -12    1    3    3    0    0  0.17499052805E+02  0.90082722080E+01 -0.12342428087E+01  0.19720273136E+02  0.00000000000E+00 0.  1.
</event>
<event>
 7    1  0.6963701E-013  0.5930192E+02  0.7816164E-02  0.1266605E+00
        -11   -1    0    0    0    0  0.00000000000E+00  0.00000000000E+00  0.45593999997E+02  0.45594000000E+02  0.51100000000E-03 0.  1.
         11   -1    0    0    0    0 -0.00000000000E+00 -0.00000000000E+00 -0.45593999997E+02  0.45594000000E+02  0.51100000000E-03 0. -1.
    9900012    2    1    2    0    0  0.49793325616E+01  0.21318975806E+02 -0.23182533295E+02  0.59301916324E+02  0.49999949476E+02 0.  0.
         12    1    1    2    0    0 -0.49793325616E+01 -0.21318975806E+02  0.23182533295E+02  0.31886083676E+02  0.00000000000E+00 0. -1.
         11    1    3    3    0    0 -0.80432719845E+01  0.14898738361E+02 -0.15760074291E+02  0.23131073708E+02  0.51100000000E-03 0.  1.
        -11    1    3    3    0    0  0.57516116562E+01  0.48509049152E+00 -0.19807365925E+02  0.20631240742E+02  0.51100000000E-03 0. -1.
        -12    1    3    3    0    0  0.72709928899E+01  0.59351469544E+01  0.12384906921E+02  0.15539601874E+02  0.00000000000E+00 0.  1.
</event>
<event>
 7    1  0.6963701E-013  0.5930193E+02  0.7816164E-02  0.1266605E+00
        -11   -1    0    0    0    0  0.00000000000E+00  0.00000000000E+00  0.45593999997E+02  0.45594000000E+02  0.51100000000E-03 0.  1.
         11   -1    0    0    0    0 -0.00000000000E+00 -0.00000000000E+00 -0.45593999997E+02  0.45594000000E+02  0.51100000000E-03 0. -1.
    9900012    2    1    2    0    0  0.56391793888E+01 -0.26463166106E+02 -0.16870744481E+02  0.59301928999E+02  0.49999972590E+02 0.  0.
         12    1    1    2    0    0 -0.56391793888E+01  0.26463166106E+02  0.16870744481E+02  0.31886071001E+02  0.00000000000E+00 0. -1.
         11    1    3    3    0    0  0.13906840735E+02 -0.13163090448E+02 -0.68267627769E+01  0.20329089002E+02  0.51100000000E-03 0. -1.
        -11    1    3    3    0    0  0.63586494746E+00 -0.94833756670E+01  0.11755908203E+02  0.15117543326E+02  0.51100000000E-03 0.  1.
         12    1    3    3    0    0 -0.89035262936E+01 -0.38166999910E+01 -0.21799889907E+02  0.23855296671E+02  0.00000000000E+00 0. -1.
</event>
<event>
 7    1  0.6963701E-013  0.5930190E+02  0.7816164E-02  0.1266605E+00
        -11   -1    0    0    0    0  0.00000000000E+00  0.00000000000E+00  0.45593999997E+02  0.45594000000E+02  0.51100000000E-03 0.  1.
         11   -1    0    0    0    0 -0.00000000000E+00 -0.00000000000E+00 -0.45593999997E+02  0.45594000000E+02  0.51100000000E-03 0. -1.
    9900012    2    1    2    0    0  0.21460924935E+02  0.45634866869E+01  0.23137126515E+02  0.59301900627E+02  0.49999920848E+02 0.  0.
         12    1    1    2    0    0 -0.21460924935E+02 -0.45634866869E+01 -0.23137126515E+02  0.31886099373E+02  0.00000000000E+00 0. -1.
         11    1    3    3    0    0  0.86960067474E+01  0.93806451880E+01 -0.83007102671E+01  0.15248568087E+02  0.51100000000E-03 0. -1.
        -11    1    3    3    0    0 -0.14891579264E+01 -0.33250400630E-01 -0.46904486131E+01  0.49212808670E+01  0.51100000000E-03 0.  1.
        -12    1    3    3    0    0  0.14254076114E+02 -0.47839081005E+01  0.36128285395E+02  0.39132051674E+02  0.00000000000E+00 0.  1.
</event>
<event>
 7    1  0.6963701E-013  0.5930193E+02  0.7816164E-02  0.1266605E+00
        -11   -1    0    0    0    0  0.00000000000E+00  0.00000000000E+00  0.45593999997E+02  0.45594000000E+02  0.51100000000E-03 0. -1.
         11   -1    0    0    0    0 -0.00000000000E+00 -0.00000000000E+00 -0.45593999997E+02  0.45594000000E+02  0.51100000000E-03 0.  1.
    9900012    2    1    2    0    0 -0.22640949565E+01  0.96553037207E+01 -0.30304623581E+02  0.59301933665E+02  0.49999981102E+02 0.  0.
         12    1    1    2    0    0  0.22640949565E+01 -0.96553037207E+01  0.30304623581E+02  0.31886066335E+02  0.00000000000E+00 0. -1.
         11    1    3    3    0    0 -0.15331690531E+02 -0.39640057215E+01  0.19204841709E+01  0.15951875614E+02  0.51100000000E-03 0. -1.
        -11    1    3    3    0    0 -0.41728518056E+01 -0.66727421204E+00 -0.14443131354E+00  0.42283339191E+01  0.51100000000E-03 0.  1.
         12    1    3    3    0    0  0.17240447380E+02  0.14286583654E+02 -0.32080676438E+02  0.39121724132E+02  0.00000000000E+00 0. -1.
</event>
<event>
 7    1  0.6963701E-013  0.5930195E+02  0.7816164E-02  0.1266605E+00
        -11   -1    0    0    0    0  0.00000000000E+00  0.00000000000E+00  0.45593999997E+02  0.45594000000E+02  0.51100000000E-03 0. -1.
         11   -1    0    0    0    0 -0.00000000000E+00 -0.00000000000E+00 -0.45593999997E+02  0.45594000000E+02  0.51100000000E-03 0.  1.
    9900012    2    1    2    0    0 -0.11717691803E+02  0.28743732036E+02 -0.72947775415E+01  0.59301949572E+02  0.50000010111E+02 0.  0.
         12    1    1    2    0    0  0.11717691803E+02 -0.28743732036E+02  0.72947775415E+01  0.31886050428E+02  0.00000000000E+00 0. -1.
         11    1    3    3    0    0  0.34125574376E+01  0.48565326482E-02 -0.11273972327E+02  0.11779135118E+02  0.51100000000E-03 0. -1.
        -11    1    3    3    0    0 -0.19434200271E+02  0.18905478676E+01 -0.21667006140E+01  0.19645785890E+02  0.51100000000E-03 0.  1.
         12    1    3    3    0    0  0.43039510302E+01  0.26848327635E+02  0.61458953993E+01  0.27877028564E+02  0.00000000000E+00 0. -1.
</event>
<event>
 7    1  0.6963701E-013  0.5930194E+02  0.7816164E-02  0.1266605E+00
        -11   -1    0    0    0    0  0.00000000000E+00  0.00000000000E+00  0.45593999997E+02  0.45594000000E+02  0.51100000000E-03 0.  1.
         11   -1    0    0    0    0 -0.00000000000E+00 -0.00000000000E+00 -0.45593999997E+02  0.45594000000E+02  0.51100000000E-03 0. -1.
    9900012    2    1    2    0    0  0.93086688172E+01  0.16122670336E+02  0.25886854167E+02  0.59301936703E+02  0.49999986641E+02 0.  0.
         12    1    1    2    0    0 -0.93086688172E+01 -0.16122670336E+02 -0.25886854167E+02  0.31886063297E+02  0.00000000000E+00 0. -1.
         11    1    3    3    0    0 -0.42252345899E+01  0.12221584097E+02 -0.55694840706E+01  0.14079732890E+02  0.51100000000E-03 0. -1.
        -11    1    3    3    0    0  0.15544889095E+02  0.14543808085E+02  0.17509013179E+02  0.27563226832E+02  0.51100000000E-03 0.  1.
        -12    1    3    3    0    0 -0.20109856882E+01 -0.10642721846E+02  0.13947325058E+02  0.17658976981E+02  0.00000000000E+00 0.  1.
</event>
<event>
 7    1  0.6963701E-013  0.5930195E+02  0.7816164E-02  0.1266605E+00
        -11   -1    0    0    0    0  0.00000000000E+00  0.00000000000E+00  0.45593999997E+02  0.45594000000E+02  0.51100000000E-03 0.  1.
         11   -1    0    0    0    0 -0.00000000000E+00 -0.00000000000E+00 -0.45593999997E+02  0.45594000000E+02  0.51100000000E-03 0. -1.
    9900012    2    1    2    0    0 -0.29611178144E+00 -0.31230956612E+02 -0.64233858953E+01  0.59301949453E+02  0.50000009895E+02 0.  0.
         12    1    1    2    0    0  0.29611178144E+00  0.31230956612E+02  0.64233858953E+01  0.31886050547E+02  0.00000000000E+00 0. -1.
         11    1    3    3    0    0 -0.76987490051E+01  0.47690049210E+01 -0.22709505202E+01  0.93365604323E+01  0.51100000000E-03 0. -1.
        -11    1    3    3    0    0  0.10693039114E+02 -0.26097275198E+01 -0.11176040141E+02  0.15686160675E+02  0.51100000000E-03 0.  1.
        -12    1    3    3    0    0 -0.32904018908E+01 -0.33390234014E+02  0.70236047659E+01  0.34279228346E+02  0.00000000000E+00 0.  1.
</event>
<event>
 7    1  0.6963701E-013  0.5930198E+02  0.7816164E-02  0.1266605E+00
        -11   -1    0    0    0    0  0.00000000000E+00  0.00000000000E+00  0.45593999997E+02  0.45594000000E+02  0.51100000000E-03 0. -1.
         11   -1    0    0    0    0 -0.00000000000E+00 -0.00000000000E+00 -0.45593999997E+02  0.45594000000E+02  0.51100000000E-03 0.  1.
    9900012    2    1    2    0    0  0.89633627126E+01  0.30598969541E+02 -0.28179609930E+00  0.59301980852E+02  0.50000067158E+02 0.  0.
         12    1    1    2    0    0 -0.89633627126E+01 -0.30598969541E+02  0.28179609930E+00  0.31886019148E+02  0.00000000000E+00 0. -1.
         11    1    3    3    0    0 -0.20578833440E+01  0.80212131987E+01  0.11599485354E+02  0.14252115835E+02  0.51100000000E-03 0. -1.
        -11    1    3    3    0    0  0.24779372593E+01  0.10903857192E+02  0.12455417913E+02  0.16738330573E+02  0.51100000000E-03 0.  1.
        -12    1    3    3    0    0  0.85433087973E+01  0.11673899150E+02 -0.24336699366E+02  0.28311534444E+02  0.00000000000E+00 0.  1.
</event>
<event>
 7    1  0.6963701E-013  0.5930195E+02  0.7816164E-02  0.1266605E+00
        -11   -1    0    0    0    0  0.00000000000E+00  0.00000000000E+00  0.45593999997E+02  0.45594000000E+02  0.51100000000E-03 0.  1.
         11   -1    0    0    0    0 -0.00000000000E+00 -0.00000000000E+00 -0.45593999997E+02  0.45594000000E+02  0.51100000000E-03 0. -1.
    9900012    2    1    2    0    0 -0.14917357776E+02  0.82175440037E+00  0.28169440622E+02  0.59301949316E+02  0.50000009644E+02 0.  0.
         12    1    1    2    0    0  0.14917357776E+02 -0.82175440037E+00 -0.28169440622E+02  0.31886050684E+02  0.00000000000E+00 0. -1.
         11    1    3    3    0    0 -0.14610810910E+02  0.20361046387E-02  0.16866847156E+02  0.22315159261E+02  0.51100000000E-03 0. -1.
        -11    1    3    3    0    0 -0.37884661392E+00 -0.14705161493E+02  0.15019398396E+02  0.21023026131E+02  0.51100000000E-03 0.  1.
         12    1    3    3    0    0  0.72299748259E-01  0.15524879789E+02 -0.37168049303E+01  0.15963763923E+02  0.00000000000E+00 0. -1.
</event>
<event>
 7    1  0.6963701E-013  0.5930194E+02  0.7816164E-02  0.1266605E+00
        -11   -1    0    0    0    0  0.00000000000E+00  0.00000000000E+00  0.45593999997E+02  0.45594000000E+02  0.51100000000E-03 0. -1.
         11   -1    0    0    0    0 -0.00000000000E+00 -0.00000000000E+00 -0.45593999997E+02  0.45594000000E+02  0.51100000000E-03 0.  1.
    9900012    2    1    2    0    0  0.13768969723E+02 -0.27296047206E+02  0.90588305188E+01  0.59301935164E+02  0.49999983835E+02 0.  0.
         12    1    1    2    0    0 -0.13768969723E+02  0.27296047206E+02 -0.90588305188E+01  0.31886064836E+02  0.00000000000E+00 0. -1.
         11    1    3    3    0    0  0.10063725163E+02 -0.20564039536E+02  0.15037383911E+02  0.27391261404E+02  0.51100000000E-03 0. -1.
        -11    1    3    3    0    0  0.12867824809E+01 -0.14143177530E+02 -0.14544748976E+02  0.20328182478E+02  0.51100000000E-03 0.  1.
         12    1    3    3    0    0  0.24184620798E+01  0.74111698596E+01  0.85661955843E+01  0.11582491282E+02  0.00000000000E+00 0. -1.
</event>
<event>
 7    1  0.6963701E-013  0.5930193E+02  0.7816164E-02  0.1266605E+00
        -11   -1    0    0    0    0  0.00000000000E+00  0.00000000000E+00  0.45593999997E+02  0.45594000000E+02  0.51100000000E-03 0. -1.
         11   -1    0    0    0    0 -0.00000000000E+00 -0.00000000000E+00 -0.45593999997E+02  0.45594000000E+02  0.51100000000E-03 0.  1.
    9900012    2    1    2    0    0  0.17379748277E+02 -0.26631734862E+02 -0.23273708319E+01  0.59301927697E+02  0.49999970217E+02 0.  0.
         12    1    1    2    0    0 -0.17379748277E+02  0.26631734862E+02  0.23273708319E+01  0.31886072303E+02  0.00000000000E+00 0. -1.
         11    1    3    3    0    0  0.28262709674E+02 -0.27626356999E+02 -0.22794074808E+01  0.39587776622E+02  0.51100000000E-03 0.  1.
        -11    1    3    3    0    0  0.79426870107E+00  0.12015894540E+01  0.62716438915E+01  0.64349201509E+01  0.51100000000E-03 0. -1.
        -12    1    3    3    0    0 -0.11677230098E+02 -0.20696731641E+00 -0.63196072426E+01  0.13279230924E+02  0.00000000000E+00 0.  1.
</event>
<event>
 7    1  0.6963701E-013  0.5930194E+02  0.7816164E-02  0.1266605E+00
        -11   -1    0    0    0    0  0.00000000000E+00  0.00000000000E+00  0.45593999997E+02  0.45594000000E+02  0.51100000000E-03 0.  1.
         11   -1    0    0    0    0 -0.00000000000E+00 -0.00000000000E+00 -0.45593999997E+02  0.45594000000E+02  0.51100000000E-03 0. -1.
    9900012    2    1    2    0    0  0.21564559294E+02 -0.13774856351E+02  0.19024828530E+02  0.59301937439E+02  0.49999987984E+02 0.  0.
         12    1    1    2    0    0 -0.21564559294E+02  0.13774856351E+02 -0.19024828530E+02  0.31886062561E+02  0.00000000000E+00 0. -1.
         11    1    3    3    0    0 -0.53479133206E+01  0.10028989447E+01  0.11509664171E+02  0.12730999677E+02  0.51100000000E-03 0. -1.
        -11    1    3    3    0    0  0.20739391468E+02 -0.70552763940E+00  0.18404541681E+02  0.27737110203E+02  0.51100000000E-03 0.  1.
        -12    1    3    3    0    0  0.61730811471E+01 -0.14072227656E+02 -0.10889377322E+02  0.18833827559E+02  0.00000000000E+00 0.  1.
</event>
<event>
 7    1  0.6963701E-013  0.5930193E+02  0.7816164E-02  0.1266605E+00
        -11   -1    0    0    0    0  0.00000000000E+00  0.00000000000E+00  0.45593999997E+02  0.45594000000E+02  0.51100000000E-03 0. -1.
         11   -1    0    0    0    0 -0.00000000000E+00 -0.00000000000E+00 -0.45593999997E+02  0.45594000000E+02  0.51100000000E-03 0.  1.
    9900012    2    1    2    0    0  0.26574100538E+02 -0.38686716771E+01 -0.17192213680E+02  0.59301927002E+02  0.49999968950E+02 0.  0.
         12    1    1    2    0    0 -0.26574100538E+02  0.38686716771E+01  0.17192213680E+02  0.31886072998E+02  0.00000000000E+00 0. -1.
         11    1    3    3    0    0 -0.21281329402E+01  0.38097704574E+01  0.48563216369E+00  0.43908017046E+01  0.51100000000E-03 0. -1.
        -11    1    3    3    0    0  0.22747060716E+02  0.11550747758E+01 -0.30611181066E+02  0.38155043906E+02  0.51100000000E-03 0.  1.
         12    1    3    3    0    0  0.59551727623E+01 -0.88335169103E+01  0.12933335222E+02  0.16756081392E+02  0.00000000000E+00 0. -1.
</event>
<event>
 7    1  0.6963701E-013  0.5930195E+02  0.7816164E-02  0.1266605E+00
        -11   -1    0    0    0    0  0.00000000000E+00  0.00000000000E+00  0.45593999997E+02  0.45594000000E+02  0.51100000000E-03 0. -1.
         11   -1    0    0    0    0 -0.00000000000E+00 -0.00000000000E+00 -0.45593999997E+02  0.45594000000E+02  0.51100000000E-03 0.  1.
    9900012    2    1    2    0    0  0.15660613120E+02  0.17092774680E+02  0.21892974673E+02  0.59301951490E+02  0.50000013609E+02 0.  0.
         12    1    1    2    0    0 -0.15660613120E+02 -0.17092774680E+02 -0.21892974673E+02  0.31886048510E+02  0.00000000000E+00 0. -1.
         11    1    3    3    0    0 -0.58323439021E+01  0.17926617319E+02  0.50423883049E+01  0.19514239005E+02  0.51100000000E-03 0. -1.
        -11    1    3    3    0    0  0.33024059065E+01  0.75064915933E+01 -0.54332160993E+01  0.98373338997E+01  0.51100000000E-03 0.  1.
        -12    1    3    3    0    0  0.18190551116E+02 -0.83403342317E+01  0.22283802467E+02  0.29950378585E+02  0.00000000000E+00 0.  1.
</event>
<event>
 7    1  0.6963701E-013  0.5930195E+02  0.7816164E-02  0.1266605E+00
        -11   -1    0    0    0    0  0.00000000000E+00  0.00000000000E+00  0.45593999997E+02  0.45594000000E+02  0.51100000000E-03 0. -1.
         11   -1    0    0    0    0 -0.00000000000E+00 -0.00000000000E+00 -0.45593999997E+02  0.45594000000E+02  0.51100000000E-03 0.  1.
    9900012    2    1    2    0    0 -0.22228121870E+02  0.22185385566E+02  0.55171969671E+01  0.59301949806E+02  0.50000010538E+02 0.  0.
         12    1    1    2    0    0  0.22228121870E+02 -0.22185385566E+02 -0.55171969671E+01  0.31886050194E+02  0.00000000000E+00 0. -1.
         11    1    3    3    0    0  0.72524516848E+01  0.71414785101E+01 -0.10329325407E+01  0.10230626601E+02  0.51100000000E-03 0. -1.
        -11    1    3    3    0    0 -0.16713167821E+02  0.20001125817E+02 -0.97072622204E+01  0.27813772715E+02  0.51100000000E-03 0.  1.
         12    1    3    3    0    0 -0.12767405734E+02 -0.49572187617E+01  0.16257391728E+02  0.21257550490E+02  0.00000000000E+00 0. -1.
</event>
<event>
 7    1  0.6963701E-013  0.5930188E+02  0.7816164E-02  0.1266605E+00
        -11   -1    0    0    0    0  0.00000000000E+00  0.00000000000E+00  0.45593999997E+02  0.45594000000E+02  0.51100000000E-03 0. -1.
         11   -1    0    0    0    0 -0.00000000000E+00 -0.00000000000E+00 -0.45593999997E+02  0.45594000000E+02  0.51100000000E-03 0.  1.
    9900012    2    1    2    0    0  0.17567573607E+02  0.92580401505E+01 -0.24947821224E+02  0.59301878666E+02  0.49999880796E+02 0.  0.
         12    1    1    2    0    0 -0.17567573607E+02 -0.92580401505E+01  0.24947821224E+02  0.31886121334E+02  0.00000000000E+00 0. -1.
         11    1    3    3    0    0 -0.69516399202E+01  0.32301562427E+01  0.61915869639E+01  0.98536772996E+01  0.51100000000E-03 0.  1.
        -11    1    3    3    0    0  0.90352098567E+00  0.26835044258E+01  0.52347452195E+01  0.59514791396E+01  0.51100000000E-03 0. -1.
        -12    1    3    3    0    0  0.23615692542E+02  0.33443794820E+01 -0.36374153408E+02  0.43496722227E+02  0.00000000000E+00 0.  1.
</event>
<event>
 7    1  0.6963701E-013  0.5930200E+02  0.7816164E-02  0.1266605E+00
        -11   -1    0    0    0    0  0.00000000000E+00  0.00000000000E+00  0.45593999997E+02  0.45594000000E+02  0.51100000000E-03 0. -1.
         11   -1    0    0    0    0 -0.00000000000E+00 -0.00000000000E+00 -0.45593999997E+02  0.45594000000E+02  0.51100000000E-03 0.  1.
    9900012    2    1    2    0    0 -0.17681329289E+02  0.24831458539E+02  0.93534125844E+01  0.59301998909E+02  0.50000100090E+02 0.  0.
         12    1    1    2    0    0  0.17681329289E+02 -0.24831458539E+02 -0.93534125844E+01  0.31886001091E+02  0.00000000000E+00 0. -1.
         11    1    3    3    0    0 -0.57205584133E+01 -0.10897180028E+02  0.85132706492E+01  0.14964928952E+02  0.51100000000E-03 0. -1.
        -11    1    3    3    0    0  0.96958191270E-01  0.20907776912E+02  0.99678369480E+01  0.23162519508E+02  0.51100000000E-03 0.  1.
        -12    1    3    3    0    0 -0.12057729067E+02  0.14820861656E+02 -0.91276950128E+01  0.21174550449E+02  0.00000000000E+00 0.  1.
</event>
<event>
 7    1  0.6963701E-013  0.5930192E+02  0.7816164E-02  0.1266605E+00
        -11   -1    0    0    0    0  0.00000000000E+00  0.00000000000E+00  0.45593999997E+02  0.45594000000E+02  0.51100000000E-03 0.  1.
         11   -1    0    0    0    0 -0.00000000000E+00 -0.00000000000E+00 -0.45593999997E+02  0.45594000000E+02  0.51100000000E-03 0. -1.
    9900012    2    1    2    0    0 -0.60334321257E+00  0.85428888160E+01  0.30714446677E+02  0.59301918287E+02  0.49999953054E+02 0.  0.
         12    1    1    2    0    0  0.60334321257E+00 -0.85428888160E+01 -0.30714446677E+02  0.31886081713E+02  0.00000000000E+00 0. -1.
         11    1    3    3    0    0 -0.39819490060E+01 -0.11263057993E+02  0.86653949239E+01  0.14758098207E+02  0.51100000000E-03 0. -1.
        -11    1    3    3    0    0 -0.52031191941E+01  0.34068693092E+01  0.25034797870E+02  0.25795742139E+02  0.51100000000E-03 0.  1.
         12    1    3    3    0    0  0.85817249875E+01  0.16399077500E+02 -0.29857461168E+01  0.18748077941E+02  0.00000000000E+00 0. -1.
</event>
<event>
 7    1  0.6963701E-013  0.5930193E+02  0.7816164E-02  0.1266605E+00
        -11   -1    0    0    0    0  0.00000000000E+00  0.00000000000E+00  0.45593999997E+02  0.45594000000E+02  0.51100000000E-03 0. -1.
         11   -1    0    0    0    0 -0.00000000000E+00 -0.00000000000E+00 -0.45593999997E+02  0.45594000000E+02  0.51100000000E-03 0.  1.
    9900012    2    1    2    0    0 -0.33671030481E+01 -0.13767691401E+01 -0.31677884453E+02  0.59301933456E+02  0.49999980721E+02 0.  0.
         12    1    1    2    0    0  0.33671030481E+01  0.13767691401E+01  0.31677884453E+02  0.31886066544E+02  0.00000000000E+00 0. -1.
         11    1    3    3    0    0 -0.20588852111E+01 -0.56108866364E+01  0.31963594322E+01  0.67777408507E+01  0.51100000000E-03 0. -1.
        -11    1    3    3    0    0 -0.17290524861E+02 -0.60490739594E+01 -0.25324290370E+02  0.31254971264E+02  0.51100000000E-03 0.  1.
         12    1    3    3    0    0  0.15982307024E+02  0.10283191456E+02 -0.95499535155E+01  0.21269221341E+02  0.00000000000E+00 0. -1.
</event>
<event>
 7    1  0.6963701E-013  0.5930196E+02  0.7816164E-02  0.1266605E+00
        -11   -1    0    0    0    0  0.00000000000E+00  0.00000000000E+00  0.45593999997E+02  0.45594000000E+02  0.51100000000E-03 0.  1.
         11   -1    0    0    0    0 -0.00000000000E+00 -0.00000000000E+00 -0.45593999997E+02  0.45594000000E+02  0.51100000000E-03 0. -1.
    9900012    2    1    2    0    0  0.26876962090E+02 -0.12695379418E+02  0.11540191226E+02  0.59301956607E+02  0.50000022941E+02 0.  0.
         12    1    1    2    0    0 -0.26876962090E+02  0.12695379418E+02 -0.11540191226E+02  0.31886043393E+02  0.00000000000E+00 0. -1.
         11    1    3    3    0    0  0.42172473336E+01 -0.53793204112E+01 -0.11618975499E+02  0.13480461976E+02  0.51100000000E-03 0. -1.
        -11    1    3    3    0    0  0.43906077622E+01  0.11396888667E+02  0.12801101670E+02  0.17692787006E+02  0.51100000000E-03 0.  1.
         12    1    3    3    0    0  0.18269106994E+02 -0.18712947673E+02  0.10358065055E+02  0.28128707625E+02  0.00000000000E+00 0. -1.
</event>
<event>
 7    1  0.6963701E-013  0.5930199E+02  0.7816164E-02  0.1266605E+00
        -11   -1    0    0    0    0  0.00000000000E+00  0.00000000000E+00  0.45593999997E+02  0.45594000000E+02  0.51100000000E-03 0. -1.
         11   -1    0    0    0    0 -0.00000000000E+00 -0.00000000000E+00 -0.45593999997E+02  0.45594000000E+02  0.51100000000E-03 0.  1.
    9900012    2    1    2    0    0 -0.14596276522E+02 -0.25962339422E+02 -0.11385230125E+02  0.59301987054E+02  0.50000078469E+02 0.  0.
         12    1    1    2    0    0  0.14596276522E+02  0.25962339422E+02  0.11385230125E+02  0.31886012946E+02  0.00000000000E+00 0. -1.
         11    1    3    3    0    0  0.13611238279E+02 -0.30470756500E+01 -0.64158294807E+01  0.15352958858E+02  0.51100000000E-03 0. -1.
        -11    1    3    3    0    0 -0.34467817468E+01 -0.16996253645E+02 -0.63122130281E+01  0.18455269598E+02  0.51100000000E-03 0.  1.
        -12    1    3    3    0    0 -0.24760733055E+02 -0.59190101274E+01  0.13428123835E+01  0.25493758597E+02  0.00000000000E+00 0.  1.
</event>
<event>
 7    1  0.6963701E-013  0.5930194E+02  0.7816164E-02  0.1266605E+00
        -11   -1    0    0    0    0  0.00000000000E+00  0.00000000000E+00  0.45593999997E+02  0.45594000000E+02  0.51100000000E-03 0.  1.
         11   -1    0    0    0    0 -0.00000000000E+00 -0.00000000000E+00 -0.45593999997E+02  0.45594000000E+02  0.51100000000E-03 0. -1.
    9900012    2    1    2    0    0  0.25372127346E+02  0.39274790281E+01  0.18909019838E+02  0.59301937703E+02  0.49999988465E+02 0.  0.
         12    1    1    2    0    0 -0.25372127346E+02 -0.39274790281E+01 -0.18909019838E+02  0.31886062297E+02  0.00000000000E+00 0. -1.
         11    1    3    3    0    0  0.43442940084E+01  0.87431441174E+01  0.31840830050E+02  0.33303962498E+02  0.51100000000E-03 0.  1.
        -11    1    3    3    0    0  0.44633461670E+01 -0.27027035706E+01 -0.59077879486E+01  0.78821332330E+01  0.51100000000E-03 0. -1.
        -12    1    3    3    0    0  0.16564487171E+02 -0.21129615186E+01 -0.70240222640E+01  0.18115841972E+02  0.00000000000E+00 0.  1.
</event>
<event>
 7    1  0.6963701E-013  0.5930196E+02  0.7816164E-02  0.1266605E+00
        -11   -1    0    0    0    0  0.00000000000E+00  0.00000000000E+00  0.45593999997E+02  0.45594000000E+02  0.51100000000E-03 0.  1.
         11   -1    0    0    0    0 -0.00000000000E+00 -0.00000000000E+00 -0.45593999997E+02  0.45594000000E+02  0.51100000000E-03 0. -1.
    9900012    2    1    2    0    0  0.43881343431E+01  0.25172539069E+02  0.19073730347E+02  0.59301958610E+02  0.50000026594E+02 0.  0.
         12    1    1    2    0    0 -0.43881343431E+01 -0.25172539069E+02 -0.19073730347E+02  0.31886041390E+02  0.00000000000E+00 0. -1.
         11    1    3    3    0    0  0.76080010272E+01 -0.10271979213E+01  0.65618187070E+00  0.77050236929E+01  0.51100000000E-03 0. -1.
        -11    1    3    3    0    0  0.59262623449E+01  0.65032217176E+01  0.26885006530E+02  0.28288090329E+02  0.51100000000E-03 0.  1.
         12    1    3    3    0    0 -0.91461290290E+01  0.19696515273E+02 -0.84674580537E+01  0.23308844587E+02  0.00000000000E+00 0. -1.
</event>
<event>
 7    1  0.6963701E-013  0.5930200E+02  0.7816164E-02  0.1266605E+00
        -11   -1    0    0    0    0  0.00000000000E+00  0.00000000000E+00  0.45593999997E+02  0.45594000000E+02  0.51100000000E-03 0.  1.
         11   -1    0    0    0    0 -0.00000000000E+00 -0.00000000000E+00 -0.45593999997E+02  0.45594000000E+02  0.51100000000E-03 0. -1.
    9900012    2    1    2    0    0  0.49366664882E+01  0.24953761907E+02  0.19226438326E+02  0.59302002446E+02  0.50000106540E+02 0.  0.
         12    1    1    2    0    0 -0.49366664882E+01 -0.24953761907E+02 -0.19226438326E+02  0.31885997554E+02  0.00000000000E+00 0. -1.
         11    1    3    3    0    0  0.29793144325E+01  0.14618798504E+02  0.14828033980E+02  0.21034642288E+02  0.51100000000E-03 0. -1.
        -11    1    3    3    0    0  0.17828612146E+02  0.53223076876E+01  0.94570588682E+01  0.20871567571E+02  0.51100000000E-03 0.  1.
         12    1    3    3    0    0 -0.15871260090E+02  0.50126557151E+01 -0.50586545226E+01  0.17395792587E+02  0.00000000000E+00 0. -1.
</event>
<event>
 7    1  0.6963701E-013  0.5930195E+02  0.7816164E-02  0.1266605E+00
        -11   -1    0    0    0    0  0.00000000000E+00  0.00000000000E+00  0.45593999997E+02  0.45594000000E+02  0.51100000000E-03 0. -1.
         11   -1    0    0    0    0 -0.00000000000E+00 -0.00000000000E+00 -0.45593999997E+02  0.45594000000E+02  0.51100000000E-03 0.  1.
    9900012    2    1    2    0    0 -0.17041299630E+02 -0.26942269312E+02 -0.65461739950E+00  0.59301948305E+02  0.50000007801E+02 0.  0.
         12    1    1    2    0    0  0.17041299630E+02  0.26942269312E+02  0.65461739950E+00  0.31886051695E+02  0.00000000000E+00 0. -1.
         11    1    3    3    0    0  0.84760549616E+01 -0.13506459302E+02 -0.86138140945E+01  0.18123623923E+02  0.51100000000E-03 0. -1.
        -11    1    3    3    0    0  0.41519116568E+01 -0.87763121045E+01  0.52136457498E+01  0.11020169092E+02  0.51100000000E-03 0.  1.
        -12    1    3    3    0    0 -0.29669266249E+02 -0.46594979048E+01  0.27455509452E+01  0.30158155289E+02  0.00000000000E+00 0.  1.
</event>
<event>
 7    1  0.6963701E-013  0.5930192E+02  0.7816164E-02  0.1266605E+00
        -11   -1    0    0    0    0  0.00000000000E+00  0.00000000000E+00  0.45593999997E+02  0.45594000000E+02  0.51100000000E-03 0. -1.
         11   -1    0    0    0    0 -0.00000000000E+00 -0.00000000000E+00 -0.45593999997E+02  0.45594000000E+02  0.51100000000E-03 0.  1.
    9900012    2    1    2    0    0  0.97549834561E+01  0.23726310223E+02 -0.18937387536E+02  0.59301919248E+02  0.49999954807E+02 0.  0.
         12    1    1    2    0    0 -0.97549834561E+01 -0.23726310223E+02  0.18937387536E+02  0.31886080752E+02  0.00000000000E+00 0. -1.
         11    1    3    3    0    0 -0.88165268423E+01 -0.30567588132E+01  0.33158395209E+01  0.99030152981E+01  0.51100000000E-03 0. -1.
        -11    1    3    3    0    0  0.69382894673E+01  0.83388028896E+00  0.60748191752E+01  0.92595164744E+01  0.51100000000E-03 0.  1.
        -12    1    3    3    0    0  0.11633220831E+02  0.25949188747E+02 -0.28328046232E+02  0.40139387475E+02  0.00000000000E+00 0.  1.
</event>
<event>
 7    1  0.6963701E-013  0.5930165E+02  0.7816164E-02  0.1266606E+00
        -11   -1    0    0    0    0  0.00000000000E+00  0.00000000000E+00  0.45593999997E+02  0.45594000000E+02  0.51100000000E-03 0.  1.
         11   -1    0    0    0    0 -0.00000000000E+00 -0.00000000000E+00 -0.45593999997E+02  0.45594000000E+02  0.51100000000E-03 0. -1.
    9900012    2    1    2    0    0  0.17389531960E+02 -0.50686597422E+00  0.26722403553E+02  0.59301645762E+02  0.49999456033E+02 0.  0.
         12    1    1    2    0    0 -0.17389531960E+02  0.50686597422E+00 -0.26722403553E+02  0.31886354238E+02  0.00000000000E+00 0. -1.
         11    1    3    3    0    0 -0.22555656128E+01  0.11879538881E+02  0.11065345403E+01  0.12142299585E+02  0.51100000000E-03 0. -1.
        -11    1    3    3    0    0 -0.69000397963E+01 -0.15801337812E+01  0.15017342116E+02  0.16602046152E+02  0.51100000000E-03 0.  1.
        -12    1    3    3    0    0  0.26545137369E+02 -0.10806271074E+02  0.10598526897E+02  0.30557300025E+02  0.00000000000E+00 0.  1.
</event>
<event>
 7    1  0.6963701E-013  0.5930195E+02  0.7816164E-02  0.1266605E+00
        -11   -1    0    0    0    0  0.00000000000E+00  0.00000000000E+00  0.45593999997E+02  0.45594000000E+02  0.51100000000E-03 0.  1.
         11   -1    0    0    0    0 -0.00000000000E+00 -0.00000000000E+00 -0.45593999997E+02  0.45594000000E+02  0.51100000000E-03 0. -1.
    9900012    2    1    2    0    0 -0.73390929848E+01  0.79182719137E+00  0.31019845520E+02  0.59301951449E+02  0.50000013534E+02 0.  0.
         12    1    1    2    0    0  0.73390929848E+01 -0.79182719137E+00 -0.31019845520E+02  0.31886048551E+02  0.00000000000E+00 0. -1.
         11    1    3    3    0    0  0.88536935158E+01  0.14174336635E+00 -0.72869820591E+01  0.11467697582E+02  0.51100000000E-03 0. -1.
        -11    1    3    3    0    0 -0.14369374254E+02 -0.79184309168E+01  0.12632617840E+02  0.20706605188E+02  0.51100000000E-03 0.  1.
        -12    1    3    3    0    0 -0.18234122461E+01  0.85685147418E+01  0.25674209739E+02  0.27127648678E+02  0.00000000000E+00 0.  1.
</event>
<event>
 7    1  0.6963701E-013  0.5930195E+02  0.7816164E-02  0.1266605E+00
        -11   -1    0    0    0    0  0.00000000000E+00  0.00000000000E+00  0.45593999997E+02  0.45594000000E+02  0.51100000000E-03 0.  1.
         11   -1    0    0    0    0 -0.00000000000E+00 -0.00000000000E+00 -0.45593999997E+02  0.45594000000E+02  0.51100000000E-03 0. -1.
    9900012    2    1    2    0    0 -0.23805095882E+02  0.17298275141E+02 -0.12280361193E+02  0.59301950012E+02  0.50000010914E+02 0.  0.
         12    1    1    2    0    0  0.23805095882E+02 -0.17298275141E+02  0.12280361193E+02  0.31886049988E+02  0.00000000000E+00 0. -1.
         11    1    3    3    0    0 -0.20190985058E+01  0.37365323727E+01  0.23592802513E+01  0.48584603027E+01  0.51100000000E-03 0. -1.
        -11    1    3    3    0    0 -0.23050557322E+02  0.16957372317E+02  0.94091214490E+01  0.30123283942E+02  0.51100000000E-03 0.  1.
         12    1    3    3    0    0  0.12645599464E+01 -0.33956295479E+01 -0.24048762893E+02  0.24320205767E+02  0.00000000000E+00 0. -1.
</event>
<event>
 7    1  0.6963701E-013  0.5930184E+02  0.7816164E-02  0.1266605E+00
        -11   -1    0    0    0    0  0.00000000000E+00  0.00000000000E+00  0.45593999997E+02  0.45594000000E+02  0.51100000000E-03 0.  1.
         11   -1    0    0    0    0 -0.00000000000E+00 -0.00000000000E+00 -0.45593999997E+02  0.45594000000E+02  0.51100000000E-03 0. -1.
    9900012    2    1    2    0    0 -0.15457135685E+02  0.25667652028E+02  0.10907593051E+02  0.59301843280E+02  0.49999816260E+02 0.  0.
         12    1    1    2    0    0  0.15457135685E+02 -0.25667652028E+02 -0.10907593051E+02  0.31886156720E+02  0.00000000000E+00 0. -1.
         11    1    3    3    0    0  0.32870879805E+01  0.92239856296E+01  0.17204002369E+01  0.99421645290E+01  0.51100000000E-03 0. -1.
        -11    1    3    3    0    0 -0.79656930668E+01  0.29990978551E+02  0.40020310866E+01  0.31287814138E+02  0.51100000000E-03 0.  1.
         12    1    3    3    0    0 -0.10778530599E+02 -0.13547312153E+02  0.51851617275E+01  0.18071864613E+02  0.00000000000E+00 0. -1.
</event>
<event>
 7    1  0.6963701E-013  0.5930195E+02  0.7816164E-02  0.1266605E+00
        -11   -1    0    0    0    0  0.00000000000E+00  0.00000000000E+00  0.45593999997E+02  0.45594000000E+02  0.51100000000E-03 0.  1.
         11   -1    0    0    0    0 -0.00000000000E+00 -0.00000000000E+00 -0.45593999997E+02  0.45594000000E+02  0.51100000000E-03 0. -1.
    9900012    2    1    2    0    0  0.16512582417E+02  0.63930481614E+01  0.26517613719E+02  0.59301948500E+02  0.50000008157E+02 0.  0.
         12    1    1    2    0    0 -0.16512582417E+02 -0.63930481614E+01 -0.26517613719E+02  0.31886051500E+02  0.00000000000E+00 0. -1.
         11    1    3    3    0    0  0.10752791212E+02  0.16908379349E+02  0.10877675431E+02  0.22799991976E+02  0.51100000000E-03 0. -1.
        -11    1    3    3    0    0 -0.13609753232E+00  0.10823200579E+02  0.45502323730E+01  0.11741584571E+02  0.51100000000E-03 0.  1.
         12    1    3    3    0    0  0.58958887375E+01 -0.21338531767E+02  0.11089705915E+02  0.24760371953E+02  0.00000000000E+00 0. -1.
</event>
<event>
 7    1  0.6963701E-013  0.5930197E+02  0.7816164E-02  0.1266605E+00
        -11   -1    0    0    0    0  0.00000000000E+00  0.00000000000E+00  0.45593999997E+02  0.45594000000E+02  0.51100000000E-03 0.  1.
         11   -1    0    0    0    0 -0.00000000000E+00 -0.00000000000E+00 -0.45593999997E+02  0.45594000000E+02  0.51100000000E-03 0. -1.
    9900012    2    1    2    0    0 -0.85480460645E+01  0.22620103251E+02  0.20784139111E+02  0.59301974830E+02  0.50000056175E+02 0.  0.
         12    1    1    2    0    0  0.85480460645E+01 -0.22620103251E+02 -0.20784139111E+02  0.31886025170E+02  0.00000000000E+00 0. -1.
         11    1    3    3    0    0 -0.26143767852E+01 -0.37535006671E+01 -0.37669333462E+01  0.59256662350E+01  0.51100000000E-03 0. -1.
        -11    1    3    3    0    0  0.24737675483E+01  0.35037743339E+02  0.16096739093E+02  0.38637649953E+02  0.51100000000E-03 0.  1.
         12    1    3    3    0    0 -0.84074368276E+01 -0.86641394216E+01  0.84543333643E+01  0.14738658642E+02  0.00000000000E+00 0. -1.
</event>
<event>
 7    1  0.6963701E-013  0.5930195E+02  0.7816164E-02  0.1266605E+00
        -11   -1    0    0    0    0  0.00000000000E+00  0.00000000000E+00  0.45593999997E+02  0.45594000000E+02  0.51100000000E-03 0.  1.
         11   -1    0    0    0    0 -0.00000000000E+00 -0.00000000000E+00 -0.45593999997E+02  0.45594000000E+02  0.51100000000E-03 0. -1.
    9900012    2    1    2    0    0 -0.92813266567E+01 -0.27009764154E+02  0.14179210950E+02  0.59301946508E+02  0.50000004523E+02 0.  0.
         12    1    1    2    0    0  0.92813266567E+01  0.27009764154E+02 -0.14179210950E+02  0.31886053492E+02  0.00000000000E+00 0. -1.
         11    1    3    3    0    0 -0.47654069564E+00 -0.39041244619E+02  0.19130800293E+02  0.43479114441E+02  0.51100000000E-03 0.  1.
        -11    1    3    3    0    0 -0.28858679642E+01  0.39576339373E+01 -0.70575128664E+00  0.49486549110E+01  0.51100000000E-03 0. -1.
        -12    1    3    3    0    0 -0.59189179968E+01  0.80738465285E+01 -0.42458380559E+01  0.10874177156E+02  0.00000000000E+00 0.  1.
</event>
<event>
 7    1  0.6963701E-013  0.5930197E+02  0.7816164E-02  0.1266605E+00
        -11   -1    0    0    0    0  0.00000000000E+00  0.00000000000E+00  0.45593999997E+02  0.45594000000E+02  0.51100000000E-03 0.  1.
         11   -1    0    0    0    0 -0.00000000000E+00 -0.00000000000E+00 -0.45593999997E+02  0.45594000000E+02  0.51100000000E-03 0. -1.
    9900012    2    1    2    0    0 -0.18088965626E+02  0.94332572950E+01  0.24505552959E+02  0.59301966279E+02  0.50000040581E+02 0.  0.
         12    1    1    2    0    0  0.18088965626E+02 -0.94332572950E+01 -0.24505552959E+02  0.31886033721E+02  0.00000000000E+00 0. -1.
         11    1    3    3    0    0 -0.22276770254E+01  0.24850274692E+01  0.46750012623E+01  0.57440006542E+01  0.51100000000E-03 0. -1.
        -11    1    3    3    0    0 -0.20274586713E+02 -0.76454707103E+01  0.28667879659E+02  0.35935489605E+02  0.51100000000E-03 0.  1.
         12    1    3    3    0    0  0.44132981126E+01  0.14593700536E+02 -0.88373279617E+01  0.17622476020E+02  0.00000000000E+00 0. -1.
</event>
<event>
 7    1  0.6963701E-013  0.5930194E+02  0.7816164E-02  0.1266605E+00
        -11   -1    0    0    0    0  0.00000000000E+00  0.00000000000E+00  0.45593999997E+02  0.45594000000E+02  0.51100000000E-03 0. -1.
         11   -1    0    0    0    0 -0.00000000000E+00 -0.00000000000E+00 -0.45593999997E+02  0.45594000000E+02  0.51100000000E-03 0.  1.
    9900012    2    1    2    0    0 -0.27014214368E+02  0.70391432581E+01  0.15407910025E+02  0.59301937103E+02  0.49999987371E+02 0.  0.
         12    1    1    2    0    0  0.27014214368E+02 -0.70391432581E+01 -0.15407910025E+02  0.31886062897E+02  0.00000000000E+00 0. -1.
         11    1    3    3    0    0 -0.22176276870E+02  0.14277233329E+01 -0.24762458645E+01  0.22359728164E+02  0.51100000000E-03 0. -1.
        -11    1    3    3    0    0 -0.11053821588E+02 -0.95198926257E+01  0.13801255561E+02  0.20082081133E+02  0.51100000000E-03 0.  1.
        -12    1    3    3    0    0  0.62158840896E+01  0.15131312551E+02  0.40829003283E+01  0.16860127806E+02  0.00000000000E+00 0.  1.
</event>
<event>
 7    1  0.6963701E-013  0.5930196E+02  0.7816164E-02  0.1266605E+00
        -11   -1    0    0    0    0  0.00000000000E+00  0.00000000000E+00  0.45593999997E+02  0.45594000000E+02  0.51100000000E-03 0.  1.
         11   -1    0    0    0    0 -0.00000000000E+00 -0.00000000000E+00 -0.45593999997E+02  0.45594000000E+02  0.51100000000E-03 0. -1.
    9900012    2    1    2    0    0 -0.13463103959E+02 -0.58095313233E+01  0.28314552294E+02  0.59301957693E+02  0.50000024922E+02 0.  0.
         12    1    1    2    0    0  0.13463103959E+02  0.58095313233E+01 -0.28314552294E+02  0.31886042307E+02  0.00000000000E+00 0. -1.
         11    1    3    3    0    0  0.16721099891E+01 -0.17853651866E+02 -0.36877217981E+00  0.17935574425E+02  0.51100000000E-03 0. -1.
        -11    1    3    3    0    0 -0.12134303544E+02  0.52816299609E+01  0.16469695626E+01  0.13336020642E+02  0.51100000000E-03 0.  1.
        -12    1    3    3    0    0 -0.30009104038E+01  0.67624905815E+01  0.27036354911E+02  0.28030362627E+02  0.00000000000E+00 0.  1.
</event>
<event>
 7    1  0.6963701E-013  0.5930187E+02  0.7816164E-02  0.1266605E+00
        -11   -1    0    0    0    0  0.00000000000E+00  0.00000000000E+00  0.45593999997E+02  0.45594000000E+02  0.51100000000E-03 0.  1.
         11   -1    0    0    0    0 -0.00000000000E+00 -0.00000000000E+00 -0.45593999997E+02  0.45594000000E+02  0.51100000000E-03 0. -1.
    9900012    2    1    2    0    0 -0.71274368214E+00  0.27099888712E+02  0.16787303119E+02  0.59301866371E+02  0.49999858373E+02 0.  0.
         12    1    1    2    0    0  0.71274368214E+00 -0.27099888712E+02 -0.16787303119E+02  0.31886133629E+02  0.00000000000E+00 0. -1.
         11    1    3    3    0    0 -0.78335476201E+01  0.17953151714E+02  0.48965702220E+01  0.20190505813E+02  0.51100000000E-03 0. -1.
        -11    1    3    3    0    0 -0.12316867583E+01  0.13820387441E+02  0.21474321240E+02  0.25566905058E+02  0.51100000000E-03 0.  1.
         12    1    3    3    0    0  0.83524906962E+01 -0.46736504427E+01 -0.95835883423E+01  0.13544455501E+02  0.00000000000E+00 0. -1.
</event>
<event>
 7    1  0.6963701E-013  0.5930196E+02  0.7816164E-02  0.1266605E+00
        -11   -1    0    0    0    0  0.00000000000E+00  0.00000000000E+00  0.45593999997E+02  0.45594000000E+02  0.51100000000E-03 0.  1.
         11   -1    0    0    0    0 -0.00000000000E+00 -0.00000000000E+00 -0.45593999997E+02  0.45594000000E+02  0.51100000000E-03 0. -1.
    9900012    2    1    2    0    0  0.84864799104E+01 -0.13708133983E+02  0.27509742927E+02  0.59301964899E+02  0.50000038064E+02 0.  0.
         12    1    1    2    0    0 -0.84864799104E+01  0.13708133983E+02 -0.27509742927E+02  0.31886035101E+02  0.00000000000E+00 0. -1.
         11    1    3    3    0    0  0.24171245529E+01  0.34371145030E+01  0.82816101022E+00  0.42827675784E+01  0.51100000000E-03 0. -1.
        -11    1    3    3    0    0  0.80005127513E+01 -0.61571896876E+01  0.37885769650E+02  0.39207789167E+02  0.51100000000E-03 0.  1.
         12    1    3    3    0    0 -0.19311573938E+01 -0.10988058798E+02 -0.11204187733E+02  0.15811408153E+02  0.00000000000E+00 0. -1.
</event>
<event>
 7    1  0.6963701E-013  0.5930215E+02  0.7816164E-02  0.1266604E+00
        -11   -1    0    0    0    0  0.00000000000E+00  0.00000000000E+00  0.45593999997E+02  0.45594000000E+02  0.51100000000E-03 0.  1.
         11   -1    0    0    0    0 -0.00000000000E+00 -0.00000000000E+00 -0.45593999997E+02  0.45594000000E+02  0.51100000000E-03 0. -1.
    9900012    2    1    2    0    0 -0.15222441882E+02 -0.38700883211E+01  0.27749000621E+02  0.59302151165E+02  0.50000377768E+02 0.  0.
         12    1    1    2    0    0  0.15222441882E+02  0.38700883211E+01 -0.27749000621E+02  0.31885848835E+02  0.00000000000E+00 0. -1.
         11    1    3    3    0    0 -0.21811426685E+02 -0.12198885278E+02  0.16688096170E+01  0.25046677661E+02  0.51100000000E-03 0. -1.
        -11    1    3    3    0    0  0.57285398062E+01 -0.27305317462E+01  0.49049972490E+00  0.63649479314E+01  0.51100000000E-03 0.  1.
        -12    1    3    3    0    0  0.86044499692E+00  0.11059328704E+02  0.25589691279E+02  0.27890525572E+02  0.00000000000E+00 0.  1.
</event>
<event>
 7    1  0.6963701E-013  0.5930195E+02  0.7816164E-02  0.1266605E+00
        -11   -1    0    0    0    0  0.00000000000E+00  0.00000000000E+00  0.45593999997E+02  0.45594000000E+02  0.51100000000E-03 0. -1.
         11   -1    0    0    0    0 -0.00000000000E+00 -0.00000000000E+00 -0.45593999997E+02  0.45594000000E+02  0.51100000000E-03 0.  1.
    9900012    2    1    2    0    0  0.74580562504E+01  0.30770126865E+02 -0.37811614290E+01  0.59301945178E+02  0.50000002098E+02 0.  0.
         12    1    1    2    0    0 -0.74580562504E+01 -0.30770126865E+02  0.37811614290E+01  0.31886054822E+02  0.00000000000E+00 0. -1.
         11    1    3    3    0    0  0.48976778414E+01  0.11947140546E+02  0.19018693258E+02  0.22987651227E+02  0.51100000000E-03 0. -1.
        -11    1    3    3    0    0  0.97604654726E+01  0.91895128701E+01 -0.39877527525E+01  0.13986279180E+02  0.51100000000E-03 0.  1.
         12    1    3    3    0    0 -0.72000870635E+01  0.96334734495E+01 -0.18812101934E+02  0.22328014771E+02  0.00000000000E+00 0. -1.
</event>
<event>
 7    1  0.6963701E-013  0.5930194E+02  0.7816164E-02  0.1266605E+00
        -11   -1    0    0    0    0  0.00000000000E+00  0.00000000000E+00  0.45593999997E+02  0.45594000000E+02  0.51100000000E-03 0. -1.
         11   -1    0    0    0    0 -0.00000000000E+00 -0.00000000000E+00 -0.45593999997E+02  0.45594000000E+02  0.51100000000E-03 0.  1.
    9900012    2    1    2    0    0 -0.23722713027E+02  0.13268514723E+02 -0.16670334615E+02  0.59301942663E+02  0.49999997512E+02 0.  0.
         12    1    1    2    0    0  0.23722713027E+02 -0.13268514723E+02  0.16670334615E+02  0.31886057337E+02  0.00000000000E+00 0. -1.
         11    1    3    3    0    0 -0.33427158641E+00  0.11072988439E+02 -0.33784960735E+01  0.11581754895E+02  0.51100000000E-03 0. -1.
        -11    1    3    3    0    0 -0.14573968425E+02  0.20711092124E+02 -0.72768706336E+01  0.26349625027E+02  0.51100000000E-03 0.  1.
        -12    1    3    3    0    0 -0.88144730159E+01 -0.18515565840E+02 -0.60149679077E+01  0.21370562741E+02  0.00000000000E+00 0.  1.
</event>
<event>
 7    1  0.6963701E-013  0.5930189E+02  0.7816164E-02  0.1266605E+00
        -11   -1    0    0    0    0  0.00000000000E+00  0.00000000000E+00  0.45593999997E+02  0.45594000000E+02  0.51100000000E-03 0. -1.
         11   -1    0    0    0    0 -0.00000000000E+00 -0.00000000000E+00 -0.45593999997E+02  0.45594000000E+02  0.51100000000E-03 0.  1.
    9900012    2    1    2    0    0  0.89168583278E+01 -0.13985661228E+02 -0.27232613517E+02  0.59301885132E+02  0.49999892588E+02 0.  0.
         12    1    1    2    0    0 -0.89168583278E+01  0.13985661228E+02  0.27232613517E+02  0.31886114868E+02  0.00000000000E+00 0. -1.
         11    1    3    3    0    0 -0.25290181290E+01 -0.22020422010E+02 -0.10805892849E+02  0.24658918036E+02  0.51100000000E-03 0.  1.
        -11    1    3    3    0    0  0.84826043784E+01  0.21748269690E+01 -0.23447811014E+02  0.25029668216E+02  0.51100000000E-03 0. -1.
         12    1    3    3    0    0  0.29632720784E+01  0.58599338124E+01  0.70210903468E+01  0.96132988799E+01  0.00000000000E+00 0. -1.
</event>
<event>
 7    1  0.6963701E-013  0.5930193E+02  0.7816164E-02  0.1266605E+00
        -11   -1    0    0    0    0  0.00000000000E+00  0.00000000000E+00  0.45593999997E+02  0.45594000000E+02  0.51100000000E-03 0.  1.
         11   -1    0    0    0    0 -0.00000000000E+00 -0.00000000000E+00 -0.45593999997E+02  0.45594000000E+02  0.51100000000E-03 0. -1.
    9900012    2    1    2    0    0 -0.31323794744E+01  0.24513383466E+02  0.20149530879E+02  0.59301931494E+02  0.49999977142E+02 0.  0.
         12    1    1    2    0    0  0.31323794744E+01 -0.24513383466E+02 -0.20149530879E+02  0.31886068506E+02  0.00000000000E+00 0. -1.
         11    1    3    3    0    0 -0.96295648229E+01  0.62882880819E+01  0.57265719862E+01  0.12847751268E+02  0.51100000000E-03 0. -1.
        -11    1    3    3    0    0  0.72177921526E+01  0.30398290300E+02  0.65016580964E+01  0.31912758186E+02  0.51100000000E-03 0.  1.
         12    1    3    3    0    0 -0.72060680407E+00 -0.12173194916E+02  0.79213007966E+01  0.14541422040E+02  0.00000000000E+00 0. -1.
</event>
<event>
 7    1  0.6963701E-013  0.5930197E+02  0.7816164E-02  0.1266605E+00
        -11   -1    0    0    0    0  0.00000000000E+00  0.00000000000E+00  0.45593999997E+02  0.45594000000E+02  0.51100000000E-03 0. -1.
         11   -1    0    0    0    0 -0.00000000000E+00 -0.00000000000E+00 -0.45593999997E+02  0.45594000000E+02  0.51100000000E-03 0.  1.
    9900012    2    1    2    0    0  0.16354680015E+02  0.21729892008E+02  0.16644971720E+02  0.59301970950E+02  0.50000049099E+02 0.  0.
         12    1    1    2    0    0 -0.16354680015E+02 -0.21729892008E+02 -0.16644971720E+02  0.31886029050E+02  0.00000000000E+00 0. -1.
         11    1    3    3    0    0  0.58550000068E+01  0.15679768567E+02  0.45330635884E+01  0.17340266236E+02  0.51100000000E-03 0. -1.
        -11    1    3    3    0    0  0.78294543735E+01  0.18390125193E+02 -0.50884095749E+01  0.20624959943E+02  0.51100000000E-03 0.  1.
         12    1    3    3    0    0  0.26702256343E+01 -0.12340001752E+02  0.17200317706E+02  0.21336744770E+02  0.00000000000E+00 0. -1.
</event>
<event>
 7    1  0.6963701E-013  0.5930187E+02  0.7816164E-02  0.1266605E+00
        -11   -1    0    0    0    0  0.00000000000E+00  0.00000000000E+00  0.45593999997E+02  0.45594000000E+02  0.51100000000E-03 0.  1.
         11   -1    0    0    0    0 -0.00000000000E+00 -0.00000000000E+00 -0.45593999997E+02  0.45594000000E+02  0.51100000000E-03 0. -1.
    9900012    2    1    2    0    0 -0.54662871024E+01  0.50569051513E+01  0.31004403179E+02  0.59301865069E+02  0.49999855997E+02 0.  0.
         12    1    1    2    0    0  0.54662871024E+01 -0.50569051513E+01 -0.31004403179E+02  0.31886134931E+02  0.00000000000E+00 0. -1.
         11    1    3    3    0    0  0.12253955021E+02 -0.71741865787E+01  0.17084927027E+02  0.22215379774E+02  0.51100000000E-03 0. -1.
        -11    1    3    3    0    0 -0.24487839532E+01 -0.11327656413E+01 -0.72654823198E+01  0.77502860881E+01  0.51100000000E-03 0.  1.
        -12    1    3    3    0    0 -0.15271458170E+02  0.13363857371E+02  0.21184958472E+02  0.29336199207E+02  0.00000000000E+00 0.  1.
</event>
<event>
 7    1  0.6963701E-013  0.5930194E+02  0.7816164E-02  0.1266605E+00
        -11   -1    0    0    0    0  0.00000000000E+00  0.00000000000E+00  0.45593999997E+02  0.45594000000E+02  0.51100000000E-03 0.  1.
         11   -1    0    0    0    0 -0.00000000000E+00 -0.00000000000E+00 -0.45593999997E+02  0.45594000000E+02  0.51100000000E-03 0. -1.
    9900012    2    1    2    0    0 -0.99513308489E+01 -0.30281646878E+02  0.84485255170E+00  0.59301938795E+02  0.49999990458E+02 0.  0.
         12    1    1    2    0    0  0.99513308489E+01  0.30281646878E+02 -0.84485255170E+00  0.31886061205E+02  0.00000000000E+00 0. -1.
         11    1    3    3    0    0 -0.98313639996E+01  0.83735979010E+01 -0.21758647296E+01  0.13096077561E+02  0.51100000000E-03 0. -1.
        -11    1    3    3    0    0 -0.92786113191E+01 -0.75090684878E+01 -0.47119706155E+01  0.12832825289E+02  0.51100000000E-03 0.  1.
        -12    1    3    3    0    0  0.91586444698E+01 -0.31146176291E+02  0.77326878969E+01  0.33373035945E+02  0.00000000000E+00 0.  1.
</event>
<event>
 7    1  0.6963701E-013  0.5930196E+02  0.7816164E-02  0.1266605E+00
        -11   -1    0    0    0    0  0.00000000000E+00  0.00000000000E+00  0.45593999997E+02  0.45594000000E+02  0.51100000000E-03 0. -1.
         11   -1    0    0    0    0 -0.00000000000E+00 -0.00000000000E+00 -0.45593999997E+02  0.45594000000E+02  0.51100000000E-03 0.  1.
    9900012    2    1    2    0    0 -0.31428872536E+02 -0.53728137722E+01 -0.27968488293E+00  0.59301962611E+02  0.50000033892E+02 0.  0.
         12    1    1    2    0    0  0.31428872536E+02  0.53728137722E+01  0.27968488293E+00  0.31886037389E+02  0.00000000000E+00 0. -1.
         11    1    3    3    0    0 -0.20111849322E+02  0.35320585361E+01 -0.17309451445E+02  0.26768993822E+02  0.51100000000E-03 0. -1.
        -11    1    3    3    0    0 -0.24408227377E-01 -0.71544175834E+01 -0.42911722295E+01  0.83426881809E+01  0.51100000000E-03 0.  1.
         12    1    3    3    0    0 -0.11292614987E+02 -0.17504547249E+01  0.21320938791E+02  0.24190280608E+02  0.00000000000E+00 0. -1.
</event>
<event>
 7    1  0.6963701E-013  0.5930193E+02  0.7816164E-02  0.1266605E+00
        -11   -1    0    0    0    0  0.00000000000E+00  0.00000000000E+00  0.45593999997E+02  0.45594000000E+02  0.51100000000E-03 0. -1.
         11   -1    0    0    0    0 -0.00000000000E+00 -0.00000000000E+00 -0.45593999997E+02  0.45594000000E+02  0.51100000000E-03 0.  1.
    9900012    2    1    2    0    0  0.14293492464E+02  0.15521328430E+02 -0.23906183907E+02  0.59301934202E+02  0.49999982081E+02 0.  0.
         12    1    1    2    0    0 -0.14293492464E+02 -0.15521328430E+02  0.23906183907E+02  0.31886065798E+02  0.00000000000E+00 0. -1.
         11    1    3    3    0    0  0.31986375835E+00  0.24448015328E+01 -0.72741474429E+01  0.76806632944E+01  0.51100000000E-03 0.  1.
        -11    1    3    3    0    0  0.27744020665E+02  0.19181720792E+02 -0.10157257727E+02  0.35225544425E+02  0.51100000000E-03 0. -1.
         12    1    3    3    0    0 -0.13770391960E+02 -0.61051938948E+01 -0.64747787371E+01  0.16395726483E+02  0.00000000000E+00 0. -1.
</event>
<event>
 7    1  0.6963701E-013  0.5930201E+02  0.7816164E-02  0.1266605E+00
        -11   -1    0    0    0    0  0.00000000000E+00  0.00000000000E+00  0.45593999997E+02  0.45594000000E+02  0.51100000000E-03 0.  1.
         11   -1    0    0    0    0 -0.00000000000E+00 -0.00000000000E+00 -0.45593999997E+02  0.45594000000E+02  0.51100000000E-03 0. -1.
    9900012    2    1    2    0    0 -0.12226956684E+02 -0.23331408598E+02  0.17968392997E+02  0.59302011795E+02  0.50000123592E+02 0.  0.
         12    1    1    2    0    0  0.12226956684E+02  0.23331408598E+02 -0.17968392997E+02  0.31885988205E+02  0.00000000000E+00 0. -1.
         11    1    3    3    0    0 -0.32330910289E+01 -0.23771837418E+02 -0.63985112577E+01  0.24829298790E+02  0.51100000000E-03 0. -1.
        -11    1    3    3    0    0 -0.34502109273E+01 -0.10960393315E+02  0.13887945959E+02  0.18025238425E+02  0.51100000000E-03 0.  1.
        -12    1    3    3    0    0 -0.55436547279E+01  0.11400822135E+02  0.10478958296E+02  0.16447474580E+02  0.00000000000E+00 0.  1.
</event>
<event>
 7    1  0.6963701E-013  0.5930195E+02  0.7816164E-02  0.1266605E+00
        -11   -1    0    0    0    0  0.00000000000E+00  0.00000000000E+00  0.45593999997E+02  0.45594000000E+02  0.51100000000E-03 0.  1.
         11   -1    0    0    0    0 -0.00000000000E+00 -0.00000000000E+00 -0.45593999997E+02  0.45594000000E+02  0.51100000000E-03 0. -1.
    9900012    2    1    2    0    0 -0.20717102839E+01  0.16019640202E+02  0.27491801609E+02  0.59301952716E+02  0.50000015845E+02 0.  0.
         12    1    1    2    0    0  0.20717102839E+01 -0.16019640202E+02 -0.27491801609E+02  0.31886047284E+02  0.00000000000E+00 0. -1.
         11    1    3    3    0    0  0.13511693895E+02  0.39927170398E+01  0.16931056993E+02  0.22026537459E+02  0.51100000000E-03 0. -1.
        -11    1    3    3    0    0 -0.70253186944E+00  0.95278960335E+00  0.17448493564E+02  0.17488604489E+02  0.51100000000E-03 0.  1.
         12    1    3    3    0    0 -0.14880872309E+02  0.11074133559E+02 -0.68877489485E+01  0.19786810768E+02  0.00000000000E+00 0. -1.
</event>
<event>
 7    1  0.6963701E-013  0.5930196E+02  0.7816164E-02  0.1266605E+00
        -11   -1    0    0    0    0  0.00000000000E+00  0.00000000000E+00  0.45593999997E+02  0.45594000000E+02  0.51100000000E-03 0.  1.
         11   -1    0    0    0    0 -0.00000000000E+00 -0.00000000000E+00 -0.45593999997E+02  0.45594000000E+02  0.51100000000E-03 0. -1.
    9900012    2    1    2    0    0  0.25802432886E+01  0.10270850097E+02  0.30076097312E+02  0.59301958436E+02  0.50000026277E+02 0.  0.
         12    1    1    2    0    0 -0.25802432886E+01 -0.10270850097E+02 -0.30076097312E+02  0.31886041564E+02  0.00000000000E+00 0. -1.
         11    1    3    3    0    0  0.12770666029E+02  0.14396674624E+02  0.68478402181E+01  0.20426626422E+02  0.51100000000E-03 0. -1.
        -11    1    3    3    0    0  0.84985752200E+01  0.55084085437E+01  0.81923225636E+01  0.13026223348E+02  0.51100000000E-03 0.  1.
        -12    1    3    3    0    0 -0.18688997961E+02 -0.96342330712E+01  0.15035934530E+02  0.25849108666E+02  0.00000000000E+00 0.  1.
</event>
<event>
 7    1  0.6963701E-013  0.5930193E+02  0.7816164E-02  0.1266605E+00
        -11   -1    0    0    0    0  0.00000000000E+00  0.00000000000E+00  0.45593999997E+02  0.45594000000E+02  0.51100000000E-03 0.  1.
         11   -1    0    0    0    0 -0.00000000000E+00 -0.00000000000E+00 -0.45593999997E+02  0.45594000000E+02  0.51100000000E-03 0. -1.
    9900012    2    1    2    0    0 -0.19495381231E+02  0.25143340784E+02 -0.21127781175E+01  0.59301932408E+02  0.49999978809E+02 0.  0.
         12    1    1    2    0    0  0.19495381231E+02 -0.25143340784E+02  0.21127781175E+01  0.31886067592E+02  0.00000000000E+00 0. -1.
         11    1    3    3    0    0 -0.81881710233E+01 -0.89995154049E+01 -0.10319083696E+02  0.15953711506E+02  0.51100000000E-03 0. -1.
        -11    1    3    3    0    0  0.35891199314E+01 -0.13515092162E+01  0.21028819566E+01  0.43738394836E+01  0.51100000000E-03 0.  1.
        -12    1    3    3    0    0 -0.14896330139E+02  0.35494365405E+02  0.61034236215E+01  0.38974381419E+02  0.00000000000E+00 0.  1.
</event>
<event>
 7    1  0.6963701E-013  0.5930195E+02  0.7816164E-02  0.1266605E+00
        -11   -1    0    0    0    0  0.00000000000E+00  0.00000000000E+00  0.45593999997E+02  0.45594000000E+02  0.51100000000E-03 0.  1.
         11   -1    0    0    0    0 -0.00000000000E+00 -0.00000000000E+00 -0.45593999997E+02  0.45594000000E+02  0.51100000000E-03 0. -1.
    9900012    2    1    2    0    0  0.26627088209E+00 -0.21057113056E+02  0.23942589024E+02  0.59301945374E+02  0.50000002455E+02 0.  0.
         12    1    1    2    0    0 -0.26627088209E+00  0.21057113056E+02 -0.23942589024E+02  0.31886054626E+02  0.00000000000E+00 0. -1.
         11    1    3    3    0    0  0.10548209556E+02  0.68148556874E+01  0.91577542767E+01  0.15542568852E+02  0.51100000000E-03 0. -1.
        -11    1    3    3    0    0 -0.54941942786E+01 -0.26565642601E+02  0.22051460763E+02  0.34959783461E+02  0.51100000000E-03 0.  1.
         12    1    3    3    0    0 -0.47877443951E+01 -0.13063261426E+01 -0.72666260160E+01  0.87995930610E+01  0.00000000000E+00 0. -1.
</event>
<event>
 7    1  0.6963701E-013  0.5930186E+02  0.7816164E-02  0.1266605E+00
        -11   -1    0    0    0    0  0.00000000000E+00  0.00000000000E+00  0.45593999997E+02  0.45594000000E+02  0.51100000000E-03 0.  1.
         11   -1    0    0    0    0 -0.00000000000E+00 -0.00000000000E+00 -0.45593999997E+02  0.45594000000E+02  0.51100000000E-03 0. -1.
    9900012    2    1    2    0    0  0.11861935305E+02  0.22352610868E+02  0.19400547007E+02  0.59301859658E+02  0.49999846129E+02 0.  0.
         12    1    1    2    0    0 -0.11861935305E+02 -0.22352610868E+02 -0.19400547007E+02  0.31886140342E+02  0.00000000000E+00 0. -1.
         11    1    3    3    0    0  0.23227118139E+02  0.66752037740E+01  0.16296091024E+01  0.24222159040E+02  0.51100000000E-03 0. -1.
        -11    1    3    3    0    0  0.52943627051E+01 -0.14773375506E+01  0.37634515326E+00  0.55094862399E+01  0.51100000000E-03 0.  1.
         12    1    3    3    0    0 -0.16659545539E+02  0.17154744645E+02  0.17394592751E+02  0.29570214378E+02  0.00000000000E+00 0. -1.
</event>
<event>
 7    1  0.6963701E-013  0.5930195E+02  0.7816164E-02  0.1266605E+00
        -11   -1    0    0    0    0  0.00000000000E+00  0.00000000000E+00  0.45593999997E+02  0.45594000000E+02  0.51100000000E-03 0. -1.
         11   -1    0    0    0    0 -0.00000000000E+00 -0.00000000000E+00 -0.45593999997E+02  0.45594000000E+02  0.51100000000E-03 0.  1.
    9900012    2    1    2    0    0 -0.30352600015E+02  0.13816987958E+01 -0.96711176080E+01  0.59301953914E+02  0.50000018030E+02 0.  0.
         12    1    1    2    0    0  0.30352600015E+02 -0.13816987958E+01  0.96711176080E+01  0.31886046086E+02  0.00000000000E+00 0. -1.
         11    1    3    3    0    0  0.59046189583E+01  0.30579898211E+01  0.25046663546E+01  0.71055739105E+01  0.51100000000E-03 0. -1.
        -11    1    3    3    0    0 -0.16632116676E+02 -0.12583675545E+02  0.76784283234E+01  0.22224636265E+02  0.51100000000E-03 0.  1.
        -12    1    3    3    0    0 -0.19625102297E+02  0.10907384519E+02 -0.19854212286E+02  0.29971743738E+02  0.00000000000E+00 0.  1.
</event>
<event>
 7    1  0.6963701E-013  0.5930195E+02  0.7816164E-02  0.1266605E+00
        -11   -1    0    0    0    0  0.00000000000E+00  0.00000000000E+00  0.45593999997E+02  0.45594000000E+02  0.51100000000E-03 0.  1.
         11   -1    0    0    0    0 -0.00000000000E+00 -0.00000000000E+00 -0.45593999997E+02  0.45594000000E+02  0.51100000000E-03 0. -1.
    9900012    2    1    2    0    0 -0.28276810854E+02 -0.13616513875E+02  0.56331595833E+01  0.59301953380E+02  0.50000017056E+02 0.  0.
         12    1    1    2    0    0  0.28276810854E+02  0.13616513875E+02 -0.56331595833E+01  0.31886046620E+02  0.00000000000E+00 0. -1.
         11    1    3    3    0    0 -0.48651777494E+01 -0.13165658659E+02  0.75190053742E+00  0.14055955219E+02  0.51100000000E-03 0.  1.
        -11    1    3    3    0    0 -0.53970716106E+01 -0.51533986359E+01 -0.15766742451E+02  0.17443510749E+02  0.51100000000E-03 0. -1.
        -12    1    3    3    0    0 -0.18014561494E+02  0.47025434199E+01  0.20648001497E+02  0.27802487411E+02  0.00000000000E+00 0.  1.
</event>
<event>
 7    1  0.6963701E-013  0.5930179E+02  0.7816164E-02  0.1266605E+00
        -11   -1    0    0    0    0  0.00000000000E+00  0.00000000000E+00  0.45593999997E+02  0.45594000000E+02  0.51100000000E-03 0.  1.
         11   -1    0    0    0    0 -0.00000000000E+00 -0.00000000000E+00 -0.45593999997E+02  0.45594000000E+02  0.51100000000E-03 0. -1.
    9900012    2    1    2    0    0 -0.94926107989E+01  0.25990724172E+02  0.15846222061E+02  0.59301793635E+02  0.49999725718E+02 0.  0.
         12    1    1    2    0    0  0.94926107989E+01 -0.25990724172E+02 -0.15846222061E+02  0.31886206365E+02  0.00000000000E+00 0. -1.
         11    1    3    3    0    0  0.50962721901E+01 -0.41778303702E+01 -0.81037450891E+01  0.10444948136E+02  0.51100000000E-03 0. -1.
        -11    1    3    3    0    0 -0.12049685504E+02  0.86250666823E+01  0.22725163824E+02  0.27129684243E+02  0.51100000000E-03 0.  1.
         12    1    3    3    0    0 -0.25391974848E+01  0.21543487860E+02  0.12248033263E+01  0.21727161255E+02  0.00000000000E+00 0. -1.
</event>
<event>
 7    1  0.6963701E-013  0.5930195E+02  0.7816164E-02  0.1266605E+00
        -11   -1    0    0    0    0  0.00000000000E+00  0.00000000000E+00  0.45593999997E+02  0.45594000000E+02  0.51100000000E-03 0.  1.
         11   -1    0    0    0    0 -0.00000000000E+00 -0.00000000000E+00 -0.45593999997E+02  0.45594000000E+02  0.51100000000E-03 0. -1.
    9900012    2    1    2    0    0  0.27816884961E+02  0.14239301428E+02  0.63390575072E+01  0.59301945930E+02  0.50000003469E+02 0.  0.
         12    1    1    2    0    0 -0.27816884961E+02 -0.14239301428E+02 -0.63390575072E+01  0.31886054070E+02  0.00000000000E+00 0. -1.
         11    1    3    3    0    0  0.37460635595E+01 -0.61263331360E+01 -0.32564529230E+01  0.78847597165E+01  0.51100000000E-03 0. -1.
        -11    1    3    3    0    0 -0.15769643150E+01 -0.28482120315E+01 -0.10785742494E+02  0.11266382278E+02  0.51100000000E-03 0.  1.
        -12    1    3    3    0    0  0.25647785716E+02  0.23213846596E+02  0.20381252924E+02  0.40150803936E+02  0.00000000000E+00 0.  1.
</event>
<event>
 7    1  0.6963701E-013  0.5930193E+02  0.7816164E-02  0.1266605E+00
        -11   -1    0    0    0    0  0.00000000000E+00  0.00000000000E+00  0.45593999997E+02  0.45594000000E+02  0.51100000000E-03 0. -1.
         11   -1    0    0    0    0 -0.00000000000E+00 -0.00000000000E+00 -0.45593999997E+02  0.45594000000E+02  0.51100000000E-03 0.  1.
    9900012    2    1    2    0    0  0.28160378431E+02  0.10256932765E+02 -0.10886216045E+02  0.59301932778E+02  0.49999979483E+02 0.  0.
         12    1    1    2    0    0 -0.28160378431E+02 -0.10256932765E+02  0.10886216045E+02  0.31886067222E+02  0.00000000000E+00 0. -1.
         11    1    3    3    0    0 -0.98942342254E+01  0.45059546944E+01  0.77595510495E+01  0.13357025543E+02  0.51100000000E-03 0. -1.
        -11    1    3    3    0    0  0.59574911284E+01 -0.18739582856E+01  0.25353214032E+01  0.67402726265E+01  0.51100000000E-03 0.  1.
        -12    1    3    3    0    0  0.32097121528E+02  0.76249363564E+01 -0.21181088498E+02  0.39204634608E+02  0.00000000000E+00 0.  1.
</event>
<event>
 7    1  0.6963701E-013  0.5930195E+02  0.7816164E-02  0.1266605E+00
        -11   -1    0    0    0    0  0.00000000000E+00  0.00000000000E+00  0.45593999997E+02  0.45594000000E+02  0.51100000000E-03 0.  1.
         11   -1    0    0    0    0 -0.00000000000E+00 -0.00000000000E+00 -0.45593999997E+02  0.45594000000E+02  0.51100000000E-03 0. -1.
    9900012    2    1    2    0    0  0.19244789905E+02  0.24121794517E+02 -0.80310222186E+01  0.59301949334E+02  0.50000009678E+02 0.  0.
         12    1    1    2    0    0 -0.19244789905E+02 -0.24121794517E+02  0.80310222186E+01  0.31886050666E+02  0.00000000000E+00 0. -1.
         11    1    3    3    0    0  0.82501958895E+01  0.17688443041E+00  0.22481653529E+01  0.85528514562E+01  0.51100000000E-03 0. -1.
        -11    1    3    3    0    0  0.18673121523E+02  0.90799642516E+00  0.80203680362E+01  0.20342965089E+02  0.51100000000E-03 0.  1.
         12    1    3    3    0    0 -0.76785275079E+01  0.23036913661E+02 -0.18299555608E+02  0.30406132789E+02  0.00000000000E+00 0. -1.
</event>
<event>
 7    1  0.6963701E-013  0.5930176E+02  0.7816164E-02  0.1266605E+00
        -11   -1    0    0    0    0  0.00000000000E+00  0.00000000000E+00  0.45593999997E+02  0.45594000000E+02  0.51100000000E-03 0. -1.
         11   -1    0    0    0    0 -0.00000000000E+00 -0.00000000000E+00 -0.45593999997E+02  0.45594000000E+02  0.51100000000E-03 0.  1.
    9900012    2    1    2    0    0  0.18049201541E+01 -0.23232068062E+02 -0.21765702194E+02  0.59301756647E+02  0.49999658261E+02 0.  0.
         12    1    1    2    0    0 -0.18049201541E+01  0.23232068062E+02  0.21765702194E+02  0.31886243353E+02  0.00000000000E+00 0. -1.
         11    1    3    3    0    0 -0.35945112615E+00  0.81786719602E+00  0.96891834593E+00  0.13179206670E+01  0.51100000000E-03 0. -1.
        -11    1    3    3    0    0  0.22433745021E+02 -0.10372118632E+01 -0.70448656848E+01  0.23536755446E+02  0.51100000000E-03 0.  1.
        -12    1    3    3    0    0 -0.20269373741E+02 -0.23012723395E+02 -0.15689754855E+02  0.34447080534E+02  0.00000000000E+00 0.  1.
</event>
<event>
 7    1  0.6963701E-013  0.5930196E+02  0.7816164E-02  0.1266605E+00
        -11   -1    0    0    0    0  0.00000000000E+00  0.00000000000E+00  0.45593999997E+02  0.45594000000E+02  0.51100000000E-03 0. -1.
         11   -1    0    0    0    0 -0.00000000000E+00 -0.00000000000E+00 -0.45593999997E+02  0.45594000000E+02  0.51100000000E-03 0.  1.
    9900012    2    1    2    0    0 -0.12570550568E+02 -0.11192141984E+01 -0.29282220916E+02  0.59301955344E+02  0.50000020638E+02 0.  0.
         12    1    1    2    0    0  0.12570550568E+02  0.11192141984E+01  0.29282220916E+02  0.31886044656E+02  0.00000000000E+00 0. -1.
         11    1    3    3    0    0 -0.12947853897E+02  0.10085002779E+02 -0.20286354118E+02  0.26093876010E+02  0.51100000000E-03 0.  1.
        -11    1    3    3    0    0  0.28769255601E+01 -0.21021865667E+02 -0.90746000346E+01  0.23076912767E+02  0.51100000000E-03 0. -1.
         12    1    3    3    0    0 -0.24996222314E+01  0.98176486898E+01  0.78733235694E-01  0.10131166568E+02  0.00000000000E+00 0. -1.
</event>
<event>
 7    1  0.6963701E-013  0.5930196E+02  0.7816164E-02  0.1266605E+00
        -11   -1    0    0    0    0  0.00000000000E+00  0.00000000000E+00  0.45593999997E+02  0.45594000000E+02  0.51100000000E-03 0. -1.
         11   -1    0    0    0    0 -0.00000000000E+00 -0.00000000000E+00 -0.45593999997E+02  0.45594000000E+02  0.51100000000E-03 0.  1.
    9900012    2    1    2    0    0 -0.62680803195E+00  0.31861655305E+02  0.10778806111E+01  0.59301956130E+02  0.50000022071E+02 0.  0.
         12    1    1    2    0    0  0.62680803195E+00 -0.31861655305E+02 -0.10778806111E+01  0.31886043870E+02  0.00000000000E+00 0. -1.
         11    1    3    3    0    0  0.11447330377E+02  0.14994896495E+01  0.81684315978E+01  0.14142599372E+02  0.51100000000E-03 0. -1.
        -11    1    3    3    0    0  0.92170411491E+01  0.13105982747E+02 -0.76334335036E+01  0.17747955900E+02  0.51100000000E-03 0.  1.
         12    1    3    3    0    0 -0.21291179558E+02  0.17256182908E+02  0.54288251693E+00  0.27411400857E+02  0.00000000000E+00 0. -1.
</event>
<event>
 7    1  0.6963701E-013  0.5930195E+02  0.7816164E-02  0.1266605E+00
        -11   -1    0    0    0    0  0.00000000000E+00  0.00000000000E+00  0.45593999997E+02  0.45594000000E+02  0.51100000000E-03 0. -1.
         11   -1    0    0    0    0 -0.00000000000E+00 -0.00000000000E+00 -0.45593999997E+02  0.45594000000E+02  0.51100000000E-03 0.  1.
    9900012    2    1    2    0    0 -0.58198871309E+01  0.59130350579E+01 -0.30787745308E+02  0.59301947705E+02  0.50000006706E+02 0.  0.
         12    1    1    2    0    0  0.58198871309E+01 -0.59130350579E+01  0.30787745308E+02  0.31886052295E+02  0.00000000000E+00 0. -1.
         11    1    3    3    0    0  0.37501574087E+01  0.14040730591E+02  0.73297148902E+01  0.16276686295E+02  0.51100000000E-03 0. -1.
        -11    1    3    3    0    0  0.29453086711E+00 -0.27794433588E+01  0.47454814800E+00  0.28350044131E+01  0.51100000000E-03 0.  1.
        -12    1    3    3    0    0 -0.98645754067E+01 -0.53482521740E+01 -0.38592008346E+02  0.40190256997E+02  0.00000000000E+00 0.  1.
</event>
<event>
 7    1  0.6963701E-013  0.5930200E+02  0.7816164E-02  0.1266605E+00
        -11   -1    0    0    0    0  0.00000000000E+00  0.00000000000E+00  0.45593999997E+02  0.45594000000E+02  0.51100000000E-03 0. -1.
         11   -1    0    0    0    0 -0.00000000000E+00 -0.00000000000E+00 -0.45593999997E+02  0.45594000000E+02  0.51100000000E-03 0.  1.
    9900012    2    1    2    0    0  0.22093136645E+02 -0.65997210499E+00 -0.22982047037E+02  0.59302004077E+02  0.50000109515E+02 0.  0.
         12    1    1    2    0    0 -0.22093136645E+02  0.65997210499E+00  0.22982047037E+02  0.31885995923E+02  0.00000000000E+00 0. -1.
         11    1    3    3    0    0 -0.15702851125E+01  0.11480610829E+02 -0.11482637925E+02  0.16313221458E+02  0.51100000000E-03 0. -1.
        -11    1    3    3    0    0  0.51849906775E+01  0.99919768105E+01 -0.82861085148E+01  0.13977958488E+02  0.51100000000E-03 0.  1.
        -12    1    3    3    0    0  0.18478431080E+02 -0.22132559745E+02 -0.32133005967E+01  0.29010824131E+02  0.00000000000E+00 0.  1.
</event>
<event>
 7    1  0.6963701E-013  0.5930197E+02  0.7816164E-02  0.1266605E+00
        -11   -1    0    0    0    0  0.00000000000E+00  0.00000000000E+00  0.45593999997E+02  0.45594000000E+02  0.51100000000E-03 0. -1.
         11   -1    0    0    0    0 -0.00000000000E+00 -0.00000000000E+00 -0.45593999997E+02  0.45594000000E+02  0.51100000000E-03 0.  1.
    9900012    2    1    2    0    0 -0.85200707096E+01  0.21876342992E+02  0.21576682465E+02  0.59301965224E+02  0.50000038656E+02 0.  0.
         12    1    1    2    0    0  0.85200707096E+01 -0.21876342992E+02 -0.21576682465E+02  0.31886034776E+02  0.00000000000E+00 0. -1.
         11    1    3    3    0    0  0.14562349666E+02  0.44012084986E+01  0.11163618408E+02  0.18869526763E+02  0.51100000000E-03 0. -1.
        -11    1    3    3    0    0 -0.13536065719E+02 -0.75369671903E+00  0.14063446553E+02  0.19533910594E+02  0.51100000000E-03 0.  1.
        -12    1    3    3    0    0 -0.95463546568E+01  0.18228831212E+02 -0.36503824971E+01  0.20898527866E+02  0.00000000000E+00 0.  1.
</event>
<event>
 7    1  0.6963701E-013  0.5930189E+02  0.7816164E-02  0.1266605E+00
        -11   -1    0    0    0    0  0.00000000000E+00  0.00000000000E+00  0.45593999997E+02  0.45594000000E+02  0.51100000000E-03 0.  1.
         11   -1    0    0    0    0 -0.00000000000E+00 -0.00000000000E+00 -0.45593999997E+02  0.45594000000E+02  0.51100000000E-03 0. -1.
    9900012    2    1    2    0    0  0.21794137418E+02  0.17503086393E+02  0.15342145556E+02  0.59301891906E+02  0.49999904943E+02 0.  0.
         12    1    1    2    0    0 -0.21794137418E+02 -0.17503086393E+02 -0.15342145556E+02  0.31886108094E+02  0.00000000000E+00 0. -1.
         11    1    3    3    0    0 -0.50889185531E+01  0.22180952927E+01 -0.39160784707E+01  0.67935785575E+01  0.51100000000E-03 0. -1.
        -11    1    3    3    0    0 -0.27239004075E+01  0.77535817582E+01  0.20341891003E+02  0.21939238668E+02  0.51100000000E-03 0.  1.
         12    1    3    3    0    0  0.29606956379E+02  0.75314093421E+01 -0.10836669760E+01  0.30569074680E+02  0.00000000000E+00 0. -1.
</event>
<event>
 7    1  0.6963701E-013  0.5930195E+02  0.7816164E-02  0.1266605E+00
        -11   -1    0    0    0    0  0.00000000000E+00  0.00000000000E+00  0.45593999997E+02  0.45594000000E+02  0.51100000000E-03 0.  1.
         11   -1    0    0    0    0 -0.00000000000E+00 -0.00000000000E+00 -0.45593999997E+02  0.45594000000E+02  0.51100000000E-03 0. -1.
    9900012    2    1    2    0    0 -0.21841534513E+02  0.58546026251E+01  0.22480908006E+02  0.59301949342E+02  0.50000009692E+02 0.  0.
         12    1    1    2    0    0  0.21841534513E+02 -0.58546026251E+01 -0.22480908006E+02  0.31886050658E+02  0.00000000000E+00 0. -1.
         11    1    3    3    0    0 -0.18785430662E+02  0.11156462962E+02  0.15076126910E+02  0.26545219417E+02  0.51100000000E-03 0. -1.
        -11    1    3    3    0    0 -0.96973089538E+01  0.12958546812E+01  0.16833477281E+02  0.19470053876E+02  0.51100000000E-03 0.  1.
         12    1    3    3    0    0  0.66412051028E+01 -0.65977150186E+01 -0.94286961856E+01  0.13286676050E+02  0.00000000000E+00 0. -1.
</event>
<event>
 7    1  0.6963701E-013  0.5930195E+02  0.7816164E-02  0.1266605E+00
        -11   -1    0    0    0    0  0.00000000000E+00  0.00000000000E+00  0.45593999997E+02  0.45594000000E+02  0.51100000000E-03 0. -1.
         11   -1    0    0    0    0 -0.00000000000E+00 -0.00000000000E+00 -0.45593999997E+02  0.45594000000E+02  0.51100000000E-03 0.  1.
    9900012    2    1    2    0    0 -0.15937787866E+02 -0.25426840749E+02 -0.10778801498E+02  0.59301954866E+02  0.50000019767E+02 0.  0.
         12    1    1    2    0    0  0.15937787866E+02  0.25426840749E+02  0.10778801498E+02  0.31886045134E+02  0.00000000000E+00 0. -1.
         11    1    3    3    0    0  0.61499305337E+01 -0.15406293363E+02  0.63236031787E+00  0.16600463867E+02  0.51100000000E-03 0. -1.
        -11    1    3    3    0    0 -0.11985376000E+02  0.41857484589E+00 -0.21773249967E+02  0.24857571425E+02  0.51100000000E-03 0.  1.
         12    1    3    3    0    0 -0.10102342400E+02 -0.10439122232E+02  0.10362088151E+02  0.17843919575E+02  0.00000000000E+00 0. -1.
</event>
<event>
 7    1  0.6963701E-013  0.5930196E+02  0.7816164E-02  0.1266605E+00
        -11   -1    0    0    0    0  0.00000000000E+00  0.00000000000E+00  0.45593999997E+02  0.45594000000E+02  0.51100000000E-03 0.  1.
         11   -1    0    0    0    0 -0.00000000000E+00 -0.00000000000E+00 -0.45593999997E+02  0.45594000000E+02  0.51100000000E-03 0. -1.
    9900012    2    1    2    0    0  0.27508173535E+02 -0.16084363314E+02 -0.11458176087E+01  0.59301964617E+02  0.50000037551E+02 0.  0.
         12    1    1    2    0    0 -0.27508173535E+02  0.16084363314E+02  0.11458176087E+01  0.31886035383E+02  0.00000000000E+00 0. -1.
         11    1    3    3    0    0 -0.52877593123E+01  0.38428353327E+00 -0.47266545255E+01  0.71027695755E+01  0.51100000000E-03 0. -1.
        -11    1    3    3    0    0  0.11117405212E+02 -0.23939306738E+02  0.10256493363E+02  0.28317534534E+02  0.51100000000E-03 0.  1.
         12    1    3    3    0    0  0.21678527635E+02  0.74706598906E+01 -0.66756564465E+01  0.23881660508E+02  0.00000000000E+00 0. -1.
</event>
<event>
 7    1  0.6963701E-013  0.5930195E+02  0.7816164E-02  0.1266605E+00
        -11   -1    0    0    0    0  0.00000000000E+00  0.00000000000E+00  0.45593999997E+02  0.45594000000E+02  0.51100000000E-03 0.  1.
         11   -1    0    0    0    0 -0.00000000000E+00 -0.00000000000E+00 -0.45593999997E+02  0.45594000000E+02  0.51100000000E-03 0. -1.
    9900012    2    1    2    0    0  0.28002810547E+02 -0.14615166929E+02  0.43542900922E+01  0.59301947483E+02  0.50000006302E+02 0.  0.
         12    1    1    2    0    0 -0.28002810547E+02  0.14615166929E+02 -0.43542900922E+01  0.31886052517E+02  0.00000000000E+00 0. -1.
         11    1    3    3    0    0  0.13522395632E+02 -0.27315297775E+02  0.16287176752E+02  0.34557962946E+02  0.51100000000E-03 0. -1.
        -11    1    3    3    0    0  0.18714324341E+01  0.32912762847E+00 -0.57063237868E+01  0.60143757591E+01  0.51100000000E-03 0.  1.
        -12    1    3    3    0    0  0.12608982480E+02  0.12371003217E+02 -0.62265628731E+01  0.18729608778E+02  0.00000000000E+00 0.  1.
</event>
<event>
 7    1  0.6963701E-013  0.5930190E+02  0.7816164E-02  0.1266605E+00
        -11   -1    0    0    0    0  0.00000000000E+00  0.00000000000E+00  0.45593999997E+02  0.45594000000E+02  0.51100000000E-03 0.  1.
         11   -1    0    0    0    0 -0.00000000000E+00 -0.00000000000E+00 -0.45593999997E+02  0.45594000000E+02  0.51100000000E-03 0. -1.
    9900012    2    1    2    0    0 -0.27349619812E+02  0.15624835263E+02 -0.49584244336E+01  0.59301903441E+02  0.49999925980E+02 0.  0.
         12    1    1    2    0    0  0.27349619812E+02 -0.15624835263E+02  0.49584244336E+01  0.31886096559E+02  0.00000000000E+00 0. -1.
         11    1    3    3    0    0  0.88654367747E+01  0.55035407669E+01  0.10942129903E+00  0.10435367912E+02  0.51100000000E-03 0. -1.
        -11    1    3    3    0    0  0.56178170576E+01  0.15339138220E+01 -0.14941249110E+01  0.60120852969E+01  0.51100000000E-03 0.  1.
        -12    1    3    3    0    0 -0.41832873645E+02  0.85873806740E+01 -0.35737208217E+01  0.42854450232E+02  0.00000000000E+00 0.  1.
</event>
<event>
 7    1  0.6963701E-013  0.5930190E+02  0.7816164E-02  0.1266605E+00
        -11   -1    0    0    0    0  0.00000000000E+00  0.00000000000E+00  0.45593999997E+02  0.45594000000E+02  0.51100000000E-03 0.  1.
         11   -1    0    0    0    0 -0.00000000000E+00 -0.00000000000E+00 -0.45593999997E+02  0.45594000000E+02  0.51100000000E-03 0. -1.
    9900012    2    1    2    0    0  0.70974642558E+01  0.29413681149E+02 -0.10059068955E+02  0.59301897920E+02  0.49999915911E+02 0.  0.
         12    1    1    2    0    0 -0.70974642558E+01 -0.29413681149E+02  0.10059068955E+02  0.31886102080E+02  0.00000000000E+00 0. -1.
         11    1    3    3    0    0  0.98382231827E+01 -0.48967428108E+01 -0.41956272985E+01  0.11763163445E+02  0.51100000000E-03 0. -1.
        -11    1    3    3    0    0 -0.13997839375E+02  0.10390165405E+02 -0.10992596171E+02  0.20609032368E+02  0.51100000000E-03 0.  1.
        -12    1    3    3    0    0  0.11257080449E+02  0.23920258554E+02  0.51291545140E+01  0.26929702107E+02  0.00000000000E+00 0.  1.
</event>
<event>
 7    1  0.6963701E-013  0.5930197E+02  0.7816164E-02  0.1266605E+00
        -11   -1    0    0    0    0  0.00000000000E+00  0.00000000000E+00  0.45593999997E+02  0.45594000000E+02  0.51100000000E-03 0. -1.
         11   -1    0    0    0    0 -0.00000000000E+00 -0.00000000000E+00 -0.45593999997E+02  0.45594000000E+02  0.51100000000E-03 0.  1.
    9900012    2    1    2    0    0 -0.45666655490E+01 -0.31310216209E+02  0.39413891168E+01  0.59301974512E+02  0.50000055596E+02 0.  0.
         12    1    1    2    0    0  0.45666655490E+01  0.31310216209E+02 -0.39413891168E+01  0.31886025488E+02  0.00000000000E+00 0. -1.
         11    1    3    3    0    0 -0.10096672920E+01  0.38712260714E+00 -0.24171889785E+01  0.26480360218E+01  0.51100000000E-03 0. -1.
        -11    1    3    3    0    0 -0.18637866794E+02 -0.20417304187E+02 -0.12196766684E+02  0.30215848601E+02  0.51100000000E-03 0.  1.
         12    1    3    3    0    0  0.15080868537E+02 -0.11280034629E+02  0.18555344780E+02  0.26438089889E+02  0.00000000000E+00 0. -1.
</event>
<event>
 7    1  0.6963701E-013  0.5930193E+02  0.7816164E-02  0.1266605E+00
        -11   -1    0    0    0    0  0.00000000000E+00  0.00000000000E+00  0.45593999997E+02  0.45594000000E+02  0.51100000000E-03 0.  1.
         11   -1    0    0    0    0 -0.00000000000E+00 -0.00000000000E+00 -0.45593999997E+02  0.45594000000E+02  0.51100000000E-03 0. -1.
    9900012    2    1    2    0    0 -0.67392834563E+01 -0.16685370062E+02  0.26323035612E+02  0.59301925932E+02  0.49999966998E+02 0.  0.
         12    1    1    2    0    0  0.67392834563E+01  0.16685370062E+02 -0.26323035612E+02  0.31886074068E+02  0.00000000000E+00 0. -1.
         11    1    3    3    0    0  0.11051731613E+01  0.75940048177E+00 -0.79483553024E+01  0.80606729920E+01  0.51100000000E-03 0. -1.
        -11    1    3    3    0    0  0.10925825471E+02 -0.98325127049E+01  0.24919292118E+02  0.28931351304E+02  0.51100000000E-03 0.  1.
         12    1    3    3    0    0 -0.18770282089E+02 -0.76122578393E+01  0.93520987964E+01  0.22309901636E+02  0.00000000000E+00 0. -1.
</event>
<event>
 7    1  0.6963701E-013  0.5930197E+02  0.7816164E-02  0.1266605E+00
        -11   -1    0    0    0    0  0.00000000000E+00  0.00000000000E+00  0.45593999997E+02  0.45594000000E+02  0.51100000000E-03 0.  1.
         11   -1    0    0    0    0 -0.00000000000E+00 -0.00000000000E+00 -0.45593999997E+02  0.45594000000E+02  0.51100000000E-03 0. -1.
    9900012    2    1    2    0    0 -0.13126581853E+02  0.63347746032E+01  0.28359868373E+02  0.59301973993E+02  0.50000054649E+02 0.  0.
         12    1    1    2    0    0  0.13126581853E+02 -0.63347746032E+01 -0.28359868373E+02  0.31886026007E+02  0.00000000000E+00 0. -1.
         11    1    3    3    0    0 -0.13243775634E+02  0.20100284657E+02  0.88409206787E+01  0.25643340559E+02  0.51100000000E-03 0. -1.
        -11    1    3    3    0    0 -0.36639834879E+01 -0.25869731044E+00 -0.45216387531E+01  0.58255400242E+01  0.51100000000E-03 0.  1.
        -12    1    3    3    0    0  0.37811772690E+01 -0.13506812743E+02  0.24040586447E+02  0.27833093410E+02  0.00000000000E+00 0.  1.
</event>
<event>
 7    1  0.6963701E-013  0.5930197E+02  0.7816164E-02  0.1266605E+00
        -11   -1    0    0    0    0  0.00000000000E+00  0.00000000000E+00  0.45593999997E+02  0.45594000000E+02  0.51100000000E-03 0.  1.
         11   -1    0    0    0    0 -0.00000000000E+00 -0.00000000000E+00 -0.45593999997E+02  0.45594000000E+02  0.51100000000E-03 0. -1.
    9900012    2    1    2    0    0 -0.16247897907E+02  0.33955942414E+00  0.27433728025E+02  0.59301969825E+02  0.50000047048E+02 0.  0.
         12    1    1    2    0    0  0.16247897907E+02 -0.33955942414E+00 -0.27433728025E+02  0.31886030175E+02  0.00000000000E+00 0. -1.
         11    1    3    3    0    0 -0.26918010136E+02 -0.58835819263E+01  0.87236453805E+01  0.28901518904E+02  0.51100000000E-03 0. -1.
        -11    1    3    3    0    0 -0.52466925139E+01  0.24289065009E+01  0.32840286140E+00  0.57909600090E+01  0.51100000000E-03 0.  1.
        -12    1    3    3    0    0  0.15916804743E+02  0.37942348496E+01  0.18381679783E+02  0.24609490912E+02  0.00000000000E+00 0.  1.
</event>
<event>
 7    1  0.6963701E-013  0.5930195E+02  0.7816164E-02  0.1266605E+00
        -11   -1    0    0    0    0  0.00000000000E+00  0.00000000000E+00  0.45593999997E+02  0.45594000000E+02  0.51100000000E-03 0.  1.
         11   -1    0    0    0    0 -0.00000000000E+00 -0.00000000000E+00 -0.45593999997E+02  0.45594000000E+02  0.51100000000E-03 0. -1.
    9900012    2    1    2    0    0 -0.28988019232E+01  0.27674993692E+02 -0.15569581512E+02  0.59301949807E+02  0.50000010540E+02 0.  0.
         12    1    1    2    0    0  0.28988019232E+01 -0.27674993692E+02  0.15569581512E+02  0.31886050193E+02  0.00000000000E+00 0. -1.
         11    1    3    3    0    0  0.67057906050E+01  0.18739055825E+02 -0.23307216039E+02  0.30648754634E+02  0.51100000000E-03 0. -1.
        -11    1    3    3    0    0 -0.21068421062E+01  0.47228874579E+01 -0.86888876453E+01  0.10111439975E+02  0.51100000000E-03 0.  1.
        -12    1    3    3    0    0 -0.74977504220E+01  0.42130504089E+01  0.16426522172E+02  0.18541755198E+02  0.00000000000E+00 0.  1.
</event>
<event>
 7    1  0.6963701E-013  0.5930192E+02  0.7816164E-02  0.1266605E+00
        -11   -1    0    0    0    0  0.00000000000E+00  0.00000000000E+00  0.45593999997E+02  0.45594000000E+02  0.51100000000E-03 0.  1.
         11   -1    0    0    0    0 -0.00000000000E+00 -0.00000000000E+00 -0.45593999997E+02  0.45594000000E+02  0.51100000000E-03 0. -1.
    9900012    2    1    2    0    0 -0.24183732470E+02 -0.20775051414E+02 -0.51627686782E+00  0.59301918095E+02  0.49999952705E+02 0.  0.
         12    1    1    2    0    0  0.24183732470E+02  0.20775051414E+02  0.51627686782E+00  0.31886081905E+02  0.00000000000E+00 0. -1.
         11    1    3    3    0    0  0.15588823498E+01  0.11968694297E+02 -0.40666799425E+01  0.12736469030E+02  0.51100000000E-03 0. -1.
        -11    1    3    3    0    0 -0.17825845061E+02 -0.26942987129E+02 -0.60142759076E+01  0.32861175002E+02  0.51100000000E-03 0.  1.
         12    1    3    3    0    0 -0.79167697588E+01 -0.58007585818E+01  0.95646789823E+01  0.13704274062E+02  0.00000000000E+00 0. -1.
</event>
<event>
 7    1  0.7243496E-013  0.5930189E+02  0.7816164E-02  0.1266605E+00
        -11   -1    0    0    0    0  0.00000000000E+00  0.00000000000E+00  0.45593999997E+02  0.45594000000E+02  0.51100000000E-03 0. -1.
         11   -1    0    0    0    0 -0.00000000000E+00 -0.00000000000E+00 -0.45593999997E+02  0.45594000000E+02  0.51100000000E-03 0.  1.
    9900012    2    1    2    0    0 -0.70188859064E+01  0.31074490345E+02 -0.13548017322E+01  0.59301887078E+02  0.49999896136E+02 0.  0.
         12    1    1    2    0    0  0.70188859064E+01 -0.31074490345E+02  0.13548017322E+01  0.31886112922E+02  0.00000000000E+00 0. -1.
         11    1    3    3    0    0  0.11636890348E+02 -0.55304651966E+01 -0.37738156527E+01  0.13425533401E+02  0.51100000000E-03 0. -1.
        -11    1    3    3    0    0 -0.73485507288E+01  0.22502819296E+02 -0.80310034911E+01  0.24997501704E+02  0.51100000000E-03 0.  1.
        -12    1    3    3    0    0 -0.11307225526E+02  0.14102136246E+02  0.10450017412E+02  0.20878851973E+02  0.00000000000E+00 0.  1.
</event>
<event>
 7    1  0.6963701E-013  0.5930208E+02  0.7816164E-02  0.1266604E+00
        -11   -1    0    0    0    0  0.00000000000E+00  0.00000000000E+00  0.45593999997E+02  0.45594000000E+02  0.51100000000E-03 0. -1.
         11   -1    0    0    0    0 -0.00000000000E+00 -0.00000000000E+00 -0.45593999997E+02  0.45594000000E+02  0.51100000000E-03 0.  1.
    9900012    2    1    2    0    0  0.88363108645E+01 -0.13713997357E+02 -0.27396307674E+02  0.59302081676E+02  0.50000251036E+02 0.  0.
         12    1    1    2    0    0 -0.88363108645E+01  0.13713997357E+02  0.27396307674E+02  0.31885918324E+02  0.00000000000E+00 0. -1.
         11    1    3    3    0    0  0.60921062889E+01  0.48962411735E+01 -0.79238876734E+01  0.11129911625E+02  0.51100000000E-03 0. -1.
        -11    1    3    3    0    0  0.98669334799E+01  0.82021694168E+01 -0.15539973797E+02  0.20152487323E+02  0.51100000000E-03 0.  1.
         12    1    3    3    0    0 -0.71227289043E+01 -0.26812407947E+02 -0.39324462037E+01  0.28019682727E+02  0.00000000000E+00 0. -1.
</event>
<event>
 7    1  0.6963701E-013  0.5930195E+02  0.7816164E-02  0.1266605E+00
        -11   -1    0    0    0    0  0.00000000000E+00  0.00000000000E+00  0.45593999997E+02  0.45594000000E+02  0.51100000000E-03 0.  1.
         11   -1    0    0    0    0 -0.00000000000E+00 -0.00000000000E+00 -0.45593999997E+02  0.45594000000E+02  0.51100000000E-03 0. -1.
    9900012    2    1    2    0    0 -0.83121060737E+01 -0.10039510055E+01  0.30767209588E+02  0.59301949589E+02  0.50000010142E+02 0.  0.
         12    1    1    2    0    0  0.83121060737E+01  0.10039510055E+01 -0.30767209588E+02  0.31886050411E+02  0.00000000000E+00 0. -1.
         11    1    3    3    0    0  0.21514622896E+01 -0.61544893675E+01  0.87985483908E+01  0.10950843959E+02  0.51100000000E-03 0. -1.
        -11    1    3    3    0    0  0.11436321553E+02 -0.32384837315E+01  0.21879124945E+02  0.24899263767E+02  0.51100000000E-03 0.  1.
         12    1    3    3    0    0 -0.21899889916E+02  0.83890220935E+01  0.89536252304E-01  0.23451841863E+02  0.00000000000E+00 0. -1.
</event>
<event>
 7    1  0.7149806E-013  0.5930197E+02  0.7816164E-02  0.1266605E+00
        -11   -1    0    0    0    0  0.00000000000E+00  0.00000000000E+00  0.45593999997E+02  0.45594000000E+02  0.51100000000E-03 0. -1.
         11   -1    0    0    0    0 -0.00000000000E+00 -0.00000000000E+00 -0.45593999997E+02  0.45594000000E+02  0.51100000000E-03 0.  1.
    9900012    2    1    2    0    0  0.15006142623E+02  0.27366279263E+02  0.65285197403E+01  0.59301966582E+02  0.50000041134E+02 0.  0.
         12    1    1    2    0    0 -0.15006142623E+02 -0.27366279263E+02 -0.65285197403E+01  0.31886033418E+02  0.00000000000E+00 0. -1.
         11    1    3    3    0    0  0.14264647063E+02  0.14256542354E+02 -0.14296332450E+02  0.24720725667E+02  0.51100000000E-03 0.  1.
        -11    1    3    3    0    0  0.12230881689E+02  0.82676706168E+01  0.84297474291E+01  0.17000279006E+02  0.51100000000E-03 0. -1.
        -12    1    3    3    0    0 -0.11489386128E+02  0.48420662926E+01  0.12395104761E+02  0.17580961909E+02  0.00000000000E+00 0.  1.
</event>
<event>
 7    1  0.6963701E-013  0.5930193E+02  0.7816164E-02  0.1266605E+00
        -11   -1    0    0    0    0  0.00000000000E+00  0.00000000000E+00  0.45593999997E+02  0.45594000000E+02  0.51100000000E-03 0. -1.
         11   -1    0    0    0    0 -0.00000000000E+00 -0.00000000000E+00 -0.45593999997E+02  0.45594000000E+02  0.51100000000E-03 0.  1.
    9900012    2    1    2    0    0 -0.24720381769E+00  0.15234625960E+02 -0.28010109843E+02  0.59301934214E+02  0.49999982103E+02 0.  0.
         12    1    1    2    0    0  0.24720381769E+00 -0.15234625960E+02  0.28010109843E+02  0.31886065786E+02  0.00000000000E+00 0. -1.
         11    1    3    3    0    0  0.73734132548E+01  0.87439049614E+01  0.68404159585E+01  0.13327204799E+02  0.51100000000E-03 0. -1.
        -11    1    3    3    0    0  0.82015051794E+00 -0.18015404510E+01  0.44826945610E+01  0.49002801611E+01  0.51100000000E-03 0.  1.
        -12    1    3    3    0    0 -0.84407675904E+01  0.82922614497E+01 -0.39333220363E+02  0.41074449254E+02  0.00000000000E+00 0.  1.
</event>
<event>
 7    1  0.9147546E-013  0.5930196E+02  0.7816164E-02  0.1266605E+00
        -11   -1    0    0    0    0  0.00000000000E+00  0.00000000000E+00  0.45593999997E+02  0.45594000000E+02  0.51100000000E-03 0.  1.
         11   -1    0    0    0    0 -0.00000000000E+00 -0.00000000000E+00 -0.45593999997E+02  0.45594000000E+02  0.51100000000E-03 0. -1.
    9900012    2    1    2    0    0  0.11927603949E+02 -0.28111758600E+02  0.91750264349E+01  0.59301955754E+02  0.50000021387E+02 0.  0.
         12    1    1    2    0    0 -0.11927603949E+02  0.28111758600E+02 -0.91750264349E+01  0.31886044246E+02  0.00000000000E+00 0. -1.
         11    1    3    3    0    0 -0.71841764950E+01 -0.35077922512E+01 -0.87183841530E+01  0.11829083688E+02  0.51100000000E-03 0. -1.
        -11    1    3    3    0    0  0.64000449615E+01  0.16383348063E+01 -0.66395012792E+01  0.93663063127E+01  0.51100000000E-03 0.  1.
        -12    1    3    3    0    0  0.12711735483E+02 -0.26242301155E+02  0.24532911867E+02  0.38106565754E+02  0.00000000000E+00 0.  1.
</event>
<event>
 7    1  0.6963701E-013  0.5930194E+02  0.7816164E-02  0.1266605E+00
        -11   -1    0    0    0    0  0.00000000000E+00  0.00000000000E+00  0.45593999997E+02  0.45594000000E+02  0.51100000000E-03 0. -1.
         11   -1    0    0    0    0 -0.00000000000E+00 -0.00000000000E+00 -0.45593999997E+02  0.45594000000E+02  0.51100000000E-03 0.  1.
    9900012    2    1    2    0    0  0.61209086653E+01  0.24447949287E+02 -0.19533387307E+02  0.59301937733E+02  0.49999988520E+02 0.  0.
         12    1    1    2    0    0 -0.61209086653E+01 -0.24447949287E+02  0.19533387307E+02  0.31886062267E+02  0.00000000000E+00 0. -1.
         11    1    3    3    0    0 -0.45441836899E+01 -0.37943088490E+01  0.43413290692E+01  0.73412208383E+01  0.51100000000E-03 0. -1.
        -11    1    3    3    0    0  0.16692927325E+02  0.24385634305E+02 -0.27765646564E+01  0.29682019721E+02  0.51100000000E-03 0.  1.
         12    1    3    3    0    0 -0.60278349696E+01  0.38566238310E+01 -0.21098151719E+02  0.22278697174E+02  0.00000000000E+00 0. -1.
</event>
<event>
 7    1  0.6963701E-013  0.5930194E+02  0.7816164E-02  0.1266605E+00
        -11   -1    0    0    0    0  0.00000000000E+00  0.00000000000E+00  0.45593999997E+02  0.45594000000E+02  0.51100000000E-03 0.  1.
         11   -1    0    0    0    0 -0.00000000000E+00 -0.00000000000E+00 -0.45593999997E+02  0.45594000000E+02  0.51100000000E-03 0. -1.
    9900012    2    1    2    0    0  0.18861167905E+02  0.20131173048E+02  0.15991020499E+02  0.59301944747E+02  0.50000001311E+02 0.  0.
         12    1    1    2    0    0 -0.18861167905E+02 -0.20131173048E+02 -0.15991020499E+02  0.31886055253E+02  0.00000000000E+00 0. -1.
         11    1    3    3    0    0  0.19185908897E+02  0.24737609459E+02  0.14784282195E+02  0.34621141262E+02  0.51100000000E-03 0. -1.
        -11    1    3    3    0    0 -0.41064442113E+01 -0.23999840513E+01  0.12067343014E+02  0.12970874111E+02  0.51100000000E-03 0.  1.
         12    1    3    3    0    0  0.37817032191E+01 -0.22064523605E+01 -0.10860604711E+02  0.11709929374E+02  0.00000000000E+00 0. -1.
</event>
<event>
 7    1  0.6963701E-013  0.5930202E+02  0.7816164E-02  0.1266604E+00
        -11   -1    0    0    0    0  0.00000000000E+00  0.00000000000E+00  0.45593999997E+02  0.45594000000E+02  0.51100000000E-03 0. -1.
         11   -1    0    0    0    0 -0.00000000000E+00 -0.00000000000E+00 -0.45593999997E+02  0.45594000000E+02  0.51100000000E-03 0.  1.
    9900012    2    1    2    0    0  0.31297984065E+02 -0.12463957096E+01 -0.59664142620E+01  0.59302024902E+02  0.50000147496E+02 0.  0.
         12    1    1    2    0    0 -0.31297984065E+02  0.12463957096E+01  0.59664142620E+01  0.31885975098E+02  0.00000000000E+00 0. -1.
         11    1    3    3    0    0 -0.90501286588E+01 -0.58462923479E+01 -0.65674388586E+01  0.12618051212E+02  0.51100000000E-03 0. -1.
        -11    1    3    3    0    0  0.80418657481E+00 -0.38308759558E+01 -0.44618992982E+01  0.59355599773E+01  0.51100000000E-03 0.  1.
        -12    1    3    3    0    0  0.39543926149E+02  0.84307725942E+01  0.50629238948E+01  0.40748413713E+02  0.00000000000E+00 0.  1.
</event>
<event>
 7    1  0.6963701E-013  0.5930193E+02  0.7816164E-02  0.1266605E+00
        -11   -1    0    0    0    0  0.00000000000E+00  0.00000000000E+00  0.45593999997E+02  0.45594000000E+02  0.51100000000E-03 0.  1.
         11   -1    0    0    0    0 -0.00000000000E+00 -0.00000000000E+00 -0.45593999997E+02  0.45594000000E+02  0.51100000000E-03 0. -1.
    9900012    2    1    2    0    0  0.29134892408E+02 -0.11136661844E+02  0.66222716311E+01  0.59301926642E+02  0.49999968292E+02 0.  0.
         12    1    1    2    0    0 -0.29134892408E+02  0.11136661844E+02 -0.66222716311E+01  0.31886073358E+02  0.00000000000E+00 0. -1.
         11    1    3    3    0    0 -0.33473908260E+01  0.36813175788E+01  0.49924388282E+01  0.70485154588E+01  0.51100000000E-03 0. -1.
        -11    1    3    3    0    0  0.31184789898E+02 -0.40064046714E+01  0.15143943292E+02  0.34898157803E+02  0.51100000000E-03 0.  1.
         12    1    3    3    0    0  0.12974933364E+01 -0.10811574752E+02 -0.13514110489E+02  0.17355253380E+02  0.00000000000E+00 0. -1.
</event>
<event>
 7    1  0.6963701E-013  0.5930194E+02  0.7816164E-02  0.1266605E+00
        -11   -1    0    0    0    0  0.00000000000E+00  0.00000000000E+00  0.45593999997E+02  0.45594000000E+02  0.51100000000E-03 0. -1.
         11   -1    0    0    0    0 -0.00000000000E+00 -0.00000000000E+00 -0.45593999997E+02  0.45594000000E+02  0.51100000000E-03 0.  1.
    9900012    2    1    2    0    0  0.26941298505E+02  0.17046278254E+02  0.55825125492E+00  0.59301940164E+02  0.49999992953E+02 0.  0.
         12    1    1    2    0    0 -0.26941298505E+02 -0.17046278254E+02 -0.55825125492E+00  0.31886059836E+02  0.00000000000E+00 0. -1.
         11    1    3    3    0    0  0.10507675710E+02 -0.85553715804E+01  0.16964559201E+01  0.13655899628E+02  0.51100000000E-03 0. -1.
        -11    1    3    3    0    0 -0.70620341673E+01 -0.31839941951E+01  0.28964684670E+01  0.82704096305E+01  0.51100000000E-03 0.  1.
        -12    1    3    3    0    0  0.23495656962E+02  0.28785644029E+02 -0.40346731322E+01  0.37375630905E+02  0.00000000000E+00 0.  1.
</event>
<event>
 7    1  0.6963701E-013  0.5930195E+02  0.7816164E-02  0.1266605E+00
        -11   -1    0    0    0    0  0.00000000000E+00  0.00000000000E+00  0.45593999997E+02  0.45594000000E+02  0.51100000000E-03 0.  1.
         11   -1    0    0    0    0 -0.00000000000E+00 -0.00000000000E+00 -0.45593999997E+02  0.45594000000E+02  0.51100000000E-03 0. -1.
    9900012    2    1    2    0    0  0.26211758856E+02 -0.44859064794E+00  0.18151100557E+02  0.59301953093E+02  0.50000016534E+02 0.  0.
         12    1    1    2    0    0 -0.26211758856E+02  0.44859064794E+00 -0.18151100557E+02  0.31886046907E+02  0.00000000000E+00 0. -1.
         11    1    3    3    0    0  0.82561366517E+01  0.65083265519E+01 -0.94899512615E+01  0.14162672139E+02  0.51100000000E-03 0. -1.
        -11    1    3    3    0    0  0.21680813450E+02  0.53425294631E+01  0.21090132020E+02  0.30714718977E+02  0.51100000000E-03 0.  1.
        -12    1    3    3    0    0 -0.37251912461E+01 -0.12299446663E+02  0.65509197989E+01  0.14424561978E+02  0.00000000000E+00 0.  1.
</event>
<event>
 7    1  0.6963701E-013  0.5930193E+02  0.7816164E-02  0.1266605E+00
        -11   -1    0    0    0    0  0.00000000000E+00  0.00000000000E+00  0.45593999997E+02  0.45594000000E+02  0.51100000000E-03 0.  1.
         11   -1    0    0    0    0 -0.00000000000E+00 -0.00000000000E+00 -0.45593999997E+02  0.45594000000E+02  0.51100000000E-03 0. -1.
    9900012    2    1    2    0    0 -0.38583255477E+01 -0.13008010623E+02  0.28855271559E+02  0.59301926031E+02  0.49999967178E+02 0.  0.
         12    1    1    2    0    0  0.38583255477E+01  0.13008010623E+02 -0.28855271559E+02  0.31886073969E+02  0.00000000000E+00 0. -1.
         11    1    3    3    0    0  0.10915178930E+02 -0.83714951187E+01  0.11049387815E+02  0.17644036753E+02  0.51100000000E-03 0. -1.
        -11    1    3    3    0    0 -0.23052508124E+00 -0.17864013869E+02  0.10250417162E+02  0.20597261604E+02  0.51100000000E-03 0.  1.
        -12    1    3    3    0    0 -0.14542979397E+02  0.13227498365E+02  0.75554665822E+01  0.21060627673E+02  0.00000000000E+00 0.  1.
</event>
<event>
 7    1  0.6963701E-013  0.5930193E+02  0.7816164E-02  0.1266605E+00
        -11   -1    0    0    0    0  0.00000000000E+00  0.00000000000E+00  0.45593999997E+02  0.45594000000E+02  0.51100000000E-03 0.  1.
         11   -1    0    0    0    0 -0.00000000000E+00 -0.00000000000E+00 -0.45593999997E+02  0.45594000000E+02  0.51100000000E-03 0. -1.
    9900012    2    1    2    0    0  0.27916036141E+02 -0.87107087012E+00  0.15383680184E+02  0.59301930090E+02  0.49999974581E+02 0.  0.
         12    1    1    2    0    0 -0.27916036141E+02  0.87107087012E+00 -0.15383680184E+02  0.31886069910E+02  0.00000000000E+00 0. -1.
         11    1    3    3    0    0 -0.19827768213E+01  0.21334026853E+01  0.22273212146E+02  0.22462831311E+02  0.51100000000E-03 0. -1.
        -11    1    3    3    0    0  0.10912076628E+01 -0.16689877694E+01  0.51998382987E+01  0.55690728970E+01  0.51100000000E-03 0.  1.
         12    1    3    3    0    0  0.28807605300E+02 -0.13354857860E+01 -0.12089370260E+02  0.31270025882E+02  0.00000000000E+00 0. -1.
</event>
<event>
 7    1  0.6963701E-013  0.5930191E+02  0.7816164E-02  0.1266605E+00
        -11   -1    0    0    0    0  0.00000000000E+00  0.00000000000E+00  0.45593999997E+02  0.45594000000E+02  0.51100000000E-03 0.  1.
         11   -1    0    0    0    0 -0.00000000000E+00 -0.00000000000E+00 -0.45593999997E+02  0.45594000000E+02  0.51100000000E-03 0. -1.
    9900012    2    1    2    0    0  0.13516891834E+02  0.15912546962E+02  0.24099939480E+02  0.59301912146E+02  0.49999941856E+02 0.  0.
         12    1    1    2    0    0 -0.13516891834E+02 -0.15912546962E+02 -0.24099939480E+02  0.31886087854E+02  0.00000000000E+00 0. -1.
         11    1    3    3    0    0 -0.61578341942E+01 -0.15924324035E+01 -0.16162006660E+01  0.65625351638E+01  0.51100000000E-03 0. -1.
        -11    1    3    3    0    0 -0.10777200859E+02  0.13728783562E+01  0.10358763682E+02  0.15011223755E+02  0.51100000000E-03 0.  1.
         12    1    3    3    0    0  0.30451926887E+02  0.16132101009E+02  0.15357376464E+02  0.37728153227E+02  0.00000000000E+00 0. -1.
</event>
<event>
 7    1  0.6963701E-013  0.5930184E+02  0.7816164E-02  0.1266605E+00
        -11   -1    0    0    0    0  0.00000000000E+00  0.00000000000E+00  0.45593999997E+02  0.45594000000E+02  0.51100000000E-03 0.  1.
         11   -1    0    0    0    0 -0.00000000000E+00 -0.00000000000E+00 -0.45593999997E+02  0.45594000000E+02  0.51100000000E-03 0. -1.
    9900012    2    1    2    0    0 -0.59138123715E+01  0.92822141072E+01  0.29926487442E+02  0.59301838015E+02  0.49999806659E+02 0.  0.
         12    1    1    2    0    0  0.59138123715E+01 -0.92822141072E+01 -0.29926487442E+02  0.31886161985E+02  0.00000000000E+00 0. -1.
         11    1    3    3    0    0  0.57819685617E+01  0.13738683008E+02  0.11719019440E+02  0.18960959578E+02  0.51100000000E-03 0. -1.
        -11    1    3    3    0    0  0.78285280843E+01  0.83630676930E+01  0.11039304387E+02  0.15908896719E+02  0.51100000000E-03 0.  1.
        -12    1    3    3    0    0 -0.19524309017E+02 -0.12819536593E+02  0.71681636155E+01  0.24431981719E+02  0.00000000000E+00 0.  1.
</event>
<event>
 7    1  0.6963701E-013  0.5930195E+02  0.7816164E-02  0.1266605E+00
        -11   -1    0    0    0    0  0.00000000000E+00  0.00000000000E+00  0.45593999997E+02  0.45594000000E+02  0.51100000000E-03 0.  1.
         11   -1    0    0    0    0 -0.00000000000E+00 -0.00000000000E+00 -0.45593999997E+02  0.45594000000E+02  0.51100000000E-03 0. -1.
    9900012    2    1    2    0    0  0.46043124820E+01 -0.31369577044E+02  0.33867875289E+01  0.59301946824E+02  0.50000005100E+02 0.  0.
         12    1    1    2    0    0 -0.46043124820E+01  0.31369577044E+02 -0.33867875289E+01  0.31886053176E+02  0.00000000000E+00 0. -1.
         11    1    3    3    0    0  0.13559541826E+01 -0.84599160424E+01 -0.19637351582E+02  0.21425087365E+02  0.51100000000E-03 0. -1.
        -11    1    3    3    0    0 -0.11762680860E+01 -0.12210783359E+02  0.18259261770E+00  0.12268666479E+02  0.51100000000E-03 0.  1.
        -12    1    3    3    0    0  0.44246263854E+01 -0.10698877643E+02  0.22841546493E+02  0.25608192980E+02  0.00000000000E+00 0.  1.
</event>
<event>
 7    1  0.6963701E-013  0.5930194E+02  0.7816164E-02  0.1266605E+00
        -11   -1    0    0    0    0  0.00000000000E+00  0.00000000000E+00  0.45593999997E+02  0.45594000000E+02  0.51100000000E-03 0.  1.
         11   -1    0    0    0    0 -0.00000000000E+00 -0.00000000000E+00 -0.45593999997E+02  0.45594000000E+02  0.51100000000E-03 0. -1.
    9900012    2    1    2    0    0 -0.27941109260E+02 -0.10955125386E+02  0.10770354796E+02  0.59301938761E+02  0.49999990395E+02 0.  0.
         12    1    1    2    0    0  0.27941109260E+02  0.10955125386E+02 -0.10770354796E+02  0.31886061239E+02  0.00000000000E+00 0. -1.
         11    1    3    3    0    0 -0.34224816595E+01 -0.99525649092E+01 -0.10038484039E+02  0.14544349110E+02  0.51100000000E-03 0. -1.
        -11    1    3    3    0    0 -0.22138383102E+02 -0.67545944151E+01  0.11338540003E+00  0.23146174815E+02  0.51100000000E-03 0.  1.
        -12    1    3    3    0    0 -0.23802444991E+01  0.57520339388E+01  0.20695453435E+02  0.21611414836E+02  0.00000000000E+00 0.  1.
</event>
<event>
 7    1  0.6963701E-013  0.5930193E+02  0.7816164E-02  0.1266605E+00
        -11   -1    0    0    0    0  0.00000000000E+00  0.00000000000E+00  0.45593999997E+02  0.45594000000E+02  0.51100000000E-03 0.  1.
         11   -1    0    0    0    0 -0.00000000000E+00 -0.00000000000E+00 -0.45593999997E+02  0.45594000000E+02  0.51100000000E-03 0. -1.
    9900012    2    1    2    0    0  0.23892406836E+02  0.16831281034E+02 -0.12750766872E+02  0.59301934368E+02  0.49999982382E+02 0.  0.
         12    1    1    2    0    0 -0.23892406836E+02 -0.16831281034E+02  0.12750766872E+02  0.31886065632E+02  0.00000000000E+00 0. -1.
         11    1    3    3    0    0 -0.62321522947E+01  0.67001542828E+01 -0.90395200373E+01  0.12862531337E+02  0.51100000000E-03 0. -1.
        -11    1    3    3    0    0  0.13083139941E+02  0.69966243779E+01 -0.18461308233E+02  0.23684197375E+02  0.51100000000E-03 0.  1.
        -12    1    3    3    0    0  0.17041419190E+02  0.31345023734E+01  0.14750061398E+02  0.22755205655E+02  0.00000000000E+00 0.  1.
</event>
<event>
 7    1  0.6963701E-013  0.5930205E+02  0.7816164E-02  0.1266604E+00
        -11   -1    0    0    0    0  0.00000000000E+00  0.00000000000E+00  0.45593999997E+02  0.45594000000E+02  0.51100000000E-03 0. -1.
         11   -1    0    0    0    0 -0.00000000000E+00 -0.00000000000E+00 -0.45593999997E+02  0.45594000000E+02  0.51100000000E-03 0.  1.
    9900012    2    1    2    0    0 -0.21966338485E+02 -0.20712498399E+01 -0.23019632559E+02  0.59302053480E+02  0.50000199613E+02 0.  0.
         12    1    1    2    0    0  0.21966338485E+02  0.20712498399E+01  0.23019632559E+02  0.31885946520E+02  0.00000000000E+00 0. -1.
         11    1    3    3    0    0  0.29499281877E+01 -0.72977233957E+00 -0.44981109849E-01  0.30391886321E+01  0.51100000000E-03 0. -1.
        -11    1    3    3    0    0 -0.20265006798E+02  0.95819351157E+01 -0.33559246800E+02  0.40357242561E+02  0.51100000000E-03 0.  1.
         12    1    3    3    0    0 -0.46512598748E+01 -0.10923412616E+02  0.10584595350E+02  0.15905622287E+02  0.00000000000E+00 0. -1.
</event>
<event>
 7    1  0.6963701E-013  0.5930197E+02  0.7816164E-02  0.1266605E+00
        -11   -1    0    0    0    0  0.00000000000E+00  0.00000000000E+00  0.45593999997E+02  0.45594000000E+02  0.51100000000E-03 0.  1.
         11   -1    0    0    0    0 -0.00000000000E+00 -0.00000000000E+00 -0.45593999997E+02  0.45594000000E+02  0.51100000000E-03 0. -1.
    9900012    2    1    2    0    0  0.11145914245E+02  0.11618144988E+02  0.27522825216E+02  0.59301974767E+02  0.50000056061E+02 0.  0.
         12    1    1    2    0    0 -0.11145914245E+02 -0.11618144988E+02 -0.27522825216E+02  0.31886025233E+02  0.00000000000E+00 0. -1.
         11    1    3    3    0    0 -0.67252542015E+01  0.60314311302E+01 -0.29730122338E+01  0.95103105920E+01  0.51100000000E-03 0. -1.
        -11    1    3    3    0    0 -0.50826785957E+01  0.12814817230E+02  0.48279201467E+01  0.14606915334E+02  0.51100000000E-03 0.  1.
        -12    1    3    3    0    0  0.22953847042E+02 -0.72281033730E+01  0.25667917303E+02  0.35184748842E+02  0.00000000000E+00 0.  1.
</event>
<event>
 7    1  0.6963701E-013  0.5930194E+02  0.7816164E-02  0.1266605E+00
        -11   -1    0    0    0    0  0.00000000000E+00  0.00000000000E+00  0.45593999997E+02  0.45594000000E+02  0.51100000000E-03 0. -1.
         11   -1    0    0    0    0 -0.00000000000E+00 -0.00000000000E+00 -0.45593999997E+02  0.45594000000E+02  0.51100000000E-03 0.  1.
    9900012    2    1    2    0    0  0.26359581748E+01 -0.30638618760E+02 -0.84289562999E+01  0.59301944438E+02  0.50000000748E+02 0.  0.
         12    1    1    2    0    0 -0.26359581748E+01  0.30638618760E+02  0.84289562999E+01  0.31886055562E+02  0.00000000000E+00 0. -1.
         11    1    3    3    0    0 -0.66454293218E+00  0.31388643717E+01 -0.81467584067E+01  0.87557843538E+01  0.51100000000E-03 0. -1.
        -11    1    3    3    0    0 -0.11573413161E+02 -0.79481342462E+01  0.11843647480E+02  0.18368144056E+02  0.51100000000E-03 0.  1.
         12    1    3    3    0    0  0.14873914268E+02 -0.25829348885E+02 -0.12125845373E+02  0.32178016028E+02  0.00000000000E+00 0. -1.
</event>
<event>
 7    1  0.6963701E-013  0.5930193E+02  0.7816164E-02  0.1266605E+00
        -11   -1    0    0    0    0  0.00000000000E+00  0.00000000000E+00  0.45593999997E+02  0.45594000000E+02  0.51100000000E-03 0.  1.
         11   -1    0    0    0    0 -0.00000000000E+00 -0.00000000000E+00 -0.45593999997E+02  0.45594000000E+02  0.51100000000E-03 0. -1.
    9900012    2    1    2    0    0  0.15435343270E+02 -0.98240717337E+01  0.26114345374E+02  0.59301933425E+02  0.49999980664E+02 0.  0.
         12    1    1    2    0    0 -0.15435343270E+02  0.98240717337E+01 -0.26114345374E+02  0.31886066575E+02  0.00000000000E+00 0. -1.
         11    1    3    3    0    0  0.13167272409E+02  0.14306651042E+02  0.51300787456E+01  0.20109078420E+02  0.51100000000E-03 0. -1.
        -11    1    3    3    0    0  0.51968064757E+01  0.44266327772E+00  0.11613308518E+02  0.12730737737E+02  0.51100000000E-03 0.  1.
        -12    1    3    3    0    0 -0.29287356141E+01 -0.24573386053E+02  0.93709581103E+01  0.26462117268E+02  0.00000000000E+00 0.  1.
</event>
<event>
 7    1  0.6963701E-013  0.5930196E+02  0.7816164E-02  0.1266605E+00
        -11   -1    0    0    0    0  0.00000000000E+00  0.00000000000E+00  0.45593999997E+02  0.45594000000E+02  0.51100000000E-03 0. -1.
         11   -1    0    0    0    0 -0.00000000000E+00 -0.00000000000E+00 -0.45593999997E+02  0.45594000000E+02  0.51100000000E-03 0.  1.
    9900012    2    1    2    0    0 -0.30794341582E+02  0.72159051237E+01 -0.40446014643E+01  0.59301959775E+02  0.50000028719E+02 0.  0.
         12    1    1    2    0    0  0.30794341582E+02 -0.72159051237E+01  0.40446014643E+01  0.31886040225E+02  0.00000000000E+00 0. -1.
         11    1    3    3    0    0 -0.37495480436E+01 -0.46465242939E+01 -0.17284653389E+02  0.18286840668E+02  0.51100000000E-03 0.  1.
        -11    1    3    3    0    0  0.75531457557E+00  0.63520957526E+01  0.10821982741E+02  0.12571194505E+02  0.51100000000E-03 0. -1.
        -12    1    3    3    0    0 -0.27800108114E+02  0.55103336651E+01  0.24180691838E+01  0.28443924603E+02  0.00000000000E+00 0.  1.
</event>
<event>
 7    1  0.6963701E-013  0.5930199E+02  0.7816164E-02  0.1266605E+00
        -11   -1    0    0    0    0  0.00000000000E+00  0.00000000000E+00  0.45593999997E+02  0.45594000000E+02  0.51100000000E-03 0.  1.
         11   -1    0    0    0    0 -0.00000000000E+00 -0.00000000000E+00 -0.45593999997E+02  0.45594000000E+02  0.51100000000E-03 0. -1.
    9900012    2    1    2    0    0  0.77391881092E+00 -0.90875476295E+01  0.30553810512E+02  0.59301987250E+02  0.50000078828E+02 0.  0.
         12    1    1    2    0    0 -0.77391881092E+00  0.90875476295E+01 -0.30553810512E+02  0.31886012750E+02  0.00000000000E+00 0. -1.
         11    1    3    3    0    0  0.19873986462E+01 -0.67476622889E+01 -0.88808344163E+01  0.11329162367E+02  0.51100000000E-03 0. -1.
        -11    1    3    3    0    0  0.11131722453E+02  0.34443048082E+01  0.93379776021E+01  0.14932391179E+02  0.51100000000E-03 0.  1.
        -12    1    3    3    0    0 -0.12345202288E+02 -0.57841901488E+01  0.30096667326E+02  0.33040433704E+02  0.00000000000E+00 0.  1.
</event>
<event>
 7    1  0.6963701E-013  0.5930195E+02  0.7816164E-02  0.1266605E+00
        -11   -1    0    0    0    0  0.00000000000E+00  0.00000000000E+00  0.45593999997E+02  0.45594000000E+02  0.51100000000E-03 0.  1.
         11   -1    0    0    0    0 -0.00000000000E+00 -0.00000000000E+00 -0.45593999997E+02  0.45594000000E+02  0.51100000000E-03 0. -1.
    9900012    2    1    2    0    0  0.72866795816E+01 -0.25191822364E+02  0.18138268528E+02  0.59301946645E+02  0.50000004774E+02 0.  0.
         12    1    1    2    0    0 -0.72866795816E+01  0.25191822364E+02 -0.18138268528E+02  0.31886053355E+02  0.00000000000E+00 0. -1.
         11    1    3    3    0    0  0.47182832305E+00 -0.12125278599E+02  0.11209813462E+02  0.16519834176E+02  0.51100000000E-03 0. -1.
        -11    1    3    3    0    0  0.69041452910E+01 -0.22493634719E+02  0.16968492168E+02  0.29009663076E+02  0.51100000000E-03 0.  1.
         12    1    3    3    0    0 -0.89294032456E-01  0.94270909540E+01 -0.10040037102E+02  0.13772449394E+02  0.00000000000E+00 0. -1.
</event>
<event>
 7    1  0.6963701E-013  0.5930212E+02  0.7816164E-02  0.1266604E+00
        -11   -1    0    0    0    0  0.00000000000E+00  0.00000000000E+00  0.45593999997E+02  0.45594000000E+02  0.51100000000E-03 0.  1.
         11   -1    0    0    0    0 -0.00000000000E+00 -0.00000000000E+00 -0.45593999997E+02  0.45594000000E+02  0.51100000000E-03 0. -1.
    9900012    2    1    2    0    0 -0.31290872818E+01  0.25664146122E+02  0.18661985497E+02  0.59302120898E+02  0.50000322568E+02 0.  0.
         12    1    1    2    0    0  0.31290872818E+01 -0.25664146122E+02 -0.18661985497E+02  0.31885879102E+02  0.00000000000E+00 0. -1.
         11    1    3    3    0    0  0.12656902783E+02  0.90690794678E+01  0.23685391730E+01  0.15749773602E+02  0.51100000000E-03 0. -1.
        -11    1    3    3    0    0  0.54160946079E+00  0.22734471729E+02  0.70369001063E+01  0.23804779121E+02  0.51100000000E-03 0.  1.
         12    1    3    3    0    0 -0.16327599526E+02 -0.61394050751E+01  0.92565462179E+01  0.19747568175E+02  0.00000000000E+00 0. -1.
</event>
<event>
 7    1  0.6963701E-013  0.5930195E+02  0.7816164E-02  0.1266605E+00
        -11   -1    0    0    0    0  0.00000000000E+00  0.00000000000E+00  0.45593999997E+02  0.45594000000E+02  0.51100000000E-03 0.  1.
         11   -1    0    0    0    0 -0.00000000000E+00 -0.00000000000E+00 -0.45593999997E+02  0.45594000000E+02  0.51100000000E-03 0. -1.
    9900012    2    1    2    0    0 -0.11919911815E+02 -0.33239975322E+01  0.29386851044E+02  0.59301948636E+02  0.50000008405E+02 0.  0.
         12    1    1    2    0    0  0.11919911815E+02  0.33239975322E+01 -0.29386851044E+02  0.31886051364E+02  0.00000000000E+00 0. -1.
         11    1    3    3    0    0  0.15686682316E+01  0.17413788147E+02  0.12638981998E+02  0.21574165195E+02  0.51100000000E-03 0. -1.
        -11    1    3    3    0    0 -0.17816569085E+02 -0.67841431437E+01  0.11128923663E+02  0.22075046417E+02  0.51100000000E-03 0.  1.
        -12    1    3    3    0    0  0.43279890387E+01 -0.13953642536E+02  0.56189453833E+01  0.15652737024E+02  0.00000000000E+00 0.  1.
</event>
<event>
 7    1  0.6963701E-013  0.5930204E+02  0.7816164E-02  0.1266604E+00
        -11   -1    0    0    0    0  0.00000000000E+00  0.00000000000E+00  0.45593999997E+02  0.45594000000E+02  0.51100000000E-03 0.  1.
         11   -1    0    0    0    0 -0.00000000000E+00 -0.00000000000E+00 -0.45593999997E+02  0.45594000000E+02  0.51100000000E-03 0. -1.
    9900012    2    1    2    0    0  0.19286202438E+02 -0.47464525145E+01  0.24944504185E+02  0.59302035925E+02  0.50000167598E+02 0.  0.
         12    1    1    2    0    0 -0.19286202438E+02  0.47464525145E+01 -0.24944504185E+02  0.31885964075E+02  0.00000000000E+00 0. -1.
         11    1    3    3    0    0  0.71030338790E+01 -0.85651226018E+01 -0.12840659546E+01  0.11201037501E+02  0.51100000000E-03 0. -1.
        -11    1    3    3    0    0  0.17620530710E+02 -0.11181950399E+02  0.48510293390E+01  0.21425489566E+02  0.51100000000E-03 0.  1.
        -12    1    3    3    0    0 -0.54373621507E+01  0.15000620487E+02  0.21377540801E+02  0.26675508858E+02  0.00000000000E+00 0.  1.
</event>
<event>
 7    1  0.6963701E-013  0.5930190E+02  0.7816164E-02  0.1266605E+00
        -11   -1    0    0    0    0  0.00000000000E+00  0.00000000000E+00  0.45593999997E+02  0.45594000000E+02  0.51100000000E-03 0.  1.
         11   -1    0    0    0    0 -0.00000000000E+00 -0.00000000000E+00 -0.45593999997E+02  0.45594000000E+02  0.51100000000E-03 0. -1.
    9900012    2    1    2    0    0 -0.74519798265E+01  0.25664379751E+02  0.17393418901E+02  0.59301899386E+02  0.49999918583E+02 0.  0.
         12    1    1    2    0    0  0.74519798265E+01 -0.25664379751E+02 -0.17393418901E+02  0.31886100614E+02  0.00000000000E+00 0. -1.
         11    1    3    3    0    0 -0.21320373892E+02  0.12987701061E+02  0.62484366738E+01  0.25734834036E+02  0.51100000000E-03 0.  1.
        -11    1    3    3    0    0  0.40943669706E+01  0.94503676043E+01 -0.71761292453E+01  0.12552693733E+02  0.51100000000E-03 0. -1.
        -12    1    3    3    0    0  0.97740270946E+01  0.32263110858E+01  0.18321111472E+02  0.21014371617E+02  0.00000000000E+00 0.  1.
</event>
<event>
 7    1  0.6963701E-013  0.5930194E+02  0.7816164E-02  0.1266605E+00
        -11   -1    0    0    0    0  0.00000000000E+00  0.00000000000E+00  0.45593999997E+02  0.45594000000E+02  0.51100000000E-03 0.  1.
         11   -1    0    0    0    0 -0.00000000000E+00 -0.00000000000E+00 -0.45593999997E+02  0.45594000000E+02  0.51100000000E-03 0. -1.
    9900012    2    1    2    0    0 -0.22373466234E+01  0.26682579446E+02  0.17313443904E+02  0.59301935558E+02  0.49999984553E+02 0.  0.
         12    1    1    2    0    0  0.22373466234E+01 -0.26682579446E+02 -0.17313443904E+02  0.31886064442E+02  0.00000000000E+00 0. -1.
         11    1    3    3    0    0  0.26087179809E+01  0.25424594796E+01 -0.33607119882E+01  0.49561976392E+01  0.51100000000E-03 0. -1.
        -11    1    3    3    0    0 -0.14063161931E+02 -0.19704777116E+01 -0.64389647345E+01  0.15592163834E+02  0.51100000000E-03 0.  1.
        -12    1    3    3    0    0  0.92170973266E+01  0.26110597678E+02  0.27113120626E+02  0.38753574085E+02  0.00000000000E+00 0.  1.
</event>
<event>
 7    1  0.6963701E-013  0.5930191E+02  0.7816164E-02  0.1266605E+00
        -11   -1    0    0    0    0  0.00000000000E+00  0.00000000000E+00  0.45593999997E+02  0.45594000000E+02  0.51100000000E-03 0.  1.
         11   -1    0    0    0    0 -0.00000000000E+00 -0.00000000000E+00 -0.45593999997E+02  0.45594000000E+02  0.51100000000E-03 0. -1.
    9900012    2    1    2    0    0  0.11269202829E+02 -0.29219103869E+02 -0.59976370182E+01  0.59301911919E+02  0.49999941441E+02 0.  0.
         12    1    1    2    0    0 -0.11269202829E+02  0.29219103869E+02  0.59976370182E+01  0.31886088081E+02  0.00000000000E+00 0. -1.
         11    1    3    3    0    0  0.20691742218E+02 -0.18478754375E+02 -0.13094462928E+02  0.30676986796E+02  0.51100000000E-03 0. -1.
        -11    1    3    3    0    0  0.73570754892E+01 -0.33017277375E+01 -0.17467185499E+01  0.82509994401E+01  0.51100000000E-03 0.  1.
         12    1    3    3    0    0 -0.16779614878E+02 -0.74386217570E+01  0.88435444597E+01  0.20373925682E+02  0.00000000000E+00 0. -1.
</event>
<event>
 7    1  0.6963701E-013  0.5930194E+02  0.7816164E-02  0.1266605E+00
        -11   -1    0    0    0    0  0.00000000000E+00  0.00000000000E+00  0.45593999997E+02  0.45594000000E+02  0.51100000000E-03 0. -1.
         11   -1    0    0    0    0 -0.00000000000E+00 -0.00000000000E+00 -0.45593999997E+02  0.45594000000E+02  0.51100000000E-03 0.  1.
    9900012    2    1    2    0    0 -0.81607882781E+01 -0.30241505487E+02 -0.59643884794E+01  0.59301936439E+02  0.49999986160E+02 0.  0.
         12    1    1    2    0    0  0.81607882781E+01  0.30241505487E+02  0.59643884794E+01  0.31886063561E+02  0.00000000000E+00 0. -1.
         11    1    3    3    0    0 -0.20123614219E+01  0.18513828101E+01 -0.76304950716E+00  0.28389190924E+01  0.51100000000E-03 0. -1.
        -11    1    3    3    0    0 -0.15341208200E+02 -0.10554236211E+02 -0.21112245213E+02  0.28150869778E+02  0.51100000000E-03 0.  1.
         12    1    3    3    0    0  0.91927813440E+01 -0.21538652087E+02  0.15910906241E+02  0.28312147569E+02  0.00000000000E+00 0. -1.
</event>
<event>
 7    1  0.6963701E-013  0.5930194E+02  0.7816164E-02  0.1266605E+00
        -11   -1    0    0    0    0  0.00000000000E+00  0.00000000000E+00  0.45593999997E+02  0.45594000000E+02  0.51100000000E-03 0. -1.
         11   -1    0    0    0    0 -0.00000000000E+00 -0.00000000000E+00 -0.45593999997E+02  0.45594000000E+02  0.51100000000E-03 0.  1.
    9900012    2    1    2    0    0 -0.98602513236E+01 -0.13160747020E+02  0.27318329445E+02  0.59301938124E+02  0.49999989233E+02 0.  0.
         12    1    1    2    0    0  0.98602513236E+01  0.13160747020E+02 -0.27318329445E+02  0.31886061876E+02  0.00000000000E+00 0. -1.
         11    1    3    3    0    0  0.20337742078E+01  0.78341632809E+01  0.29660222542E+01  0.86201879395E+01  0.51100000000E-03 0. -1.
        -11    1    3    3    0    0 -0.24766520400E+02 -0.14791071842E+02  0.21819167629E+02  0.36169495645E+02  0.51100000000E-03 0.  1.
         12    1    3    3    0    0  0.12872494869E+02 -0.62038384592E+01  0.25331395622E+01  0.14512254539E+02  0.00000000000E+00 0. -1.
</event>
<event>
 7    1  0.6963701E-013  0.5930195E+02  0.7816164E-02  0.1266605E+00
        -11   -1    0    0    0    0  0.00000000000E+00  0.00000000000E+00  0.45593999997E+02  0.45594000000E+02  0.51100000000E-03 0.  1.
         11   -1    0    0    0    0 -0.00000000000E+00 -0.00000000000E+00 -0.45593999997E+02  0.45594000000E+02  0.51100000000E-03 0. -1.
    9900012    2    1    2    0    0  0.15782996351E+02  0.27557287316E+02  0.28658452481E+01  0.59301950903E+02  0.50000012539E+02 0.  0.
         12    1    1    2    0    0 -0.15782996351E+02 -0.27557287316E+02 -0.28658452481E+01  0.31886049097E+02  0.00000000000E+00 0. -1.
         11    1    3    3    0    0  0.25820864448E+00  0.11735729118E+02  0.11072409547E+02  0.16136674474E+02  0.51100000000E-03 0. -1.
        -11    1    3    3    0    0  0.23171108202E+02  0.22128584527E+02 -0.36212254003E+01  0.32244189897E+02  0.51100000000E-03 0.  1.
         12    1    3    3    0    0 -0.76463204954E+01 -0.63070263287E+01 -0.45853388988E+01  0.10921086532E+02  0.00000000000E+00 0. -1.
</event>
<event>
 7    1  0.6963701E-013  0.5930197E+02  0.7816164E-02  0.1266605E+00
        -11   -1    0    0    0    0  0.00000000000E+00  0.00000000000E+00  0.45593999997E+02  0.45594000000E+02  0.51100000000E-03 0.  1.
         11   -1    0    0    0    0 -0.00000000000E+00 -0.00000000000E+00 -0.45593999997E+02  0.45594000000E+02  0.51100000000E-03 0. -1.
    9900012    2    1    2    0    0  0.29283543718E+02  0.84503133281E+01  0.93693815005E+01  0.59301967984E+02  0.50000043690E+02 0.  0.
         12    1    1    2    0    0 -0.29283543718E+02 -0.84503133281E+01 -0.93693815005E+01  0.31886032016E+02  0.00000000000E+00 0. -1.
         11    1    3    3    0    0 -0.48492024893E+01  0.20370471822E+01 -0.45423089576E+01  0.69495968899E+01  0.51100000000E-03 0. -1.
        -11    1    3    3    0    0 -0.67840158980E+01  0.66801039260E+01  0.33572348643E+01  0.10095428984E+02  0.51100000000E-03 0.  1.
        -12    1    3    3    0    0  0.40916762106E+02 -0.26683778006E+00  0.10554455594E+02  0.42256942110E+02  0.00000000000E+00 0.  1.
</event>
<event>
 7    1  0.6963701E-013  0.5930212E+02  0.7816164E-02  0.1266604E+00
        -11   -1    0    0    0    0  0.00000000000E+00  0.00000000000E+00  0.45593999997E+02  0.45594000000E+02  0.51100000000E-03 0.  1.
         11   -1    0    0    0    0 -0.00000000000E+00 -0.00000000000E+00 -0.45593999997E+02  0.45594000000E+02  0.51100000000E-03 0. -1.
    9900012    2    1    2    0    0 -0.24540304603E+02 -0.14534034196E+02  0.14256390191E+02  0.59302119719E+02  0.50000320418E+02 0.  0.
         12    1    1    2    0    0  0.24540304603E+02  0.14534034196E+02 -0.14256390191E+02  0.31885880281E+02  0.00000000000E+00 0. -1.
         11    1    3    3    0    0 -0.14151266956E+02 -0.43185180102E+01  0.19862697695E+02  0.24767614222E+02  0.51100000000E-03 0. -1.
        -11    1    3    3    0    0 -0.13241175629E+02  0.62715661402E+01  0.40698946620E+01  0.15206094723E+02  0.51100000000E-03 0.  1.
         12    1    3    3    0    0  0.28521379821E+01 -0.16487082326E+02 -0.96762021664E+01  0.19328410774E+02  0.00000000000E+00 0. -1.
</event>
<event>
 7    1  0.6963701E-013  0.5930194E+02  0.7816164E-02  0.1266605E+00
        -11   -1    0    0    0    0  0.00000000000E+00  0.00000000000E+00  0.45593999997E+02  0.45594000000E+02  0.51100000000E-03 0. -1.
         11   -1    0    0    0    0 -0.00000000000E+00 -0.00000000000E+00 -0.45593999997E+02  0.45594000000E+02  0.51100000000E-03 0.  1.
    9900012    2    1    2    0    0  0.10849745468E+02  0.29654308283E+02  0.44300830087E+01  0.59301943300E+02  0.49999998672E+02 0.  0.
         12    1    1    2    0    0 -0.10849745468E+02 -0.29654308283E+02 -0.44300830087E+01  0.31886056700E+02  0.00000000000E+00 0. -1.
         11    1    3    3    0    0  0.11975465844E+01  0.67235043574E+01  0.11550864706E+02  0.13418722159E+02  0.51100000000E-03 0. -1.
        -11    1    3    3    0    0  0.53951629216E+01 -0.10228344252E+02 -0.42829944959E+01  0.12331701067E+02  0.51100000000E-03 0.  1.
         12    1    3    3    0    0  0.42570359622E+01  0.33159148178E+02 -0.28377872012E+01  0.33551520073E+02  0.00000000000E+00 0. -1.
</event>
<event>
 7    1  0.6963701E-013  0.5930193E+02  0.7816164E-02  0.1266605E+00
        -11   -1    0    0    0    0  0.00000000000E+00  0.00000000000E+00  0.45593999997E+02  0.45594000000E+02  0.51100000000E-03 0.  1.
         11   -1    0    0    0    0 -0.00000000000E+00 -0.00000000000E+00 -0.45593999997E+02  0.45594000000E+02  0.51100000000E-03 0. -1.
    9900012    2    1    2    0    0  0.46632513923E+01 -0.30045714833E+02 -0.96036714638E+01  0.59301930958E+02  0.49999976164E+02 0.  0.
         12    1    1    2    0    0 -0.46632513923E+01  0.30045714833E+02  0.96036714638E+01  0.31886069042E+02  0.00000000000E+00 0. -1.
         11    1    3    3    0    0 -0.20025236808E+01 -0.23009444959E+02 -0.15250543905E+02  0.27677134030E+02  0.51100000000E-03 0. -1.
        -11    1    3    3    0    0  0.23019664975E+01 -0.16576444734E+02 -0.41807529451E+01  0.17249819280E+02  0.51100000000E-03 0.  1.
        -12    1    3    3    0    0  0.43638085755E+01  0.95401748600E+01  0.98276253867E+01  0.14374977648E+02  0.00000000000E+00 0.  1.
</event>
<event>
 7    1  0.6963701E-013  0.5930196E+02  0.7816164E-02  0.1266605E+00
        -11   -1    0    0    0    0  0.00000000000E+00  0.00000000000E+00  0.45593999997E+02  0.45594000000E+02  0.51100000000E-03 0.  1.
         11   -1    0    0    0    0 -0.00000000000E+00 -0.00000000000E+00 -0.45593999997E+02  0.45594000000E+02  0.51100000000E-03 0. -1.
    9900012    2    1    2    0    0 -0.19166531482E+02 -0.17404992255E+02  0.18612618155E+02  0.59301964827E+02  0.50000037933E+02 0.  0.
         12    1    1    2    0    0  0.19166531482E+02  0.17404992255E+02 -0.18612618155E+02  0.31886035173E+02  0.00000000000E+00 0. -1.
         11    1    3    3    0    0  0.18470534790E+01 -0.16098918430E+01  0.32653858573E+01  0.40824139132E+01  0.51100000000E-03 0. -1.
        -11    1    3    3    0    0  0.13555057937E+02  0.32118376208E+00  0.96805954208E+01  0.16660032492E+02  0.51100000000E-03 0.  1.
        -12    1    3    3    0    0 -0.34568642898E+02 -0.16116284174E+02  0.56666368771E+01  0.38559518422E+02  0.00000000000E+00 0.  1.
</event>
<event>
 7    1  0.6963701E-013  0.5930194E+02  0.7816164E-02  0.1266605E+00
        -11   -1    0    0    0    0  0.00000000000E+00  0.00000000000E+00  0.45593999997E+02  0.45594000000E+02  0.51100000000E-03 0.  1.
         11   -1    0    0    0    0 -0.00000000000E+00 -0.00000000000E+00 -0.45593999997E+02  0.45594000000E+02  0.51100000000E-03 0. -1.
    9900012    2    1    2    0    0 -0.12055883345E+02 -0.28812563228E+02  0.64197083477E+01  0.59301940690E+02  0.49999993913E+02 0.  0.
         12    1    1    2    0    0  0.12055883345E+02  0.28812563228E+02 -0.64197083477E+01  0.31886059310E+02  0.00000000000E+00 0. -1.
         11    1    3    3    0    0 -0.56348805996E+01 -0.96620625346E+01 -0.10527291549E+02  0.15360052064E+02  0.51100000000E-03 0. -1.
        -11    1    3    3    0    0 -0.50514636757E+01 -0.22346772884E+02 -0.35219016025E+01  0.23179718177E+02  0.51100000000E-03 0.  1.
        -12    1    3    3    0    0 -0.13695390700E+01  0.31962721902E+01  0.20468901499E+02  0.20762170449E+02  0.00000000000E+00 0.  1.
</event>
<event>
 7    1  0.6963701E-013  0.5930202E+02  0.7816164E-02  0.1266605E+00
        -11   -1    0    0    0    0  0.00000000000E+00  0.00000000000E+00  0.45593999997E+02  0.45594000000E+02  0.51100000000E-03 0.  1.
         11   -1    0    0    0    0 -0.00000000000E+00 -0.00000000000E+00 -0.45593999997E+02  0.45594000000E+02  0.51100000000E-03 0. -1.
    9900012    2    1    2    0    0 -0.17969622652E+01 -0.22487833635E+02  0.22534067618E+02  0.59302016584E+02  0.50000132325E+02 0.  0.
         12    1    1    2    0    0  0.17969622652E+01  0.22487833635E+02 -0.22534067618E+02  0.31885983416E+02  0.00000000000E+00 0. -1.
         11    1    3    3    0    0 -0.43274324516E+01 -0.59556225570E+01 -0.43671020517E+01  0.85596549145E+01  0.51100000000E-03 0. -1.
        -11    1    3    3    0    0 -0.37762460613E+01 -0.28757068968E+02  0.20816486614E+02  0.35700912665E+02  0.51100000000E-03 0.  1.
        -12    1    3    3    0    0  0.63067162477E+01  0.12224857889E+02  0.60846830560E+01  0.15041449004E+02  0.00000000000E+00 0.  1.
</event>
<event>
 7    1  0.6963701E-013  0.5930194E+02  0.7816164E-02  0.1266605E+00
        -11   -1    0    0    0    0  0.00000000000E+00  0.00000000000E+00  0.45593999997E+02  0.45594000000E+02  0.51100000000E-03 0.  1.
         11   -1    0    0    0    0 -0.00000000000E+00 -0.00000000000E+00 -0.45593999997E+02  0.45594000000E+02  0.51100000000E-03 0. -1.
    9900012    2    1    2    0    0 -0.31362292618E+02 -0.53471177842E+01  0.21296840573E+01  0.59301943156E+02  0.49999998410E+02 0.  0.
         12    1    1    2    0    0  0.31362292618E+02  0.53471177842E+01 -0.21296840573E+01  0.31886056844E+02  0.00000000000E+00 0. -1.
         11    1    3    3    0    0 -0.12489888524E+02  0.48578888183E+01  0.10331668110E+02  0.16921576916E+02  0.51100000000E-03 0.  1.
        -11    1    3    3    0    0 -0.13153463759E+02  0.21189236249E+01 -0.20237892919E+02  0.24229646226E+02  0.51100000000E-03 0. -1.
         12    1    3    3    0    0 -0.57189403349E+01 -0.12323930227E+02  0.12035908866E+02  0.18150720014E+02  0.00000000000E+00 0. -1.
</event>
<event>
 7    1  0.6963701E-013  0.5930201E+02  0.7816164E-02  0.1266605E+00
        -11   -1    0    0    0    0  0.00000000000E+00  0.00000000000E+00  0.45593999997E+02  0.45594000000E+02  0.51100000000E-03 0. -1.
         11   -1    0    0    0    0 -0.00000000000E+00 -0.00000000000E+00 -0.45593999997E+02  0.45594000000E+02  0.51100000000E-03 0.  1.
    9900012    2    1    2    0    0  0.18277898979E+01  0.22441323641E+02 -0.22577915787E+02  0.59302013989E+02  0.50000127592E+02 0.  0.
         12    1    1    2    0    0 -0.18277898979E+01 -0.22441323641E+02  0.22577915787E+02  0.31885986011E+02  0.00000000000E+00 0. -1.
         11    1    3    3    0    0  0.33039228677E+00  0.91464274080E+01 -0.20751725260E+02  0.22680396710E+02  0.51100000000E-03 0. -1.
        -11    1    3    3    0    0  0.16710231439E+02  0.13208301240E+02 -0.59271076573E-02  0.21300025629E+02  0.51100000000E-03 0.  1.
         12    1    3    3    0    0 -0.15212833828E+02  0.86594992752E-01 -0.18202634188E+01  0.15321591650E+02  0.00000000000E+00 0. -1.
</event>
<event>
 7    1  0.6963701E-013  0.5930194E+02  0.7816164E-02  0.1266605E+00
        -11   -1    0    0    0    0  0.00000000000E+00  0.00000000000E+00  0.45593999997E+02  0.45594000000E+02  0.51100000000E-03 0.  1.
         11   -1    0    0    0    0 -0.00000000000E+00 -0.00000000000E+00 -0.45593999997E+02  0.45594000000E+02  0.51100000000E-03 0. -1.
    9900012    2    1    2    0    0  0.19709006775E+02  0.21645848090E+02  0.12638564187E+02  0.59301937335E+02  0.49999987794E+02 0.  0.
         12    1    1    2    0    0 -0.19709006775E+02 -0.21645848090E+02 -0.12638564187E+02  0.31886062665E+02  0.00000000000E+00 0. -1.
         11    1    3    3    0    0  0.12087506175E+02 -0.27442077528E+01  0.61660249831E+01  0.13844072597E+02  0.51100000000E-03 0. -1.
        -11    1    3    3    0    0  0.11302242238E+02 -0.63380962684E+01 -0.25816878744E+01  0.13212768690E+02  0.51100000000E-03 0.  1.
         12    1    3    3    0    0 -0.36807416379E+01  0.30728152111E+02  0.90542270782E+01  0.32245096048E+02  0.00000000000E+00 0. -1.
</event>
<event>
 7    1  0.6963701E-013  0.5930193E+02  0.7816164E-02  0.1266605E+00
        -11   -1    0    0    0    0  0.00000000000E+00  0.00000000000E+00  0.45593999997E+02  0.45594000000E+02  0.51100000000E-03 0. -1.
         11   -1    0    0    0    0 -0.00000000000E+00 -0.00000000000E+00 -0.45593999997E+02  0.45594000000E+02  0.51100000000E-03 0.  1.
    9900012    2    1    2    0    0  0.18265472128E+01  0.44987855698E+01 -0.31514225763E+02  0.59301925112E+02  0.49999965501E+02 0.  0.
         12    1    1    2    0    0 -0.18265472128E+01 -0.44987855698E+01  0.31514225763E+02  0.31886074888E+02  0.00000000000E+00 0. -1.
         11    1    3    3    0    0 -0.33222815880E+00 -0.87573923061E+01  0.86360864264E+01  0.12303832109E+02  0.51100000000E-03 0. -1.
        -11    1    3    3    0    0 -0.73757383884E+01  0.19536079810E+01 -0.23606988287E+02  0.24809433632E+02  0.51100000000E-03 0.  1.
        -12    1    3    3    0    0  0.95345137599E+01  0.11302569895E+02 -0.16543323903E+02  0.22188659370E+02  0.00000000000E+00 0.  1.
</event>
<event>
 7    1  0.6963701E-013  0.5930196E+02  0.7816164E-02  0.1266605E+00
        -11   -1    0    0    0    0  0.00000000000E+00  0.00000000000E+00  0.45593999997E+02  0.45594000000E+02  0.51100000000E-03 0.  1.
         11   -1    0    0    0    0 -0.00000000000E+00 -0.00000000000E+00 -0.45593999997E+02  0.45594000000E+02  0.51100000000E-03 0. -1.
    9900012    2    1    2    0    0  0.11775489984E+02 -0.83450766572E+01  0.28432676328E+02  0.59301959921E+02  0.50000028985E+02 0.  0.
         12    1    1    2    0    0 -0.11775489984E+02  0.83450766572E+01 -0.28432676328E+02  0.31886040079E+02  0.00000000000E+00 0. -1.
         11    1    3    3    0    0 -0.59158807848E+00 -0.15704393004E+02 -0.44530170237E+01  0.16334236957E+02  0.51100000000E-03 0. -1.
        -11    1    3    3    0    0  0.13298867275E+02  0.21152648863E+01  0.46686306206E+01  0.14252379748E+02  0.51100000000E-03 0.  1.
         12    1    3    3    0    0 -0.93178921235E+00  0.52440514609E+01  0.28217062731E+02  0.28715343216E+02  0.00000000000E+00 0. -1.
</event>
<event>
 7    1  0.6963701E-013  0.5930194E+02  0.7816164E-02  0.1266605E+00
        -11   -1    0    0    0    0  0.00000000000E+00  0.00000000000E+00  0.45593999997E+02  0.45594000000E+02  0.51100000000E-03 0. -1.
         11   -1    0    0    0    0 -0.00000000000E+00 -0.00000000000E+00 -0.45593999997E+02  0.45594000000E+02  0.51100000000E-03 0.  1.
    9900012    2    1    2    0    0 -0.58051672304E+01  0.25654429856E+02 -0.18024184942E+02  0.59301937518E+02  0.49999988128E+02 0.  0.
         12    1    1    2    0    0  0.58051672304E+01 -0.25654429856E+02  0.18024184942E+02  0.31886062482E+02  0.00000000000E+00 0. -1.
         11    1    3    3    0    0 -0.63940535009E+01  0.78470116020E+01 -0.49277954393E+00  0.10134216457E+02  0.51100000000E-03 0. -1.
        -11    1    3    3    0    0 -0.19429778539E+02  0.16033500903E+02 -0.56352847020E+01  0.25813676205E+02  0.51100000000E-03 0.  1.
         12    1    3    3    0    0  0.20018664810E+02  0.17739173508E+01 -0.11896120696E+02  0.23354044856E+02  0.00000000000E+00 0. -1.
</event>
<event>
 7    1  0.6963701E-013  0.5930192E+02  0.7816164E-02  0.1266605E+00
        -11   -1    0    0    0    0  0.00000000000E+00  0.00000000000E+00  0.45593999997E+02  0.45594000000E+02  0.51100000000E-03 0.  1.
         11   -1    0    0    0    0 -0.00000000000E+00 -0.00000000000E+00 -0.45593999997E+02  0.45594000000E+02  0.51100000000E-03 0. -1.
    9900012    2    1    2    0    0 -0.30144175388E+01 -0.20030720258E+02  0.24625304140E+02  0.59301920418E+02  0.49999956941E+02 0.  0.
         12    1    1    2    0    0  0.30144175388E+01  0.20030720258E+02 -0.24625304140E+02  0.31886079582E+02  0.00000000000E+00 0. -1.
         11    1    3    3    0    0 -0.23381637000E+01 -0.33771110640E+01 -0.56568357340E+01  0.69908282348E+01  0.51100000000E-03 0. -1.
        -11    1    3    3    0    0  0.87532994042E+01  0.48261164975E+01  0.26790299817E+02  0.28594261933E+02  0.51100000000E-03 0.  1.
         12    1    3    3    0    0 -0.94295532430E+01 -0.21479725691E+02  0.34918400563E+01  0.23716830250E+02  0.00000000000E+00 0. -1.
</event>
<event>
 7    1  0.6963701E-013  0.5930192E+02  0.7816164E-02  0.1266605E+00
        -11   -1    0    0    0    0  0.00000000000E+00  0.00000000000E+00  0.45593999997E+02  0.45594000000E+02  0.51100000000E-03 0.  1.
         11   -1    0    0    0    0 -0.00000000000E+00 -0.00000000000E+00 -0.45593999997E+02  0.45594000000E+02  0.51100000000E-03 0. -1.
    9900012    2    1    2    0    0 -0.29687005181E+02 -0.11329392887E+02  0.26548790646E+01  0.59301924628E+02  0.49999964619E+02 0.  0.
         12    1    1    2    0    0  0.29687005181E+02  0.11329392887E+02 -0.26548790646E+01  0.31886075372E+02  0.00000000000E+00 0. -1.
         11    1    3    3    0    0  0.19349416466E+01 -0.10570462401E+02 -0.12814523443E+02  0.16723955450E+02  0.51100000000E-03 0. -1.
        -11    1    3    3    0    0 -0.15173280498E+02  0.58540297974E+01 -0.34768587352E+01  0.16630894530E+02  0.51100000000E-03 0.  1.
        -12    1    3    3    0    0 -0.16448666329E+02 -0.66129602835E+01  0.18946261243E+02  0.25947074648E+02  0.00000000000E+00 0.  1.
</event>
<event>
 7    1  0.6963701E-013  0.5930194E+02  0.7816164E-02  0.1266605E+00
        -11   -1    0    0    0    0  0.00000000000E+00  0.00000000000E+00  0.45593999997E+02  0.45594000000E+02  0.51100000000E-03 0.  1.
         11   -1    0    0    0    0 -0.00000000000E+00 -0.00000000000E+00 -0.45593999997E+02  0.45594000000E+02  0.51100000000E-03 0. -1.
    9900012    2    1    2    0    0  0.20459118429E+02 -0.24409721287E+02  0.15200656213E+01  0.59301943177E+02  0.49999998449E+02 0.  0.
         12    1    1    2    0    0 -0.20459118429E+02  0.24409721287E+02 -0.15200656213E+01  0.31886056823E+02  0.00000000000E+00 0. -1.
         11    1    3    3    0    0 -0.33873418836E+01 -0.17565622354E+02  0.79871801190E+01  0.19591330231E+02  0.51100000000E-03 0. -1.
        -11    1    3    3    0    0  0.13991470739E+02  0.41888076879E+01  0.99034578414E+01  0.17646128209E+02  0.51100000000E-03 0.  1.
        -12    1    3    3    0    0  0.98549895733E+01 -0.11032906622E+02 -0.16370572339E+02  0.22064484737E+02  0.00000000000E+00 0.  1.
</event>
<event>
 7    1  0.6963701E-013  0.5930192E+02  0.7816164E-02  0.1266605E+00
        -11   -1    0    0    0    0  0.00000000000E+00  0.00000000000E+00  0.45593999997E+02  0.45594000000E+02  0.51100000000E-03 0.  1.
         11   -1    0    0    0    0 -0.00000000000E+00 -0.00000000000E+00 -0.45593999997E+02  0.45594000000E+02  0.51100000000E-03 0. -1.
    9900012    2    1    2    0    0 -0.49176520142E+01  0.11767054892E+02  0.29224563060E+02  0.59301922032E+02  0.49999959884E+02 0.  0.
         12    1    1    2    0    0  0.49176520142E+01 -0.11767054892E+02 -0.29224563060E+02  0.31886077968E+02  0.00000000000E+00 0. -1.
         11    1    3    3    0    0  0.86654280910E+01 -0.43366980147E+01 -0.50070106700E+01  0.10907187987E+02  0.51100000000E-03 0. -1.
        -11    1    3    3    0    0 -0.10049402782E+02  0.70264536220E+01 -0.55037290627E+00  0.12274545098E+02  0.51100000000E-03 0.  1.
        -12    1    3    3    0    0 -0.35336773234E+01  0.90772992848E+01  0.34781946636E+02  0.36120188946E+02  0.00000000000E+00 0.  1.
</event>
<event>
 7    1  0.6963701E-013  0.5930206E+02  0.7816164E-02  0.1266604E+00
        -11   -1    0    0    0    0  0.00000000000E+00  0.00000000000E+00  0.45593999997E+02  0.45594000000E+02  0.51100000000E-03 0.  1.
         11   -1    0    0    0    0 -0.00000000000E+00 -0.00000000000E+00 -0.45593999997E+02  0.45594000000E+02  0.51100000000E-03 0. -1.
    9900012    2    1    2    0    0  0.23646923629E+02 -0.16943530422E+02  0.13055766533E+02  0.59302058583E+02  0.50000208921E+02 0.  0.
         12    1    1    2    0    0 -0.23646923629E+02  0.16943530422E+02 -0.13055766533E+02  0.31885941417E+02  0.00000000000E+00 0. -1.
         11    1    3    3    0    0  0.10038295745E+02 -0.52218028204E+01  0.19581388882E+02  0.22615600743E+02  0.51100000000E-03 0. -1.
        -11    1    3    3    0    0  0.15391720070E+02 -0.20748581206E+02 -0.79485975758E+00  0.25846478891E+02  0.51100000000E-03 0.  1.
         12    1    3    3    0    0 -0.17830921862E+01  0.90268536043E+01 -0.57307625913E+01  0.10839978949E+02  0.00000000000E+00 0. -1.
</event>
<event>
 7    1  0.6963701E-013  0.5930196E+02  0.7816164E-02  0.1266605E+00
        -11   -1    0    0    0    0  0.00000000000E+00  0.00000000000E+00  0.45593999997E+02  0.45594000000E+02  0.51100000000E-03 0.  1.
         11   -1    0    0    0    0 -0.00000000000E+00 -0.00000000000E+00 -0.45593999997E+02  0.45594000000E+02  0.51100000000E-03 0. -1.
    9900012    2    1    2    0    0 -0.15316948675E+02 -0.99978040387E+01  0.26118090175E+02  0.59301958591E+02  0.50000026560E+02 0.  0.
         12    1    1    2    0    0  0.15316948675E+02  0.99978040387E+01 -0.26118090175E+02  0.31886041409E+02  0.00000000000E+00 0. -1.
         11    1    3    3    0    0  0.33521282535E+01  0.27961666797E+01  0.26433080866E+01  0.51031744856E+01  0.51100000000E-03 0. -1.
        -11    1    3    3    0    0 -0.30678596928E+01  0.15855409665E+02  0.92446442936E+01  0.18608310700E+02  0.51100000000E-03 0.  1.
         12    1    3    3    0    0 -0.15601217236E+02 -0.28649380383E+02  0.14230137795E+02  0.35590473406E+02  0.00000000000E+00 0. -1.
</event>
<event>
 7    1  0.6963701E-013  0.5930198E+02  0.7816164E-02  0.1266605E+00
        -11   -1    0    0    0    0  0.00000000000E+00  0.00000000000E+00  0.45593999997E+02  0.45594000000E+02  0.51100000000E-03 0. -1.
         11   -1    0    0    0    0 -0.00000000000E+00 -0.00000000000E+00 -0.45593999997E+02  0.45594000000E+02  0.51100000000E-03 0.  1.
    9900012    2    1    2    0    0  0.90587877497E+01  0.28978300609E+02 -0.97424212062E+01  0.59301979354E+02  0.50000064427E+02 0.  0.
         12    1    1    2    0    0 -0.90587877497E+01 -0.28978300609E+02  0.97424212062E+01  0.31886020646E+02  0.00000000000E+00 0. -1.
         11    1    3    3    0    0  0.92659408672E+00 -0.20476870109E+00  0.59324240136E+01  0.60078416891E+01  0.51100000000E-03 0. -1.
        -11    1    3    3    0    0 -0.11279599792E+02 -0.19379991248E+01 -0.11755266509E+02  0.16406446996E+02  0.51100000000E-03 0.  1.
         12    1    3    3    0    0  0.19411793455E+02  0.31121068435E+02 -0.39195787106E+01  0.36887690669E+02  0.00000000000E+00 0. -1.
</event>
<event>
 7    1  0.6963701E-013  0.5930195E+02  0.7816164E-02  0.1266605E+00
        -11   -1    0    0    0    0  0.00000000000E+00  0.00000000000E+00  0.45593999997E+02  0.45594000000E+02  0.51100000000E-03 0. -1.
         11   -1    0    0    0    0 -0.00000000000E+00 -0.00000000000E+00 -0.45593999997E+02  0.45594000000E+02  0.51100000000E-03 0.  1.
    9900012    2    1    2    0    0 -0.24924829337E+02  0.10038558228E+00 -0.19886249819E+02  0.59301950909E+02  0.50000012550E+02 0.  0.
         12    1    1    2    0    0  0.24924829337E+02 -0.10038558228E+00  0.19886249819E+02  0.31886049091E+02  0.00000000000E+00 0. -1.
         11    1    3    3    0    0 -0.54488862571E+01 -0.87701446703E+01 -0.10041074424E+02  0.14402394760E+02  0.51100000000E-03 0. -1.
        -11    1    3    3    0    0 -0.19766634747E+02 -0.10733637333E+02  0.95919375687E+00  0.22513348763E+02  0.51100000000E-03 0.  1.
         12    1    3    3    0    0  0.29069166683E+00  0.19604167585E+02 -0.10804369152E+02  0.22386207386E+02  0.00000000000E+00 0. -1.
</event>
<event>
 7    1  0.6963701E-013  0.5930194E+02  0.7816164E-02  0.1266605E+00
        -11   -1    0    0    0    0  0.00000000000E+00  0.00000000000E+00  0.45593999997E+02  0.45594000000E+02  0.51100000000E-03 0.  1.
         11   -1    0    0    0    0 -0.00000000000E+00 -0.00000000000E+00 -0.45593999997E+02  0.45594000000E+02  0.51100000000E-03 0. -1.
    9900012    2    1    2    0    0 -0.10808569125E+01 -0.23264443312E+02  0.21778849623E+02  0.59301939328E+02  0.49999991429E+02 0.  0.
         12    1    1    2    0    0  0.10808569125E+01  0.23264443312E+02 -0.21778849623E+02  0.31886060672E+02  0.00000000000E+00 0. -1.
         11    1    3    3    0    0  0.44571351998E+01  0.31652970359E+01  0.12441093592E+02  0.13589185758E+02  0.51100000000E-03 0. -1.
        -11    1    3    3    0    0 -0.48860199664E+01 -0.31030695115E+00  0.17632926033E+02  0.18299988040E+02  0.51100000000E-03 0.  1.
        -12    1    3    3    0    0 -0.65197214591E+00 -0.26119433397E+02 -0.82951700026E+01  0.27412765531E+02  0.00000000000E+00 0.  1.
</event>
<event>
 7    1  0.6963701E-013  0.5930194E+02  0.7816164E-02  0.1266605E+00
        -11   -1    0    0    0    0  0.00000000000E+00  0.00000000000E+00  0.45593999997E+02  0.45594000000E+02  0.51100000000E-03 0.  1.
         11   -1    0    0    0    0 -0.00000000000E+00 -0.00000000000E+00 -0.45593999997E+02  0.45594000000E+02  0.51100000000E-03 0. -1.
    9900012    2    1    2    0    0  0.15378038040E+02 -0.20947577980E+02  0.18477987406E+02  0.59301935712E+02  0.49999984834E+02 0.  0.
         12    1    1    2    0    0 -0.15378038040E+02  0.20947577980E+02 -0.18477987406E+02  0.31886064288E+02  0.00000000000E+00 0. -1.
         11    1    3    3    0    0  0.20662769361E+02 -0.21251992712E+02  0.21896217598E+02  0.36851615667E+02  0.51100000000E-03 0. -1.
        -11    1    3    3    0    0  0.49565176192E+01 -0.61086776182E+01  0.34067767686E+01  0.85725805546E+01  0.51100000000E-03 0.  1.
         12    1    3    3    0    0 -0.10241248941E+02  0.64130923498E+01 -0.68250069602E+01  0.13877739490E+02  0.00000000000E+00 0. -1.
</event>
<event>
 7    1  0.6963701E-013  0.5930204E+02  0.7816164E-02  0.1266604E+00
        -11   -1    0    0    0    0  0.00000000000E+00  0.00000000000E+00  0.45593999997E+02  0.45594000000E+02  0.51100000000E-03 0. -1.
         11   -1    0    0    0    0 -0.00000000000E+00 -0.00000000000E+00 -0.45593999997E+02  0.45594000000E+02  0.51100000000E-03 0.  1.
    9900012    2    1    2    0    0 -0.12991526688E+01  0.23481910670E+02 -0.21531980981E+02  0.59302044920E+02  0.50000184004E+02 0.  0.
         12    1    1    2    0    0  0.12991526688E+01 -0.23481910670E+02  0.21531980981E+02  0.31885955080E+02  0.00000000000E+00 0. -1.
         11    1    3    3    0    0  0.14497962498E+02  0.33120668736E+00 -0.26845876891E+01  0.14748139740E+02  0.51100000000E-03 0. -1.
        -11    1    3    3    0    0  0.79170966159E-01  0.23756754365E+02 -0.71013753096E+01  0.24795547534E+02  0.51100000000E-03 0.  1.
         12    1    3    3    0    0 -0.15876286133E+02 -0.60605038223E+00 -0.11746017983E+02  0.19758357646E+02  0.00000000000E+00 0. -1.
</event>
<event>
 7    1  0.6963701E-013  0.5930194E+02  0.7816164E-02  0.1266605E+00
        -11   -1    0    0    0    0  0.00000000000E+00  0.00000000000E+00  0.45593999997E+02  0.45594000000E+02  0.51100000000E-03 0. -1.
         11   -1    0    0    0    0 -0.00000000000E+00 -0.00000000000E+00 -0.45593999997E+02  0.45594000000E+02  0.51100000000E-03 0.  1.
    9900012    2    1    2    0    0  0.24459141427E+02 -0.94969208869E+00  0.20434509920E+02  0.59301941760E+02  0.49999995864E+02 0.  0.
         12    1    1    2    0    0 -0.24459141427E+02  0.94969208869E+00 -0.20434509920E+02  0.31886058240E+02  0.00000000000E+00 0. -1.
         11    1    3    3    0    0  0.42134760848E+01  0.13247095119E+02  0.13441103768E+02  0.19336550379E+02  0.51100000000E-03 0. -1.
        -11    1    3    3    0    0 -0.96493600753E+00  0.82404205758E+01  0.30461645582E+01  0.88382550055E+01  0.51100000000E-03 0.  1.
         12    1    3    3    0    0  0.21210601350E+02 -0.22437207783E+02  0.39472415935E+01  0.31127136375E+02  0.00000000000E+00 0. -1.
</event>
<event>
 7    1  0.6963701E-013  0.5930193E+02  0.7816164E-02  0.1266605E+00
        -11   -1    0    0    0    0  0.00000000000E+00  0.00000000000E+00  0.45593999997E+02  0.45594000000E+02  0.51100000000E-03 0. -1.
         11   -1    0    0    0    0 -0.00000000000E+00 -0.00000000000E+00 -0.45593999997E+02  0.45594000000E+02  0.51100000000E-03 0.  1.
    9900012    2    1    2    0    0  0.25432429750E+02 -0.19075091753E+02  0.24605010132E+01  0.59301926651E+02  0.49999968309E+02 0.  0.
         12    1    1    2    0    0 -0.25432429750E+02  0.19075091753E+02 -0.24605010132E+01  0.31886073349E+02  0.00000000000E+00 0. -1.
         11    1    3    3    0    0  0.21684585517E+01  0.69658079120E+01 -0.12863476495E+02  0.14788296729E+02  0.51100000000E-03 0. -1.
        -11    1    3    3    0    0  0.58230207414E+01  0.38652848338E+01  0.41809631118E+01  0.81442280300E+01  0.51100000000E-03 0.  1.
        -12    1    3    3    0    0  0.17440950456E+02 -0.29906184499E+02  0.11143014396E+02  0.36369401892E+02  0.00000000000E+00 0.  1.
</event>
<event>
 7    1  0.6963701E-013  0.5930195E+02  0.7816164E-02  0.1266605E+00
        -11   -1    0    0    0    0  0.00000000000E+00  0.00000000000E+00  0.45593999997E+02  0.45594000000E+02  0.51100000000E-03 0. -1.
         11   -1    0    0    0    0 -0.00000000000E+00 -0.00000000000E+00 -0.45593999997E+02  0.45594000000E+02  0.51100000000E-03 0.  1.
    9900012    2    1    2    0    0 -0.17641374895E+02  0.26521105285E+02  0.14605811223E+01  0.59301946137E+02  0.50000003846E+02 0.  0.
         12    1    1    2    0    0  0.17641374895E+02 -0.26521105285E+02 -0.14605811223E+01  0.31886053863E+02  0.00000000000E+00 0. -1.
         11    1    3    3    0    0 -0.20645919273E+01  0.12596602509E+02 -0.44427966333E+01  0.13515745514E+02  0.51100000000E-03 0. -1.
        -11    1    3    3    0    0 -0.14452402272E+02  0.19344683705E+02 -0.12058507834E+02  0.26990671176E+02  0.51100000000E-03 0.  1.
         12    1    3    3    0    0 -0.11243806962E+01 -0.54201809292E+01  0.17961885590E+02  0.18795529447E+02  0.00000000000E+00 0. -1.
</event>
<event>
 7    1  0.6963701E-013  0.5930196E+02  0.7816164E-02  0.1266605E+00
        -11   -1    0    0    0    0  0.00000000000E+00  0.00000000000E+00  0.45593999997E+02  0.45594000000E+02  0.51100000000E-03 0.  1.
         11   -1    0    0    0    0 -0.00000000000E+00 -0.00000000000E+00 -0.45593999997E+02  0.45594000000E+02  0.51100000000E-03 0. -1.
    9900012    2    1    2    0    0 -0.26344890660E+02  0.77955218581E+01  0.16183207937E+02  0.59301958476E+02  0.50000026350E+02 0.  0.
         12    1    1    2    0    0  0.26344890660E+02 -0.77955218581E+01 -0.16183207937E+02  0.31886041524E+02  0.00000000000E+00 0. -1.
         11    1    3    3    0    0  0.39075888234E+01  0.45128188821E+01  0.10743361551E+02  0.12290427264E+02  0.51100000000E-03 0. -1.
        -11    1    3    3    0    0 -0.35895062281E+01 -0.90027853769E+01  0.13452703663E+02  0.16580408186E+02  0.51100000000E-03 0.  1.
         12    1    3    3    0    0 -0.26662973255E+02  0.12285488353E+02 -0.80128572759E+01  0.30431123026E+02  0.00000000000E+00 0. -1.
</event>
<event>
 7    1  0.6963701E-013  0.5930185E+02  0.7816164E-02  0.1266605E+00
        -11   -1    0    0    0    0  0.00000000000E+00  0.00000000000E+00  0.45593999997E+02  0.45594000000E+02  0.51100000000E-03 0.  1.
         11   -1    0    0    0    0 -0.00000000000E+00 -0.00000000000E+00 -0.45593999997E+02  0.45594000000E+02  0.51100000000E-03 0. -1.
    9900012    2    1    2    0    0 -0.19067801813E+02 -0.12304513106E+02  0.22399648471E+02  0.59301853159E+02  0.49999834277E+02 0.  0.
         12    1    1    2    0    0  0.19067801813E+02  0.12304513106E+02 -0.22399648471E+02  0.31886146841E+02  0.00000000000E+00 0. -1.
         11    1    3    3    0    0  0.92676301511E+01 -0.10509317784E+02 -0.22820524203E+01  0.14196566219E+02  0.51100000000E-03 0. -1.
        -11    1    3    3    0    0 -0.13544004268E+01  0.10089575310E+01  0.16761433333E+02  0.16846306522E+02  0.51100000000E-03 0.  1.
        -12    1    3    3    0    0 -0.26981031537E+02 -0.28041528528E+01  0.79202675586E+01  0.28258980417E+02  0.00000000000E+00 0.  1.
</event>
<event>
 7    1  0.6963701E-013  0.5930194E+02  0.7816164E-02  0.1266605E+00
        -11   -1    0    0    0    0  0.00000000000E+00  0.00000000000E+00  0.45593999997E+02  0.45594000000E+02  0.51100000000E-03 0. -1.
         11   -1    0    0    0    0 -0.00000000000E+00 -0.00000000000E+00 -0.45593999997E+02  0.45594000000E+02  0.51100000000E-03 0.  1.
    9900012    2    1    2    0    0  0.17623464957E+02  0.16653357760E+02 -0.20707489303E+02  0.59301937920E+02  0.49999988860E+02 0.  0.
         12    1    1    2    0    0 -0.17623464957E+02 -0.16653357760E+02  0.20707489303E+02  0.31886062080E+02  0.00000000000E+00 0. -1.
         11    1    3    3    0    0  0.50810825645E+00  0.19551498976E+02  0.54284635324E+01  0.20297475281E+02  0.51100000000E-03 0. -1.
        -11    1    3    3    0    0  0.20709425809E+01 -0.66073852554E+00  0.43902240122E+01  0.48989229134E+01  0.51100000000E-03 0.  1.
        -12    1    3    3    0    0  0.15044414120E+02 -0.22374026907E+01 -0.30526176848E+02  0.34105539725E+02  0.00000000000E+00 0.  1.
</event>
<event>
 7    1  0.7946558E-013  0.5930180E+02  0.7816164E-02  0.1266605E+00
        -11   -1    0    0    0    0  0.00000000000E+00  0.00000000000E+00  0.45593999997E+02  0.45594000000E+02  0.51100000000E-03 0.  1.
         11   -1    0    0    0    0 -0.00000000000E+00 -0.00000000000E+00 -0.45593999997E+02  0.45594000000E+02  0.51100000000E-03 0. -1.
    9900012    2    1    2    0    0 -0.18288051897E+02  0.18397885825E+02  0.18541695328E+02  0.59301803760E+02  0.49999744185E+02 0.  0.
         12    1    1    2    0    0  0.18288051897E+02 -0.18397885825E+02 -0.18541695328E+02  0.31886196240E+02  0.00000000000E+00 0. -1.
         11    1    3    3    0    0 -0.11499508779E+02  0.10418239907E+01 -0.98788309532E+01  0.15195900784E+02  0.51100000000E-03 0. -1.
        -11    1    3    3    0    0 -0.10459498971E+02  0.13980345761E+02  0.24146610992E+01  0.17626167332E+02  0.51100000000E-03 0.  1.
        -12    1    3    3    0    0  0.36709558533E+01  0.33757160727E+01  0.26005865182E+02  0.26479735644E+02  0.00000000000E+00 0.  1.
</event>
<event>
 7    1  0.6963701E-013  0.5930193E+02  0.7816164E-02  0.1266605E+00
        -11   -1    0    0    0    0  0.00000000000E+00  0.00000000000E+00  0.45593999997E+02  0.45594000000E+02  0.51100000000E-03 0. -1.
         11   -1    0    0    0    0 -0.00000000000E+00 -0.00000000000E+00 -0.45593999997E+02  0.45594000000E+02  0.51100000000E-03 0.  1.
    9900012    2    1    2    0    0  0.24067046617E+02  0.19195850946E+02 -0.83077091821E+01  0.59301930028E+02  0.49999974469E+02 0.  0.
         12    1    1    2    0    0 -0.24067046617E+02 -0.19195850946E+02  0.83077091821E+01  0.31886069972E+02  0.00000000000E+00 0. -1.
         11    1    3    3    0    0 -0.64702916407E+01 -0.90509755045E+00  0.92712736022E+00  0.65987454031E+01  0.51100000000E-03 0. -1.
        -11    1    3    3    0    0  0.20884852886E+02  0.11573304251E+02 -0.23487528021E+02  0.33493020529E+02  0.51100000000E-03 0.  1.
         12    1    3    3    0    0  0.96524853714E+01  0.85276442451E+01  0.14252691479E+02  0.19210164096E+02  0.00000000000E+00 0. -1.
</event>
<event>
 7    1  0.6963701E-013  0.5930201E+02  0.7816164E-02  0.1266605E+00
        -11   -1    0    0    0    0  0.00000000000E+00  0.00000000000E+00  0.45593999997E+02  0.45594000000E+02  0.51100000000E-03 0.  1.
         11   -1    0    0    0    0 -0.00000000000E+00 -0.00000000000E+00 -0.45593999997E+02  0.45594000000E+02  0.51100000000E-03 0. -1.
    9900012    2    1    2    0    0 -0.57437787573E+00  0.21241484964E+01  0.31809976211E+02  0.59302007726E+02  0.50000116169E+02 0.  0.
         12    1    1    2    0    0  0.57437787573E+00 -0.21241484964E+01 -0.31809976211E+02  0.31885992274E+02  0.00000000000E+00 0. -1.
         11    1    3    3    0    0  0.12143650823E+02  0.15775514122E+01 -0.74229811275E+01  0.14319831453E+02  0.51100000000E-03 0. -1.
        -11    1    3    3    0    0  0.36112263080E+01  0.33774427273E+01  0.54858712838E+01  0.73853137257E+01  0.51100000000E-03 0.  1.
        -12    1    3    3    0    0 -0.16329255007E+02 -0.28308456430E+01  0.33747086055E+02  0.37596862546E+02  0.00000000000E+00 0.  1.
</event>
<event>
 7    1  0.6963701E-013  0.5930196E+02  0.7816164E-02  0.1266605E+00
        -11   -1    0    0    0    0  0.00000000000E+00  0.00000000000E+00  0.45593999997E+02  0.45594000000E+02  0.51100000000E-03 0. -1.
         11   -1    0    0    0    0 -0.00000000000E+00 -0.00000000000E+00 -0.45593999997E+02  0.45594000000E+02  0.51100000000E-03 0.  1.
    9900012    2    1    2    0    0 -0.71267099811E+01  0.30304780396E+02  0.68956582781E+01  0.59301955825E+02  0.50000021516E+02 0.  0.
         12    1    1    2    0    0  0.71267099811E+01 -0.30304780396E+02 -0.68956582781E+01  0.31886044175E+02  0.00000000000E+00 0. -1.
         11    1    3    3    0    0 -0.88321302476E+00  0.25284952381E+02  0.23754373838E+01  0.25411642709E+02  0.51100000000E-03 0. -1.
        -11    1    3    3    0    0 -0.12353252105E+02  0.10247237403E+02 -0.88201531030E+01  0.18314033225E+02  0.51100000000E-03 0.  1.
         12    1    3    3    0    0  0.61097551482E+01 -0.52274093869E+01  0.13340373997E+02  0.15576279891E+02  0.00000000000E+00 0. -1.
</event>
<event>
 7    1  0.6963701E-013  0.5930194E+02  0.7816164E-02  0.1266605E+00
        -11   -1    0    0    0    0  0.00000000000E+00  0.00000000000E+00  0.45593999997E+02  0.45594000000E+02  0.51100000000E-03 0.  1.
         11   -1    0    0    0    0 -0.00000000000E+00 -0.00000000000E+00 -0.45593999997E+02  0.45594000000E+02  0.51100000000E-03 0. -1.
    9900012    2    1    2    0    0 -0.13854722458E+02  0.28673023414E+02 -0.16202615629E+01  0.59301939510E+02  0.49999991760E+02 0.  0.
         12    1    1    2    0    0  0.13854722458E+02 -0.28673023414E+02  0.16202615629E+01  0.31886060490E+02  0.00000000000E+00 0. -1.
         11    1    3    3    0    0 -0.20353217978E+02  0.17186600010E+02  0.11739426160E+02  0.29110940019E+02  0.51100000000E-03 0. -1.
        -11    1    3    3    0    0 -0.33848943109E+01 -0.58381917488E+01 -0.12682375384E+01  0.68666162778E+01  0.51100000000E-03 0.  1.
        -12    1    3    3    0    0  0.98833898305E+01  0.17324615152E+02 -0.12091450184E+02  0.23324383213E+02  0.00000000000E+00 0.  1.
</event>
<event>
 7    1  0.6963701E-013  0.5930169E+02  0.7816164E-02  0.1266606E+00
        -11   -1    0    0    0    0  0.00000000000E+00  0.00000000000E+00  0.45593999997E+02  0.45594000000E+02  0.51100000000E-03 0.  1.
         11   -1    0    0    0    0 -0.00000000000E+00 -0.00000000000E+00 -0.45593999997E+02  0.45594000000E+02  0.51100000000E-03 0. -1.
    9900012    2    1    2    0    0 -0.68044410696E+01 -0.21027833963E+02  0.22984050405E+02  0.59301689576E+02  0.49999535939E+02 0.  0.
         12    1    1    2    0    0  0.68044410696E+01  0.21027833963E+02 -0.22984050405E+02  0.31886310424E+02  0.00000000000E+00 0. -1.
         11    1    3    3    0    0  0.16198045891E+01 -0.10955200984E+02 -0.73754957604E+01  0.13305567763E+02  0.51100000000E-03 0. -1.
        -11    1    3    3    0    0  0.91823315452E+01 -0.95813547089E+00 -0.57891664160E+00  0.92503178824E+01  0.51100000000E-03 0.  1.
        -12    1    3    3    0    0 -0.17606577204E+02 -0.91144975080E+01  0.30938462807E+02  0.36745803931E+02  0.00000000000E+00 0.  1.
</event>
<event>
 7    1  0.6963701E-013  0.5930194E+02  0.7816164E-02  0.1266605E+00
        -11   -1    0    0    0    0  0.00000000000E+00  0.00000000000E+00  0.45593999997E+02  0.45594000000E+02  0.51100000000E-03 0.  1.
         11   -1    0    0    0    0 -0.00000000000E+00 -0.00000000000E+00 -0.45593999997E+02  0.45594000000E+02  0.51100000000E-03 0. -1.
    9900012    2    1    2    0    0 -0.26074394989E+02  0.13686875550E+02  0.12227672876E+02  0.59301943167E+02  0.49999998431E+02 0.  0.
         12    1    1    2    0    0  0.26074394989E+02 -0.13686875550E+02 -0.12227672876E+02  0.31886056833E+02  0.00000000000E+00 0. -1.
         11    1    3    3    0    0 -0.10873584258E+02  0.14459676276E+02 -0.12891973608E+02  0.22215311305E+02  0.51100000000E-03 0. -1.
        -11    1    3    3    0    0 -0.11306200586E+02  0.18349802936E+01 -0.80386553898E-01  0.11454422143E+02  0.51100000000E-03 0.  1.
        -12    1    3    3    0    0 -0.38946101457E+01 -0.26077810197E+01  0.25200033037E+02  0.25632209720E+02  0.00000000000E+00 0.  1.
</event>
<event>
 7    1  0.6963701E-013  0.5930206E+02  0.7816164E-02  0.1266604E+00
        -11   -1    0    0    0    0  0.00000000000E+00  0.00000000000E+00  0.45593999997E+02  0.45594000000E+02  0.51100000000E-03 0.  1.
         11   -1    0    0    0    0 -0.00000000000E+00 -0.00000000000E+00 -0.45593999997E+02  0.45594000000E+02  0.51100000000E-03 0. -1.
    9900012    2    1    2    0    0 -0.93275738256E+01 -0.92680801626E+01  0.29048443564E+02  0.59302062396E+02  0.50000215875E+02 0.  0.
         12    1    1    2    0    0  0.93275738256E+01  0.92680801626E+01 -0.29048443564E+02  0.31885937604E+02  0.00000000000E+00 0. -1.
         11    1    3    3    0    0 -0.10617505164E+02 -0.16420552288E+02 -0.39342813234E+01  0.19946040287E+02  0.51100000000E-03 0. -1.
        -11    1    3    3    0    0 -0.79314089762E+01  0.85725780188E+01  0.14217229259E+02  0.18399074713E+02  0.51100000000E-03 0.  1.
        -12    1    3    3    0    0  0.92213403145E+01 -0.14201058935E+01  0.18765495629E+02  0.20956947395E+02  0.00000000000E+00 0.  1.
</event>
<event>
 7    1  0.6963701E-013  0.5930195E+02  0.7816164E-02  0.1266605E+00
        -11   -1    0    0    0    0  0.00000000000E+00  0.00000000000E+00  0.45593999997E+02  0.45594000000E+02  0.51100000000E-03 0.  1.
         11   -1    0    0    0    0 -0.00000000000E+00 -0.00000000000E+00 -0.45593999997E+02  0.45594000000E+02  0.51100000000E-03 0. -1.
    9900012    2    1    2    0    0 -0.12770375723E+02  0.66959573265E+01 -0.28439445048E+02  0.59301947011E+02  0.50000005440E+02 0.  0.
         12    1    1    2    0    0  0.12770375723E+02 -0.66959573265E+01  0.28439445048E+02  0.31886052989E+02  0.00000000000E+00 0. -1.
         11    1    3    3    0    0 -0.15586457092E+00 -0.10565677224E+01 -0.16373363493E+02  0.16408158381E+02  0.51100000000E-03 0. -1.
        -11    1    3    3    0    0  0.13568260273E+02  0.66581346241E+00 -0.70642927302E+01  0.15311604307E+02  0.51100000000E-03 0.  1.
        -12    1    3    3    0    0 -0.26182771425E+02  0.70867115865E+01 -0.50017888244E+01  0.27582184323E+02  0.00000000000E+00 0.  1.
</event>
<event>
 7    1  0.6963701E-013  0.5930201E+02  0.7816164E-02  0.1266605E+00
        -11   -1    0    0    0    0  0.00000000000E+00  0.00000000000E+00  0.45593999997E+02  0.45594000000E+02  0.51100000000E-03 0.  1.
         11   -1    0    0    0    0 -0.00000000000E+00 -0.00000000000E+00 -0.45593999997E+02  0.45594000000E+02  0.51100000000E-03 0. -1.
    9900012    2    1    2    0    0  0.26249993308E+02  0.17624326075E+02  0.41275984089E+01  0.59302014256E+02  0.50000128079E+02 0.  0.
         12    1    1    2    0    0 -0.26249993308E+02 -0.17624326075E+02 -0.41275984089E+01  0.31885985744E+02  0.00000000000E+00 0. -1.
         11    1    3    3    0    0  0.25435478762E+01 -0.10056383241E+01 -0.12416703560E+02  0.12714380512E+02  0.51100000000E-03 0. -1.
        -11    1    3    3    0    0  0.12029363615E+02 -0.38804470075E+01  0.17049425898E+02  0.21223722144E+02  0.51100000000E-03 0.  1.
        -12    1    3    3    0    0  0.11677081817E+02  0.22510411406E+02 -0.50512392879E+00  0.25363911599E+02  0.00000000000E+00 0.  1.
</event>
<event>
 7    1  0.6963701E-013  0.5930172E+02  0.7816164E-02  0.1266606E+00
        -11   -1    0    0    0    0  0.00000000000E+00  0.00000000000E+00  0.45593999997E+02  0.45594000000E+02  0.51100000000E-03 0.  1.
         11   -1    0    0    0    0 -0.00000000000E+00 -0.00000000000E+00 -0.45593999997E+02  0.45594000000E+02  0.51100000000E-03 0. -1.
    9900012    2    1    2    0    0  0.36263452586E+01  0.18357647816E+02  0.25818230133E+02  0.59301723635E+02  0.49999598054E+02 0.  0.
         12    1    1    2    0    0 -0.36263452586E+01 -0.18357647816E+02 -0.25818230133E+02  0.31886276365E+02  0.00000000000E+00 0. -1.
         11    1    3    3    0    0  0.78176758379E+01  0.20273078201E+02 -0.41976875852E+01  0.22129942083E+02  0.51100000000E-03 0. -1.
        -11    1    3    3    0    0  0.41269492392E+01 -0.73791313070E+01  0.40715220875E+01  0.93840599550E+01  0.51100000000E-03 0.  1.
        -12    1    3    3    0    0 -0.83182798185E+01  0.54637009216E+01  0.25944395630E+02  0.27787721597E+02  0.00000000000E+00 0.  1.
</event>
<event>
 7    1  0.6963701E-013  0.5930193E+02  0.7816164E-02  0.1266605E+00
        -11   -1    0    0    0    0  0.00000000000E+00  0.00000000000E+00  0.45593999997E+02  0.45594000000E+02  0.51100000000E-03 0. -1.
         11   -1    0    0    0    0 -0.00000000000E+00 -0.00000000000E+00 -0.45593999997E+02  0.45594000000E+02  0.51100000000E-03 0.  1.
    9900012    2    1    2    0    0 -0.24906003851E+02  0.80177153152E+01 -0.18224394369E+02  0.59301931932E+02  0.49999977940E+02 0.  0.
         12    1    1    2    0    0  0.24906003851E+02 -0.80177153152E+01  0.18224394369E+02  0.31886068068E+02  0.00000000000E+00 0. -1.
         11    1    3    3    0    0 -0.17883292933E+02  0.31577173204E+01 -0.12967612292E+02  0.22314621073E+02  0.51100000000E-03 0. -1.
        -11    1    3    3    0    0  0.26924552786E+01 -0.91616518723E+01 -0.14669904568E+02  0.17504036128E+02  0.51100000000E-03 0.  1.
         12    1    3    3    0    0 -0.97151661971E+01  0.14021649867E+02  0.94131224914E+01  0.19483274732E+02  0.00000000000E+00 0. -1.
</event>
<event>
 7    1  0.6963701E-013  0.5930220E+02  0.7816164E-02  0.1266604E+00
        -11   -1    0    0    0    0  0.00000000000E+00  0.00000000000E+00  0.45593999997E+02  0.45594000000E+02  0.51100000000E-03 0. -1.
         11   -1    0    0    0    0 -0.00000000000E+00 -0.00000000000E+00 -0.45593999997E+02  0.45594000000E+02  0.51100000000E-03 0.  1.
    9900012    2    1    2    0    0  0.24481672760E+02  0.62270018321E+00  0.20419701550E+02  0.59302199586E+02  0.50000466075E+02 0.  0.
         12    1    1    2    0    0 -0.24481672760E+02 -0.62270018321E+00 -0.20419701550E+02  0.31885800414E+02  0.00000000000E+00 0. -1.
         11    1    3    3    0    0 -0.68494183790E+00 -0.66100499362E+01  0.87196537108E+01  0.10963314580E+02  0.51100000000E-03 0.  1.
        -11    1    3    3    0    0 -0.68763248633E+01 -0.87126072321E+01  0.32198181272E+01  0.11556842018E+02  0.51100000000E-03 0. -1.
         12    1    3    3    0    0  0.32042939461E+02  0.15945357351E+02  0.84802297120E+01  0.36782042988E+02  0.00000000000E+00 0. -1.
</event>
<event>
 7    1  0.6963701E-013  0.5930190E+02  0.7816164E-02  0.1266605E+00
        -11   -1    0    0    0    0  0.00000000000E+00  0.00000000000E+00  0.45593999997E+02  0.45594000000E+02  0.51100000000E-03 0. -1.
         11   -1    0    0    0    0 -0.00000000000E+00 -0.00000000000E+00 -0.45593999997E+02  0.45594000000E+02  0.51100000000E-03 0.  1.
    9900012    2    1    2    0    0 -0.18921239129E+02  0.22666410006E+02 -0.12039269663E+02  0.59301898847E+02  0.49999917601E+02 0.  0.
         12    1    1    2    0    0  0.18921239129E+02 -0.22666410006E+02  0.12039269663E+02  0.31886101153E+02  0.00000000000E+00 0. -1.
         11    1    3    3    0    0 -0.33602696429E+02  0.16516115143E+02 -0.55711286311E+01  0.37854467916E+02  0.51100000000E-03 0. -1.
        -11    1    3    3    0    0  0.16156142926E+01  0.67317147554E+01 -0.44087532033E+01  0.82075147370E+01  0.51100000000E-03 0.  1.
        -12    1    3    3    0    0  0.13065843007E+02 -0.58141989240E+00 -0.20593878285E+01  0.13239916194E+02  0.00000000000E+00 0.  1.
</event>
<event>
 7    1  0.6963701E-013  0.5930196E+02  0.7816164E-02  0.1266605E+00
        -11   -1    0    0    0    0  0.00000000000E+00  0.00000000000E+00  0.45593999997E+02  0.45594000000E+02  0.51100000000E-03 0.  1.
         11   -1    0    0    0    0 -0.00000000000E+00 -0.00000000000E+00 -0.45593999997E+02  0.45594000000E+02  0.51100000000E-03 0. -1.
    9900012    2    1    2    0    0  0.30108168840E+02 -0.10380103603E+02 -0.15719169486E+01  0.59301963800E+02  0.50000036059E+02 0.  0.
         12    1    1    2    0    0 -0.30108168840E+02  0.10380103603E+02  0.15719169486E+01  0.31886036200E+02  0.00000000000E+00 0. -1.
         11    1    3    3    0    0  0.21901626222E+02 -0.75813358043E+01  0.23120278570E+01  0.23291701458E+02  0.51100000000E-03 0. -1.
        -11    1    3    3    0    0  0.14377516747E+02 -0.14790736521E+02  0.30403163518E+01  0.20849997564E+02  0.51100000000E-03 0.  1.
         12    1    3    3    0    0 -0.61709741296E+01  0.11991968722E+02 -0.69242611574E+01  0.15160264777E+02  0.00000000000E+00 0. -1.
</event>
<event>
 7    1  0.6963701E-013  0.5930193E+02  0.7816164E-02  0.1266605E+00
        -11   -1    0    0    0    0  0.00000000000E+00  0.00000000000E+00  0.45593999997E+02  0.45594000000E+02  0.51100000000E-03 0.  1.
         11   -1    0    0    0    0 -0.00000000000E+00 -0.00000000000E+00 -0.45593999997E+02  0.45594000000E+02  0.51100000000E-03 0. -1.
    9900012    2    1    2    0    0 -0.50075944934E+01 -0.30327531137E+02  0.84785689076E+01  0.59301932851E+02  0.49999979617E+02 0.  0.
         12    1    1    2    0    0  0.50075944934E+01  0.30327531137E+02 -0.84785689076E+01  0.31886067149E+02  0.00000000000E+00 0. -1.
         11    1    3    3    0    0 -0.56723096753E+00  0.10862434935E+02 -0.38931704559E+01  0.11552965860E+02  0.51100000000E-03 0. -1.
        -11    1    3    3    0    0 -0.14720928138E+01 -0.54778426409E+01 -0.53269086321E+01  0.77813734705E+01  0.51100000000E-03 0.  1.
        -12    1    3    3    0    0 -0.29682707120E+01 -0.35712123431E+02  0.17698647996E+02  0.39967593521E+02  0.00000000000E+00 0.  1.
</event>
<event>
 7    1  0.6963701E-013  0.5930195E+02  0.7816164E-02  0.1266605E+00
        -11   -1    0    0    0    0  0.00000000000E+00  0.00000000000E+00  0.45593999997E+02  0.45594000000E+02  0.51100000000E-03 0.  1.
         11   -1    0    0    0    0 -0.00000000000E+00 -0.00000000000E+00 -0.45593999997E+02  0.45594000000E+02  0.51100000000E-03 0. -1.
    9900012    2    1    2    0    0 -0.24548431169E+01  0.27876219396E+02  0.15284314945E+02  0.59301950607E+02  0.50000011999E+02 0.  0.
         12    1    1    2    0    0  0.24548431169E+01 -0.27876219396E+02 -0.15284314945E+02  0.31886049393E+02  0.00000000000E+00 0. -1.
         11    1    3    3    0    0  0.32223548735E+00  0.12271536988E+02  0.81430105847E+01  0.14731024316E+02  0.51100000000E-03 0. -1.
        -11    1    3    3    0    0 -0.93004916107E+01  0.27574765169E+02  0.97509227981E+01  0.30691160193E+02  0.51100000000E-03 0.  1.
         12    1    3    3    0    0  0.65234130064E+01 -0.11970082761E+02 -0.26096184376E+01  0.13879766098E+02  0.00000000000E+00 0. -1.
</event>
<event>
 7    1  0.6963701E-013  0.5930194E+02  0.7816164E-02  0.1266605E+00
        -11   -1    0    0    0    0  0.00000000000E+00  0.00000000000E+00  0.45593999997E+02  0.45594000000E+02  0.51100000000E-03 0.  1.
         11   -1    0    0    0    0 -0.00000000000E+00 -0.00000000000E+00 -0.45593999997E+02  0.45594000000E+02  0.51100000000E-03 0. -1.
    9900012    2    1    2    0    0  0.11134370499E+02  0.28469119896E+02  0.90695024124E+01  0.59301939283E+02  0.49999991347E+02 0.  0.
         12    1    1    2    0    0 -0.11134370499E+02 -0.28469119896E+02 -0.90695024124E+01  0.31886060717E+02  0.00000000000E+00 0. -1.
         11    1    3    3    0    0  0.53204947003E+01  0.13664514144E+02 -0.34921829082E+01  0.15073883122E+02  0.51100000000E-03 0. -1.
        -11    1    3    3    0    0 -0.83081534922E+01  0.22818336137E+02  0.10172686314E+01  0.24305075895E+02  0.51100000000E-03 0.  1.
         12    1    3    3    0    0  0.14122029291E+02 -0.80137303856E+01  0.11544416689E+02  0.19922980266E+02  0.00000000000E+00 0. -1.
</event>
<event>
 7    1  0.6963701E-013  0.5930193E+02  0.7816164E-02  0.1266605E+00
        -11   -1    0    0    0    0  0.00000000000E+00  0.00000000000E+00  0.45593999997E+02  0.45594000000E+02  0.51100000000E-03 0. -1.
         11   -1    0    0    0    0 -0.00000000000E+00 -0.00000000000E+00 -0.45593999997E+02  0.45594000000E+02  0.51100000000E-03 0.  1.
    9900012    2    1    2    0    0 -0.71735905936E+00 -0.22072802166E+02 -0.22999959735E+02  0.59301931768E+02  0.49999977642E+02 0.  0.
         12    1    1    2    0    0  0.71735905936E+00  0.22072802166E+02  0.22999959735E+02  0.31886068232E+02  0.00000000000E+00 0. -1.
         11    1    3    3    0    0 -0.45381479268E+01  0.75562261958E+01 -0.12957117360E+01  0.89089960204E+01  0.51100000000E-03 0. -1.
        -11    1    3    3    0    0  0.39887018113E+01  0.73605611026E+01 -0.54481982352E+01  0.99885167145E+01  0.51100000000E-03 0.  1.
        -12    1    3    3    0    0 -0.16791294386E+00 -0.36989589465E+02 -0.16256049763E+02  0.40404419033E+02  0.00000000000E+00 0.  1.
</event>
<event>
 7    1  0.6963701E-013  0.5930193E+02  0.7816164E-02  0.1266605E+00
        -11   -1    0    0    0    0  0.00000000000E+00  0.00000000000E+00  0.45593999997E+02  0.45594000000E+02  0.51100000000E-03 0. -1.
         11   -1    0    0    0    0 -0.00000000000E+00 -0.00000000000E+00 -0.45593999997E+02  0.45594000000E+02  0.51100000000E-03 0.  1.
    9900012    2    1    2    0    0  0.12881028785E+01  0.31786037577E+02 -0.21702437502E+01  0.59301931697E+02  0.49999977512E+02 0.  0.
         12    1    1    2    0    0 -0.12881028785E+01 -0.31786037577E+02  0.21702437502E+01  0.31886068303E+02  0.00000000000E+00 0. -1.
         11    1    3    3    0    0  0.13809299164E+02  0.11065191882E+02 -0.10327682413E+02  0.20488929671E+02  0.51100000000E-03 0. -1.
        -11    1    3    3    0    0  0.27117898660E+01 -0.49557708251E+01 -0.36301649400E+01  0.67150254281E+01  0.51100000000E-03 0.  1.
        -12    1    3    3    0    0 -0.15232986151E+02  0.25676616520E+02  0.11787603603E+02  0.32097976598E+02  0.00000000000E+00 0.  1.
</event>
<event>
 7    1  0.6963701E-013  0.5930195E+02  0.7816164E-02  0.1266605E+00
        -11   -1    0    0    0    0  0.00000000000E+00  0.00000000000E+00  0.45593999997E+02  0.45594000000E+02  0.51100000000E-03 0.  1.
         11   -1    0    0    0    0 -0.00000000000E+00 -0.00000000000E+00 -0.45593999997E+02  0.45594000000E+02  0.51100000000E-03 0. -1.
    9900012    2    1    2    0    0  0.24161725526E+02  0.18134285136E+01  0.20727822900E+02  0.59301950612E+02  0.50000012008E+02 0.  0.
         12    1    1    2    0    0 -0.24161725526E+02 -0.18134285136E+01 -0.20727822900E+02  0.31886049388E+02  0.00000000000E+00 0. -1.
         11    1    3    3    0    0  0.24863858550E+02 -0.17099994982E+02  0.10039569051E+01  0.30193198243E+02  0.51100000000E-03 0. -1.
        -11    1    3    3    0    0 -0.48844278338E+01  0.81536923332E+01  0.62962833834E+01  0.11401031472E+02  0.51100000000E-03 0.  1.
        -12    1    3    3    0    0  0.41822948102E+01  0.10759731163E+02  0.13427582612E+02  0.17707720897E+02  0.00000000000E+00 0.  1.
</event>
<event>
 7    1  0.6963701E-013  0.5930194E+02  0.7816164E-02  0.1266605E+00
        -11   -1    0    0    0    0  0.00000000000E+00  0.00000000000E+00  0.45593999997E+02  0.45594000000E+02  0.51100000000E-03 0.  1.
         11   -1    0    0    0    0 -0.00000000000E+00 -0.00000000000E+00 -0.45593999997E+02  0.45594000000E+02  0.51100000000E-03 0. -1.
    9900012    2    1    2    0    0 -0.12145205224E+02  0.16066310862E+02  0.24720199573E+02  0.59301943148E+02  0.49999998395E+02 0.  0.
         12    1    1    2    0    0  0.12145205224E+02 -0.16066310862E+02 -0.24720199573E+02  0.31886056852E+02  0.00000000000E+00 0. -1.
         11    1    3    3    0    0  0.24430610376E+01 -0.54034942137E+00  0.13994225564E+02  0.14216148358E+02  0.51100000000E-03 0. -1.
        -11    1    3    3    0    0 -0.99611064011E+00  0.75434747300E+01  0.23274018688E+02  0.24486244987E+02  0.51100000000E-03 0.  1.
        -12    1    3    3    0    0 -0.13592155622E+02  0.90631855532E+01 -0.12548044679E+02  0.20599549803E+02  0.00000000000E+00 0.  1.
</event>
<event>
 7    1  0.6963701E-013  0.5930195E+02  0.7816164E-02  0.1266605E+00
        -11   -1    0    0    0    0  0.00000000000E+00  0.00000000000E+00  0.45593999997E+02  0.45594000000E+02  0.51100000000E-03 0.  1.
         11   -1    0    0    0    0 -0.00000000000E+00 -0.00000000000E+00 -0.45593999997E+02  0.45594000000E+02  0.51100000000E-03 0. -1.
    9900012    2    1    2    0    0  0.10602884080E+01  0.22523473356E+02  0.22545273928E+02  0.59301945995E+02  0.50000003587E+02 0.  0.
         12    1    1    2    0    0 -0.10602884080E+01 -0.22523473356E+02 -0.22545273928E+02  0.31886054005E+02  0.00000000000E+00 0. -1.
         11    1    3    3    0    0 -0.18219140623E+01  0.15246829086E+02  0.52878561757E+01  0.16240276821E+02  0.51100000000E-03 0. -1.
        -11    1    3    3    0    0  0.43652553606E+01  0.10840541788E+02  0.28698616408E+02  0.30986825984E+02  0.51100000000E-03 0.  1.
         12    1    3    3    0    0 -0.14830528904E+01 -0.35638975175E+01 -0.11441198655E+02  0.12074843189E+02  0.00000000000E+00 0. -1.
</event>
<event>
 7    1  0.6963701E-013  0.5930192E+02  0.7816164E-02  0.1266605E+00
        -11   -1    0    0    0    0  0.00000000000E+00  0.00000000000E+00  0.45593999997E+02  0.45594000000E+02  0.51100000000E-03 0. -1.
         11   -1    0    0    0    0 -0.00000000000E+00 -0.00000000000E+00 -0.45593999997E+02  0.45594000000E+02  0.51100000000E-03 0.  1.
    9900012    2    1    2    0    0  0.27658436662E+02 -0.14161030184E+02 -0.71553088892E+01  0.59301916205E+02  0.49999949259E+02 0.  0.
         12    1    1    2    0    0 -0.27658436662E+02  0.14161030184E+02  0.71553088892E+01  0.31886083795E+02  0.00000000000E+00 0. -1.
         11    1    3    3    0    0  0.16101438157E+02 -0.16906394595E+02  0.12057503128E+02  0.26276717278E+02  0.51100000000E-03 0. -1.
        -11    1    3    3    0    0  0.62646505584E+01 -0.10249996404E+01 -0.24082413189E+02  0.24905001428E+02  0.51100000000E-03 0.  1.
         12    1    3    3    0    0  0.52923479462E+01  0.37703640510E+01  0.48696011714E+01  0.81201974994E+01  0.00000000000E+00 0. -1.
</event>
<event>
 7    1  0.6963701E-013  0.5930193E+02  0.7816164E-02  0.1266605E+00
        -11   -1    0    0    0    0  0.00000000000E+00  0.00000000000E+00  0.45593999997E+02  0.45594000000E+02  0.51100000000E-03 0. -1.
         11   -1    0    0    0    0 -0.00000000000E+00 -0.00000000000E+00 -0.45593999997E+02  0.45594000000E+02  0.51100000000E-03 0.  1.
    9900012    2    1    2    0    0 -0.20270395599E+02  0.22368676974E+02 -0.10270093245E+02  0.59301929960E+02  0.49999974345E+02 0.  0.
         12    1    1    2    0    0  0.20270395599E+02 -0.22368676974E+02  0.10270093245E+02  0.31886070040E+02  0.00000000000E+00 0. -1.
         11    1    3    3    0    0 -0.19227854896E+02 -0.29614711953E+01  0.10782119390E+02  0.22242635059E+02  0.51100000000E-03 0. -1.
        -11    1    3    3    0    0 -0.44273397252E+01 -0.47621598793E+00 -0.26244808615E+01  0.51687540823E+01  0.51100000000E-03 0.  1.
        -12    1    3    3    0    0  0.33847990223E+01  0.25806364157E+02 -0.18427731774E+02  0.31890540819E+02  0.00000000000E+00 0.  1.
</event>
<event>
 7    1  0.6963701E-013  0.5930194E+02  0.7816164E-02  0.1266605E+00
        -11   -1    0    0    0    0  0.00000000000E+00  0.00000000000E+00  0.45593999997E+02  0.45594000000E+02  0.51100000000E-03 0.  1.
         11   -1    0    0    0    0 -0.00000000000E+00 -0.00000000000E+00 -0.45593999997E+02  0.45594000000E+02  0.51100000000E-03 0. -1.
    9900012    2    1    2    0    0  0.28625447569E+02  0.40709297857E+01  0.13443656141E+02  0.59301943356E+02  0.49999998775E+02 0.  0.
         12    1    1    2    0    0 -0.28625447569E+02 -0.40709297857E+01 -0.13443656141E+02  0.31886056644E+02  0.00000000000E+00 0. -1.
         11    1    3    3    0    0  0.18132508528E+02  0.61097553628E+01 -0.30434282436E+01  0.19374711142E+02  0.51100000000E-03 0. -1.
        -11    1    3    3    0    0  0.21883206381E+02 -0.36233603349E+01  0.17680480649E+02  0.28365522344E+02  0.51100000000E-03 0.  1.
         12    1    3    3    0    0 -0.11390267340E+02  0.15845347579E+01 -0.11933962639E+01  0.11561709870E+02  0.00000000000E+00 0. -1.
</event>
<event>
 7    1  0.6963701E-013  0.5930194E+02  0.7816164E-02  0.1266605E+00
        -11   -1    0    0    0    0  0.00000000000E+00  0.00000000000E+00  0.45593999997E+02  0.45594000000E+02  0.51100000000E-03 0.  1.
         11   -1    0    0    0    0 -0.00000000000E+00 -0.00000000000E+00 -0.45593999997E+02  0.45594000000E+02  0.51100000000E-03 0. -1.
    9900012    2    1    2    0    0 -0.11941770526E+02 -0.62323391598E+01  0.28901091078E+02  0.59301937211E+02  0.49999987567E+02 0.  0.
         12    1    1    2    0    0  0.11941770526E+02  0.62323391598E+01 -0.28901091078E+02  0.31886062789E+02  0.00000000000E+00 0. -1.
         11    1    3    3    0    0 -0.25194761764E+02  0.22754823784E+01  0.26518072197E+02  0.36649174530E+02  0.51100000000E-03 0. -1.
        -11    1    3    3    0    0 -0.33067968628E+01 -0.15676809718E+01 -0.19997525005E+01  0.41703164682E+01  0.51100000000E-03 0.  1.
         12    1    3    3    0    0  0.16559788101E+02 -0.69401405665E+01  0.43827713815E+01  0.18482446213E+02  0.00000000000E+00 0. -1.
</event>
<event>
 7    1  0.6963701E-013  0.5930195E+02  0.7816164E-02  0.1266605E+00
        -11   -1    0    0    0    0  0.00000000000E+00  0.00000000000E+00  0.45593999997E+02  0.45594000000E+02  0.51100000000E-03 0.  1.
         11   -1    0    0    0    0 -0.00000000000E+00 -0.00000000000E+00 -0.45593999997E+02  0.45594000000E+02  0.51100000000E-03 0. -1.
    9900012    2    1    2    0    0 -0.26033543676E+02  0.16037482398E+01  0.18341287004E+02  0.59301949544E+02  0.50000010060E+02 0.  0.
         12    1    1    2    0    0  0.26033543676E+02 -0.16037482398E+01 -0.18341287004E+02  0.31886050456E+02  0.00000000000E+00 0. -1.
         11    1    3    3    0    0 -0.23016277211E+02  0.13128989845E+02 -0.12893925744E+01  0.26528888490E+02  0.51100000000E-03 0. -1.
        -11    1    3    3    0    0 -0.57340880999E+01  0.37754158747E+01 -0.10070332518E+01  0.69388505962E+01  0.51100000000E-03 0.  1.
        -12    1    3    3    0    0  0.27168216351E+01 -0.15300657480E+02  0.20637712830E+02  0.25834210458E+02  0.00000000000E+00 0.  1.
</event>
<event>
 7    1  0.7293530E-013  0.5930182E+02  0.7816164E-02  0.1266605E+00
        -11   -1    0    0    0    0  0.00000000000E+00  0.00000000000E+00  0.45593999997E+02  0.45594000000E+02  0.51100000000E-03 0. -1.
         11   -1    0    0    0    0 -0.00000000000E+00 -0.00000000000E+00 -0.45593999997E+02  0.45594000000E+02  0.51100000000E-03 0.  1.
    9900012    2    1    2    0    0 -0.27426236306E+01 -0.24003495170E+02 -0.20809577113E+02  0.59301823302E+02  0.49999779825E+02 0.  0.
         12    1    1    2    0    0  0.27426236306E+01  0.24003495170E+02  0.20809577113E+02  0.31886176698E+02  0.00000000000E+00 0. -1.
         11    1    3    3    0    0  0.11246781327E+02  0.57440604087E+01 -0.79022866225E+01  0.14897330443E+02  0.51100000000E-03 0. -1.
        -11    1    3    3    0    0  0.76476179686E+01 -0.12996696934E+02 -0.55574140542E+01  0.16071248956E+02  0.51100000000E-03 0.  1.
        -12    1    3    3    0    0 -0.21637022926E+02 -0.16750858645E+02 -0.73498764363E+01  0.28333243903E+02  0.00000000000E+00 0.  1.
</event>
<event>
 7    1  0.6963701E-013  0.5930202E+02  0.7816164E-02  0.1266605E+00
        -11   -1    0    0    0    0  0.00000000000E+00  0.00000000000E+00  0.45593999997E+02  0.45594000000E+02  0.51100000000E-03 0.  1.
         11   -1    0    0    0    0 -0.00000000000E+00 -0.00000000000E+00 -0.45593999997E+02  0.45594000000E+02  0.51100000000E-03 0. -1.
    9900012    2    1    2    0    0 -0.11173057178E+02 -0.12958849545E+02  0.26906264034E+02  0.59302015108E+02  0.50000129634E+02 0.  0.
         12    1    1    2    0    0  0.11173057178E+02  0.12958849545E+02 -0.26906264034E+02  0.31885984892E+02  0.00000000000E+00 0. -1.
         11    1    3    3    0    0 -0.11653340428E+02  0.41588584774E+01  0.70022966266E+01  0.14217194001E+02  0.51100000000E-03 0. -1.
        -11    1    3    3    0    0 -0.90912889140E+01  0.63702521465E+01 -0.23449202224E+01  0.11345937495E+02  0.51100000000E-03 0.  1.
        -12    1    3    3    0    0  0.95715721641E+01 -0.23487960169E+02  0.22248887630E+02  0.33738883612E+02  0.00000000000E+00 0.  1.
</event>
<event>
 7    1  0.6963701E-013  0.5930195E+02  0.7816164E-02  0.1266605E+00
        -11   -1    0    0    0    0  0.00000000000E+00  0.00000000000E+00  0.45593999997E+02  0.45594000000E+02  0.51100000000E-03 0. -1.
         11   -1    0    0    0    0 -0.00000000000E+00 -0.00000000000E+00 -0.45593999997E+02  0.45594000000E+02  0.51100000000E-03 0.  1.
    9900012    2    1    2    0    0 -0.96798031242E+01 -0.23139811952E+02 -0.19686816905E+02  0.59301949044E+02  0.50000009149E+02 0.  0.
         12    1    1    2    0    0  0.96798031242E+01  0.23139811952E+02  0.19686816905E+02  0.31886050956E+02  0.00000000000E+00 0. -1.
         11    1    3    3    0    0  0.29939955245E+01  0.22451557473E+01 -0.21161980515E+01  0.42991892241E+01  0.51100000000E-03 0. -1.
        -11    1    3    3    0    0  0.79979020983E+01 -0.20560234231E+02  0.64132140896E+01  0.22974311412E+02  0.51100000000E-03 0.  1.
        -12    1    3    3    0    0 -0.20671700747E+02 -0.48247334685E+01 -0.23983832943E+02  0.32028448409E+02  0.00000000000E+00 0.  1.
</event>
<event>
 7    1  0.6963701E-013  0.5930193E+02  0.7816164E-02  0.1266605E+00
        -11   -1    0    0    0    0  0.00000000000E+00  0.00000000000E+00  0.45593999997E+02  0.45594000000E+02  0.51100000000E-03 0. -1.
         11   -1    0    0    0    0 -0.00000000000E+00 -0.00000000000E+00 -0.45593999997E+02  0.45594000000E+02  0.51100000000E-03 0.  1.
    9900012    2    1    2    0    0  0.20083304470E+02  0.15679426190E+02 -0.19171276502E+02  0.59301931462E+02  0.49999977083E+02 0.  0.
         12    1    1    2    0    0 -0.20083304470E+02 -0.15679426190E+02  0.19171276502E+02  0.31886068538E+02  0.00000000000E+00 0. -1.
         11    1    3    3    0    0  0.21118056943E+02  0.91853943256E+01 -0.36726909489E+01  0.23320215630E+02  0.51100000000E-03 0. -1.
        -11    1    3    3    0    0  0.15105681275E+02  0.70526193435E+00 -0.52621381682E+01  0.16011530207E+02  0.51100000000E-03 0.  1.
         12    1    3    3    0    0 -0.16140433748E+02  0.57887699303E+01 -0.10236447384E+02  0.19970185626E+02  0.00000000000E+00 0. -1.
</event>
<event>
 7    1  0.6963701E-013  0.5930193E+02  0.7816164E-02  0.1266605E+00
        -11   -1    0    0    0    0  0.00000000000E+00  0.00000000000E+00  0.45593999997E+02  0.45594000000E+02  0.51100000000E-03 0.  1.
         11   -1    0    0    0    0 -0.00000000000E+00 -0.00000000000E+00 -0.45593999997E+02  0.45594000000E+02  0.51100000000E-03 0. -1.
    9900012    2    1    2    0    0 -0.96133138594E+01 -0.18974028257E+02  0.23754826636E+02  0.59301931879E+02  0.49999977844E+02 0.  0.
         12    1    1    2    0    0  0.96133138594E+01  0.18974028257E+02 -0.23754826636E+02  0.31886068121E+02  0.00000000000E+00 0. -1.
         11    1    3    3    0    0  0.27339794238E+01  0.15646334778E+01 -0.49099271316E+01  0.58335329011E+01  0.51100000000E-03 0. -1.
        -11    1    3    3    0    0  0.31298215674E+01  0.31715868898E+01  0.24436975537E+02  0.24839897748E+02  0.51100000000E-03 0.  1.
        -12    1    3    3    0    0 -0.15477114851E+02 -0.23710248625E+02  0.42277782307E+01  0.28628501231E+02  0.00000000000E+00 0.  1.
</event>
<event>
 7    1  0.6963701E-013  0.5930193E+02  0.7816164E-02  0.1266605E+00
        -11   -1    0    0    0    0  0.00000000000E+00  0.00000000000E+00  0.45593999997E+02  0.45594000000E+02  0.51100000000E-03 0.  1.
         11   -1    0    0    0    0 -0.00000000000E+00 -0.00000000000E+00 -0.45593999997E+02  0.45594000000E+02  0.51100000000E-03 0. -1.
    9900012    2    1    2    0    0  0.12951990183E+02  0.97011230139E+01  0.27474635868E+02  0.59301930102E+02  0.49999974603E+02 0.  0.
         12    1    1    2    0    0 -0.12951990183E+02 -0.97011230139E+01 -0.27474635868E+02  0.31886069898E+02  0.00000000000E+00 0. -1.
         11    1    3    3    0    0 -0.49897171896E+01  0.21449173756E+02  0.11814163987E+02  0.24990774366E+02  0.51100000000E-03 0. -1.
        -11    1    3    3    0    0 -0.31710027644E+00  0.38191944752E+01  0.84154337576E+01  0.92469629941E+01  0.51100000000E-03 0.  1.
        -12    1    3    3    0    0  0.18258807649E+02 -0.15567245217E+02  0.72450381236E+01  0.25064192742E+02  0.00000000000E+00 0.  1.
</event>
<event>
 7    1  0.6963701E-013  0.5930195E+02  0.7816164E-02  0.1266605E+00
        -11   -1    0    0    0    0  0.00000000000E+00  0.00000000000E+00  0.45593999997E+02  0.45594000000E+02  0.51100000000E-03 0. -1.
         11   -1    0    0    0    0 -0.00000000000E+00 -0.00000000000E+00 -0.45593999997E+02  0.45594000000E+02  0.51100000000E-03 0.  1.
    9900012    2    1    2    0    0 -0.13169786684E+02  0.97927564334E+01 -0.27338228866E+02  0.59301951054E+02  0.50000012814E+02 0.  0.
         12    1    1    2    0    0  0.13169786684E+02 -0.97927564334E+01  0.27338228866E+02  0.31886048946E+02  0.00000000000E+00 0. -1.
         11    1    3    3    0    0  0.27118697456E+01  0.24906850036E+01 -0.15400826162E+02  0.15834872783E+02  0.51100000000E-03 0. -1.
        -11    1    3    3    0    0 -0.95883447123E+01  0.22821483263E+02 -0.45743543047E+01  0.25173024654E+02  0.51100000000E-03 0.  1.
         12    1    3    3    0    0 -0.62933117168E+01 -0.15519411834E+02 -0.73630483991E+01  0.18294053617E+02  0.00000000000E+00 0. -1.
</event>
<event>
 7    1  0.6963701E-013  0.5930193E+02  0.7816164E-02  0.1266605E+00
        -11   -1    0    0    0    0  0.00000000000E+00  0.00000000000E+00  0.45593999997E+02  0.45594000000E+02  0.51100000000E-03 0.  1.
         11   -1    0    0    0    0 -0.00000000000E+00 -0.00000000000E+00 -0.45593999997E+02  0.45594000000E+02  0.51100000000E-03 0. -1.
    9900012    2    1    2    0    0  0.29270220956E+02  0.73435108720E+01  0.10297971624E+02  0.59301933979E+02  0.49999981673E+02 0.  0.
         12    1    1    2    0    0 -0.29270220956E+02 -0.73435108720E+01 -0.10297971624E+02  0.31886066021E+02  0.00000000000E+00 0. -1.
         11    1    3    3    0    0  0.23089878571E+02 -0.75109936945E+00 -0.59691160086E+01  0.23860783493E+02  0.51100000000E-03 0. -1.
        -11    1    3    3    0    0  0.12410325616E+02  0.13061208668E+01 -0.40604708950E+01  0.13122863932E+02  0.51100000000E-03 0.  1.
         12    1    3    3    0    0 -0.62299832313E+01  0.67884893746E+01  0.20327558527E+02  0.22318286554E+02  0.00000000000E+00 0. -1.
</event>
<event>
 7    1  0.6963701E-013  0.5930210E+02  0.7816164E-02  0.1266604E+00
        -11   -1    0    0    0    0  0.00000000000E+00  0.00000000000E+00  0.45593999997E+02  0.45594000000E+02  0.51100000000E-03 0.  1.
         11   -1    0    0    0    0 -0.00000000000E+00 -0.00000000000E+00 -0.45593999997E+02  0.45594000000E+02  0.51100000000E-03 0. -1.
    9900012    2    1    2    0    0  0.89535185592E+01 -0.13305125303E+02  0.27559364096E+02  0.59302103379E+02  0.50000290618E+02 0.  0.
         12    1    1    2    0    0 -0.89535185592E+01  0.13305125303E+02 -0.27559364096E+02  0.31885896621E+02  0.00000000000E+00 0. -1.
         11    1    3    3    0    0 -0.11241051388E+01 -0.30083439378E+01  0.25576000978E+01  0.41054919477E+01  0.51100000000E-03 0. -1.
        -11    1    3    3    0    0 -0.10217063377E+02 -0.17099103683E+02  0.27162629208E+02  0.33683470079E+02  0.51100000000E-03 0.  1.
         12    1    3    3    0    0  0.20294687075E+02  0.68023223181E+01 -0.21608652093E+01  0.21513141352E+02  0.00000000000E+00 0. -1.
</event>
<event>
 7    1  0.1209467E-012  0.5930227E+02  0.7816164E-02  0.1266604E+00
        -11   -1    0    0    0    0  0.00000000000E+00  0.00000000000E+00  0.45593999997E+02  0.45594000000E+02  0.51100000000E-03 0.  1.
         11   -1    0    0    0    0 -0.00000000000E+00 -0.00000000000E+00 -0.45593999997E+02  0.45594000000E+02  0.51100000000E-03 0. -1.
    9900012    2    1    2    0    0 -0.61102503520E+01  0.21807371583E+02  0.22445561018E+02  0.59302269270E+02  0.50000593161E+02 0.  0.
         12    1    1    2    0    0  0.61102503520E+01 -0.21807371583E+02 -0.22445561018E+02  0.31885730730E+02  0.00000000000E+00 0. -1.
         11    1    3    3    0    0  0.83067894042E+01  0.41897679098E+00 -0.69932219479E+01  0.10866620691E+02  0.51100000000E-03 0. -1.
        -11    1    3    3    0    0 -0.78275500278E+01  0.19353057202E+02  0.29738442984E+01  0.21086846912E+02  0.51100000000E-03 0.  1.
        -12    1    3    3    0    0 -0.65894897284E+01  0.20353375898E+01  0.26464938668E+02  0.27348801668E+02  0.00000000000E+00 0.  1.
</event>
<event>
 7    1  0.6963701E-013  0.5930197E+02  0.7816164E-02  0.1266605E+00
        -11   -1    0    0    0    0  0.00000000000E+00  0.00000000000E+00  0.45593999997E+02  0.45594000000E+02  0.51100000000E-03 0.  1.
         11   -1    0    0    0    0 -0.00000000000E+00 -0.00000000000E+00 -0.45593999997E+02  0.45594000000E+02  0.51100000000E-03 0. -1.
    9900012    2    1    2    0    0 -0.11577493915E+02  0.29221833565E+02 -0.53633216239E+01  0.59301966363E+02  0.50000040735E+02 0.  0.
         12    1    1    2    0    0  0.11577493915E+02 -0.29221833565E+02  0.53633216239E+01  0.31886033637E+02  0.00000000000E+00 0. -1.
         11    1    3    3    0    0  0.11132096615E+01  0.21783896052E+01  0.17510202706E+01  0.30084363499E+01  0.51100000000E-03 0. -1.
        -11    1    3    3    0    0 -0.12504411724E+01  0.18351697982E+02  0.19026675827E+02  0.26464368786E+02  0.51100000000E-03 0.  1.
         12    1    3    3    0    0 -0.11440262404E+02  0.86917459779E+01 -0.26141017722E+02  0.29829161228E+02  0.00000000000E+00 0. -1.
</event>
<event>
 7    1  0.6963701E-013  0.5930194E+02  0.7816164E-02  0.1266605E+00
        -11   -1    0    0    0    0  0.00000000000E+00  0.00000000000E+00  0.45593999997E+02  0.45594000000E+02  0.51100000000E-03 0.  1.
         11   -1    0    0    0    0 -0.00000000000E+00 -0.00000000000E+00 -0.45593999997E+02  0.45594000000E+02  0.51100000000E-03 0. -1.
    9900012    2    1    2    0    0 -0.40439564475E+01  0.18913590972E+02  0.25350415674E+02  0.59301935927E+02  0.49999985226E+02 0.  0.
         12    1    1    2    0    0  0.40439564475E+01 -0.18913590972E+02 -0.25350415674E+02  0.31886064073E+02  0.00000000000E+00 0. -1.
         11    1    3    3    0    0 -0.92511170807E+01  0.27068470588E+02  0.22676089252E+01  0.28695423288E+02  0.51100000000E-03 0. -1.
        -11    1    3    3    0    0  0.13796587495E+01 -0.24687316134E+01 -0.27109476695E+01  0.39175670475E+01  0.51100000000E-03 0.  1.
        -12    1    3    3    0    0  0.38275018837E+01 -0.56861480019E+01  0.25793754418E+02  0.26688945591E+02  0.00000000000E+00 0.  1.
</event>
<event>
 7    1  0.6963701E-013  0.5930205E+02  0.7816164E-02  0.1266604E+00
        -11   -1    0    0    0    0  0.00000000000E+00  0.00000000000E+00  0.45593999997E+02  0.45594000000E+02  0.51100000000E-03 0.  1.
         11   -1    0    0    0    0 -0.00000000000E+00 -0.00000000000E+00 -0.45593999997E+02  0.45594000000E+02  0.51100000000E-03 0. -1.
    9900012    2    1    2    0    0 -0.23301014018E+02 -0.48369160458E+01  0.21222180817E+02  0.59302047454E+02  0.50000188624E+02 0.  0.
         12    1    1    2    0    0  0.23301014018E+02  0.48369160458E+01 -0.21222180817E+02  0.31885952546E+02  0.00000000000E+00 0. -1.
         11    1    3    3    0    0 -0.74702437518E+01  0.30939841600E+01  0.58152676778E+01  0.99596494978E+01  0.51100000000E-03 0. -1.
        -11    1    3    3    0    0 -0.27946161245E+02  0.22768978397E+01  0.12024923310E+01  0.28064535987E+02  0.51100000000E-03 0.  1.
         12    1    3    3    0    0  0.12115390978E+02 -0.10207798045E+02  0.14204420809E+02  0.21277861970E+02  0.00000000000E+00 0. -1.
</event>
<event>
 7    1  0.6963701E-013  0.5930192E+02  0.7816164E-02  0.1266605E+00
        -11   -1    0    0    0    0  0.00000000000E+00  0.00000000000E+00  0.45593999997E+02  0.45594000000E+02  0.51100000000E-03 0.  1.
         11   -1    0    0    0    0 -0.00000000000E+00 -0.00000000000E+00 -0.45593999997E+02  0.45594000000E+02  0.51100000000E-03 0. -1.
    9900012    2    1    2    0    0 -0.37021581093E+01 -0.25204518894E+02  0.19176766455E+02  0.59301919667E+02  0.49999955572E+02 0.  0.
         12    1    1    2    0    0  0.37021581093E+01  0.25204518894E+02 -0.19176766455E+02  0.31886080333E+02  0.00000000000E+00 0. -1.
         11    1    3    3    0    0 -0.30681304698E+01 -0.58769720489E+01  0.86294473438E+01  0.10882076399E+02  0.51100000000E-03 0. -1.
        -11    1    3    3    0    0 -0.78399008018E+01 -0.30703445632E+02  0.13805383606E+02  0.34565217127E+02  0.51100000000E-03 0.  1.
         12    1    3    3    0    0  0.72058731622E+01  0.11375898787E+02 -0.32580644954E+01  0.13854626141E+02  0.00000000000E+00 0. -1.
</event>
<event>
 7    1  0.6963701E-013  0.5930191E+02  0.7816164E-02  0.1266605E+00
        -11   -1    0    0    0    0  0.00000000000E+00  0.00000000000E+00  0.45593999997E+02  0.45594000000E+02  0.51100000000E-03 0.  1.
         11   -1    0    0    0    0 -0.00000000000E+00 -0.00000000000E+00 -0.45593999997E+02  0.45594000000E+02  0.51100000000E-03 0. -1.
    9900012    2    1    2    0    0 -0.10190621543E+02 -0.26204902653E+02 -0.15039182670E+02  0.59301910464E+02  0.49999938788E+02 0.  0.
         12    1    1    2    0    0  0.10190621543E+02  0.26204902653E+02  0.15039182670E+02  0.31886089536E+02  0.00000000000E+00 0. -1.
         11    1    3    3    0    0  0.42155818509E+01  0.45102881452E+00  0.42784413347E+01  0.60232564156E+01  0.51100000000E-03 0. -1.
        -11    1    3    3    0    0  0.48267792545E+01  0.35876482833E+01  0.66899106618E+01  0.89957725127E+01  0.51100000000E-03 0.  1.
        -12    1    3    3    0    0 -0.19232982649E+02 -0.30243579751E+02 -0.26007534666E+02  0.44282881536E+02  0.00000000000E+00 0.  1.
</event>
<event>
 7    1  0.6963701E-013  0.5930189E+02  0.7816164E-02  0.1266605E+00
        -11   -1    0    0    0    0  0.00000000000E+00  0.00000000000E+00  0.45593999997E+02  0.45594000000E+02  0.51100000000E-03 0.  1.
         11   -1    0    0    0    0 -0.00000000000E+00 -0.00000000000E+00 -0.45593999997E+02  0.45594000000E+02  0.51100000000E-03 0. -1.
    9900012    2    1    2    0    0  0.53661514421E+01  0.47537284031E+01  0.31069771378E+02  0.59301886902E+02  0.49999895816E+02 0.  0.
         12    1    1    2    0    0 -0.53661514421E+01 -0.47537284031E+01 -0.31069771378E+02  0.31886113098E+02  0.00000000000E+00 0. -1.
         11    1    3    3    0    0  0.39355769759E+00 -0.94368221126E+00  0.36861262693E+01  0.38253040287E+01  0.51100000000E-03 0. -1.
        -11    1    3    3    0    0  0.14001006952E+02  0.24378402195E+01  0.38352439796E+02  0.40900866729E+02  0.51100000000E-03 0.  1.
         12    1    3    3    0    0 -0.90284132075E+01  0.32595703948E+01 -0.10968794688E+02  0.14575716144E+02  0.00000000000E+00 0. -1.
</event>
<event>
 7    1  0.6963701E-013  0.5930193E+02  0.7816164E-02  0.1266605E+00
        -11   -1    0    0    0    0  0.00000000000E+00  0.00000000000E+00  0.45593999997E+02  0.45594000000E+02  0.51100000000E-03 0.  1.
         11   -1    0    0    0    0 -0.00000000000E+00 -0.00000000000E+00 -0.45593999997E+02  0.45594000000E+02  0.51100000000E-03 0. -1.
    9900012    2    1    2    0    0 -0.17799175308E+02  0.16965967559E+02  0.20299419887E+02  0.59301934947E+02  0.49999983439E+02 0.  0.
         12    1    1    2    0    0  0.17799175308E+02 -0.16965967559E+02 -0.20299419887E+02  0.31886065053E+02  0.00000000000E+00 0. -1.
         11    1    3    3    0    0 -0.13594019651E+02  0.17823713402E+02  0.64643238628E+01  0.23329586643E+02  0.51100000000E-03 0. -1.
        -11    1    3    3    0    0 -0.90094182288E+01  0.10428116025E+02  0.18309186406E+02  0.22915966656E+02  0.51100000000E-03 0.  1.
         12    1    3    3    0    0  0.48042625720E+01 -0.11285861869E+02 -0.44740903820E+01  0.13056381647E+02  0.00000000000E+00 0. -1.
</event>
<event>
 7    1  0.6963701E-013  0.5930195E+02  0.7816164E-02  0.1266605E+00
        -11   -1    0    0    0    0  0.00000000000E+00  0.00000000000E+00  0.45593999997E+02  0.45594000000E+02  0.51100000000E-03 0. -1.
         11   -1    0    0    0    0 -0.00000000000E+00 -0.00000000000E+00 -0.45593999997E+02  0.45594000000E+02  0.51100000000E-03 0.  1.
    9900012    2    1    2    0    0 -0.26813157207E+02  0.28149771200E+01 -0.17025002939E+02  0.59301949435E+02  0.50000009861E+02 0.  0.
         12    1    1    2    0    0  0.26813157207E+02 -0.28149771200E+01  0.17025002939E+02  0.31886050565E+02  0.00000000000E+00 0. -1.
         11    1    3    3    0    0  0.34626179093E+01  0.15728080076E+01  0.35088128253E+01  0.51744773184E+01  0.51100000000E-03 0. -1.
        -11    1    3    3    0    0  0.91978536971E+01  0.44749243561E+01 -0.64481405461E+01  0.12091483672E+02  0.51100000000E-03 0.  1.
         12    1    3    3    0    0 -0.39473628813E+02 -0.32327552437E+01 -0.14085675218E+02  0.42035988444E+02  0.00000000000E+00 0. -1.
</event>
<event>
 7    1  0.6963701E-013  0.5930194E+02  0.7816164E-02  0.1266605E+00
        -11   -1    0    0    0    0  0.00000000000E+00  0.00000000000E+00  0.45593999997E+02  0.45594000000E+02  0.51100000000E-03 0.  1.
         11   -1    0    0    0    0 -0.00000000000E+00 -0.00000000000E+00 -0.45593999997E+02  0.45594000000E+02  0.51100000000E-03 0. -1.
    9900012    2    1    2    0    0 -0.14768753618E+02 -0.16511145087E+02 -0.22934399336E+02  0.59301942413E+02  0.49999997055E+02 0.  0.
         12    1    1    2    0    0  0.14768753618E+02  0.16511145087E+02  0.22934399336E+02  0.31886057587E+02  0.00000000000E+00 0. -1.
         11    1    3    3    0    0 -0.18868459182E+02 -0.15309311539E+02 -0.61834769487E+01  0.25072478121E+02  0.51100000000E-03 0.  1.
        -11    1    3    3    0    0  0.16527883228E+02 -0.36055290834E+01 -0.11855740664E+02  0.20657428468E+02  0.51100000000E-03 0. -1.
         12    1    3    3    0    0 -0.12428177665E+02  0.24036955355E+01 -0.48951817232E+01  0.13572035824E+02  0.00000000000E+00 0. -1.
</event>
<event>
 7    1  0.6963701E-013  0.5930194E+02  0.7816164E-02  0.1266605E+00
        -11   -1    0    0    0    0  0.00000000000E+00  0.00000000000E+00  0.45593999997E+02  0.45594000000E+02  0.51100000000E-03 0.  1.
         11   -1    0    0    0    0 -0.00000000000E+00 -0.00000000000E+00 -0.45593999997E+02  0.45594000000E+02  0.51100000000E-03 0. -1.
    9900012    2    1    2    0    0  0.87271563466E+01 -0.29796941993E+02  0.72594822620E+01  0.59301935760E+02  0.49999984922E+02 0.  0.
         12    1    1    2    0    0 -0.87271563466E+01  0.29796941993E+02 -0.72594822620E+01  0.31886064240E+02  0.00000000000E+00 0. -1.
         11    1    3    3    0    0  0.14140033832E+02 -0.54405109967E+01 -0.63018052994E+00  0.15163668568E+02  0.51100000000E-03 0. -1.
        -11    1    3    3    0    0  0.91852710508E+01 -0.17597337462E+02 -0.81158768467E+01  0.21445347917E+02  0.51100000000E-03 0.  1.
        -12    1    3    3    0    0 -0.14598148536E+02 -0.67590935341E+01  0.16005539639E+02  0.22692919275E+02  0.00000000000E+00 0.  1.
</event>
<event>
 7    1  0.6963701E-013  0.5930196E+02  0.7816164E-02  0.1266605E+00
        -11   -1    0    0    0    0  0.00000000000E+00  0.00000000000E+00  0.45593999997E+02  0.45594000000E+02  0.51100000000E-03 0.  1.
         11   -1    0    0    0    0 -0.00000000000E+00 -0.00000000000E+00 -0.45593999997E+02  0.45594000000E+02  0.51100000000E-03 0. -1.
    9900012    2    1    2    0    0 -0.42020933240E+01  0.28888355162E+02  0.12826717594E+02  0.59301963299E+02  0.50000035145E+02 0.  0.
         12    1    1    2    0    0  0.42020933240E+01 -0.28888355162E+02 -0.12826717594E+02  0.31886036701E+02  0.00000000000E+00 0. -1.
         11    1    3    3    0    0  0.76486005126E+01 -0.99227291039E+00 -0.10833841914E+02  0.13298790404E+02  0.51100000000E-03 0. -1.
        -11    1    3    3    0    0 -0.23132004139E+01  0.61290816946E+01  0.18855501157E+02  0.19961123784E+02  0.51100000000E-03 0.  1.
        -12    1    3    3    0    0 -0.95374934227E+01  0.23751546378E+02  0.48050583505E+01  0.26042049111E+02  0.00000000000E+00 0.  1.
</event>
<event>
 7    1  0.6963701E-013  0.5930194E+02  0.7816164E-02  0.1266605E+00
        -11   -1    0    0    0    0  0.00000000000E+00  0.00000000000E+00  0.45593999997E+02  0.45594000000E+02  0.51100000000E-03 0. -1.
         11   -1    0    0    0    0 -0.00000000000E+00 -0.00000000000E+00 -0.45593999997E+02  0.45594000000E+02  0.51100000000E-03 0.  1.
    9900012    2    1    2    0    0  0.18401971091E+02  0.92586183305E+01 -0.24338573180E+02  0.59301941951E+02  0.49999996213E+02 0.  0.
         12    1    1    2    0    0 -0.18401971091E+02 -0.92586183305E+01  0.24338573180E+02  0.31886058049E+02  0.00000000000E+00 0. -1.
         11    1    3    3    0    0 -0.50111273535E+01 -0.71882830123E+00 -0.55632019303E+01  0.75217901764E+01  0.51100000000E-03 0. -1.
        -11    1    3    3    0    0  0.36580627905E+01  0.88059746803E+01 -0.28266922985E+02  0.29831955161E+02  0.51100000000E-03 0.  1.
         12    1    3    3    0    0  0.19755035654E+02  0.11714719514E+01  0.94915517350E+01  0.21948196613E+02  0.00000000000E+00 0. -1.
</event>
<event>
 7    1  0.6963701E-013  0.5930211E+02  0.7816164E-02  0.1266604E+00
        -11   -1    0    0    0    0  0.00000000000E+00  0.00000000000E+00  0.45593999997E+02  0.45594000000E+02  0.51100000000E-03 0. -1.
         11   -1    0    0    0    0 -0.00000000000E+00 -0.00000000000E+00 -0.45593999997E+02  0.45594000000E+02  0.51100000000E-03 0.  1.
    9900012    2    1    2    0    0  0.29229307033E+02  0.10669156617E+02 -0.69660941175E+01  0.59302113470E+02  0.50000309020E+02 0.  0.
         12    1    1    2    0    0 -0.29229307033E+02 -0.10669156617E+02  0.69660941175E+01  0.31885886530E+02  0.00000000000E+00 0. -1.
         11    1    3    3    0    0  0.14961494597E+02 -0.56386258533E+01 -0.76890595296E+01  0.17741534849E+02  0.51100000000E-03 0. -1.
        -11    1    3    3    0    0 -0.43155994986E+01  0.11879241341E+02 -0.12928816293E+02  0.18080239624E+02  0.51100000000E-03 0.  1.
         12    1    3    3    0    0  0.18583411935E+02  0.44285411296E+01  0.13651781705E+02  0.23480338996E+02  0.00000000000E+00 0. -1.
</event>
<event>
 7    1  0.6963701E-013  0.5930193E+02  0.7816164E-02  0.1266605E+00
        -11   -1    0    0    0    0  0.00000000000E+00  0.00000000000E+00  0.45593999997E+02  0.45594000000E+02  0.51100000000E-03 0.  1.
         11   -1    0    0    0    0 -0.00000000000E+00 -0.00000000000E+00 -0.45593999997E+02  0.45594000000E+02  0.51100000000E-03 0. -1.
    9900012    2    1    2    0    0  0.52930105722E+01 -0.25147164351E+02  0.18876587493E+02  0.59301931080E+02  0.49999976386E+02 0.  0.
         12    1    1    2    0    0 -0.52930105722E+01  0.25147164351E+02 -0.18876587493E+02  0.31886068920E+02  0.00000000000E+00 0. -1.
         11    1    3    3    0    0  0.57566100378E+01  0.76953972021E+01 -0.11922573344E+01  0.96839648408E+01  0.51100000000E-03 0. -1.
        -11    1    3    3    0    0  0.12431493635E+02 -0.31206880570E+01  0.76114530745E+01  0.14906875800E+02  0.51100000000E-03 0.  1.
         12    1    3    3    0    0 -0.12895093101E+02 -0.29721873496E+02  0.12457391753E+02  0.34711090439E+02  0.00000000000E+00 0. -1.
</event>
<event>
 7    1  0.6963701E-013  0.5930191E+02  0.7816164E-02  0.1266605E+00
        -11   -1    0    0    0    0  0.00000000000E+00  0.00000000000E+00  0.45593999997E+02  0.45594000000E+02  0.51100000000E-03 0. -1.
         11   -1    0    0    0    0 -0.00000000000E+00 -0.00000000000E+00 -0.45593999997E+02  0.45594000000E+02  0.51100000000E-03 0.  1.
    9900012    2    1    2    0    0  0.25762419835E+02 -0.10495139318E+02 -0.15584376007E+02  0.59301905843E+02  0.49999930361E+02 0.  0.
         12    1    1    2    0    0 -0.25762419835E+02  0.10495139318E+02  0.15584376007E+02  0.31886094157E+02  0.00000000000E+00 0. -1.
         11    1    3    3    0    0  0.36470953854E+01 -0.47227035472E+01 -0.15967808661E+02  0.17046294238E+02  0.51100000000E-03 0. -1.
        -11    1    3    3    0    0  0.29615063951E+02  0.31636051619E+01 -0.34337594481E+01  0.29980845796E+02  0.51100000000E-03 0.  1.
         12    1    3    3    0    0 -0.74997395018E+01 -0.89360409324E+01  0.38171921015E+01  0.12274765810E+02  0.00000000000E+00 0. -1.
</event>
<event>
 7    1  0.6963701E-013  0.5930193E+02  0.7816164E-02  0.1266605E+00
        -11   -1    0    0    0    0  0.00000000000E+00  0.00000000000E+00  0.45593999997E+02  0.45594000000E+02  0.51100000000E-03 0.  1.
         11   -1    0    0    0    0 -0.00000000000E+00 -0.00000000000E+00 -0.45593999997E+02  0.45594000000E+02  0.51100000000E-03 0. -1.
    9900012    2    1    2    0    0 -0.30113032109E+02 -0.59433587290E+01  0.86373303640E+01  0.59301926369E+02  0.49999967795E+02 0.  0.
         12    1    1    2    0    0  0.30113032109E+02  0.59433587290E+01 -0.86373303640E+01  0.31886073631E+02  0.00000000000E+00 0. -1.
         11    1    3    3    0    0 -0.51860665852E+01 -0.85073753293E+01 -0.10499786853E+02  0.14474676018E+02  0.51100000000E-03 0. -1.
        -11    1    3    3    0    0 -0.23662646451E+02 -0.11397719894E+02  0.14827264300E+02  0.30160845856E+02  0.51100000000E-03 0.  1.
        -12    1    3    3    0    0 -0.12643190729E+01  0.13961736494E+02  0.43098529165E+01  0.14666404495E+02  0.00000000000E+00 0.  1.
</event>
<event>
 7    1  0.6963701E-013  0.5930207E+02  0.7816164E-02  0.1266604E+00
        -11   -1    0    0    0    0  0.00000000000E+00  0.00000000000E+00  0.45593999997E+02  0.45594000000E+02  0.51100000000E-03 0.  1.
         11   -1    0    0    0    0 -0.00000000000E+00 -0.00000000000E+00 -0.45593999997E+02  0.45594000000E+02  0.51100000000E-03 0. -1.
    9900012    2    1    2    0    0  0.69203314619E+01 -0.11819296405E+02  0.28794541791E+02  0.59302072195E+02  0.50000233745E+02 0.  0.
         12    1    1    2    0    0 -0.69203314619E+01  0.11819296405E+02 -0.28794541791E+02  0.31885927805E+02  0.00000000000E+00 0. -1.
         11    1    3    3    0    0 -0.10941150870E+02 -0.13347436396E+01  0.28637930991E+00  0.11025984596E+02  0.51100000000E-03 0. -1.
        -11    1    3    3    0    0 -0.81964513400E+01  0.38623914672E+01  0.85233120010E+01  0.12439723877E+02  0.51100000000E-03 0.  1.
        -12    1    3    3    0    0  0.26057933672E+02 -0.14346944233E+02  0.19984850480E+02  0.35836363721E+02  0.00000000000E+00 0.  1.
</event>
<event>
 7    1  0.6963701E-013  0.5930205E+02  0.7816164E-02  0.1266604E+00
        -11   -1    0    0    0    0  0.00000000000E+00  0.00000000000E+00  0.45593999997E+02  0.45594000000E+02  0.51100000000E-03 0. -1.
         11   -1    0    0    0    0 -0.00000000000E+00 -0.00000000000E+00 -0.45593999997E+02  0.45594000000E+02  0.51100000000E-03 0.  1.
    9900012    2    1    2    0    0  0.52285423430E+01  0.28221401451E+02 -0.13889883441E+02  0.59302046715E+02  0.50000187276E+02 0.  0.
         12    1    1    2    0    0 -0.52285423430E+01 -0.28221401451E+02  0.13889883441E+02  0.31885953285E+02  0.00000000000E+00 0. -1.
         11    1    3    3    0    0  0.14187916797E+02  0.85835619296E+01 -0.76555924828E+01  0.18264244166E+02  0.51100000000E-03 0. -1.
        -11    1    3    3    0    0  0.35869696679E+01  0.24095760828E+02  0.34077012267E+01  0.24598464773E+02  0.51100000000E-03 0.  1.
         12    1    3    3    0    0 -0.12546344122E+02 -0.44579213059E+01 -0.96419921852E+01  0.16439337776E+02  0.00000000000E+00 0. -1.
</event>
<event>
 7    1  0.6963701E-013  0.5930195E+02  0.7816164E-02  0.1266605E+00
        -11   -1    0    0    0    0  0.00000000000E+00  0.00000000000E+00  0.45593999997E+02  0.45594000000E+02  0.51100000000E-03 0.  1.
         11   -1    0    0    0    0 -0.00000000000E+00 -0.00000000000E+00 -0.45593999997E+02  0.45594000000E+02  0.51100000000E-03 0. -1.
    9900012    2    1    2    0    0 -0.38388823962E+01  0.25643676089E+02  0.18557614114E+02  0.59301950025E+02  0.50000010938E+02 0.  0.
         12    1    1    2    0    0  0.38388823962E+01 -0.25643676089E+02 -0.18557614114E+02  0.31886049975E+02  0.00000000000E+00 0. -1.
         11    1    3    3    0    0  0.46247526777E+01  0.86377679786E+01 -0.36011119320E+01  0.10438744196E+02  0.51100000000E-03 0. -1.
        -11    1    3    3    0    0  0.46042596167E+01  0.13233024119E+02 -0.77465595482E+01  0.16010038071E+02  0.51100000000E-03 0.  1.
        -12    1    3    3    0    0 -0.13067894691E+02  0.37728839910E+01  0.29905285594E+02  0.32853167758E+02  0.00000000000E+00 0.  1.
</event>
<event>
 7    1  0.6963701E-013  0.5930187E+02  0.7816164E-02  0.1266605E+00
        -11   -1    0    0    0    0  0.00000000000E+00  0.00000000000E+00  0.45593999997E+02  0.45594000000E+02  0.51100000000E-03 0. -1.
         11   -1    0    0    0    0 -0.00000000000E+00 -0.00000000000E+00 -0.45593999997E+02  0.45594000000E+02  0.51100000000E-03 0.  1.
    9900012    2    1    2    0    0 -0.58067181174E+01  0.25086388510E+02 -0.18806400650E+02  0.59301865565E+02  0.49999856903E+02 0.  0.
         12    1    1    2    0    0  0.58067181174E+01 -0.25086388510E+02  0.18806400650E+02  0.31886134435E+02  0.00000000000E+00 0. -1.
         11    1    3    3    0    0 -0.12149854095E+02 -0.51335354768E+01  0.75173772785E+01  0.15181669948E+02  0.51100000000E-03 0. -1.
        -11    1    3    3    0    0 -0.11761675833E+00 -0.22732224641E+01 -0.15959749789E+01  0.27800198682E+01  0.51100000000E-03 0.  1.
        -12    1    3    3    0    0  0.64607527357E+01  0.32493146451E+02 -0.24727802949E+02  0.41340175749E+02  0.00000000000E+00 0.  1.
</event>
<event>
 7    1  0.6963701E-013  0.5930197E+02  0.7816164E-02  0.1266605E+00
        -11   -1    0    0    0    0  0.00000000000E+00  0.00000000000E+00  0.45593999997E+02  0.45594000000E+02  0.51100000000E-03 0.  1.
         11   -1    0    0    0    0 -0.00000000000E+00 -0.00000000000E+00 -0.45593999997E+02  0.45594000000E+02  0.51100000000E-03 0. -1.
    9900012    2    1    2    0    0 -0.21969988252E+02  0.22679564154E+02  0.44357847234E+01  0.59301965438E+02  0.50000039047E+02 0.  0.
         12    1    1    2    0    0  0.21969988252E+02 -0.22679564154E+02 -0.44357847234E+01  0.31886034562E+02  0.00000000000E+00 0. -1.
         11    1    3    3    0    0  0.38506181549E+01  0.52782698679E+01 -0.13537537499E+02  0.15031710307E+02  0.51100000000E-03 0. -1.
        -11    1    3    3    0    0 -0.27977283848E+01 -0.43610828501E+01 -0.32697693644E+01  0.61268033834E+01  0.51100000000E-03 0.  1.
        -12    1    3    3    0    0 -0.23022878022E+02  0.21762377136E+02  0.21243091587E+02  0.38143451747E+02  0.00000000000E+00 0.  1.
</event>
<event>
 7    1  0.6963701E-013  0.5930195E+02  0.7816164E-02  0.1266605E+00
        -11   -1    0    0    0    0  0.00000000000E+00  0.00000000000E+00  0.45593999997E+02  0.45594000000E+02  0.51100000000E-03 0.  1.
         11   -1    0    0    0    0 -0.00000000000E+00 -0.00000000000E+00 -0.45593999997E+02  0.45594000000E+02  0.51100000000E-03 0. -1.
    9900012    2    1    2    0    0 -0.23781109180E+02 -0.15588174817E+02  0.14428711051E+02  0.59301952102E+02  0.50000014726E+02 0.  0.
         12    1    1    2    0    0  0.23781109180E+02  0.15588174817E+02 -0.14428711051E+02  0.31886047898E+02  0.00000000000E+00 0. -1.
         11    1    3    3    0    0 -0.51226544776E-02 -0.15671532034E+02 -0.11702116973E+01  0.15715162685E+02  0.51100000000E-03 0. -1.
        -11    1    3    3    0    0 -0.21431758154E+02 -0.97316947802E+01  0.21515103908E+02  0.31889274644E+02  0.51100000000E-03 0.  1.
         12    1    3    3    0    0 -0.23442283716E+01  0.98150519972E+01 -0.59161811595E+01  0.11697514774E+02  0.00000000000E+00 0. -1.
</event>
<event>
 7    1  0.6963701E-013  0.5930194E+02  0.7816164E-02  0.1266605E+00
        -11   -1    0    0    0    0  0.00000000000E+00  0.00000000000E+00  0.45593999997E+02  0.45594000000E+02  0.51100000000E-03 0.  1.
         11   -1    0    0    0    0 -0.00000000000E+00 -0.00000000000E+00 -0.45593999997E+02  0.45594000000E+02  0.51100000000E-03 0. -1.
    9900012    2    1    2    0    0  0.56717895318E+01  0.22779390222E+02  0.21578943236E+02  0.59301943383E+02  0.49999998824E+02 0.  0.
         12    1    1    2    0    0 -0.56717895318E+01 -0.22779390222E+02 -0.21578943236E+02  0.31886056617E+02  0.00000000000E+00 0. -1.
         11    1    3    3    0    0 -0.10922544304E+02 -0.88946041533E+01  0.10848851621E+02  0.17779582078E+02  0.51100000000E-03 0. -1.
        -11    1    3    3    0    0  0.49954600221E+01 -0.12848332234E+01  0.17469202133E+01  0.54458376524E+01  0.51100000000E-03 0.  1.
        -12    1    3    3    0    0  0.11598873814E+02  0.32958827599E+02  0.89831714024E+01  0.36076523653E+02  0.00000000000E+00 0.  1.
</event>
<event>
 7    1  0.6963701E-013  0.5930205E+02  0.7816164E-02  0.1266604E+00
        -11   -1    0    0    0    0  0.00000000000E+00  0.00000000000E+00  0.45593999997E+02  0.45594000000E+02  0.51100000000E-03 0.  1.
         11   -1    0    0    0    0 -0.00000000000E+00 -0.00000000000E+00 -0.45593999997E+02  0.45594000000E+02  0.51100000000E-03 0. -1.
    9900012    2    1    2    0    0 -0.57812755567E+01 -0.30954177767E+02  0.50129060829E+01  0.59302054888E+02  0.50000202182E+02 0.  0.
         12    1    1    2    0    0  0.57812755567E+01  0.30954177767E+02 -0.50129060829E+01  0.31885945112E+02  0.00000000000E+00 0. -1.
         11    1    3    3    0    0 -0.12346637385E+02  0.11061385253E+00  0.55730170994E+01  0.13546594036E+02  0.51100000000E-03 0. -1.
        -11    1    3    3    0    0 -0.90477165067E+01 -0.21520165362E+02  0.91085471387E+01  0.25058817259E+02  0.51100000000E-03 0.  1.
         12    1    3    3    0    0  0.15613078335E+02 -0.95446262572E+01 -0.96686581552E+01  0.20696643592E+02  0.00000000000E+00 0. -1.
</event>
<event>
 7    1  0.6963701E-013  0.5930194E+02  0.7816164E-02  0.1266605E+00
        -11   -1    0    0    0    0  0.00000000000E+00  0.00000000000E+00  0.45593999997E+02  0.45594000000E+02  0.51100000000E-03 0. -1.
         11   -1    0    0    0    0 -0.00000000000E+00 -0.00000000000E+00 -0.45593999997E+02  0.45594000000E+02  0.51100000000E-03 0.  1.
    9900012    2    1    2    0    0  0.27664739497E+02  0.10423323026E+02 -0.11947269812E+02  0.59301941443E+02  0.49999995287E+02 0.  0.
         12    1    1    2    0    0 -0.27664739497E+02 -0.10423323026E+02  0.11947269812E+02  0.31886058557E+02  0.00000000000E+00 0. -1.
         11    1    3    3    0    0  0.16467691899E+02 -0.57915774400E+01  0.70373572787E+01  0.18821573884E+02  0.51100000000E-03 0. -1.
        -11    1    3    3    0    0  0.69592819973E+01 -0.44300543640E+01 -0.17506852620E+02  0.19353213596E+02  0.51100000000E-03 0.  1.
         12    1    3    3    0    0  0.42377656003E+01  0.20644954830E+02 -0.14777744712E+01  0.21127153964E+02  0.00000000000E+00 0. -1.
</event>
<event>
 7    1  0.6963701E-013  0.5930195E+02  0.7816164E-02  0.1266605E+00
        -11   -1    0    0    0    0  0.00000000000E+00  0.00000000000E+00  0.45593999997E+02  0.45594000000E+02  0.51100000000E-03 0.  1.
         11   -1    0    0    0    0 -0.00000000000E+00 -0.00000000000E+00 -0.45593999997E+02  0.45594000000E+02  0.51100000000E-03 0. -1.
    9900012    2    1    2    0    0  0.16388215314E+02  0.18717622191E+02  0.19944848716E+02  0.59301953334E+02  0.50000016973E+02 0.  0.
         12    1    1    2    0    0 -0.16388215314E+02 -0.18717622191E+02 -0.19944848716E+02  0.31886046666E+02  0.00000000000E+00 0. -1.
         11    1    3    3    0    0  0.46806282758E+01 -0.96068471958E+01  0.35568007072E+01  0.11262798304E+02  0.51100000000E-03 0. -1.
        -11    1    3    3    0    0  0.85210474700E+01  0.33897666962E+01 -0.86163703075E+01  0.12583346366E+02  0.51100000000E-03 0.  1.
        -12    1    3    3    0    0  0.31865395686E+01  0.24934702690E+02  0.25004418316E+02  0.35455808664E+02  0.00000000000E+00 0.  1.
</event>
<event>
 7    1  0.6963701E-013  0.5930196E+02  0.7816164E-02  0.1266605E+00
        -11   -1    0    0    0    0  0.00000000000E+00  0.00000000000E+00  0.45593999997E+02  0.45594000000E+02  0.51100000000E-03 0.  1.
         11   -1    0    0    0    0 -0.00000000000E+00 -0.00000000000E+00 -0.45593999997E+02  0.45594000000E+02  0.51100000000E-03 0. -1.
    9900012    2    1    2    0    0 -0.36043956457E+01 -0.17014592013E+02  0.26725109010E+02  0.59301961348E+02  0.50000031588E+02 0.  0.
         12    1    1    2    0    0  0.36043956457E+01  0.17014592013E+02 -0.26725109010E+02  0.31886038652E+02  0.00000000000E+00 0. -1.
         11    1    3    3    0    0 -0.13007197898E+02 -0.64355400094E+01  0.82411763149E+01  0.16688929255E+02  0.51100000000E-03 0. -1.
        -11    1    3    3    0    0  0.26005097170E+00  0.43494214776E+01  0.23895871030E+02  0.24289869210E+02  0.51100000000E-03 0.  1.
         12    1    3    3    0    0  0.91427512805E+01 -0.14928473481E+02 -0.54119383357E+01  0.18323162882E+02  0.00000000000E+00 0. -1.
</event>
<event>
 7    1  0.6963701E-013  0.5930201E+02  0.7816164E-02  0.1266605E+00
        -11   -1    0    0    0    0  0.00000000000E+00  0.00000000000E+00  0.45593999997E+02  0.45594000000E+02  0.51100000000E-03 0.  1.
         11   -1    0    0    0    0 -0.00000000000E+00 -0.00000000000E+00 -0.45593999997E+02  0.45594000000E+02  0.51100000000E-03 0. -1.
    9900012    2    1    2    0    0 -0.23380060577E+02  0.17255249442E+02  0.13128050828E+02  0.59302006454E+02  0.50000113851E+02 0.  0.
         12    1    1    2    0    0  0.23380060577E+02 -0.17255249442E+02 -0.13128050828E+02  0.31885993546E+02  0.00000000000E+00 0. -1.
         11    1    3    3    0    0 -0.37783777616E+01 -0.12261053457E+02  0.94379561663E+01  0.15927478998E+02  0.51100000000E-03 0. -1.
        -11    1    3    3    0    0 -0.51852957518E+01 -0.27986613959E+01 -0.40538775832E+01  0.71521829789E+01  0.51100000000E-03 0.  1.
        -12    1    3    3    0    0 -0.14416387063E+02  0.32314964294E+02  0.77439722449E+01  0.36222344477E+02  0.00000000000E+00 0.  1.
</event>
<event>
 7    1  0.6963701E-013  0.5930194E+02  0.7816164E-02  0.1266605E+00
        -11   -1    0    0    0    0  0.00000000000E+00  0.00000000000E+00  0.45593999997E+02  0.45594000000E+02  0.51100000000E-03 0. -1.
         11   -1    0    0    0    0 -0.00000000000E+00 -0.00000000000E+00 -0.45593999997E+02  0.45594000000E+02  0.51100000000E-03 0.  1.
    9900012    2    1    2    0    0  0.93417505551E+01 -0.29733650121E+02 -0.67351699960E+01  0.59301940855E+02  0.49999994213E+02 0.  0.
         12    1    1    2    0    0 -0.93417505551E+01  0.29733650121E+02  0.67351699960E+01  0.31886059145E+02  0.00000000000E+00 0. -1.
         11    1    3    3    0    0  0.12429947100E+02 -0.10718661076E+02 -0.49250576806E+01  0.17136203593E+02  0.51100000000E-03 0. -1.
        -11    1    3    3    0    0  0.14671752432E+02 -0.22030737730E+01 -0.81154349703E+01  0.16910769897E+02  0.51100000000E-03 0.  1.
         12    1    3    3    0    0 -0.17759948978E+02 -0.16811915272E+02  0.63053226549E+01  0.25254967365E+02  0.00000000000E+00 0. -1.
</event>
<event>
 7    1  0.6963701E-013  0.5930193E+02  0.7816164E-02  0.1266605E+00
        -11   -1    0    0    0    0  0.00000000000E+00  0.00000000000E+00  0.45593999997E+02  0.45594000000E+02  0.51100000000E-03 0. -1.
         11   -1    0    0    0    0 -0.00000000000E+00 -0.00000000000E+00 -0.45593999997E+02  0.45594000000E+02  0.51100000000E-03 0.  1.
    9900012    2    1    2    0    0 -0.11488144043E+02  0.28278468821E+02 -0.92234465020E+01  0.59301933799E+02  0.49999981345E+02 0.  0.
         12    1    1    2    0    0  0.11488144043E+02 -0.28278468821E+02  0.92234465020E+01  0.31886066201E+02  0.00000000000E+00 0. -1.
         11    1    3    3    0    0  0.19379607330E+02  0.13800399894E+02 -0.45837817640E+00  0.23795594724E+02  0.51100000000E-03 0.  1.
        -11    1    3    3    0    0 -0.77691678718E+01  0.36394588009E+01 -0.16531583686E+00  0.85809649440E+01  0.51100000000E-03 0. -1.
        -12    1    3    3    0    0 -0.23098583501E+02  0.10838610126E+02 -0.85997524888E+01  0.26925374130E+02  0.00000000000E+00 0.  1.
</event>
<event>
 7    1  0.6963701E-013  0.5930193E+02  0.7816164E-02  0.1266605E+00
        -11   -1    0    0    0    0  0.00000000000E+00  0.00000000000E+00  0.45593999997E+02  0.45594000000E+02  0.51100000000E-03 0.  1.
         11   -1    0    0    0    0 -0.00000000000E+00 -0.00000000000E+00 -0.45593999997E+02  0.45594000000E+02  0.51100000000E-03 0. -1.
    9900012    2    1    2    0    0  0.63268701190E+01  0.94107045230E+01  0.29801518723E+02  0.59301934653E+02  0.49999982902E+02 0.  0.
         12    1    1    2    0    0 -0.63268701190E+01 -0.94107045230E+01 -0.29801518723E+02  0.31886065347E+02  0.00000000000E+00 0. -1.
         11    1    3    3    0    0 -0.79706173986E+01  0.44024144586E+01  0.31117560455E+02  0.32422439201E+02  0.51100000000E-03 0. -1.
        -11    1    3    3    0    0  0.40998092028E+01 -0.49573447680E+01  0.76814828290E+01  0.10019425201E+02  0.51100000000E-03 0.  1.
         12    1    3    3    0    0  0.10197678315E+02  0.99656348324E+01 -0.89975245610E+01  0.16860070250E+02  0.00000000000E+00 0. -1.
</event>
<event>
 7    1  0.6963701E-013  0.5930202E+02  0.7816164E-02  0.1266604E+00
        -11   -1    0    0    0    0  0.00000000000E+00  0.00000000000E+00  0.45593999997E+02  0.45594000000E+02  0.51100000000E-03 0. -1.
         11   -1    0    0    0    0 -0.00000000000E+00 -0.00000000000E+00 -0.45593999997E+02  0.45594000000E+02  0.51100000000E-03 0.  1.
    9900012    2    1    2    0    0 -0.19110858914E+02  0.36620797400E+01 -0.25260243916E+02  0.59302020649E+02  0.50000139739E+02 0.  0.
         12    1    1    2    0    0  0.19110858914E+02 -0.36620797400E+01  0.25260243916E+02  0.31885979351E+02  0.00000000000E+00 0. -1.
         11    1    3    3    0    0 -0.58613344654E+01  0.65215781130E+01 -0.14773468916E+02  0.17179685879E+02  0.51100000000E-03 0. -1.
        -11    1    3    3    0    0 -0.21404851730E+02 -0.35544233438E+01  0.70129229532E+01  0.22803128985E+02  0.51100000000E-03 0.  1.
         12    1    3    3    0    0  0.81553272812E+01  0.69492497079E+00 -0.17499697953E+02  0.19319205786E+02  0.00000000000E+00 0. -1.
</event>
<event>
 7    1  0.6963701E-013  0.5930196E+02  0.7816164E-02  0.1266605E+00
        -11   -1    0    0    0    0  0.00000000000E+00  0.00000000000E+00  0.45593999997E+02  0.45594000000E+02  0.51100000000E-03 0. -1.
         11   -1    0    0    0    0 -0.00000000000E+00 -0.00000000000E+00 -0.45593999997E+02  0.45594000000E+02  0.51100000000E-03 0.  1.
    9900012    2    1    2    0    0  0.26610480651E+02  0.48220596565E+01 -0.16892301385E+02  0.59301956252E+02  0.50000022294E+02 0.  0.
         12    1    1    2    0    0 -0.26610480651E+02 -0.48220596565E+01  0.16892301385E+02  0.31886043748E+02  0.00000000000E+00 0. -1.
         11    1    3    3    0    0  0.53429842011E+01  0.69632023955E+00  0.15233160282E+02  0.16158017035E+02  0.51100000000E-03 0. -1.
        -11    1    3    3    0    0  0.12085207976E+02 -0.36901463585E+00 -0.32616023957E+01  0.12523037734E+02  0.51100000000E-03 0.  1.
        -12    1    3    3    0    0  0.91822884742E+01  0.44947540528E+01 -0.28863859272E+02  0.30620901484E+02  0.00000000000E+00 0.  1.
</event>
<event>
 7    1  0.6963701E-013  0.5930195E+02  0.7816164E-02  0.1266605E+00
        -11   -1    0    0    0    0  0.00000000000E+00  0.00000000000E+00  0.45593999997E+02  0.45594000000E+02  0.51100000000E-03 0. -1.
         11   -1    0    0    0    0 -0.00000000000E+00 -0.00000000000E+00 -0.45593999997E+02  0.45594000000E+02  0.51100000000E-03 0.  1.
    9900012    2    1    2    0    0 -0.22586051762E+02 -0.55987234730E+01  0.21800106442E+02  0.59301951646E+02  0.50000013894E+02 0.  0.
         12    1    1    2    0    0  0.22586051762E+02  0.55987234730E+01 -0.21800106442E+02  0.31886048354E+02  0.00000000000E+00 0. -1.
         11    1    3    3    0    0  0.54395928218E+00  0.19226990312E+01 -0.89781893826E+00  0.21906031982E+01  0.51100000000E-03 0. -1.
        -11    1    3    3    0    0 -0.25050767732E+02  0.92676538756E+01 -0.24401303865E+01  0.26821346142E+02  0.51100000000E-03 0.  1.
         12    1    3    3    0    0  0.19207566878E+01 -0.16789076380E+02  0.25138055767E+02  0.30290002306E+02  0.00000000000E+00 0. -1.
</event>
<event>
 7    1  0.6963701E-013  0.5930194E+02  0.7816164E-02  0.1266605E+00
        -11   -1    0    0    0    0  0.00000000000E+00  0.00000000000E+00  0.45593999997E+02  0.45594000000E+02  0.51100000000E-03 0.  1.
         11   -1    0    0    0    0 -0.00000000000E+00 -0.00000000000E+00 -0.45593999997E+02  0.45594000000E+02  0.51100000000E-03 0. -1.
    9900012    2    1    2    0    0 -0.28989931498E+02 -0.98299244174E+01  0.89262138028E+01  0.59301939799E+02  0.49999992287E+02 0.  0.
         12    1    1    2    0    0  0.28989931498E+02  0.98299244174E+01 -0.89262138028E+01  0.31886060201E+02  0.00000000000E+00 0. -1.
         11    1    3    3    0    0 -0.22614078918E+02 -0.17352949961E+02 -0.21537619558E+01  0.28586012812E+02  0.51100000000E-03 0. -1.
        -11    1    3    3    0    0 -0.95295246926E+01  0.52899757919E+01 -0.65173832701E+01  0.12699290126E+02  0.51100000000E-03 0.  1.
         12    1    3    3    0    0  0.31536721129E+01  0.22330497514E+01  0.17597359029E+02  0.18016636861E+02  0.00000000000E+00 0. -1.
</event>
<event>
 7    1  0.6963701E-013  0.5930192E+02  0.7816164E-02  0.1266605E+00
        -11   -1    0    0    0    0  0.00000000000E+00  0.00000000000E+00  0.45593999997E+02  0.45594000000E+02  0.51100000000E-03 0. -1.
         11   -1    0    0    0    0 -0.00000000000E+00 -0.00000000000E+00 -0.45593999997E+02  0.45594000000E+02  0.51100000000E-03 0.  1.
    9900012    2    1    2    0    0  0.10016589159E+02  0.17820055080E+02 -0.24471113876E+02  0.59301924109E+02  0.49999963672E+02 0.  0.
         12    1    1    2    0    0 -0.10016589159E+02 -0.17820055080E+02  0.24471113876E+02  0.31886075891E+02  0.00000000000E+00 0. -1.
         11    1    3    3    0    0  0.19150309080E+02  0.14176963101E+02 -0.96514266085E+01  0.25707404701E+02  0.51100000000E-03 0. -1.
        -11    1    3    3    0    0  0.77729349740E+01 -0.51405311866E+01 -0.10537359807E+02  0.14066965947E+02  0.51100000000E-03 0.  1.
         12    1    3    3    0    0 -0.16906654895E+02  0.87836231658E+01 -0.42823274598E+01  0.19527553460E+02  0.00000000000E+00 0. -1.
</event>
<event>
 7    1  0.6963701E-013  0.5930195E+02  0.7816164E-02  0.1266605E+00
        -11   -1    0    0    0    0  0.00000000000E+00  0.00000000000E+00  0.45593999997E+02  0.45594000000E+02  0.51100000000E-03 0. -1.
         11   -1    0    0    0    0 -0.00000000000E+00 -0.00000000000E+00 -0.45593999997E+02  0.45594000000E+02  0.51100000000E-03 0.  1.
    9900012    2    1    2    0    0  0.35539990980E+01  0.81370195166E+01 -0.30624800059E+02  0.59301947017E+02  0.50000005452E+02 0.  0.
         12    1    1    2    0    0 -0.35539990980E+01 -0.81370195166E+01  0.30624800059E+02  0.31886052983E+02  0.00000000000E+00 0. -1.
         11    1    3    3    0    0  0.88112343733E+01  0.81626744700E+00 -0.34455733178E+02  0.35573890606E+02  0.51100000000E-03 0.  1.
        -11    1    3    3    0    0  0.80643334561E+01  0.62173225325E+00  0.35005849511E+01  0.88132922536E+01  0.51100000000E-03 0. -1.
         12    1    3    3    0    0 -0.13321568731E+02  0.66990198164E+01  0.33034816857E+00  0.14914764158E+02  0.00000000000E+00 0. -1.
</event>
<event>
 7    1  0.6963701E-013  0.5930196E+02  0.7816164E-02  0.1266605E+00
        -11   -1    0    0    0    0  0.00000000000E+00  0.00000000000E+00  0.45593999997E+02  0.45594000000E+02  0.51100000000E-03 0.  1.
         11   -1    0    0    0    0 -0.00000000000E+00 -0.00000000000E+00 -0.45593999997E+02  0.45594000000E+02  0.51100000000E-03 0. -1.
    9900012    2    1    2    0    0 -0.17460971065E+02 -0.24529990226E+01  0.26567209828E+02  0.59301963044E+02  0.50000034680E+02 0.  0.
         12    1    1    2    0    0  0.17460971065E+02  0.24529990226E+01 -0.26567209828E+02  0.31886036956E+02  0.00000000000E+00 0. -1.
         11    1    3    3    0    0 -0.39078188130E+01 -0.15423687265E+02  0.15201925884E+02  0.22005902107E+02  0.51100000000E-03 0. -1.
        -11    1    3    3    0    0  0.10736860121E+00 -0.93513257983E+01  0.29867933524E+01  0.98173192366E+01  0.51100000000E-03 0.  1.
        -12    1    3    3    0    0 -0.13660520853E+02  0.22322014040E+02  0.83784905919E+01  0.27478741700E+02  0.00000000000E+00 0.  1.
</event>
<event>
 7    1  0.6963701E-013  0.5930195E+02  0.7816164E-02  0.1266605E+00
        -11   -1    0    0    0    0  0.00000000000E+00  0.00000000000E+00  0.45593999997E+02  0.45594000000E+02  0.51100000000E-03 0. -1.
         11   -1    0    0    0    0 -0.00000000000E+00 -0.00000000000E+00 -0.45593999997E+02  0.45594000000E+02  0.51100000000E-03 0.  1.
    9900012    2    1    2    0    0  0.11349123958E+02  0.12207129642E+02 -0.27182782725E+02  0.59301948106E+02  0.50000007438E+02 0.  0.
         12    1    1    2    0    0 -0.11349123958E+02 -0.12207129642E+02  0.27182782725E+02  0.31886051894E+02  0.00000000000E+00 0. -1.
         11    1    3    3    0    0 -0.96797546866E+01 -0.25025299361E+00  0.15509582414E+01  0.98064136707E+01  0.51100000000E-03 0. -1.
        -11    1    3    3    0    0  0.60986222709E+01  0.10366632995E+02 -0.31898784429E+02  0.34090947795E+02  0.51100000000E-03 0.  1.
         12    1    3    3    0    0  0.14930256374E+02  0.20907496405E+01  0.31650434627E+01  0.15404586640E+02  0.00000000000E+00 0. -1.
</event>
<event>
 7    1  0.6963701E-013  0.5930195E+02  0.7816164E-02  0.1266605E+00
        -11   -1    0    0    0    0  0.00000000000E+00  0.00000000000E+00  0.45593999997E+02  0.45594000000E+02  0.51100000000E-03 0. -1.
         11   -1    0    0    0    0 -0.00000000000E+00 -0.00000000000E+00 -0.45593999997E+02  0.45594000000E+02  0.51100000000E-03 0.  1.
    9900012    2    1    2    0    0  0.35392847986E+01  0.13423775813E+02 -0.28705326525E+02  0.59301951878E+02  0.50000014317E+02 0.  0.
         12    1    1    2    0    0 -0.35392847986E+01 -0.13423775813E+02  0.28705326525E+02  0.31886048122E+02  0.00000000000E+00 0. -1.
         11    1    3    3    0    0  0.81012227799E+01 -0.15592020133E+01 -0.71601706754E+01  0.10923779832E+02  0.51100000000E-03 0. -1.
        -11    1    3    3    0    0 -0.33545276000E+00 -0.14010957742E+02 -0.70691313099E+01  0.15696881319E+02  0.51100000000E-03 0.  1.
         12    1    3    3    0    0 -0.42264852213E+01  0.28993935569E+02 -0.14476024539E+02  0.32681290727E+02  0.00000000000E+00 0. -1.
</event>
<event>
 7    1  0.6963701E-013  0.5930194E+02  0.7816164E-02  0.1266605E+00
        -11   -1    0    0    0    0  0.00000000000E+00  0.00000000000E+00  0.45593999997E+02  0.45594000000E+02  0.51100000000E-03 0.  1.
         11   -1    0    0    0    0 -0.00000000000E+00 -0.00000000000E+00 -0.45593999997E+02  0.45594000000E+02  0.51100000000E-03 0. -1.
    9900012    2    1    2    0    0 -0.14961207501E+01 -0.30760633040E+02 -0.82623183919E+01  0.59301939918E+02  0.49999992505E+02 0.  0.
         12    1    1    2    0    0  0.14961207501E+01  0.30760633040E+02  0.82623183919E+01  0.31886060082E+02  0.00000000000E+00 0. -1.
         11    1    3    3    0    0  0.27624615674E+01  0.36159403633E+01 -0.77454167587E-01  0.45510677903E+01  0.51100000000E-03 0. -1.
        -11    1    3    3    0    0  0.14581277418E+02 -0.30956333381E+02 -0.96323854736E+01  0.35548432845E+02  0.51100000000E-03 0.  1.
         12    1    3    3    0    0 -0.18839859735E+02 -0.34202400225E+01  0.14475212493E+01  0.19202439283E+02  0.00000000000E+00 0. -1.
</event>
<event>
 7    1  0.6963701E-013  0.5930194E+02  0.7816164E-02  0.1266605E+00
        -11   -1    0    0    0    0  0.00000000000E+00  0.00000000000E+00  0.45593999997E+02  0.45594000000E+02  0.51100000000E-03 0.  1.
         11   -1    0    0    0    0 -0.00000000000E+00 -0.00000000000E+00 -0.45593999997E+02  0.45594000000E+02  0.51100000000E-03 0. -1.
    9900012    2    1    2    0    0 -0.10624561780E+02  0.11405382462E+02  0.27816478459E+02  0.59301944490E+02  0.50000000844E+02 0.  0.
         12    1    1    2    0    0  0.10624561780E+02 -0.11405382462E+02 -0.27816478459E+02  0.31886055510E+02  0.00000000000E+00 0. -1.
         11    1    3    3    0    0 -0.51280052013E+01 -0.70187162518E+01  0.35603328185E+01  0.93933372774E+01  0.51100000000E-03 0. -1.
        -11    1    3    3    0    0  0.14049473444E+02  0.22994382612E+01  0.19473516527E+02  0.24122457722E+02  0.51100000000E-03 0.  1.
         12    1    3    3    0    0 -0.19546030022E+02  0.16124660452E+02  0.47826291134E+01  0.25786149491E+02  0.00000000000E+00 0. -1.
</event>
<event>
 7    1  0.6963701E-013  0.5930194E+02  0.7816164E-02  0.1266605E+00
        -11   -1    0    0    0    0  0.00000000000E+00  0.00000000000E+00  0.45593999997E+02  0.45594000000E+02  0.51100000000E-03 0.  1.
         11   -1    0    0    0    0 -0.00000000000E+00 -0.00000000000E+00 -0.45593999997E+02  0.45594000000E+02  0.51100000000E-03 0. -1.
    9900012    2    1    2    0    0 -0.25919294464E+02  0.47095065786E+01  0.17964723741E+02  0.59301943850E+02  0.49999999676E+02 0.  0.
         12    1    1    2    0    0  0.25919294464E+02 -0.47095065786E+01 -0.17964723741E+02  0.31886056150E+02  0.00000000000E+00 0. -1.
         11    1    3    3    0    0 -0.14537368537E+02  0.13501940128E+02 -0.11425178740E+02  0.22894806850E+02  0.51100000000E-03 0. -1.
        -11    1    3    3    0    0 -0.75032743074E+01  0.36069857507E-01  0.26105374682E+01  0.79445158758E+01  0.51100000000E-03 0.  1.
        -12    1    3    3    0    0 -0.38786516195E+01 -0.88285034067E+01  0.26779365013E+02  0.28462621125E+02  0.00000000000E+00 0.  1.
</event>
<event>
 7    1  0.6963701E-013  0.5930193E+02  0.7816164E-02  0.1266605E+00
        -11   -1    0    0    0    0  0.00000000000E+00  0.00000000000E+00  0.45593999997E+02  0.45594000000E+02  0.51100000000E-03 0.  1.
         11   -1    0    0    0    0 -0.00000000000E+00 -0.00000000000E+00 -0.45593999997E+02  0.45594000000E+02  0.51100000000E-03 0. -1.
    9900012    2    1    2    0    0  0.15653362044E+02  0.20586952419E+02  0.18651311031E+02  0.59301925354E+02  0.49999965943E+02 0.  0.
         12    1    1    2    0    0 -0.15653362044E+02 -0.20586952419E+02 -0.18651311031E+02  0.31886074646E+02  0.00000000000E+00 0. -1.
         11    1    3    3    0    0  0.26308577979E+02  0.14914840398E-01  0.22164283459E+02  0.34400537194E+02  0.51100000000E-03 0. -1.
        -11    1    3    3    0    0 -0.12305162677E+01  0.66308305173E+01 -0.43959066339E+01  0.80502222969E+01  0.51100000000E-03 0.  1.
        -12    1    3    3    0    0 -0.94246996673E+01  0.13941207061E+02  0.88293420621E+00  0.16851165863E+02  0.00000000000E+00 0.  1.
</event>
<event>
 7    1  0.6963701E-013  0.5930198E+02  0.7816164E-02  0.1266605E+00
        -11   -1    0    0    0    0  0.00000000000E+00  0.00000000000E+00  0.45593999997E+02  0.45594000000E+02  0.51100000000E-03 0.  1.
         11   -1    0    0    0    0 -0.00000000000E+00 -0.00000000000E+00 -0.45593999997E+02  0.45594000000E+02  0.51100000000E-03 0. -1.
    9900012    2    1    2    0    0  0.26379214947E+02 -0.60652396654E+00  0.17902170446E+02  0.59301975488E+02  0.50000057375E+02 0.  0.
         12    1    1    2    0    0 -0.26379214947E+02  0.60652396654E+00 -0.17902170446E+02  0.31886024512E+02  0.00000000000E+00 0. -1.
         11    1    3    3    0    0  0.20752375912E+01 -0.76952340793E+01 -0.38343683569E+01  0.88445248347E+01  0.51100000000E-03 0. -1.
        -11    1    3    3    0    0 -0.63613531362E+01 -0.65519838934E+01 -0.20013487740E+01  0.93488343572E+01  0.51100000000E-03 0.  1.
        -12    1    3    3    0    0  0.30665330492E+02  0.13640694006E+02  0.23737887576E+02  0.41108616296E+02  0.00000000000E+00 0.  1.
</event>
<event>
 7    1  0.6963701E-013  0.5930192E+02  0.7816164E-02  0.1266605E+00
        -11   -1    0    0    0    0  0.00000000000E+00  0.00000000000E+00  0.45593999997E+02  0.45594000000E+02  0.51100000000E-03 0.  1.
         11   -1    0    0    0    0 -0.00000000000E+00 -0.00000000000E+00 -0.45593999997E+02  0.45594000000E+02  0.51100000000E-03 0. -1.
    9900012    2    1    2    0    0  0.78553486938E+01  0.33232440389E+01  0.30724117807E+02  0.59301923586E+02  0.49999962719E+02 0.  0.
         12    1    1    2    0    0 -0.78553486938E+01 -0.33232440389E+01 -0.30724117807E+02  0.31886076414E+02  0.00000000000E+00 0. -1.
         11    1    3    3    0    0 -0.10890095136E+02 -0.15688447876E+02  0.13073970568E+02  0.23144119674E+02  0.51100000000E-03 0. -1.
        -11    1    3    3    0    0  0.91461529481E+01 -0.97239240951E+00  0.34156454862E+01  0.98114369537E+01  0.51100000000E-03 0.  1.
        -12    1    3    3    0    0  0.95992908815E+01  0.19984084324E+02  0.14234501754E+02  0.26346366958E+02  0.00000000000E+00 0.  1.
</event>
<event>
 7    1  0.6963701E-013  0.5930194E+02  0.7816164E-02  0.1266605E+00
        -11   -1    0    0    0    0  0.00000000000E+00  0.00000000000E+00  0.45593999997E+02  0.45594000000E+02  0.51100000000E-03 0. -1.
         11   -1    0    0    0    0 -0.00000000000E+00 -0.00000000000E+00 -0.45593999997E+02  0.45594000000E+02  0.51100000000E-03 0.  1.
    9900012    2    1    2    0    0 -0.25131312994E+02  0.10600510342E+02 -0.16515655334E+02  0.59301943746E+02  0.49999999487E+02 0.  0.
         12    1    1    2    0    0  0.25131312994E+02 -0.10600510342E+02  0.16515655334E+02  0.31886056254E+02  0.00000000000E+00 0. -1.
         11    1    3    3    0    0 -0.19404751529E+02  0.14489427389E+02  0.24899129804E+01  0.24345175187E+02  0.51100000000E-03 0.  1.
        -11    1    3    3    0    0 -0.65793232432E+01  0.97989575768E+01 -0.35699452311E+00  0.11808239042E+02  0.51100000000E-03 0. -1.
        -12    1    3    3    0    0  0.85276177809E+00 -0.13687874624E+02 -0.18648573791E+02  0.23148529517E+02  0.00000000000E+00 0.  1.
</event>
<event>
 7    1  0.6963701E-013  0.5930197E+02  0.7816164E-02  0.1266605E+00
        -11   -1    0    0    0    0  0.00000000000E+00  0.00000000000E+00  0.45593999997E+02  0.45594000000E+02  0.51100000000E-03 0.  1.
         11   -1    0    0    0    0 -0.00000000000E+00 -0.00000000000E+00 -0.45593999997E+02  0.45594000000E+02  0.51100000000E-03 0. -1.
    9900012    2    1    2    0    0 -0.51347324022E+01  0.91557620318E+01  0.30108563777E+02  0.59301967511E+02  0.50000042827E+02 0.  0.
         12    1    1    2    0    0  0.51347324022E+01 -0.91557620318E+01 -0.30108563777E+02  0.31886032489E+02  0.00000000000E+00 0. -1.
         11    1    3    3    0    0 -0.16515666919E+02  0.11062085275E+02 -0.19813106888E+01  0.19976550671E+02  0.51100000000E-03 0. -1.
        -11    1    3    3    0    0 -0.55867945076E+01 -0.61613209833E+00  0.95824474177E+01  0.11109238966E+02  0.51100000000E-03 0.  1.
        -12    1    3    3    0    0  0.16967729025E+02 -0.12901911449E+01  0.22507427048E+02  0.28216177873E+02  0.00000000000E+00 0.  1.
</event>
<event>
 7    1  0.6963701E-013  0.5930201E+02  0.7816164E-02  0.1266605E+00
        -11   -1    0    0    0    0  0.00000000000E+00  0.00000000000E+00  0.45593999997E+02  0.45594000000E+02  0.51100000000E-03 0.  1.
         11   -1    0    0    0    0 -0.00000000000E+00 -0.00000000000E+00 -0.45593999997E+02  0.45594000000E+02  0.51100000000E-03 0. -1.
    9900012    2    1    2    0    0 -0.13966145690E+02 -0.66582387504E+01  0.27880659328E+02  0.59302007256E+02  0.50000115313E+02 0.  0.
         12    1    1    2    0    0  0.13966145690E+02  0.66582387504E+01 -0.27880659328E+02  0.31885992744E+02  0.00000000000E+00 0. -1.
         11    1    3    3    0    0 -0.37161171428E+01  0.18497013236E+01  0.26069497302E+02  0.26397909225E+02  0.51100000000E-03 0. -1.
        -11    1    3    3    0    0 -0.17330829402E+02 -0.46947132054E+01  0.10712091296E+02  0.20908057777E+02  0.51100000000E-03 0.  1.
         12    1    3    3    0    0  0.70808008540E+01 -0.38132268687E+01 -0.89009292703E+01  0.11996040253E+02  0.00000000000E+00 0. -1.
</event>
<event>
 7    1  0.6963701E-013  0.5930196E+02  0.7816164E-02  0.1266605E+00
        -11   -1    0    0    0    0  0.00000000000E+00  0.00000000000E+00  0.45593999997E+02  0.45594000000E+02  0.51100000000E-03 0.  1.
         11   -1    0    0    0    0 -0.00000000000E+00 -0.00000000000E+00 -0.45593999997E+02  0.45594000000E+02  0.51100000000E-03 0. -1.
    9900012    2    1    2    0    0 -0.31028090367E+02 -0.57020721372E+01  0.46328870701E+01  0.59301958209E+02  0.50000025864E+02 0.  0.
         12    1    1    2    0    0  0.31028090367E+02  0.57020721372E+01 -0.46328870701E+01  0.31886041791E+02  0.00000000000E+00 0. -1.
         11    1    3    3    0    0 -0.23434350277E+01  0.11017970791E+02 -0.80658437954E+01  0.13854429056E+02  0.51100000000E-03 0. -1.
        -11    1    3    3    0    0 -0.24755588429E+02 -0.77398172762E+01  0.20386539959E+02  0.32990224942E+02  0.51100000000E-03 0.  1.
         12    1    3    3    0    0 -0.39290669102E+01 -0.89802256522E+01 -0.76878090938E+01  0.12457304211E+02  0.00000000000E+00 0. -1.
</event>
<event>
 7    1  0.6963701E-013  0.5930194E+02  0.7816164E-02  0.1266605E+00
        -11   -1    0    0    0    0  0.00000000000E+00  0.00000000000E+00  0.45593999997E+02  0.45594000000E+02  0.51100000000E-03 0.  1.
         11   -1    0    0    0    0 -0.00000000000E+00 -0.00000000000E+00 -0.45593999997E+02  0.45594000000E+02  0.51100000000E-03 0. -1.
    9900012    2    1    2    0    0  0.19757928854E+01 -0.27180591975E+02  0.16553926544E+02  0.59301940010E+02  0.49999992673E+02 0.  0.
         12    1    1    2    0    0 -0.19757928854E+01  0.27180591975E+02 -0.16553926544E+02  0.31886059990E+02  0.00000000000E+00 0. -1.
         11    1    3    3    0    0  0.48824533219E+01  0.69872923682E+01 -0.36927831964E+01  0.92896314822E+01  0.51100000000E-03 0. -1.
        -11    1    3    3    0    0  0.35484527188E+01  0.28727189448E+01  0.10076029789E+02  0.11062115865E+02  0.51100000000E-03 0.  1.
         12    1    3    3    0    0 -0.64551131552E+01 -0.37040603288E+02  0.10170679951E+02  0.38950192663E+02  0.00000000000E+00 0. -1.
</event>
<event>
 7    1  0.6963701E-013  0.5930190E+02  0.7816164E-02  0.1266605E+00
        -11   -1    0    0    0    0  0.00000000000E+00  0.00000000000E+00  0.45593999997E+02  0.45594000000E+02  0.51100000000E-03 0. -1.
         11   -1    0    0    0    0 -0.00000000000E+00 -0.00000000000E+00 -0.45593999997E+02  0.45594000000E+02  0.51100000000E-03 0.  1.
    9900012    2    1    2    0    0  0.17617789787E+00  0.30546397423E+02 -0.91438584330E+01  0.59301896738E+02  0.49999913756E+02 0.  0.
         12    1    1    2    0    0 -0.17617789787E+00 -0.30546397423E+02  0.91438584330E+01  0.31886103262E+02  0.00000000000E+00 0. -1.
         11    1    3    3    0    0  0.57332182513E+01  0.60522072619E+00  0.10018006330E+02  0.11558396720E+02  0.51100000000E-03 0. -1.
        -11    1    3    3    0    0 -0.45649623451E+01  0.30822398345E+02 -0.27518181862E+01  0.31279891696E+02  0.51100000000E-03 0.  1.
        -12    1    3    3    0    0 -0.99207800833E+00 -0.88122164795E+00 -0.16410046576E+02  0.16463608323E+02  0.00000000000E+00 0.  1.
</event>
<event>
 7    1  0.6966375E-013  0.5930195E+02  0.7816164E-02  0.1266605E+00
        -11   -1    0    0    0    0  0.00000000000E+00  0.00000000000E+00  0.45593999997E+02  0.45594000000E+02  0.51100000000E-03 0. -1.
         11   -1    0    0    0    0 -0.00000000000E+00 -0.00000000000E+00 -0.45593999997E+02  0.45594000000E+02  0.51100000000E-03 0.  1.
    9900012    2    1    2    0    0  0.13972882427E+02  0.28309583386E+02 -0.44773051094E+01  0.59301949510E+02  0.50000009999E+02 0.  0.
         12    1    1    2    0    0 -0.13972882427E+02 -0.28309583386E+02  0.44773051094E+01  0.31886050490E+02  0.00000000000E+00 0. -1.
         11    1    3    3    0    0 -0.55450014052E+01 -0.30323257046E+01 -0.87386456910E+01  0.10784524493E+02  0.51100000000E-03 0. -1.
        -11    1    3    3    0    0 -0.75678450707E+01  0.14456888436E+02  0.28779213262E+01  0.16569741510E+02  0.51100000000E-03 0.  1.
        -12    1    3    3    0    0  0.27085728903E+02  0.16885020654E+02  0.13834192554E+01  0.31947683508E+02  0.00000000000E+00 0.  1.
</event>
<event>
 7    1  0.6963701E-013  0.5930196E+02  0.7816164E-02  0.1266605E+00
        -11   -1    0    0    0    0  0.00000000000E+00  0.00000000000E+00  0.45593999997E+02  0.45594000000E+02  0.51100000000E-03 0.  1.
         11   -1    0    0    0    0 -0.00000000000E+00 -0.00000000000E+00 -0.45593999997E+02  0.45594000000E+02  0.51100000000E-03 0. -1.
    9900012    2    1    2    0    0  0.82365424329E+01  0.12632487799E+02  0.28094469815E+02  0.59301958956E+02  0.50000027226E+02 0.  0.
         12    1    1    2    0    0 -0.82365424329E+01 -0.12632487799E+02 -0.28094469815E+02  0.31886041044E+02  0.00000000000E+00 0. -1.
         11    1    3    3    0    0 -0.11876134622E+02 -0.75340071062E+01  0.12876404211E+02  0.19068445723E+02  0.51100000000E-03 0. -1.
        -11    1    3    3    0    0  0.70892827389E+01 -0.45969540993E+01  0.72722528914E+01  0.11147895726E+02  0.51100000000E-03 0.  1.
        -12    1    3    3    0    0  0.13023394316E+02  0.24763449004E+02  0.79458127129E+01  0.29085617507E+02  0.00000000000E+00 0.  1.
</event>
<event>
 7    1  0.6963701E-013  0.5930194E+02  0.7816164E-02  0.1266605E+00
        -11   -1    0    0    0    0  0.00000000000E+00  0.00000000000E+00  0.45593999997E+02  0.45594000000E+02  0.51100000000E-03 0.  1.
         11   -1    0    0    0    0 -0.00000000000E+00 -0.00000000000E+00 -0.45593999997E+02  0.45594000000E+02  0.51100000000E-03 0. -1.
    9900012    2    1    2    0    0 -0.92934944240E+01  0.28130867219E+02  0.11790082571E+02  0.59301940724E+02  0.49999993975E+02 0.  0.
         12    1    1    2    0    0  0.92934944240E+01 -0.28130867219E+02 -0.11790082571E+02  0.31886059276E+02  0.00000000000E+00 0. -1.
         11    1    3    3    0    0 -0.19223735516E+02  0.22732753498E+02  0.15018218465E+01  0.29809152250E+02  0.51100000000E-03 0.  1.
        -11    1    3    3    0    0  0.10177429064E+02  0.12767806128E+02 -0.60436386038E+00  0.16338977679E+02  0.51100000000E-03 0. -1.
         12    1    3    3    0    0 -0.24718797203E+00 -0.73696924065E+01  0.10892624585E+02  0.13153810795E+02  0.00000000000E+00 0. -1.
</event>
<event>
 7    1  0.6963701E-013  0.5930196E+02  0.7816164E-02  0.1266605E+00
        -11   -1    0    0    0    0  0.00000000000E+00  0.00000000000E+00  0.45593999997E+02  0.45594000000E+02  0.51100000000E-03 0.  1.
         11   -1    0    0    0    0 -0.00000000000E+00 -0.00000000000E+00 -0.45593999997E+02  0.45594000000E+02  0.51100000000E-03 0. -1.
    9900012    2    1    2    0    0 -0.70099746988E+01  0.31104384349E+02  0.31151196393E+00  0.59301960567E+02  0.50000030164E+02 0.  0.
         12    1    1    2    0    0  0.70099746988E+01 -0.31104384349E+02 -0.31151196393E+00  0.31886039433E+02  0.00000000000E+00 0. -1.
         11    1    3    3    0    0  0.10683430636E+02  0.62935678464E+00  0.68698555358E+01  0.12717181113E+02  0.51100000000E-03 0. -1.
        -11    1    3    3    0    0 -0.98303792240E+01  0.24794100300E+02  0.90860803265E+01  0.28176951953E+02  0.51100000000E-03 0.  1.
         12    1    3    3    0    0 -0.78630261112E+01  0.56809272638E+01 -0.15644423898E+02  0.18407827501E+02  0.00000000000E+00 0. -1.
</event>
<event>
 7    1  0.6963701E-013  0.5930193E+02  0.7816164E-02  0.1266605E+00
        -11   -1    0    0    0    0  0.00000000000E+00  0.00000000000E+00  0.45593999997E+02  0.45594000000E+02  0.51100000000E-03 0. -1.
         11   -1    0    0    0    0 -0.00000000000E+00 -0.00000000000E+00 -0.45593999997E+02  0.45594000000E+02  0.51100000000E-03 0.  1.
    9900012    2    1    2    0    0  0.30423302517E+02  0.62379428133E+01 -0.72271720641E+01  0.59301932782E+02  0.49999979490E+02 0.  0.
         12    1    1    2    0    0 -0.30423302517E+02 -0.62379428133E+01  0.72271720641E+01  0.31886067218E+02  0.00000000000E+00 0. -1.
         11    1    3    3    0    0 -0.60540342374E+01 -0.73666861396E+01 -0.70084444093E+01  0.11833752090E+02  0.51100000000E-03 0. -1.
        -11    1    3    3    0    0  0.18618416233E+02  0.13496242570E+02 -0.12132477290E+02  0.25999826769E+02  0.51100000000E-03 0.  1.
         12    1    3    3    0    0  0.17858920521E+02  0.10838638284E+00  0.11913749635E+02  0.21468353923E+02  0.00000000000E+00 0. -1.
</event>
<event>
 7    1  0.6963701E-013  0.5930194E+02  0.7816164E-02  0.1266605E+00
        -11   -1    0    0    0    0  0.00000000000E+00  0.00000000000E+00  0.45593999997E+02  0.45594000000E+02  0.51100000000E-03 0. -1.
         11   -1    0    0    0    0 -0.00000000000E+00 -0.00000000000E+00 -0.45593999997E+02  0.45594000000E+02  0.51100000000E-03 0.  1.
    9900012    2    1    2    0    0 -0.31557004540E+02 -0.30066381119E+01  0.34404320702E+01  0.59301937511E+02  0.49999988114E+02 0.  0.
         12    1    1    2    0    0  0.31557004540E+02  0.30066381119E+01 -0.34404320702E+01  0.31886062489E+02  0.00000000000E+00 0. -1.
         11    1    3    3    0    0  0.73358944484E+01  0.55926896694E+01 -0.64930774824E+01  0.11280672877E+02  0.51100000000E-03 0. -1.
        -11    1    3    3    0    0  0.28689496089E+01 -0.29130773379E+01 -0.14928777118E+01  0.43526515549E+01  0.51100000000E-03 0.  1.
        -12    1    3    3    0    0 -0.41761848597E+02 -0.56862504434E+01  0.11426387264E+02  0.43668613079E+02  0.00000000000E+00 0.  1.
</event>
<event>
 7    1  0.6963701E-013  0.5930189E+02  0.7816164E-02  0.1266605E+00
        -11   -1    0    0    0    0  0.00000000000E+00  0.00000000000E+00  0.45593999997E+02  0.45594000000E+02  0.51100000000E-03 0.  1.
         11   -1    0    0    0    0 -0.00000000000E+00 -0.00000000000E+00 -0.45593999997E+02  0.45594000000E+02  0.51100000000E-03 0. -1.
    9900012    2    1    2    0    0 -0.58878614712E+01 -0.30159489835E+02  0.85124639828E+01  0.59301893576E+02  0.49999907989E+02 0.  0.
         12    1    1    2    0    0  0.58878614712E+01  0.30159489835E+02 -0.85124639828E+01  0.31886106424E+02  0.00000000000E+00 0. -1.
         11    1    3    3    0    0 -0.11426169964E+02 -0.13615678170E+02  0.48351292903E+01  0.18420709204E+02  0.51100000000E-03 0. -1.
        -11    1    3    3    0    0 -0.14443387299E+02 -0.10545498075E+02 -0.45527778932E+01  0.18453908884E+02  0.51100000000E-03 0.  1.
        -12    1    3    3    0    0  0.19981695791E+02 -0.59983135901E+01  0.82301125858E+01  0.22427275488E+02  0.00000000000E+00 0.  1.
</event>
<event>
 7    1  0.6963701E-013  0.5930197E+02  0.7816164E-02  0.1266605E+00
        -11   -1    0    0    0    0  0.00000000000E+00  0.00000000000E+00  0.45593999997E+02  0.45594000000E+02  0.51100000000E-03 0. -1.
         11   -1    0    0    0    0 -0.00000000000E+00 -0.00000000000E+00 -0.45593999997E+02  0.45594000000E+02  0.51100000000E-03 0.  1.
    9900012    2    1    2    0    0 -0.24933496968E+02  0.19724081811E+02  0.24495133899E+01  0.59301971866E+02  0.50000050770E+02 0.  0.
         12    1    1    2    0    0  0.24933496968E+02 -0.19724081811E+02 -0.24495133899E+01  0.31886028134E+02  0.00000000000E+00 0. -1.
         11    1    3    3    0    0 -0.13973258682E+02 -0.12987004172E+01 -0.85634563200E+01  0.16439932037E+02  0.51100000000E-03 0. -1.
        -11    1    3    3    0    0 -0.10640138117E+02 -0.74236765924E+01  0.33233611618E+01  0.13392842975E+02  0.51100000000E-03 0.  1.
        -12    1    3    3    0    0 -0.32010016921E+00  0.28446458821E+02  0.76896085481E+01  0.29469196853E+02  0.00000000000E+00 0.  1.
</event>
<event>
 7    1  0.6963701E-013  0.5930195E+02  0.7816164E-02  0.1266605E+00
        -11   -1    0    0    0    0  0.00000000000E+00  0.00000000000E+00  0.45593999997E+02  0.45594000000E+02  0.51100000000E-03 0.  1.
         11   -1    0    0    0    0 -0.00000000000E+00 -0.00000000000E+00 -0.45593999997E+02  0.45594000000E+02  0.51100000000E-03 0. -1.
    9900012    2    1    2    0    0  0.12697465614E+01 -0.31060735804E+02  0.70949790114E+01  0.59301948313E+02  0.50000007816E+02 0.  0.
         12    1    1    2    0    0 -0.12697465614E+01  0.31060735804E+02 -0.70949790114E+01  0.31886051687E+02  0.00000000000E+00 0. -1.
         11    1    3    3    0    0  0.75981752308E+01 -0.22617140508E+02 -0.14096895901E+02  0.27712628636E+02  0.51100000000E-03 0. -1.
        -11    1    3    3    0    0  0.30919371272E+01 -0.26719024615E+01 -0.29497520206E+01  0.50398586494E+01  0.51100000000E-03 0.  1.
        -12    1    3    3    0    0 -0.94203657966E+01 -0.57716928344E+01  0.24141626933E+02  0.26549461028E+02  0.00000000000E+00 0.  1.
</event>
<event>
 7    1  0.6963701E-013  0.5930196E+02  0.7816164E-02  0.1266605E+00
        -11   -1    0    0    0    0  0.00000000000E+00  0.00000000000E+00  0.45593999997E+02  0.45594000000E+02  0.51100000000E-03 0.  1.
         11   -1    0    0    0    0 -0.00000000000E+00 -0.00000000000E+00 -0.45593999997E+02  0.45594000000E+02  0.51100000000E-03 0. -1.
    9900012    2    1    2    0    0 -0.21569409579E+02 -0.11984330729E+02  0.20195441842E+02  0.59301960989E+02  0.50000030933E+02 0.  0.
         12    1    1    2    0    0  0.21569409579E+02  0.11984330729E+02 -0.20195441842E+02  0.31886039011E+02  0.00000000000E+00 0. -1.
         11    1    3    3    0    0 -0.24508065967E+02  0.31974109465E+01  0.58196799006E+01  0.25391679909E+02  0.51100000000E-03 0. -1.
        -11    1    3    3    0    0  0.19019796006E+01 -0.94295146693E+01 -0.69052035152E+01  0.11841246098E+02  0.51100000000E-03 0.  1.
         12    1    3    3    0    0  0.10366767867E+01 -0.57522270058E+01  0.21280965457E+02  0.22069034982E+02  0.00000000000E+00 0. -1.
</event>
<event>
 7    1  0.6963701E-013  0.5930194E+02  0.7816164E-02  0.1266605E+00
        -11   -1    0    0    0    0  0.00000000000E+00  0.00000000000E+00  0.45593999997E+02  0.45594000000E+02  0.51100000000E-03 0.  1.
         11   -1    0    0    0    0 -0.00000000000E+00 -0.00000000000E+00 -0.45593999997E+02  0.45594000000E+02  0.51100000000E-03 0. -1.
    9900012    2    1    2    0    0 -0.18994753115E+02 -0.21925022519E+02  0.13236819911E+02  0.59301942550E+02  0.49999997305E+02 0.  0.
         12    1    1    2    0    0  0.18994753115E+02  0.21925022519E+02 -0.13236819911E+02  0.31886057450E+02  0.00000000000E+00 0. -1.
         11    1    3    3    0    0 -0.35674091170E+01  0.95807977733E+01 -0.10327305120E+01  0.10275438013E+02  0.51100000000E-03 0. -1.
        -11    1    3    3    0    0 -0.77794610708E+01 -0.34576055616E+00  0.15035603946E+02  0.16932482134E+02  0.51100000000E-03 0.  1.
        -12    1    3    3    0    0 -0.76478829275E+01 -0.31160059736E+02 -0.76605352358E+00  0.32094022403E+02  0.00000000000E+00 0.  1.
</event>
<event>
 7    1  0.6963701E-013  0.5930195E+02  0.7816164E-02  0.1266605E+00
        -11   -1    0    0    0    0  0.00000000000E+00  0.00000000000E+00  0.45593999997E+02  0.45594000000E+02  0.51100000000E-03 0. -1.
         11   -1    0    0    0    0 -0.00000000000E+00 -0.00000000000E+00 -0.45593999997E+02  0.45594000000E+02  0.51100000000E-03 0.  1.
    9900012    2    1    2    0    0 -0.14990538321E+02 -0.27728855020E+02  0.48077749389E+01  0.59301947567E+02  0.50000006455E+02 0.  0.
         12    1    1    2    0    0  0.14990538321E+02  0.27728855020E+02 -0.48077749389E+01  0.31886052433E+02  0.00000000000E+00 0. -1.
         11    1    3    3    0    0  0.11748647314E+02 -0.21794832241E+02  0.37743720113E+01  0.25045784285E+02  0.51100000000E-03 0. -1.
        -11    1    3    3    0    0 -0.42637248288E-01 -0.26010608249E+01 -0.59216877089E+01  0.64678992674E+01  0.51100000000E-03 0.  1.
        -12    1    3    3    0    0 -0.26696548387E+02 -0.33329619540E+01  0.69550906365E+01  0.27788264015E+02  0.00000000000E+00 0.  1.
</event>
<event>
 7    1  0.6963701E-013  0.5930183E+02  0.7816164E-02  0.1266605E+00
        -11   -1    0    0    0    0  0.00000000000E+00  0.00000000000E+00  0.45593999997E+02  0.45594000000E+02  0.51100000000E-03 0.  1.
         11   -1    0    0    0    0 -0.00000000000E+00 -0.00000000000E+00 -0.45593999997E+02  0.45594000000E+02  0.51100000000E-03 0. -1.
    9900012    2    1    2    0    0 -0.19125906300E+02 -0.18445865522E+02  0.17626057070E+02  0.59301825340E+02  0.49999783541E+02 0.  0.
         12    1    1    2    0    0  0.19125906300E+02  0.18445865522E+02 -0.17626057070E+02  0.31886174660E+02  0.00000000000E+00 0. -1.
         11    1    3    3    0    0  0.80306213200E+00 -0.52860112091E+01  0.75789571746E+01  0.92750965174E+01  0.51100000000E-03 0. -1.
        -11    1    3    3    0    0 -0.43840072522E+01 -0.16284640162E+02  0.23710218234E+02  0.29096107536E+02  0.51100000000E-03 0.  1.
         12    1    3    3    0    0 -0.15544961180E+02  0.31247858496E+01 -0.13663118339E+02  0.20930621286E+02  0.00000000000E+00 0. -1.
</event>
<event>
 7    1  0.6963701E-013  0.5930193E+02  0.7816164E-02  0.1266605E+00
        -11   -1    0    0    0    0  0.00000000000E+00  0.00000000000E+00  0.45593999997E+02  0.45594000000E+02  0.51100000000E-03 0. -1.
         11   -1    0    0    0    0 -0.00000000000E+00 -0.00000000000E+00 -0.45593999997E+02  0.45594000000E+02  0.51100000000E-03 0.  1.
    9900012    2    1    2    0    0  0.98813354168E+01  0.21785489092E+01  0.30237964260E+02  0.59301931764E+02  0.49999977634E+02 0.  0.
         12    1    1    2    0    0 -0.98813354168E+01 -0.21785489092E+01 -0.30237964260E+02  0.31886068236E+02  0.00000000000E+00 0. -1.
         11    1    3    3    0    0 -0.37302207590E+01 -0.10531319578E+01 -0.12573124288E+01  0.40748581124E+01  0.51100000000E-03 0. -1.
        -11    1    3    3    0    0 -0.15684541062E+02  0.31576915789E+01  0.12611444448E+02  0.20372147058E+02  0.51100000000E-03 0.  1.
         12    1    3    3    0    0  0.29296097238E+02  0.73989288124E-01  0.18883832240E+02  0.34854926594E+02  0.00000000000E+00 0. -1.
</event>
<event>
 7    1  0.6963701E-013  0.5930194E+02  0.7816164E-02  0.1266605E+00
        -11   -1    0    0    0    0  0.00000000000E+00  0.00000000000E+00  0.45593999997E+02  0.45594000000E+02  0.51100000000E-03 0.  1.
         11   -1    0    0    0    0 -0.00000000000E+00 -0.00000000000E+00 -0.45593999997E+02  0.45594000000E+02  0.51100000000E-03 0. -1.
    9900012    2    1    2    0    0 -0.19751913527E+02  0.63667853223E+00  0.25023534141E+02  0.59301941786E+02  0.49999995912E+02 0.  0.
         12    1    1    2    0    0  0.19751913527E+02 -0.63667853223E+00 -0.25023534141E+02  0.31886058214E+02  0.00000000000E+00 0. -1.
         11    1    3    3    0    0 -0.41934325406E+01 -0.60676881444E+01 -0.13192184377E+02  0.15114081010E+02  0.51100000000E-03 0. -1.
        -11    1    3    3    0    0 -0.12251621776E+02  0.84887703337E+01  0.16858794424E+02  0.22502897760E+02  0.51100000000E-03 0.  1.
        -12    1    3    3    0    0 -0.33068592099E+01 -0.17844036570E+01  0.21356924094E+02  0.21684963016E+02  0.00000000000E+00 0.  1.
</event>
<event>
 7    1  0.6963701E-013  0.5930190E+02  0.7816164E-02  0.1266605E+00
        -11   -1    0    0    0    0  0.00000000000E+00  0.00000000000E+00  0.45593999997E+02  0.45594000000E+02  0.51100000000E-03 0.  1.
         11   -1    0    0    0    0 -0.00000000000E+00 -0.00000000000E+00 -0.45593999997E+02  0.45594000000E+02  0.51100000000E-03 0. -1.
    9900012    2    1    2    0    0  0.19439319056E+02  0.41406470487E+01  0.24933741939E+02  0.59301896907E+02  0.49999914064E+02 0.  0.
         12    1    1    2    0    0 -0.19439319056E+02 -0.41406470487E+01 -0.24933741939E+02  0.31886103093E+02  0.00000000000E+00 0. -1.
         11    1    3    3    0    0  0.72485802757E+01 -0.20615346862E+01  0.52921249059E+01  0.92086061679E+01  0.51100000000E-03 0. -1.
        -11    1    3    3    0    0  0.20218091852E+02  0.20375947976E+02  0.71930979689E+01  0.29592079222E+02  0.51100000000E-03 0.  1.
         12    1    3    3    0    0 -0.80273530715E+01 -0.14173766241E+02  0.12448519064E+02  0.20501211517E+02  0.00000000000E+00 0. -1.
</event>
<event>
 7    1  0.6963701E-013  0.5930193E+02  0.7816164E-02  0.1266605E+00
        -11   -1    0    0    0    0  0.00000000000E+00  0.00000000000E+00  0.45593999997E+02  0.45594000000E+02  0.51100000000E-03 0.  1.
         11   -1    0    0    0    0 -0.00000000000E+00 -0.00000000000E+00 -0.45593999997E+02  0.45594000000E+02  0.51100000000E-03 0. -1.
    9900012    2    1    2    0    0 -0.17815225273E+01 -0.22824693564E+02  0.22194159407E+02  0.59301934539E+02  0.49999982695E+02 0.  0.
         12    1    1    2    0    0  0.17815225273E+01  0.22824693564E+02 -0.22194159407E+02  0.31886065461E+02  0.00000000000E+00 0. -1.
         11    1    3    3    0    0 -0.61317690699E+01 -0.16963382579E+02  0.16806091538E+02  0.24653593115E+02  0.51100000000E-03 0. -1.
        -11    1    3    3    0    0 -0.56642434096E+01 -0.17696159262E+02  0.13601152446E+01  0.18630287700E+02  0.51100000000E-03 0.  1.
         12    1    3    3    0    0  0.10014489952E+02  0.11834848278E+02  0.40279526247E+01  0.16018053724E+02  0.00000000000E+00 0. -1.
</event>
<event>
 7    1  0.6963701E-013  0.5930193E+02  0.7816164E-02  0.1266605E+00
        -11   -1    0    0    0    0  0.00000000000E+00  0.00000000000E+00  0.45593999997E+02  0.45594000000E+02  0.51100000000E-03 0. -1.
         11   -1    0    0    0    0 -0.00000000000E+00 -0.00000000000E+00 -0.45593999997E+02  0.45594000000E+02  0.51100000000E-03 0.  1.
    9900012    2    1    2    0    0 -0.27078595327E+01  0.95099214860E+01 -0.30314194942E+02  0.59301928983E+02  0.49999972562E+02 0.  0.
         12    1    1    2    0    0  0.27078595327E+01 -0.95099214860E+01  0.30314194942E+02  0.31886071017E+02  0.00000000000E+00 0. -1.
         11    1    3    3    0    0 -0.14539181001E+01  0.21093462334E+02 -0.31857120189E+01  0.21382160611E+02  0.51100000000E-03 0. -1.
        -11    1    3    3    0    0 -0.48586347846E+01  0.61175885916E+01 -0.12191084837E+02  0.14479425814E+02  0.51100000000E-03 0.  1.
         12    1    3    3    0    0  0.36046933519E+01 -0.17701129440E+02 -0.14937398086E+02  0.23440342557E+02  0.00000000000E+00 0. -1.
</event>
<event>
 7    1  0.6963701E-013  0.5930195E+02  0.7816164E-02  0.1266605E+00
        -11   -1    0    0    0    0  0.00000000000E+00  0.00000000000E+00  0.45593999997E+02  0.45594000000E+02  0.51100000000E-03 0.  1.
         11   -1    0    0    0    0 -0.00000000000E+00 -0.00000000000E+00 -0.45593999997E+02  0.45594000000E+02  0.51100000000E-03 0. -1.
    9900012    2    1    2    0    0  0.69980384792E+01 -0.25028727047E+02  0.18474596477E+02  0.59301946071E+02  0.50000003727E+02 0.  0.
         12    1    1    2    0    0 -0.69980384792E+01  0.25028727047E+02 -0.18474596477E+02  0.31886053929E+02  0.00000000000E+00 0. -1.
         11    1    3    3    0    0 -0.54393708770E+01 -0.19833272410E+02  0.61578640408E+01  0.21467760476E+02  0.51100000000E-03 0. -1.
        -11    1    3    3    0    0 -0.52577825628E+01 -0.36923895753E+01  0.18060722637E+02  0.19169447584E+02  0.51100000000E-03 0.  1.
         12    1    3    3    0    0  0.17695191919E+02 -0.15030650614E+01 -0.57439902003E+01  0.18664738012E+02  0.00000000000E+00 0. -1.
</event>
<event>
 7    1  0.6963701E-013  0.5930193E+02  0.7816164E-02  0.1266605E+00
        -11   -1    0    0    0    0  0.00000000000E+00  0.00000000000E+00  0.45593999997E+02  0.45594000000E+02  0.51100000000E-03 0. -1.
         11   -1    0    0    0    0 -0.00000000000E+00 -0.00000000000E+00 -0.45593999997E+02  0.45594000000E+02  0.51100000000E-03 0.  1.
    9900012    2    1    2    0    0  0.24381760988E+02  0.20096410283E+02 -0.42878039609E+01  0.59301933483E+02  0.49999980769E+02 0.  0.
         12    1    1    2    0    0 -0.24381760988E+02 -0.20096410283E+02  0.42878039609E+01  0.31886066517E+02  0.00000000000E+00 0. -1.
         11    1    3    3    0    0 -0.32232638407E+01  0.23227017967E+02 -0.12672896293E+01  0.23483820317E+02  0.51100000000E-03 0. -1.
        -11    1    3    3    0    0  0.15638558311E+02  0.90810552675E+01 -0.45645271292E+01  0.18651138812E+02  0.51100000000E-03 0.  1.
         12    1    3    3    0    0  0.11966466517E+02 -0.12211662951E+02  0.15440127976E+01  0.17166974354E+02  0.00000000000E+00 0. -1.
</event>
<event>
 7    1  0.6963701E-013  0.5930195E+02  0.7816164E-02  0.1266605E+00
        -11   -1    0    0    0    0  0.00000000000E+00  0.00000000000E+00  0.45593999997E+02  0.45594000000E+02  0.51100000000E-03 0. -1.
         11   -1    0    0    0    0 -0.00000000000E+00 -0.00000000000E+00 -0.45593999997E+02  0.45594000000E+02  0.51100000000E-03 0.  1.
    9900012    2    1    2    0    0  0.15186750853E+02  0.53311648471E+01 -0.27525649263E+02  0.59301951523E+02  0.50000013670E+02 0.  0.
         12    1    1    2    0    0 -0.15186750853E+02 -0.53311648471E+01  0.27525649263E+02  0.31886048477E+02  0.00000000000E+00 0. -1.
         11    1    3    3    0    0  0.14225966001E+02  0.10274495537E+02 -0.19028439706E+02  0.25884838905E+02  0.51100000000E-03 0. -1.
        -11    1    3    3    0    0  0.89664348466E+01  0.60841468974E+01 -0.14849177889E+02  0.18382379649E+02  0.51100000000E-03 0.  1.
        -12    1    3    3    0    0 -0.80056499941E+01 -0.11027477587E+02  0.63519683320E+01  0.15034732969E+02  0.00000000000E+00 0.  1.
</event>
<event>
 7    1  0.6963701E-013  0.5930182E+02  0.7816164E-02  0.1266605E+00
        -11   -1    0    0    0    0  0.00000000000E+00  0.00000000000E+00  0.45593999997E+02  0.45594000000E+02  0.51100000000E-03 0.  1.
         11   -1    0    0    0    0 -0.00000000000E+00 -0.00000000000E+00 -0.45593999997E+02  0.45594000000E+02  0.51100000000E-03 0. -1.
    9900012    2    1    2    0    0  0.29880193538E+02  0.10633996043E+02 -0.32894433622E+01  0.59301823130E+02  0.49999779512E+02 0.  0.
         12    1    1    2    0    0 -0.29880193538E+02 -0.10633996043E+02  0.32894433622E+01  0.31886176870E+02  0.00000000000E+00 0. -1.
         11    1    3    3    0    0  0.14935603996E+01  0.73788464443E+01  0.13656317997E+02  0.15594009074E+02  0.51100000000E-03 0. -1.
        -11    1    3    3    0    0  0.33489856680E+01  0.50236820538E+01  0.68430089313E+01  0.91257798504E+01  0.51100000000E-03 0.  1.
         12    1    3    3    0    0  0.25037647471E+02 -0.17685324549E+01 -0.23788770290E+02  0.34582034206E+02  0.00000000000E+00 0. -1.
</event>
<event>
 7    1  0.6963701E-013  0.5930194E+02  0.7816164E-02  0.1266605E+00
        -11   -1    0    0    0    0  0.00000000000E+00  0.00000000000E+00  0.45593999997E+02  0.45594000000E+02  0.51100000000E-03 0.  1.
         11   -1    0    0    0    0 -0.00000000000E+00 -0.00000000000E+00 -0.45593999997E+02  0.45594000000E+02  0.51100000000E-03 0. -1.
    9900012    2    1    2    0    0  0.30363043072E+02 -0.95598278317E+00  0.96898124485E+01  0.59301941088E+02  0.49999994639E+02 0.  0.
         12    1    1    2    0    0 -0.30363043072E+02  0.95598278317E+00 -0.96898124485E+01  0.31886058912E+02  0.00000000000E+00 0. -1.
         11    1    3    3    0    0  0.16117266644E+02  0.25676047170E+01 -0.38011636837E+01  0.16757318510E+02  0.51100000000E-03 0.  1.
        -11    1    3    3    0    0  0.41467912696E+01 -0.77604361938E+01  0.25092477767E+02  0.26590462360E+02  0.51100000000E-03 0. -1.
         12    1    3    3    0    0  0.10098985158E+02  0.42368486936E+01 -0.11601501635E+02  0.15954160218E+02  0.00000000000E+00 0. -1.
</event>
<event>
 7    1  0.6963701E-013  0.5930196E+02  0.7816164E-02  0.1266605E+00
        -11   -1    0    0    0    0  0.00000000000E+00  0.00000000000E+00  0.45593999997E+02  0.45594000000E+02  0.51100000000E-03 0.  1.
         11   -1    0    0    0    0 -0.00000000000E+00 -0.00000000000E+00 -0.45593999997E+02  0.45594000000E+02  0.51100000000E-03 0. -1.
    9900012    2    1    2    0    0 -0.13887810635E+00  0.18463644906E+02 -0.25996038678E+02  0.59301960777E+02  0.50000030547E+02 0.  0.
         12    1    1    2    0    0  0.13887810635E+00 -0.18463644906E+02  0.25996038678E+02  0.31886039223E+02  0.00000000000E+00 0. -1.
         11    1    3    3    0    0 -0.94650762952E+01  0.13148604480E+01 -0.23375730398E+02  0.25253540329E+02  0.51100000000E-03 0. -1.
        -11    1    3    3    0    0 -0.26823111334E+00  0.24865583340E+00 -0.12322179914E+02  0.12327607057E+02  0.51100000000E-03 0.  1.
        -12    1    3    3    0    0  0.95944293022E+01  0.16900128625E+02  0.97018716337E+01  0.21720813391E+02  0.00000000000E+00 0.  1.
</event>
<event>
 7    1  0.6963701E-013  0.5930195E+02  0.7816164E-02  0.1266605E+00
        -11   -1    0    0    0    0  0.00000000000E+00  0.00000000000E+00  0.45593999997E+02  0.45594000000E+02  0.51100000000E-03 0. -1.
         11   -1    0    0    0    0 -0.00000000000E+00 -0.00000000000E+00 -0.45593999997E+02  0.45594000000E+02  0.51100000000E-03 0.  1.
    9900012    2    1    2    0    0  0.25004672879E+02  0.10545894188E+02 -0.16741289424E+02  0.59301947852E+02  0.50000006975E+02 0.  0.
         12    1    1    2    0    0 -0.25004672879E+02 -0.10545894188E+02  0.16741289424E+02  0.31886052148E+02  0.00000000000E+00 0. -1.
         11    1    3    3    0    0 -0.62531609446E+01  0.53008035471E+01 -0.68271717198E+01  0.10668215127E+02  0.51100000000E-03 0. -1.
        -11    1    3    3    0    0  0.11554914298E+02  0.13418829216E+02  0.92320993057E+01  0.19970294936E+02  0.51100000000E-03 0.  1.
        -12    1    3    3    0    0  0.19702919525E+02 -0.81737385753E+01 -0.19146217010E+02  0.28663437789E+02  0.00000000000E+00 0.  1.
</event>
<event>
 7    1  0.6963701E-013  0.5930192E+02  0.7816164E-02  0.1266605E+00
        -11   -1    0    0    0    0  0.00000000000E+00  0.00000000000E+00  0.45593999997E+02  0.45594000000E+02  0.51100000000E-03 0. -1.
         11   -1    0    0    0    0 -0.00000000000E+00 -0.00000000000E+00 -0.45593999997E+02  0.45594000000E+02  0.51100000000E-03 0.  1.
    9900012    2    1    2    0    0  0.19786786927E+02 -0.12133629710E+02 -0.21862763651E+02  0.59301916182E+02  0.49999949215E+02 0.  0.
         12    1    1    2    0    0 -0.19786786927E+02  0.12133629710E+02  0.21862763651E+02  0.31886083818E+02  0.00000000000E+00 0. -1.
         11    1    3    3    0    0  0.19885133056E+01 -0.99564124104E+00  0.10301792110E+01  0.24508684411E+01  0.51100000000E-03 0. -1.
        -11    1    3    3    0    0  0.31710935114E+02  0.34252849635E+01 -0.14264837245E+02  0.34939970875E+02  0.51100000000E-03 0.  1.
        -12    1    3    3    0    0 -0.13912661492E+02 -0.14563273432E+02 -0.86281056168E+01  0.21911076865E+02  0.00000000000E+00 0.  1.
</event>
<event>
 7    1  0.6963701E-013  0.5930184E+02  0.7816164E-02  0.1266605E+00
        -11   -1    0    0    0    0  0.00000000000E+00  0.00000000000E+00  0.45593999997E+02  0.45594000000E+02  0.51100000000E-03 0.  1.
         11   -1    0    0    0    0 -0.00000000000E+00 -0.00000000000E+00 -0.45593999997E+02  0.45594000000E+02  0.51100000000E-03 0. -1.
    9900012    2    1    2    0    0  0.63722378071E+01  0.16962637720E+02  0.26237200515E+02  0.59301840245E+02  0.49999810724E+02 0.  0.
         12    1    1    2    0    0 -0.63722378071E+01 -0.16962637720E+02 -0.26237200515E+02  0.31886159755E+02  0.00000000000E+00 0. -1.
         11    1    3    3    0    0 -0.73247707872E+01 -0.46072586258E+01 -0.45963905906E+01  0.97982603482E+01  0.51100000000E-03 0. -1.
        -11    1    3    3    0    0  0.15173411099E+02  0.15505274636E+02  0.41348111065E+01  0.22084895496E+02  0.51100000000E-03 0.  1.
         12    1    3    3    0    0 -0.14764025047E+01  0.60646217100E+01  0.26698779999E+02  0.27418684401E+02  0.00000000000E+00 0. -1.
</event>
<event>
 7    1  0.6963701E-013  0.5930201E+02  0.7816164E-02  0.1266605E+00
        -11   -1    0    0    0    0  0.00000000000E+00  0.00000000000E+00  0.45593999997E+02  0.45594000000E+02  0.51100000000E-03 0.  1.
         11   -1    0    0    0    0 -0.00000000000E+00 -0.00000000000E+00 -0.45593999997E+02  0.45594000000E+02  0.51100000000E-03 0. -1.
    9900012    2    1    2    0    0  0.28648540114E+01 -0.15385097908E+02  0.27781431721E+02  0.59302006607E+02  0.50000114130E+02 0.  0.
         12    1    1    2    0    0 -0.28648540114E+01  0.15385097908E+02 -0.27781431721E+02  0.31885993393E+02  0.00000000000E+00 0. -1.
         11    1    3    3    0    0  0.62728993004E+01 -0.10837749071E+02 -0.11307551242E+01  0.12573172948E+02  0.51100000000E-03 0. -1.
        -11    1    3    3    0    0  0.12998122059E+02 -0.40477002665E+01  0.15217365843E+00  0.13614632261E+02  0.51100000000E-03 0.  1.
         12    1    3    3    0    0 -0.16406167348E+02 -0.49964857047E+00  0.28760013187E+02  0.33114201399E+02  0.00000000000E+00 0. -1.
</event>
<event>
 7    1  0.6963701E-013  0.5930196E+02  0.7816164E-02  0.1266605E+00
        -11   -1    0    0    0    0  0.00000000000E+00  0.00000000000E+00  0.45593999997E+02  0.45594000000E+02  0.51100000000E-03 0. -1.
         11   -1    0    0    0    0 -0.00000000000E+00 -0.00000000000E+00 -0.45593999997E+02  0.45594000000E+02  0.51100000000E-03 0.  1.
    9900012    2    1    2    0    0 -0.30630814629E+02 -0.68950950733E+01  0.55614991453E+01  0.59301962089E+02  0.50000032940E+02 0.  0.
         12    1    1    2    0    0  0.30630814629E+02  0.68950950733E+01 -0.55614991453E+01  0.31886037911E+02  0.00000000000E+00 0. -1.
         11    1    3    3    0    0  0.34819915921E+00  0.42545265866E+01 -0.62556252843E+01  0.75733141418E+01  0.51100000000E-03 0. -1.
        -11    1    3    3    0    0 -0.26496276882E+02 -0.55881424378E+01 -0.99269153292E+01  0.28841353517E+02  0.51100000000E-03 0.  1.
         12    1    3    3    0    0 -0.44827369063E+01 -0.55614792221E+01  0.21744039759E+02  0.22887294430E+02  0.00000000000E+00 0. -1.
</event>
<event>
 7    1  0.6963701E-013  0.5930195E+02  0.7816164E-02  0.1266605E+00
        -11   -1    0    0    0    0  0.00000000000E+00  0.00000000000E+00  0.45593999997E+02  0.45594000000E+02  0.51100000000E-03 0. -1.
         11   -1    0    0    0    0 -0.00000000000E+00 -0.00000000000E+00 -0.45593999997E+02  0.45594000000E+02  0.51100000000E-03 0.  1.
    9900012    2    1    2    0    0 -0.16597202811E+02 -0.22988477443E+02 -0.14587083719E+02  0.59301949010E+02  0.50000009087E+02 0.  0.
         12    1    1    2    0    0  0.16597202811E+02  0.22988477443E+02  0.14587083719E+02  0.31886050990E+02  0.00000000000E+00 0. -1.
         11    1    3    3    0    0 -0.14068004341E+02 -0.18275372969E+02 -0.53769507538E+01  0.23681418939E+02  0.51100000000E-03 0. -1.
        -11    1    3    3    0    0 -0.11194361708E+02 -0.14885533308E+02  0.12260577086E+01  0.18665370440E+02  0.51100000000E-03 0.  1.
        -12    1    3    3    0    0  0.86651632379E+01  0.10172428834E+02 -0.10436190674E+02  0.16955159631E+02  0.00000000000E+00 0.  1.
</event>
<event>
 7    1  0.6963701E-013  0.5930181E+02  0.7816164E-02  0.1266605E+00
        -11   -1    0    0    0    0  0.00000000000E+00  0.00000000000E+00  0.45593999997E+02  0.45594000000E+02  0.51100000000E-03 0. -1.
         11   -1    0    0    0    0 -0.00000000000E+00 -0.00000000000E+00 -0.45593999997E+02  0.45594000000E+02  0.51100000000E-03 0.  1.
    9900012    2    1    2    0    0  0.24928218367E+02 -0.19372778043E+02 -0.44731130062E+01  0.59301806435E+02  0.49999749064E+02 0.  0.
         12    1    1    2    0    0 -0.24928218367E+02  0.19372778043E+02  0.44731130062E+01  0.31886193565E+02  0.00000000000E+00 0. -1.
         11    1    3    3    0    0  0.64771148523E+01 -0.16052290728E+02 -0.18511789002E+02  0.25343941815E+02  0.51100000000E-03 0. -1.
        -11    1    3    3    0    0  0.41270138680E+01 -0.13421791736E+01 -0.71150814370E+01  0.83341509776E+01  0.51100000000E-03 0.  1.
         12    1    3    3    0    0  0.14324089647E+02 -0.19783081416E+01  0.21153757433E+02  0.25623713643E+02  0.00000000000E+00 0. -1.
</event>
<event>
 7    1  0.6963701E-013  0.5930194E+02  0.7816164E-02  0.1266605E+00
        -11   -1    0    0    0    0  0.00000000000E+00  0.00000000000E+00  0.45593999997E+02  0.45594000000E+02  0.51100000000E-03 0. -1.
         11   -1    0    0    0    0 -0.00000000000E+00 -0.00000000000E+00 -0.45593999997E+02  0.45594000000E+02  0.51100000000E-03 0.  1.
    9900012    2    1    2    0    0 -0.24844620879E+02  0.15065854521E+02 -0.13133372427E+02  0.59301943010E+02  0.49999998143E+02 0.  0.
         12    1    1    2    0    0  0.24844620879E+02 -0.15065854521E+02  0.13133372427E+02  0.31886056990E+02  0.00000000000E+00 0. -1.
         11    1    3    3    0    0 -0.36124722699E+01  0.11092195578E+02  0.14617398517E+01  0.11756846614E+02  0.51100000000E-03 0. -1.
        -11    1    3    3    0    0 -0.37698522777E+01  0.14769720541E+02  0.78341325898E+01  0.17138554920E+02  0.51100000000E-03 0.  1.
        -12    1    3    3    0    0 -0.17462296332E+02 -0.10796061597E+02 -0.22429244868E+02  0.30406541476E+02  0.00000000000E+00 0.  1.
</event>
<event>
 7    1  0.6963701E-013  0.5930198E+02  0.7816164E-02  0.1266605E+00
        -11   -1    0    0    0    0  0.00000000000E+00  0.00000000000E+00  0.45593999997E+02  0.45594000000E+02  0.51100000000E-03 0.  1.
         11   -1    0    0    0    0 -0.00000000000E+00 -0.00000000000E+00 -0.45593999997E+02  0.45594000000E+02  0.51100000000E-03 0. -1.
    9900012    2    1    2    0    0 -0.75107536378E+01 -0.26735818409E+02  0.15668532727E+02  0.59301979176E+02  0.50000064101E+02 0.  0.
         12    1    1    2    0    0  0.75107536378E+01  0.26735818409E+02 -0.15668532727E+02  0.31886020824E+02  0.00000000000E+00 0. -1.
         11    1    3    3    0    0 -0.96641177101E+01 -0.30187753749E+01  0.43736424404E+01  0.11028913108E+02  0.51100000000E-03 0. -1.
        -11    1    3    3    0    0 -0.17505814551E+02 -0.19701777213E+01  0.43972368391E+01  0.18156839907E+02  0.51100000000E-03 0.  1.
        -12    1    3    3    0    0  0.19659178623E+02 -0.21746865313E+02  0.68976534473E+01  0.30116226160E+02  0.00000000000E+00 0.  1.
</event>
<event>
 7    1  0.6963701E-013  0.5930195E+02  0.7816164E-02  0.1266605E+00
        -11   -1    0    0    0    0  0.00000000000E+00  0.00000000000E+00  0.45593999997E+02  0.45594000000E+02  0.51100000000E-03 0.  1.
         11   -1    0    0    0    0 -0.00000000000E+00 -0.00000000000E+00 -0.45593999997E+02  0.45594000000E+02  0.51100000000E-03 0. -1.
    9900012    2    1    2    0    0 -0.95490424712E+01  0.94908291538E+01  0.28904326205E+02  0.59301950958E+02  0.50000012639E+02 0.  0.
         12    1    1    2    0    0  0.95490424712E+01 -0.94908291538E+01 -0.28904326205E+02  0.31886049042E+02  0.00000000000E+00 0. -1.
         11    1    3    3    0    0 -0.17920156399E+02  0.12396831132E+02  0.28087327964E+02  0.35548718963E+02  0.51100000000E-03 0.  1.
        -11    1    3    3    0    0 -0.41652567834E+01 -0.38607370228E+01  0.75842578902E+01  0.94749998647E+01  0.51100000000E-03 0. -1.
        -12    1    3    3    0    0  0.12536370711E+02  0.95473504426E+00 -0.67672596489E+01  0.14278232130E+02  0.00000000000E+00 0.  1.
</event>
<event>
 7    1  0.6963701E-013  0.5930195E+02  0.7816164E-02  0.1266605E+00
        -11   -1    0    0    0    0  0.00000000000E+00  0.00000000000E+00  0.45593999997E+02  0.45594000000E+02  0.51100000000E-03 0.  1.
         11   -1    0    0    0    0 -0.00000000000E+00 -0.00000000000E+00 -0.45593999997E+02  0.45594000000E+02  0.51100000000E-03 0. -1.
    9900012    2    1    2    0    0  0.16777395347E+02  0.17245766919E+02 -0.20924215713E+02  0.59301948591E+02  0.50000008322E+02 0.  0.
         12    1    1    2    0    0 -0.16777395347E+02 -0.17245766919E+02  0.20924215713E+02  0.31886051409E+02  0.00000000000E+00 0. -1.
         11    1    3    3    0    0  0.16225472180E+02  0.21341142199E+02 -0.79597374386E+01  0.27965473681E+02  0.51100000000E-03 0. -1.
        -11    1    3    3    0    0 -0.12179889309E+02  0.45308808348E+01 -0.43201950350E+01  0.13694621941E+02  0.51100000000E-03 0.  1.
        -12    1    3    3    0    0  0.12731812475E+02 -0.86262561148E+01 -0.86442832392E+01  0.17641852969E+02  0.00000000000E+00 0.  1.
</event>
<event>
 7    1  0.6963701E-013  0.5930177E+02  0.7816164E-02  0.1266605E+00
        -11   -1    0    0    0    0  0.00000000000E+00  0.00000000000E+00  0.45593999997E+02  0.45594000000E+02  0.51100000000E-03 0.  1.
         11   -1    0    0    0    0 -0.00000000000E+00 -0.00000000000E+00 -0.45593999997E+02  0.45594000000E+02  0.51100000000E-03 0. -1.
    9900012    2    1    2    0    0  0.20207304324E+02 -0.21755489362E+02  0.11623043998E+02  0.59301770728E+02  0.49999683942E+02 0.  0.
         12    1    1    2    0    0 -0.20207304324E+02  0.21755489362E+02 -0.11623043998E+02  0.31886229272E+02  0.00000000000E+00 0. -1.
         11    1    3    3    0    0  0.88077831810E+01 -0.56533320736E+01 -0.90428336376E+01  0.13831487576E+02  0.51100000000E-03 0. -1.
        -11    1    3    3    0    0  0.14284844984E+02  0.76641710869E+01  0.11309187423E+02  0.19765981764E+02  0.51100000000E-03 0.  1.
        -12    1    3    3    0    0 -0.28853238413E+01 -0.23766328376E+02  0.93566902122E+01  0.25704301388E+02  0.00000000000E+00 0.  1.
</event>
<event>
 7    1  0.6963701E-013  0.5930195E+02  0.7816164E-02  0.1266605E+00
        -11   -1    0    0    0    0  0.00000000000E+00  0.00000000000E+00  0.45593999997E+02  0.45594000000E+02  0.51100000000E-03 0.  1.
         11   -1    0    0    0    0 -0.00000000000E+00 -0.00000000000E+00 -0.45593999997E+02  0.45594000000E+02  0.51100000000E-03 0. -1.
    9900012    2    1    2    0    0  0.20282886028E+02  0.58627366952E+01  0.23894621551E+02  0.59301951542E+02  0.50000013705E+02 0.  0.
         12    1    1    2    0    0 -0.20282886028E+02 -0.58627366952E+01 -0.23894621551E+02  0.31886048458E+02  0.00000000000E+00 0. -1.
         11    1    3    3    0    0  0.75743899742E+01  0.60841694821E+01  0.10229809835E+02  0.14108065469E+02  0.51100000000E-03 0. -1.
        -11    1    3    3    0    0 -0.17614615188E+01  0.80810807446E+00  0.26048483657E+02  0.26120476382E+02  0.51100000000E-03 0.  1.
         12    1    3    3    0    0  0.14469957572E+02 -0.10295408614E+01 -0.12383671940E+02  0.19073409691E+02  0.00000000000E+00 0. -1.
</event>
<event>
 7    1  0.6963701E-013  0.5930195E+02  0.7816164E-02  0.1266605E+00
        -11   -1    0    0    0    0  0.00000000000E+00  0.00000000000E+00  0.45593999997E+02  0.45594000000E+02  0.51100000000E-03 0.  1.
         11   -1    0    0    0    0 -0.00000000000E+00 -0.00000000000E+00 -0.45593999997E+02  0.45594000000E+02  0.51100000000E-03 0. -1.
    9900012    2    1    2    0    0  0.19477875480E+02  0.11942332023E+02  0.22242150986E+02  0.59301949636E+02  0.50000010228E+02 0.  0.
         12    1    1    2    0    0 -0.19477875480E+02 -0.11942332023E+02 -0.22242150986E+02  0.31886050364E+02  0.00000000000E+00 0. -1.
         11    1    3    3    0    0  0.69127825720E+01 -0.58346076383E+01  0.65189625531E+01  0.11150160636E+02  0.51100000000E-03 0. -1.
        -11    1    3    3    0    0 -0.10740413191E+02 -0.33548435043E+01  0.12036679702E+02  0.16477047945E+02  0.51100000000E-03 0.  1.
         12    1    3    3    0    0  0.23305506099E+02  0.21131783165E+02  0.36865087303E+01  0.31674741055E+02  0.00000000000E+00 0. -1.
</event>
<event>
 7    1  0.6963701E-013  0.5930195E+02  0.7816164E-02  0.1266605E+00
        -11   -1    0    0    0    0  0.00000000000E+00  0.00000000000E+00  0.45593999997E+02  0.45594000000E+02  0.51100000000E-03 0. -1.
         11   -1    0    0    0    0 -0.00000000000E+00 -0.00000000000E+00 -0.45593999997E+02  0.45594000000E+02  0.51100000000E-03 0.  1.
    9900012    2    1    2    0    0  0.31457937761E+02 -0.48311530713E+01 -0.19438244190E+01  0.59301947539E+02  0.50000006403E+02 0.  0.
         12    1    1    2    0    0 -0.31457937761E+02  0.48311530713E+01  0.19438244190E+01  0.31886052461E+02  0.00000000000E+00 0. -1.
         11    1    3    3    0    0  0.12493848311E+01 -0.16946403599E+02  0.12843300020E+02  0.21300044908E+02  0.51100000000E-03 0. -1.
        -11    1    3    3    0    0  0.21278546601E+02  0.44789810262E+01 -0.41188260350E+01  0.22131483110E+02  0.51100000000E-03 0.  1.
        -12    1    3    3    0    0  0.89300063295E+01  0.76362695017E+01 -0.10668298404E+02  0.15870419521E+02  0.00000000000E+00 0.  1.
</event>
<event>
 7    1  0.6963701E-013  0.5930193E+02  0.7816164E-02  0.1266605E+00
        -11   -1    0    0    0    0  0.00000000000E+00  0.00000000000E+00  0.45593999997E+02  0.45594000000E+02  0.51100000000E-03 0.  1.
         11   -1    0    0    0    0 -0.00000000000E+00 -0.00000000000E+00 -0.45593999997E+02  0.45594000000E+02  0.51100000000E-03 0. -1.
    9900012    2    1    2    0    0 -0.27615862144E+02  0.42231914947E+01  0.15370428095E+02  0.59301933322E+02  0.49999980476E+02 0.  0.
         12    1    1    2    0    0  0.27615862144E+02 -0.42231914947E+01 -0.15370428095E+02  0.31886066678E+02  0.00000000000E+00 0. -1.
         11    1    3    3    0    0 -0.23676190884E+02 -0.94630347682E+01  0.32031926650E+01  0.25697694163E+02  0.51100000000E-03 0. -1.
        -11    1    3    3    0    0 -0.80429518035E+01 -0.66925654956E+01  0.51664670181E+01  0.11669271114E+02  0.51100000000E-03 0.  1.
         12    1    3    3    0    0  0.41032805437E+01  0.20378791759E+02  0.70007684124E+01  0.21934968045E+02  0.00000000000E+00 0. -1.
</event>
<event>
 7    1  0.6963701E-013  0.5930195E+02  0.7816164E-02  0.1266605E+00
        -11   -1    0    0    0    0  0.00000000000E+00  0.00000000000E+00  0.45593999997E+02  0.45594000000E+02  0.51100000000E-03 0. -1.
         11   -1    0    0    0    0 -0.00000000000E+00 -0.00000000000E+00 -0.45593999997E+02  0.45594000000E+02  0.51100000000E-03 0.  1.
    9900012    2    1    2    0    0  0.24029354144E+02  0.18076063052E+02 -0.10609735427E+02  0.59301946593E+02  0.50000004679E+02 0.  0.
         12    1    1    2    0    0 -0.24029354144E+02 -0.18076063052E+02  0.10609735427E+02  0.31886053407E+02  0.00000000000E+00 0. -1.
         11    1    3    3    0    0  0.19438623728E+02  0.15144371149E+02 -0.21914866976E+01  0.24738930538E+02  0.51100000000E-03 0.  1.
        -11    1    3    3    0    0  0.28710220992E+01 -0.14621565555E+02  0.26711471245E+00  0.14903164017E+02  0.51100000000E-03 0. -1.
         12    1    3    3    0    0  0.17197083170E+01  0.17553257458E+02 -0.86853634420E+01  0.19659852039E+02  0.00000000000E+00 0. -1.
</event>
<event>
 7    1  0.1065948E-012  0.5930201E+02  0.7816164E-02  0.1266605E+00
        -11   -1    0    0    0    0  0.00000000000E+00  0.00000000000E+00  0.45593999997E+02  0.45594000000E+02  0.51100000000E-03 0. -1.
         11   -1    0    0    0    0 -0.00000000000E+00 -0.00000000000E+00 -0.45593999997E+02  0.45594000000E+02  0.51100000000E-03 0.  1.
    9900012    2    1    2    0    0 -0.18421260400E+02 -0.14008734960E+02 -0.21934648498E+02  0.59302010998E+02  0.50000122137E+02 0.  0.
         12    1    1    2    0    0  0.18421260400E+02  0.14008734960E+02  0.21934648498E+02  0.31885989002E+02  0.00000000000E+00 0. -1.
         11    1    3    3    0    0  0.30620017683E+01 -0.45167514656E+01  0.85654676528E+01  0.10155990105E+02  0.51100000000E-03 0. -1.
        -11    1    3    3    0    0  0.66617932398E+01  0.14394064147E+00 -0.17543781480E+00  0.66656572643E+01  0.51100000000E-03 0.  1.
        -12    1    3    3    0    0 -0.28145055408E+02 -0.96359241361E+01 -0.30324678336E+02  0.42480363629E+02  0.00000000000E+00 0.  1.
</event>
<event>
 7    1  0.6963701E-013  0.5930193E+02  0.7816164E-02  0.1266605E+00
        -11   -1    0    0    0    0  0.00000000000E+00  0.00000000000E+00  0.45593999997E+02  0.45594000000E+02  0.51100000000E-03 0.  1.
         11   -1    0    0    0    0 -0.00000000000E+00 -0.00000000000E+00 -0.45593999997E+02  0.45594000000E+02  0.51100000000E-03 0. -1.
    9900012    2    1    2    0    0 -0.47136764517E+01 -0.23191528837E+02  0.21369503617E+02  0.59301930309E+02  0.49999974981E+02 0.  0.
         12    1    1    2    0    0  0.47136764517E+01  0.23191528837E+02 -0.21369503617E+02  0.31886069691E+02  0.00000000000E+00 0. -1.
         11    1    3    3    0    0  0.37083190860E+01  0.52625391609E+01 -0.79328382506E+01  0.10216451039E+02  0.51100000000E-03 0. -1.
        -11    1    3    3    0    0  0.18877012635E+01 -0.16692176653E+02  0.10977351680E+01  0.16834405253E+02  0.51100000000E-03 0.  1.
        -12    1    3    3    0    0 -0.10309696801E+02 -0.11761891345E+02  0.28204606700E+02  0.32251074017E+02  0.00000000000E+00 0.  1.
</event>
<event>
 7    1  0.6963701E-013  0.5930182E+02  0.7816164E-02  0.1266605E+00
        -11   -1    0    0    0    0  0.00000000000E+00  0.00000000000E+00  0.45593999997E+02  0.45594000000E+02  0.51100000000E-03 0. -1.
         11   -1    0    0    0    0 -0.00000000000E+00 -0.00000000000E+00 -0.45593999997E+02  0.45594000000E+02  0.51100000000E-03 0.  1.
    9900012    2    1    2    0    0 -0.17813893599E+02 -0.12289099633E+02 -0.23417337087E+02  0.59301820373E+02  0.49999774483E+02 0.  0.
         12    1    1    2    0    0  0.17813893599E+02  0.12289099633E+02  0.23417337087E+02  0.31886179627E+02  0.00000000000E+00 0. -1.
         11    1    3    3    0    0 -0.23087656192E+02  0.15636935485E+01 -0.14087308560E+01  0.23183389071E+02  0.51100000000E-03 0.  1.
        -11    1    3    3    0    0 -0.62022545272E+01 -0.10409185961E+01  0.19866295692E+01  0.65953142495E+01  0.51100000000E-03 0. -1.
        -12    1    3    3    0    0  0.11476017120E+02 -0.12811874586E+02 -0.23995235800E+02  0.29523117052E+02  0.00000000000E+00 0.  1.
</event>
<event>
 7    1  0.6963701E-013  0.5930194E+02  0.7816164E-02  0.1266605E+00
        -11   -1    0    0    0    0  0.00000000000E+00  0.00000000000E+00  0.45593999997E+02  0.45594000000E+02  0.51100000000E-03 0.  1.
         11   -1    0    0    0    0 -0.00000000000E+00 -0.00000000000E+00 -0.45593999997E+02  0.45594000000E+02  0.51100000000E-03 0. -1.
    9900012    2    1    2    0    0  0.29320931449E+02  0.45243252379E+01  0.11684781786E+02  0.59301942463E+02  0.49999997146E+02 0.  0.
         12    1    1    2    0    0 -0.29320931449E+02 -0.45243252379E+01 -0.11684781786E+02  0.31886057537E+02  0.00000000000E+00 0. -1.
         11    1    3    3    0    0 -0.37065566689E+01  0.47151681667E+01  0.14133704500E+02  0.15353598156E+02  0.51100000000E-03 0. -1.
        -11    1    3    3    0    0  0.14112392237E+02 -0.66809834046E+01  0.11649271223E+02  0.19480777042E+02  0.51100000000E-03 0.  1.
        -12    1    3    3    0    0  0.18915095881E+02  0.64901404758E+01 -0.14098193937E+02  0.24467567265E+02  0.00000000000E+00 0.  1.
</event>
<event>
 7    1  0.6963701E-013  0.5930192E+02  0.7816164E-02  0.1266605E+00
        -11   -1    0    0    0    0  0.00000000000E+00  0.00000000000E+00  0.45593999997E+02  0.45594000000E+02  0.51100000000E-03 0.  1.
         11   -1    0    0    0    0 -0.00000000000E+00 -0.00000000000E+00 -0.45593999997E+02  0.45594000000E+02  0.51100000000E-03 0. -1.
    9900012    2    1    2    0    0  0.15534253326E+02  0.87776461675E+01  0.26426534519E+02  0.59301924272E+02  0.49999963970E+02 0.  0.
         12    1    1    2    0    0 -0.15534253326E+02 -0.87776461675E+01 -0.26426534519E+02  0.31886075728E+02  0.00000000000E+00 0. -1.
         11    1    3    3    0    0  0.20387213303E+02 -0.50273937932E+01  0.99094877126E+01  0.23218766152E+02  0.51100000000E-03 0. -1.
        -11    1    3    3    0    0  0.11014172992E+02  0.81443771064E+01  0.19978729047E+01  0.13843207055E+02  0.51100000000E-03 0.  1.
        -12    1    3    3    0    0 -0.15867132969E+02  0.56606628544E+01  0.14519173902E+02  0.22239951066E+02  0.00000000000E+00 0.  1.
</event>
<event>
 7    1  0.6963701E-013  0.5930194E+02  0.7816164E-02  0.1266605E+00
        -11   -1    0    0    0    0  0.00000000000E+00  0.00000000000E+00  0.45593999997E+02  0.45594000000E+02  0.51100000000E-03 0.  1.
         11   -1    0    0    0    0 -0.00000000000E+00 -0.00000000000E+00 -0.45593999997E+02  0.45594000000E+02  0.51100000000E-03 0. -1.
    9900012    2    1    2    0    0 -0.21191356820E+01  0.31814747077E+02  0.22773622615E+00  0.59301941426E+02  0.49999995255E+02 0.  0.
         12    1    1    2    0    0  0.21191356820E+01 -0.31814747077E+02 -0.22773622615E+00  0.31886058574E+02  0.00000000000E+00 0. -1.
         11    1    3    3    0    0 -0.31160825895E+00 -0.15970578120E+01 -0.28812680617E+01  0.33089876497E+01  0.51100000000E-03 0. -1.
        -11    1    3    3    0    0 -0.70474014933E+01  0.30993888678E+02 -0.16316521741E+02  0.35728362476E+02  0.51100000000E-03 0.  1.
         12    1    3    3    0    0  0.52398740702E+01  0.24179162109E+01  0.19425526029E+02  0.20264591300E+02  0.00000000000E+00 0. -1.
</event>
<event>
 7    1  0.7467288E-013  0.5930213E+02  0.7816164E-02  0.1266604E+00
        -11   -1    0    0    0    0  0.00000000000E+00  0.00000000000E+00  0.45593999997E+02  0.45594000000E+02  0.51100000000E-03 0. -1.
         11   -1    0    0    0    0 -0.00000000000E+00 -0.00000000000E+00 -0.45593999997E+02  0.45594000000E+02  0.51100000000E-03 0.  1.
    9900012    2    1    2    0    0  0.21017776329E+01 -0.11272271877E+02 -0.29752771238E+02  0.59302125717E+02  0.50000331356E+02 0.  0.
         12    1    1    2    0    0 -0.21017776329E+01  0.11272271877E+02  0.29752771238E+02  0.31885874283E+02  0.00000000000E+00 0. -1.
         11    1    3    3    0    0  0.58328886391E+01  0.67328933531E+01 -0.12024995930E+01  0.89889069587E+01  0.51100000000E-03 0. -1.
        -11    1    3    3    0    0 -0.12306121287E+02  0.24690501894E+01  0.18337320882E+01  0.12684612868E+02  0.51100000000E-03 0.  1.
        -12    1    3    3    0    0  0.85750102812E+01 -0.20474215419E+02 -0.30384003733E+02  0.37628605890E+02  0.00000000000E+00 0.  1.
</event>
<event>
 7    1  0.6963701E-013  0.5930195E+02  0.7816164E-02  0.1266605E+00
        -11   -1    0    0    0    0  0.00000000000E+00  0.00000000000E+00  0.45593999997E+02  0.45594000000E+02  0.51100000000E-03 0.  1.
         11   -1    0    0    0    0 -0.00000000000E+00 -0.00000000000E+00 -0.45593999997E+02  0.45594000000E+02  0.51100000000E-03 0. -1.
    9900012    2    1    2    0    0  0.20275211909E+02 -0.21212163215E+02 -0.12477187778E+02  0.59301948174E+02  0.50000007562E+02 0.  0.
         12    1    1    2    0    0 -0.20275211909E+02  0.21212163215E+02  0.12477187778E+02  0.31886051826E+02  0.00000000000E+00 0. -1.
         11    1    3    3    0    0  0.16500252991E+02 -0.15910050428E+01 -0.15702346444E+02  0.22833162941E+02  0.51100000000E-03 0. -1.
        -11    1    3    3    0    0  0.39344730866E+01 -0.14351634948E+01 -0.12025578869E+02  0.12733982885E+02  0.51100000000E-03 0.  1.
        -12    1    3    3    0    0 -0.15951416845E+00 -0.18185994677E+02  0.15250737534E+02  0.23734802348E+02  0.00000000000E+00 0.  1.
</event>
<event>
 7    1  0.6963701E-013  0.5930203E+02  0.7816164E-02  0.1266604E+00
        -11   -1    0    0    0    0  0.00000000000E+00  0.00000000000E+00  0.45593999997E+02  0.45594000000E+02  0.51100000000E-03 0.  1.
         11   -1    0    0    0    0 -0.00000000000E+00 -0.00000000000E+00 -0.45593999997E+02  0.45594000000E+02  0.51100000000E-03 0. -1.
    9900012    2    1    2    0    0  0.31885605616E+02 -0.11880229002E+00  0.96627717929E-01  0.59302026651E+02  0.50000150686E+02 0.  0.
         12    1    1    2    0    0 -0.31885605616E+02  0.11880229002E+00 -0.96627717929E-01  0.31885973349E+02  0.00000000000E+00 0. -1.
         11    1    3    3    0    0  0.27954288401E+02 -0.10653915050E+01  0.94166200406E+00  0.27990427411E+02  0.51100000000E-03 0. -1.
        -11    1    3    3    0    0  0.87923694705E+01  0.36792356884E+01 -0.14049801522E+02  0.16977616418E+02  0.51100000000E-03 0.  1.
        -12    1    3    3    0    0 -0.48610522558E+01 -0.27326464734E+01  0.13204767236E+02  0.14333982822E+02  0.00000000000E+00 0.  1.
</event>
<event>
 7    1  0.6963701E-013  0.5930197E+02  0.7816164E-02  0.1266605E+00
        -11   -1    0    0    0    0  0.00000000000E+00  0.00000000000E+00  0.45593999997E+02  0.45594000000E+02  0.51100000000E-03 0. -1.
         11   -1    0    0    0    0 -0.00000000000E+00 -0.00000000000E+00 -0.45593999997E+02  0.45594000000E+02  0.51100000000E-03 0.  1.
    9900012    2    1    2    0    0 -0.37410089737E+01  0.23030749084E+02 -0.21732655799E+02  0.59301970464E+02  0.50000048213E+02 0.  0.
         12    1    1    2    0    0  0.37410089737E+01 -0.23030749084E+02  0.21732655799E+02  0.31886029536E+02  0.00000000000E+00 0. -1.
         11    1    3    3    0    0 -0.83263500305E+00  0.77398876969E+01  0.89341758323E+01  0.11849837158E+02  0.51100000000E-03 0. -1.
        -11    1    3    3    0    0  0.13576517746E+01  0.19523723798E+02 -0.38191139894E+01  0.19940026108E+02  0.51100000000E-03 0.  1.
         12    1    3    3    0    0 -0.42660257452E+01 -0.42328624108E+01 -0.26847717642E+02  0.27512107198E+02  0.00000000000E+00 0. -1.
</event>
<event>
 7    1  0.6963701E-013  0.5930190E+02  0.7816164E-02  0.1266605E+00
        -11   -1    0    0    0    0  0.00000000000E+00  0.00000000000E+00  0.45593999997E+02  0.45594000000E+02  0.51100000000E-03 0.  1.
         11   -1    0    0    0    0 -0.00000000000E+00 -0.00000000000E+00 -0.45593999997E+02  0.45594000000E+02  0.51100000000E-03 0. -1.
    9900012    2    1    2    0    0 -0.13707047728E+01  0.78300207890E+01  0.30879368687E+02  0.59301898520E+02  0.49999917004E+02 0.  0.
         12    1    1    2    0    0  0.13707047728E+01 -0.78300207890E+01 -0.30879368687E+02  0.31886101480E+02  0.00000000000E+00 0. -1.
         11    1    3    3    0    0 -0.78394095907E+00 -0.55165994451E+01  0.16722004982E+01  0.58175327788E+01  0.51100000000E-03 0. -1.
        -11    1    3    3    0    0 -0.17376864968E+02 -0.38453429199E+01  0.22199598750E+02  0.28452843148E+02  0.51100000000E-03 0.  1.
        -12    1    3    3    0    0  0.16790101154E+02  0.17191963154E+02  0.70075694381E+01  0.25031522592E+02  0.00000000000E+00 0.  1.
</event>
<event>
 7    1  0.6963701E-013  0.5930194E+02  0.7816164E-02  0.1266605E+00
        -11   -1    0    0    0    0  0.00000000000E+00  0.00000000000E+00  0.45593999997E+02  0.45594000000E+02  0.51100000000E-03 0. -1.
         11   -1    0    0    0    0 -0.00000000000E+00 -0.00000000000E+00 -0.45593999997E+02  0.45594000000E+02  0.51100000000E-03 0.  1.
    9900012    2    1    2    0    0 -0.11423133167E+02  0.18103897160E+02 -0.23632224791E+02  0.59301935453E+02  0.49999984362E+02 0.  0.
         12    1    1    2    0    0  0.11423133167E+02 -0.18103897160E+02  0.23632224791E+02  0.31886064547E+02  0.00000000000E+00 0. -1.
         11    1    3    3    0    0 -0.22546935154E+01  0.16672506804E+02 -0.13231726786E+01  0.16876223280E+02  0.51100000000E-03 0. -1.
        -11    1    3    3    0    0 -0.94995500327E+01  0.15989072147E+02 -0.20617404133E+02  0.27766332714E+02  0.51100000000E-03 0.  1.
         12    1    3    3    0    0  0.33111038081E+00 -0.14557681792E+02 -0.16916479795E+01  0.14659379459E+02  0.00000000000E+00 0. -1.
</event>
<event>
 7    1  0.6963701E-013  0.5930195E+02  0.7816164E-02  0.1266605E+00
        -11   -1    0    0    0    0  0.00000000000E+00  0.00000000000E+00  0.45593999997E+02  0.45594000000E+02  0.51100000000E-03 0.  1.
         11   -1    0    0    0    0 -0.00000000000E+00 -0.00000000000E+00 -0.45593999997E+02  0.45594000000E+02  0.51100000000E-03 0. -1.
    9900012    2    1    2    0    0  0.12394188376E+02 -0.92782809672E+01  0.27875044100E+02  0.59301945262E+02  0.50000002250E+02 0.  0.
         12    1    1    2    0    0 -0.12394188376E+02  0.92782809672E+01 -0.27875044100E+02  0.31886054738E+02  0.00000000000E+00 0. -1.
         11    1    3    3    0    0  0.12336413493E+01 -0.83964347964E+00 -0.85550707324E+01  0.86842447944E+01  0.51100000000E-03 0. -1.
        -11    1    3    3    0    0 -0.65649124621E+01 -0.29626845464E+00 -0.25343902753E+01  0.70433646051E+01  0.51100000000E-03 0.  1.
        -12    1    3    3    0    0  0.17725459488E+02 -0.81423690330E+01  0.38964505108E+02  0.43574335862E+02  0.00000000000E+00 0.  1.
</event>
<event>
 7    1  0.6963701E-013  0.5930195E+02  0.7816164E-02  0.1266605E+00
        -11   -1    0    0    0    0  0.00000000000E+00  0.00000000000E+00  0.45593999997E+02  0.45594000000E+02  0.51100000000E-03 0.  1.
         11   -1    0    0    0    0 -0.00000000000E+00 -0.00000000000E+00 -0.45593999997E+02  0.45594000000E+02  0.51100000000E-03 0. -1.
    9900012    2    1    2    0    0 -0.21424399727E+02 -0.53842760807E+01 -0.22994019915E+02  0.59301948435E+02  0.50000008037E+02 0.  0.
         12    1    1    2    0    0  0.21424399727E+02  0.53842760807E+01  0.22994019915E+02  0.31886051565E+02  0.00000000000E+00 0. -1.
         11    1    3    3    0    0  0.48435299556E+01  0.10403356021E+02  0.96330378199E+00  0.11515969493E+02  0.51100000000E-03 0. -1.
        -11    1    3    3    0    0 -0.13066780893E+02  0.64075998559E+01 -0.38421531942E+01  0.15051918158E+02  0.51100000000E-03 0.  1.
         12    1    3    3    0    0 -0.13201148790E+02 -0.22195231958E+02 -0.20115170502E+02  0.32734060783E+02  0.00000000000E+00 0. -1.
</event>
<event>
 7    1  0.6963701E-013  0.5930195E+02  0.7816164E-02  0.1266605E+00
        -11   -1    0    0    0    0  0.00000000000E+00  0.00000000000E+00  0.45593999997E+02  0.45594000000E+02  0.51100000000E-03 0. -1.
         11   -1    0    0    0    0 -0.00000000000E+00 -0.00000000000E+00 -0.45593999997E+02  0.45594000000E+02  0.51100000000E-03 0.  1.
    9900012    2    1    2    0    0  0.15142675318E+02 -0.27443063062E+02  0.58564590693E+01  0.59301946013E+02  0.50000003621E+02 0.  0.
         12    1    1    2    0    0 -0.15142675318E+02  0.27443063062E+02 -0.58564590693E+01  0.31886053987E+02  0.00000000000E+00 0. -1.
         11    1    3    3    0    0  0.25574137514E+01 -0.60842542805E+01 -0.10850431840E+02  0.12700015221E+02  0.51100000000E-03 0. -1.
        -11    1    3    3    0    0 -0.97048585054E+01 -0.82783681483E+01 -0.41254653303E+01  0.13406532820E+02  0.51100000000E-03 0.  1.
         12    1    3    3    0    0  0.22290120072E+02 -0.13080440633E+02  0.20832356240E+02  0.33195397972E+02  0.00000000000E+00 0. -1.
</event>
<event>
 7    1  0.6963701E-013  0.5930194E+02  0.7816164E-02  0.1266605E+00
        -11   -1    0    0    0    0  0.00000000000E+00  0.00000000000E+00  0.45593999997E+02  0.45594000000E+02  0.51100000000E-03 0.  1.
         11   -1    0    0    0    0 -0.00000000000E+00 -0.00000000000E+00 -0.45593999997E+02  0.45594000000E+02  0.51100000000E-03 0. -1.
    9900012    2    1    2    0    0 -0.13632789381E+02 -0.27496911564E+02  0.86479767172E+01  0.59301943593E+02  0.49999999208E+02 0.  0.
         12    1    1    2    0    0  0.13632789381E+02  0.27496911564E+02 -0.86479767172E+01  0.31886056407E+02  0.00000000000E+00 0. -1.
         11    1    3    3    0    0  0.39048112521E+01 -0.16698675671E+02  0.68570380685E+01  0.18469225523E+02  0.51100000000E-03 0. -1.
        -11    1    3    3    0    0 -0.53261305145E+01 -0.18439552314E+02  0.12480779667E+02  0.22894423276E+02  0.51100000000E-03 0.  1.
        -12    1    3    3    0    0 -0.12211470119E+02  0.76413164210E+01 -0.10689841019E+02  0.17938294794E+02  0.00000000000E+00 0.  1.
</event>
<event>
 7    1  0.6963701E-013  0.5930194E+02  0.7816164E-02  0.1266605E+00
        -11   -1    0    0    0    0  0.00000000000E+00  0.00000000000E+00  0.45593999997E+02  0.45594000000E+02  0.51100000000E-03 0.  1.
         11   -1    0    0    0    0 -0.00000000000E+00 -0.00000000000E+00 -0.45593999997E+02  0.45594000000E+02  0.51100000000E-03 0. -1.
    9900012    2    1    2    0    0  0.85853968803E+01  0.24758708110E+01  0.30608527661E+02  0.59301938133E+02  0.49999989249E+02 0.  0.
         12    1    1    2    0    0 -0.85853968803E+01 -0.24758708110E+01 -0.30608527661E+02  0.31886061867E+02  0.00000000000E+00 0. -1.
         11    1    3    3    0    0 -0.86116570603E+01  0.59629751453E+01  0.99540269395E+01  0.14449926037E+02  0.51100000000E-03 0.  1.
        -11    1    3    3    0    0  0.22611744141E+02  0.10273512127E+02  0.15035794468E+02  0.29032931992E+02  0.51100000000E-03 0. -1.
         12    1    3    3    0    0 -0.54146902003E+01 -0.13760616461E+02  0.56187062534E+01  0.15819080103E+02  0.00000000000E+00 0. -1.
</event>
<event>
 7    1  0.6963701E-013  0.5930193E+02  0.7816164E-02  0.1266605E+00
        -11   -1    0    0    0    0  0.00000000000E+00  0.00000000000E+00  0.45593999997E+02  0.45594000000E+02  0.51100000000E-03 0. -1.
         11   -1    0    0    0    0 -0.00000000000E+00 -0.00000000000E+00 -0.45593999997E+02  0.45594000000E+02  0.51100000000E-03 0.  1.
    9900012    2    1    2    0    0 -0.89239325760E+01  0.15830743477E+02 -0.26200614882E+02  0.59301933578E+02  0.49999980942E+02 0.  0.
         12    1    1    2    0    0  0.89239325760E+01 -0.15830743477E+02  0.26200614882E+02  0.31886066422E+02  0.00000000000E+00 0. -1.
         11    1    3    3    0    0  0.12639887956E+02  0.61122442570E+01 -0.54522766614E+01  0.15061660547E+02  0.51100000000E-03 0. -1.
        -11    1    3    3    0    0  0.33988974565E+01 -0.75101550106E+01 -0.74907312000E+01  0.11138491207E+02  0.51100000000E-03 0.  1.
         12    1    3    3    0    0 -0.24962717988E+02  0.17228654231E+02 -0.13257607021E+02  0.33101781823E+02  0.00000000000E+00 0. -1.
</event>
<event>
 7    1  0.6963701E-013  0.5930190E+02  0.7816164E-02  0.1266605E+00
        -11   -1    0    0    0    0  0.00000000000E+00  0.00000000000E+00  0.45593999997E+02  0.45594000000E+02  0.51100000000E-03 0.  1.
         11   -1    0    0    0    0 -0.00000000000E+00 -0.00000000000E+00 -0.45593999997E+02  0.45594000000E+02  0.51100000000E-03 0. -1.
    9900012    2    1    2    0    0  0.65915327618E+01  0.88658678988E+01  0.29911062457E+02  0.59301896835E+02  0.49999913931E+02 0.  0.
         12    1    1    2    0    0 -0.65915327618E+01 -0.88658678988E+01 -0.29911062457E+02  0.31886103165E+02  0.00000000000E+00 0. -1.
         11    1    3    3    0    0 -0.22878362780E+01  0.57543051755E+01  0.19912003332E+02  0.20852676084E+02  0.51100000000E-03 0. -1.
        -11    1    3    3    0    0 -0.13006611316E+02  0.30463577778E+01  0.97904311908E+01  0.16562148918E+02  0.51100000000E-03 0.  1.
         12    1    3    3    0    0  0.21885980355E+02  0.65204945521E-01  0.20862793437E+00  0.21887071833E+02  0.00000000000E+00 0. -1.
</event>
<event>
 7    1  0.6963701E-013  0.5930204E+02  0.7816164E-02  0.1266604E+00
        -11   -1    0    0    0    0  0.00000000000E+00  0.00000000000E+00  0.45593999997E+02  0.45594000000E+02  0.51100000000E-03 0.  1.
         11   -1    0    0    0    0 -0.00000000000E+00 -0.00000000000E+00 -0.45593999997E+02  0.45594000000E+02  0.51100000000E-03 0. -1.
    9900012    2    1    2    0    0 -0.55075515848E+01 -0.29884009126E+02 -0.96605950555E+01  0.59302043488E+02  0.50000181390E+02 0.  0.
         12    1    1    2    0    0  0.55075515848E+01  0.29884009126E+02  0.96605950555E+01  0.31885956512E+02  0.00000000000E+00 0. -1.
         11    1    3    3    0    0  0.10251736226E+02 -0.24066361467E+02 -0.13210374410E+02  0.29305321056E+02  0.51100000000E-03 0. -1.
        -11    1    3    3    0    0  0.58727419421E+01 -0.39258561172E+01 -0.24358364993E+01  0.74722649768E+01  0.51100000000E-03 0.  1.
         12    1    3    3    0    0 -0.21632029753E+02 -0.18917915420E+01  0.59856158535E+01  0.22524457455E+02  0.00000000000E+00 0. -1.
</event>
<event>
 7    1  0.6963701E-013  0.5930171E+02  0.7816164E-02  0.1266606E+00
        -11   -1    0    0    0    0  0.00000000000E+00  0.00000000000E+00  0.45593999997E+02  0.45594000000E+02  0.51100000000E-03 0. -1.
         11   -1    0    0    0    0 -0.00000000000E+00 -0.00000000000E+00 -0.45593999997E+02  0.45594000000E+02  0.51100000000E-03 0.  1.
    9900012    2    1    2    0    0 -0.41276581259E+00  0.23311094612E+02 -0.21752195942E+02  0.59301709280E+02  0.49999571874E+02 0.  0.
         12    1    1    2    0    0  0.41276581259E+00 -0.23311094612E+02  0.21752195942E+02  0.31886290720E+02  0.00000000000E+00 0. -1.
         11    1    3    3    0    0  0.87186845874E+01  0.10947235335E+02 -0.15295262615E+02  0.20731678203E+02  0.51100000000E-03 0.  1.
        -11    1    3    3    0    0  0.82269828166E+01  0.12299167071E+02  0.72258763868E+01  0.16467120171E+02  0.51100000000E-03 0. -1.
        -12    1    3    3    0    0 -0.17358433217E+02  0.64692205625E-01 -0.13682809714E+02  0.22102910905E+02  0.00000000000E+00 0.  1.
</event>
<event>
 7    1  0.6963701E-013  0.5930196E+02  0.7816164E-02  0.1266605E+00
        -11   -1    0    0    0    0  0.00000000000E+00  0.00000000000E+00  0.45593999997E+02  0.45594000000E+02  0.51100000000E-03 0. -1.
         11   -1    0    0    0    0 -0.00000000000E+00 -0.00000000000E+00 -0.45593999997E+02  0.45594000000E+02  0.51100000000E-03 0.  1.
    9900012    2    1    2    0    0  0.22992418746E+02 -0.14418024220E+02 -0.16738835759E+02  0.59301962855E+02  0.50000034337E+02 0.  0.
         12    1    1    2    0    0 -0.22992418746E+02  0.14418024220E+02  0.16738835759E+02  0.31886037145E+02  0.00000000000E+00 0. -1.
         11    1    3    3    0    0  0.57429011429E+01  0.42953051923E+01  0.13103627593E+02  0.14937724612E+02  0.51100000000E-03 0. -1.
        -11    1    3    3    0    0  0.48296920678E+01 -0.17170807934E+02 -0.88204321454E+01  0.19898808860E+02  0.51100000000E-03 0.  1.
        -12    1    3    3    0    0  0.12419825535E+02 -0.15425214790E+01 -0.21022031207E+02  0.24465429383E+02  0.00000000000E+00 0.  1.
</event>
<event>
 7    1  0.6963701E-013  0.5930196E+02  0.7816164E-02  0.1266605E+00
        -11   -1    0    0    0    0  0.00000000000E+00  0.00000000000E+00  0.45593999997E+02  0.45594000000E+02  0.51100000000E-03 0.  1.
         11   -1    0    0    0    0 -0.00000000000E+00 -0.00000000000E+00 -0.45593999997E+02  0.45594000000E+02  0.51100000000E-03 0. -1.
    9900012    2    1    2    0    0 -0.23899555911E+02  0.17005386405E+02 -0.12503912506E+02  0.59301956541E+02  0.50000022820E+02 0.  0.
         12    1    1    2    0    0  0.23899555911E+02 -0.17005386405E+02  0.12503912506E+02  0.31886043459E+02  0.00000000000E+00 0. -1.
         11    1    3    3    0    0 -0.11336393482E+01  0.16287560428E+02 -0.11606500594E+01  0.16368166412E+02  0.51100000000E-03 0. -1.
        -11    1    3    3    0    0 -0.21056579691E+02  0.10251945827E+02  0.49890717886E+01  0.23945203676E+02  0.51100000000E-03 0.  1.
         12    1    3    3    0    0 -0.17093368726E+01 -0.95341198509E+01 -0.16332334235E+02  0.18988586452E+02  0.00000000000E+00 0. -1.
</event>
<event>
 7    1  0.6963701E-013  0.5930182E+02  0.7816164E-02  0.1266605E+00
        -11   -1    0    0    0    0  0.00000000000E+00  0.00000000000E+00  0.45593999997E+02  0.45594000000E+02  0.51100000000E-03 0. -1.
         11   -1    0    0    0    0 -0.00000000000E+00 -0.00000000000E+00 -0.45593999997E+02  0.45594000000E+02  0.51100000000E-03 0.  1.
    9900012    2    1    2    0    0  0.17611866276E+02  0.25974253911E+02  0.56470231145E+01  0.59301818510E+02  0.49999771085E+02 0.  0.
         12    1    1    2    0    0 -0.17611866276E+02 -0.25974253911E+02 -0.56470231145E+01  0.31886181490E+02  0.00000000000E+00 0. -1.
         11    1    3    3    0    0  0.11255298972E+02  0.61087069323E+00 -0.49567075722E+01  0.12313564398E+02  0.51100000000E-03 0. -1.
        -11    1    3    3    0    0 -0.13503466041E+02  0.61880062843E+01 -0.44996428421E+01  0.15520367356E+02  0.51100000000E-03 0.  1.
         12    1    3    3    0    0  0.19860033344E+02  0.19175376934E+02  0.15103373529E+02  0.31467886757E+02  0.00000000000E+00 0. -1.
</event>
<event>
 7    1  0.6963701E-013  0.5930200E+02  0.7816164E-02  0.1266605E+00
        -11   -1    0    0    0    0  0.00000000000E+00  0.00000000000E+00  0.45593999997E+02  0.45594000000E+02  0.51100000000E-03 0. -1.
         11   -1    0    0    0    0 -0.00000000000E+00 -0.00000000000E+00 -0.45593999997E+02  0.45594000000E+02  0.51100000000E-03 0.  1.
    9900012    2    1    2    0    0 -0.11005778171E+02 -0.26087422635E+02 -0.14664103463E+02  0.59302004591E+02  0.50000110452E+02 0.  0.
         12    1    1    2    0    0  0.11005778171E+02  0.26087422635E+02  0.14664103463E+02  0.31885995409E+02  0.00000000000E+00 0. -1.
         11    1    3    3    0    0 -0.40081025163E+01 -0.57229753261E+01 -0.87105613872E+01  0.11166521943E+02  0.51100000000E-03 0.  1.
        -11    1    3    3    0    0  0.16125211666E+02 -0.17717117947E+02 -0.66117326811E+01  0.24852237906E+02  0.51100000000E-03 0. -1.
         12    1    3    3    0    0 -0.23122887321E+02 -0.26473293612E+01  0.65819060518E+00  0.23283244741E+02  0.00000000000E+00 0. -1.
</event>
<event>
 7    1  0.6963701E-013  0.5930190E+02  0.7816164E-02  0.1266605E+00
        -11   -1    0    0    0    0  0.00000000000E+00  0.00000000000E+00  0.45593999997E+02  0.45594000000E+02  0.51100000000E-03 0.  1.
         11   -1    0    0    0    0 -0.00000000000E+00 -0.00000000000E+00 -0.45593999997E+02  0.45594000000E+02  0.51100000000E-03 0. -1.
    9900012    2    1    2    0    0  0.43264967996E-01  0.12907266150E+02  0.29156891062E+02  0.59301895068E+02  0.49999910709E+02 0.  0.
         12    1    1    2    0    0 -0.43264967996E-01 -0.12907266150E+02 -0.29156891062E+02  0.31886104932E+02  0.00000000000E+00 0. -1.
         11    1    3    3    0    0  0.15401030806E+02 -0.56952688826E+01  0.89183084418E+01  0.18685932229E+02  0.51100000000E-03 0. -1.
        -11    1    3    3    0    0 -0.31897056012E+01  0.96320922019E+00 -0.59244594219E+01  0.67971474552E+01  0.51100000000E-03 0.  1.
        -12    1    3    3    0    0 -0.12168060237E+02  0.17639325812E+02  0.26163042042E+02  0.33818815384E+02  0.00000000000E+00 0.  1.
</event>
<event>
 7    1  0.6963701E-013  0.5930194E+02  0.7816164E-02  0.1266605E+00
        -11   -1    0    0    0    0  0.00000000000E+00  0.00000000000E+00  0.45593999997E+02  0.45594000000E+02  0.51100000000E-03 0. -1.
         11   -1    0    0    0    0 -0.00000000000E+00 -0.00000000000E+00 -0.45593999997E+02  0.45594000000E+02  0.51100000000E-03 0.  1.
    9900012    2    1    2    0    0  0.24856431614E+02 -0.18161912605E+02 -0.83080532318E+01  0.59301937048E+02  0.49999987271E+02 0.  0.
         12    1    1    2    0    0 -0.24856431614E+02  0.18161912605E+02  0.83080532318E+01  0.31886062952E+02  0.00000000000E+00 0. -1.
         11    1    3    3    0    0  0.22796347072E+02 -0.27074682879E+02 -0.17417421036E+02  0.39447160210E+02  0.51100000000E-03 0. -1.
        -11    1    3    3    0    0 -0.39543836537E+01  0.51936089627E+01 -0.18744265447E+01  0.67914799028E+01  0.51100000000E-03 0.  1.
        -12    1    3    3    0    0  0.60144681952E+01  0.37191613112E+01  0.10983794349E+02  0.13063296935E+02  0.00000000000E+00 0.  1.
</event>
<event>
 7    1  0.6963701E-013  0.5930193E+02  0.7816164E-02  0.1266605E+00
        -11   -1    0    0    0    0  0.00000000000E+00  0.00000000000E+00  0.45593999997E+02  0.45594000000E+02  0.51100000000E-03 0. -1.
         11   -1    0    0    0    0 -0.00000000000E+00 -0.00000000000E+00 -0.45593999997E+02  0.45594000000E+02  0.51100000000E-03 0.  1.
    9900012    2    1    2    0    0  0.16972852460E+02  0.99747575384E+01 -0.25082820291E+02  0.59301931218E+02  0.49999976638E+02 0.  0.
         12    1    1    2    0    0 -0.16972852460E+02 -0.99747575384E+01  0.25082820291E+02  0.31886068782E+02  0.00000000000E+00 0. -1.
         11    1    3    3    0    0  0.58864007981E+01 -0.51546803327E+01  0.33001690481E+00  0.78313060920E+01  0.51100000000E-03 0. -1.
        -11    1    3    3    0    0 -0.10796125122E+02 -0.75873340363E+01 -0.67668596880E+01  0.14829509288E+02  0.51100000000E-03 0.  1.
        -12    1    3    3    0    0  0.21882576784E+02  0.22716771907E+02 -0.18645977508E+02  0.36641115838E+02  0.00000000000E+00 0.  1.
</event>
<event>
 7    1  0.6963701E-013  0.5930194E+02  0.7816164E-02  0.1266605E+00
        -11   -1    0    0    0    0  0.00000000000E+00  0.00000000000E+00  0.45593999997E+02  0.45594000000E+02  0.51100000000E-03 0.  1.
         11   -1    0    0    0    0 -0.00000000000E+00 -0.00000000000E+00 -0.45593999997E+02  0.45594000000E+02  0.51100000000E-03 0. -1.
    9900012    2    1    2    0    0  0.29101655519E+00  0.29741918337E+02  0.11491491602E+02  0.59301940722E+02  0.49999993972E+02 0.  0.
         12    1    1    2    0    0 -0.29101655519E+00 -0.29741918337E+02 -0.11491491602E+02  0.31886059278E+02  0.00000000000E+00 0. -1.
         11    1    3    3    0    0  0.37799019026E+01  0.24482952564E+02  0.17195559920E+02  0.30156092351E+02  0.51100000000E-03 0. -1.
        -11    1    3    3    0    0  0.36325844095E+01 -0.47421260509E+00  0.10179718903E+02  0.10818836550E+02  0.51100000000E-03 0.  1.
         12    1    3    3    0    0 -0.71214697569E+01  0.57331783779E+01 -0.15883787221E+02  0.18327011821E+02  0.00000000000E+00 0. -1.
</event>
<event>
 7    1  0.6963701E-013  0.5930195E+02  0.7816164E-02  0.1266605E+00
        -11   -1    0    0    0    0  0.00000000000E+00  0.00000000000E+00  0.45593999997E+02  0.45594000000E+02  0.51100000000E-03 0.  1.
         11   -1    0    0    0    0 -0.00000000000E+00 -0.00000000000E+00 -0.45593999997E+02  0.45594000000E+02  0.51100000000E-03 0. -1.
    9900012    2    1    2    0    0  0.14034146005E+02 -0.19919504487E+02  0.20566380771E+02  0.59301953975E+02  0.50000018141E+02 0.  0.
         12    1    1    2    0    0 -0.14034146005E+02  0.19919504487E+02 -0.20566380771E+02  0.31886046025E+02  0.00000000000E+00 0. -1.
         11    1    3    3    0    0  0.21769717137E+02 -0.67137651739E+01  0.99416427147E+01  0.24856216268E+02  0.51100000000E-03 0. -1.
        -11    1    3    3    0    0  0.43376404608E+01 -0.16464211268E+02  0.13363508390E+02  0.21644138565E+02  0.51100000000E-03 0.  1.
         12    1    3    3    0    0 -0.12073211593E+02  0.32584719552E+01 -0.27387703339E+01  0.12801599142E+02  0.00000000000E+00 0. -1.
</event>
<event>
 7    1  0.6963701E-013  0.5930191E+02  0.7816164E-02  0.1266605E+00
        -11   -1    0    0    0    0  0.00000000000E+00  0.00000000000E+00  0.45593999997E+02  0.45594000000E+02  0.51100000000E-03 0.  1.
         11   -1    0    0    0    0 -0.00000000000E+00 -0.00000000000E+00 -0.45593999997E+02  0.45594000000E+02  0.51100000000E-03 0. -1.
    9900012    2    1    2    0    0 -0.23617693388E+02  0.50972252072E+01  0.20807342050E+02  0.59301911670E+02  0.49999940988E+02 0.  0.
         12    1    1    2    0    0  0.23617693388E+02 -0.50972252072E+01 -0.20807342050E+02  0.31886088330E+02  0.00000000000E+00 0. -1.
         11    1    3    3    0    0 -0.18211598999E+02 -0.31522586802E+01  0.10122758750E+02  0.21072952282E+02  0.51100000000E-03 0.  1.
        -11    1    3    3    0    0 -0.18335218991E+02 -0.37558863716E+01  0.28793669476E+01  0.18936147764E+02  0.51100000000E-03 0. -1.
        -12    1    3    3    0    0  0.12929124603E+02  0.12005370259E+02  0.78052163532E+01  0.19292811624E+02  0.00000000000E+00 0.  1.
</event>
<event>
 7    1  0.6963701E-013  0.5930195E+02  0.7816164E-02  0.1266605E+00
        -11   -1    0    0    0    0  0.00000000000E+00  0.00000000000E+00  0.45593999997E+02  0.45594000000E+02  0.51100000000E-03 0.  1.
         11   -1    0    0    0    0 -0.00000000000E+00 -0.00000000000E+00 -0.45593999997E+02  0.45594000000E+02  0.51100000000E-03 0. -1.
    9900012    2    1    2    0    0  0.25478827037E+01 -0.23502571037E+02  0.21397603844E+02  0.59301952866E+02  0.50000016118E+02 0.  0.
         12    1    1    2    0    0 -0.25478827037E+01  0.23502571037E+02 -0.21397603844E+02  0.31886047134E+02  0.00000000000E+00 0. -1.
         11    1    3    3    0    0 -0.50336019925E+01  0.51012606057E+01  0.35180138230E+00  0.71752193875E+01  0.51100000000E-03 0. -1.
        -11    1    3    3    0    0  0.12419210841E+02 -0.42657711201E+01  0.23777590172E+02  0.27162610254E+02  0.51100000000E-03 0.  1.
         12    1    3    3    0    0 -0.48377261452E+01 -0.24338060522E+02 -0.27317877107E+01  0.24964123224E+02  0.00000000000E+00 0. -1.
</event>
<event>
 7    1  0.6963701E-013  0.5930193E+02  0.7816164E-02  0.1266605E+00
        -11   -1    0    0    0    0  0.00000000000E+00  0.00000000000E+00  0.45593999997E+02  0.45594000000E+02  0.51100000000E-03 0.  1.
         11   -1    0    0    0    0 -0.00000000000E+00 -0.00000000000E+00 -0.45593999997E+02  0.45594000000E+02  0.51100000000E-03 0. -1.
    9900012    2    1    2    0    0 -0.17449127032E+02 -0.25352239196E+02  0.83374502770E+01  0.59301934963E+02  0.49999983467E+02 0.  0.
         12    1    1    2    0    0  0.17449127032E+02  0.25352239196E+02 -0.83374502770E+01  0.31886065037E+02  0.00000000000E+00 0. -1.
         11    1    3    3    0    0  0.48762156369E+01  0.50726534193E+01 -0.39644528067E+01  0.80762725293E+01  0.51100000000E-03 0. -1.
        -11    1    3    3    0    0  0.46507726498E+01 -0.12380976164E+02 -0.53670628873E+01  0.14273178388E+02  0.51100000000E-03 0.  1.
         12    1    3    3    0    0 -0.26976115319E+02 -0.18043916452E+02  0.17668965971E+02  0.36952484045E+02  0.00000000000E+00 0. -1.
</event>
<event>
 7    1  0.6963701E-013  0.5930193E+02  0.7816164E-02  0.1266605E+00
        -11   -1    0    0    0    0  0.00000000000E+00  0.00000000000E+00  0.45593999997E+02  0.45594000000E+02  0.51100000000E-03 0.  1.
         11   -1    0    0    0    0 -0.00000000000E+00 -0.00000000000E+00 -0.45593999997E+02  0.45594000000E+02  0.51100000000E-03 0. -1.
    9900012    2    1    2    0    0  0.19631295088E+02 -0.72081370431E+01  0.24070235273E+02  0.59301933881E+02  0.49999981495E+02 0.  0.
         12    1    1    2    0    0 -0.19631295088E+02  0.72081370431E+01 -0.24070235273E+02  0.31886066119E+02  0.00000000000E+00 0. -1.
         11    1    3    3    0    0  0.28636782555E+01 -0.79401119114E+01  0.12681634568E+02  0.15233840156E+02  0.51100000000E-03 0. -1.
        -11    1    3    3    0    0  0.17642834049E+02  0.16988925073E+01  0.24861194872E+02  0.30532521019E+02  0.51100000000E-03 0.  1.
         12    1    3    3    0    0 -0.87521721675E+00 -0.96691763901E+00 -0.13472594167E+02  0.13535572706E+02  0.00000000000E+00 0. -1.
</event>
<event>
 7    1  0.6963701E-013  0.5930193E+02  0.7816164E-02  0.1266605E+00
        -11   -1    0    0    0    0  0.00000000000E+00  0.00000000000E+00  0.45593999997E+02  0.45594000000E+02  0.51100000000E-03 0. -1.
         11   -1    0    0    0    0 -0.00000000000E+00 -0.00000000000E+00 -0.45593999997E+02  0.45594000000E+02  0.51100000000E-03 0.  1.
    9900012    2    1    2    0    0 -0.16307132111E+02  0.15692138738E+01 -0.27355741313E+02  0.59301928235E+02  0.49999971197E+02 0.  0.
         12    1    1    2    0    0  0.16307132111E+02 -0.15692138738E+01  0.27355741313E+02  0.31886071765E+02  0.00000000000E+00 0. -1.
         11    1    3    3    0    0 -0.10742575219E+02 -0.46788599937E+01  0.62949802860E+00  0.11734177483E+02  0.51100000000E-03 0. -1.
        -11    1    3    3    0    0 -0.52241381166E+01  0.16038407299E+02 -0.32625564562E+02  0.36728049104E+02  0.51100000000E-03 0.  1.
         12    1    3    3    0    0 -0.34041877493E+00 -0.97903334312E+01  0.46403252209E+01  0.10839701647E+02  0.00000000000E+00 0. -1.
</event>
<event>
 7    1  0.6963701E-013  0.5930195E+02  0.7816164E-02  0.1266605E+00
        -11   -1    0    0    0    0  0.00000000000E+00  0.00000000000E+00  0.45593999997E+02  0.45594000000E+02  0.51100000000E-03 0.  1.
         11   -1    0    0    0    0 -0.00000000000E+00 -0.00000000000E+00 -0.45593999997E+02  0.45594000000E+02  0.51100000000E-03 0. -1.
    9900012    2    1    2    0    0  0.88733175184E+01  0.30401788552E+02  0.37034297420E+01  0.59301954419E+02  0.50000018952E+02 0.  0.
         12    1    1    2    0    0 -0.88733175184E+01 -0.30401788552E+02 -0.37034297420E+01  0.31886045581E+02  0.00000000000E+00 0. -1.
         11    1    3    3    0    0  0.10030549870E+02  0.10051000488E+02 -0.14994840472E+01  0.14278760246E+02  0.51100000000E-03 0. -1.
        -11    1    3    3    0    0  0.18998487394E+02  0.74669799255E+01 -0.54580269668E+00  0.20420485139E+02  0.51100000000E-03 0.  1.
        -12    1    3    3    0    0 -0.20155719745E+02  0.12883808138E+02  0.57487164859E+01  0.24602709034E+02  0.00000000000E+00 0.  1.
</event>
<event>
 7    1  0.6963701E-013  0.5930190E+02  0.7816164E-02  0.1266605E+00
        -11   -1    0    0    0    0  0.00000000000E+00  0.00000000000E+00  0.45593999997E+02  0.45594000000E+02  0.51100000000E-03 0. -1.
         11   -1    0    0    0    0 -0.00000000000E+00 -0.00000000000E+00 -0.45593999997E+02  0.45594000000E+02  0.51100000000E-03 0.  1.
    9900012    2    1    2    0    0  0.19079083799E+02  0.22339616924E+02 -0.12395707196E+02  0.59301898328E+02  0.49999916655E+02 0.  0.
         12    1    1    2    0    0 -0.19079083799E+02 -0.22339616924E+02  0.12395707196E+02  0.31886101672E+02  0.00000000000E+00 0. -1.
         11    1    3    3    0    0 -0.42175710264E+00  0.39121354145E+01  0.12307396032E+01  0.41227906553E+01  0.51100000000E-03 0. -1.
        -11    1    3    3    0    0 -0.11122463745E+02  0.17763171842E+02 -0.12758972905E+02  0.24536317236E+02  0.51100000000E-03 0.  1.
         12    1    3    3    0    0  0.30623304647E+02  0.66430966752E+00 -0.86747389447E+00  0.30642790437E+02  0.00000000000E+00 0. -1.
</event>
<event>
 7    1  0.6963701E-013  0.5930199E+02  0.7816164E-02  0.1266605E+00
        -11   -1    0    0    0    0  0.00000000000E+00  0.00000000000E+00  0.45593999997E+02  0.45594000000E+02  0.51100000000E-03 0. -1.
         11   -1    0    0    0    0 -0.00000000000E+00 -0.00000000000E+00 -0.45593999997E+02  0.45594000000E+02  0.51100000000E-03 0.  1.
    9900012    2    1    2    0    0  0.26142683396E+02  0.11267202710E+02  0.14364116095E+02  0.59301990791E+02  0.50000085285E+02 0.  0.
         12    1    1    2    0    0 -0.26142683396E+02 -0.11267202710E+02 -0.14364116095E+02  0.31886009209E+02  0.00000000000E+00 0. -1.
         11    1    3    3    0    0  0.60218707913E+01  0.22543339752E+02  0.75212945180E+01  0.24516014490E+02  0.51100000000E-03 0. -1.
        -11    1    3    3    0    0  0.11433285342E+02  0.13243113408E+01  0.13803445156E+02  0.17972448711E+02  0.51100000000E-03 0.  1.
         12    1    3    3    0    0  0.86875272630E+01 -0.12600448382E+02 -0.69606235795E+01  0.16813527589E+02  0.00000000000E+00 0. -1.
</event>
<event>
 7    1  0.6963701E-013  0.5930190E+02  0.7816164E-02  0.1266605E+00
        -11   -1    0    0    0    0  0.00000000000E+00  0.00000000000E+00  0.45593999997E+02  0.45594000000E+02  0.51100000000E-03 0. -1.
         11   -1    0    0    0    0 -0.00000000000E+00 -0.00000000000E+00 -0.45593999997E+02  0.45594000000E+02  0.51100000000E-03 0.  1.
    9900012    2    1    2    0    0 -0.76625696651E+01 -0.20325533803E+02 -0.23342684438E+02  0.59301902481E+02  0.49999924228E+02 0.  0.
         12    1    1    2    0    0  0.76625696651E+01  0.20325533803E+02  0.23342684438E+02  0.31886097519E+02  0.00000000000E+00 0. -1.
         11    1    3    3    0    0 -0.80867923977E+00  0.75513190247E+01 -0.83607588407E+01  0.11295072810E+02  0.51100000000E-03 0. -1.
        -11    1    3    3    0    0 -0.83955938026E+01 -0.65632725582E+01 -0.22867803965E+02  0.25228931813E+02  0.51100000000E-03 0.  1.
         12    1    3    3    0    0  0.15417033772E+01 -0.21313580270E+02  0.78858783677E+01  0.22777897858E+02  0.00000000000E+00 0. -1.
</event>
<event>
 7    1  0.6963701E-013  0.5930195E+02  0.7816164E-02  0.1266605E+00
        -11   -1    0    0    0    0  0.00000000000E+00  0.00000000000E+00  0.45593999997E+02  0.45594000000E+02  0.51100000000E-03 0.  1.
         11   -1    0    0    0    0 -0.00000000000E+00 -0.00000000000E+00 -0.45593999997E+02  0.45594000000E+02  0.51100000000E-03 0. -1.
    9900012    2    1    2    0    0  0.19282486139E+01  0.17539892142E+02 -0.26558510965E+02  0.59301945623E+02  0.50000002909E+02 0.  0.
         12    1    1    2    0    0 -0.19282486139E+01 -0.17539892142E+02  0.26558510965E+02  0.31886054377E+02  0.00000000000E+00 0. -1.
         11    1    3    3    0    0 -0.13185004870E+02  0.20448679023E+02 -0.13541045023E+02  0.27845156272E+02  0.51100000000E-03 0. -1.
        -11    1    3    3    0    0 -0.20753578134E+00 -0.68260080050E+01 -0.14037239402E+02  0.15610302581E+02  0.51100000000E-03 0.  1.
        -12    1    3    3    0    0  0.15320789266E+02  0.39172211243E+01  0.10197734595E+01  0.15846486770E+02  0.00000000000E+00 0.  1.
</event>
<event>
 7    1  0.6963701E-013  0.5930194E+02  0.7816164E-02  0.1266605E+00
        -11   -1    0    0    0    0  0.00000000000E+00  0.00000000000E+00  0.45593999997E+02  0.45594000000E+02  0.51100000000E-03 0.  1.
         11   -1    0    0    0    0 -0.00000000000E+00 -0.00000000000E+00 -0.45593999997E+02  0.45594000000E+02  0.51100000000E-03 0. -1.
    9900012    2    1    2    0    0  0.21308171074E+02 -0.20285482160E+02  0.12295606357E+02  0.59301939148E+02  0.49999991100E+02 0.  0.
         12    1    1    2    0    0 -0.21308171074E+02  0.20285482160E+02 -0.12295606357E+02  0.31886060852E+02  0.00000000000E+00 0. -1.
         11    1    3    3    0    0 -0.19717712768E+01  0.14717171524E+01 -0.47476927081E+01  0.53473750248E+01  0.51100000000E-03 0. -1.
        -11    1    3    3    0    0 -0.11121278954E+02 -0.36623614763E+01  0.52533131079E+00  0.11720567836E+02  0.51100000000E-03 0.  1.
         12    1    3    3    0    0  0.34401221305E+02 -0.18094837836E+02  0.16517967754E+02  0.42233996287E+02  0.00000000000E+00 0. -1.
</event>
<event>
 7    1  0.6963701E-013  0.5930194E+02  0.7816164E-02  0.1266605E+00
        -11   -1    0    0    0    0  0.00000000000E+00  0.00000000000E+00  0.45593999997E+02  0.45594000000E+02  0.51100000000E-03 0. -1.
         11   -1    0    0    0    0 -0.00000000000E+00 -0.00000000000E+00 -0.45593999997E+02  0.45594000000E+02  0.51100000000E-03 0.  1.
    9900012    2    1    2    0    0 -0.30046448622E+02 -0.10600811005E+02  0.12468364632E+01  0.59301939253E+02  0.49999991293E+02 0.  0.
         12    1    1    2    0    0  0.30046448622E+02  0.10600811005E+02 -0.12468364632E+01  0.31886060747E+02  0.00000000000E+00 0. -1.
         11    1    3    3    0    0 -0.15988587269E+02  0.52532880254E-01 -0.13657366493E+02  0.21027632829E+02  0.51100000000E-03 0. -1.
        -11    1    3    3    0    0 -0.13832171666E+02 -0.47254059482E+01 -0.65482056346E+01  0.16016785935E+02  0.51100000000E-03 0.  1.
         12    1    3    3    0    0 -0.22568968662E+00 -0.59279379368E+01  0.21452408591E+02  0.22257520490E+02  0.00000000000E+00 0. -1.
</event>
<event>
 7    1  0.6963701E-013  0.5930195E+02  0.7816164E-02  0.1266605E+00
        -11   -1    0    0    0    0  0.00000000000E+00  0.00000000000E+00  0.45593999997E+02  0.45594000000E+02  0.51100000000E-03 0. -1.
         11   -1    0    0    0    0 -0.00000000000E+00 -0.00000000000E+00 -0.45593999997E+02  0.45594000000E+02  0.51100000000E-03 0.  1.
    9900012    2    1    2    0    0  0.15560041260E+02 -0.12697713825E+02 -0.24766380983E+02  0.59301945879E+02  0.50000003377E+02 0.  0.
         12    1    1    2    0    0 -0.15560041260E+02  0.12697713825E+02  0.24766380983E+02  0.31886054121E+02  0.00000000000E+00 0. -1.
         11    1    3    3    0    0  0.36739660601E+01  0.43642128226E+01  0.24521161417E+01  0.62094487683E+01  0.51100000000E-03 0. -1.
        -11    1    3    3    0    0 -0.15037317926E+02 -0.40320275239E+01 -0.76234604510E+01  0.17334801005E+02  0.51100000000E-03 0.  1.
        -12    1    3    3    0    0  0.26923393126E+02 -0.13029899124E+02 -0.19595036674E+02  0.35757696106E+02  0.00000000000E+00 0.  1.
</event>
<event>
 7    1  0.6963701E-013  0.5930200E+02  0.7816164E-02  0.1266605E+00
        -11   -1    0    0    0    0  0.00000000000E+00  0.00000000000E+00  0.45593999997E+02  0.45594000000E+02  0.51100000000E-03 0.  1.
         11   -1    0    0    0    0 -0.00000000000E+00 -0.00000000000E+00 -0.45593999997E+02  0.45594000000E+02  0.51100000000E-03 0. -1.
    9900012    2    1    2    0    0  0.11576957285E+02  0.27376168831E+02 -0.11542807095E+02  0.59302000635E+02  0.50000103239E+02 0.  0.
         12    1    1    2    0    0 -0.11576957285E+02 -0.27376168831E+02  0.11542807095E+02  0.31885999365E+02  0.00000000000E+00 0. -1.
         11    1    3    3    0    0  0.12607464420E+02 -0.72998596594E+01  0.37079991549E+00  0.14573043711E+02  0.51100000000E-03 0. -1.
        -11    1    3    3    0    0  0.33401762000E+01 -0.16114123380E+01  0.34652596805E+01  0.50755740251E+01  0.51100000000E-03 0.  1.
        -12    1    3    3    0    0 -0.43706833349E+01  0.36287440828E+02 -0.15378866691E+02  0.39653382900E+02  0.00000000000E+00 0.  1.
</event>
<event>
 7    1  0.6963701E-013  0.5930191E+02  0.7816164E-02  0.1266605E+00
        -11   -1    0    0    0    0  0.00000000000E+00  0.00000000000E+00  0.45593999997E+02  0.45594000000E+02  0.51100000000E-03 0. -1.
         11   -1    0    0    0    0 -0.00000000000E+00 -0.00000000000E+00 -0.45593999997E+02  0.45594000000E+02  0.51100000000E-03 0.  1.
    9900012    2    1    2    0    0  0.17162617766E+02 -0.25769238278E+02  0.76232329069E+01  0.59301909459E+02  0.49999936955E+02 0.  0.
         12    1    1    2    0    0 -0.17162617766E+02  0.25769238278E+02 -0.76232329069E+01  0.31886090541E+02  0.00000000000E+00 0. -1.
         11    1    3    3    0    0  0.23212032552E+01 -0.50112273132E+01  0.34664434188E+01  0.65204765143E+01  0.51100000000E-03 0. -1.
        -11    1    3    3    0    0  0.82780815676E+01 -0.16033600993E+02 -0.20218524414E+02  0.27099662820E+02  0.51100000000E-03 0.  1.
         12    1    3    3    0    0  0.65633329436E+01 -0.47244099718E+01  0.24375313902E+02  0.25681770125E+02  0.00000000000E+00 0. -1.
</event>
<event>
 7    1  0.6963701E-013  0.5930192E+02  0.7816164E-02  0.1266605E+00
        -11   -1    0    0    0    0  0.00000000000E+00  0.00000000000E+00  0.45593999997E+02  0.45594000000E+02  0.51100000000E-03 0.  1.
         11   -1    0    0    0    0 -0.00000000000E+00 -0.00000000000E+00 -0.45593999997E+02  0.45594000000E+02  0.51100000000E-03 0. -1.
    9900012    2    1    2    0    0 -0.13627647368E+02 -0.25710970508E+02  0.13036683786E+02  0.59301923079E+02  0.49999961794E+02 0.  0.
         12    1    1    2    0    0  0.13627647368E+02  0.25710970508E+02 -0.13036683786E+02  0.31886076921E+02  0.00000000000E+00 0. -1.
         11    1    3    3    0    0 -0.36625368058E+01  0.92655973251E+01  0.70322564587E+01  0.12195003108E+02  0.51100000000E-03 0. -1.
        -11    1    3    3    0    0 -0.19849961536E+02 -0.16765101530E+02  0.40075380791E+01  0.26289731151E+02  0.51100000000E-03 0.  1.
         12    1    3    3    0    0  0.98848509733E+01 -0.18211466303E+02  0.19968892486E+01  0.20817188819E+02  0.00000000000E+00 0. -1.
</event>
<event>
 7    1  0.6963701E-013  0.5930195E+02  0.7816164E-02  0.1266605E+00
        -11   -1    0    0    0    0  0.00000000000E+00  0.00000000000E+00  0.45593999997E+02  0.45594000000E+02  0.51100000000E-03 0. -1.
         11   -1    0    0    0    0 -0.00000000000E+00 -0.00000000000E+00 -0.45593999997E+02  0.45594000000E+02  0.51100000000E-03 0.  1.
    9900012    2    1    2    0    0 -0.23633104670E+02 -0.15768880669E+02 -0.14475469070E+02  0.59301946016E+02  0.50000003625E+02 0.  0.
         12    1    1    2    0    0  0.23633104670E+02  0.15768880669E+02  0.14475469070E+02  0.31886053984E+02  0.00000000000E+00 0. -1.
         11    1    3    3    0    0  0.29319625226E+01 -0.93568195706E+01  0.13302802421E+02  0.16526071197E+02  0.51100000000E-03 0. -1.
        -11    1    3    3    0    0 -0.26707513395E-01  0.13113805674E+01  0.18430830753E+01  0.22621643988E+01  0.51100000000E-03 0.  1.
        -12    1    3    3    0    0 -0.26538359679E+02 -0.77234416656E+01 -0.29621354566E+02  0.40513710420E+02  0.00000000000E+00 0.  1.
</event>
<event>
 7    1  0.6963701E-013  0.5930191E+02  0.7816164E-02  0.1266605E+00
        -11   -1    0    0    0    0  0.00000000000E+00  0.00000000000E+00  0.45593999997E+02  0.45594000000E+02  0.51100000000E-03 0.  1.
         11   -1    0    0    0    0 -0.00000000000E+00 -0.00000000000E+00 -0.45593999997E+02  0.45594000000E+02  0.51100000000E-03 0. -1.
    9900012    2    1    2    0    0 -0.19039642136E+02 -0.20779821361E+02 -0.14913541711E+02  0.59301910951E+02  0.49999939676E+02 0.  0.
         12    1    1    2    0    0  0.19039642136E+02  0.20779821361E+02  0.14913541711E+02  0.31886089049E+02  0.00000000000E+00 0. -1.
         11    1    3    3    0    0  0.57278622245E+01 -0.54949769705E+01 -0.97011941070E+01  0.12534605895E+02  0.51100000000E-03 0. -1.
        -11    1    3    3    0    0 -0.37333301771E+01 -0.19571272220E+02  0.81003852006E+01  0.21507875097E+02  0.51100000000E-03 0.  1.
         12    1    3    3    0    0 -0.21034174184E+02  0.42864278298E+01 -0.13312732805E+02  0.25259429959E+02  0.00000000000E+00 0. -1.
</event>
<event>
 7    1  0.6963701E-013  0.5930195E+02  0.7816164E-02  0.1266605E+00
        -11   -1    0    0    0    0  0.00000000000E+00  0.00000000000E+00  0.45593999997E+02  0.45594000000E+02  0.51100000000E-03 0. -1.
         11   -1    0    0    0    0 -0.00000000000E+00 -0.00000000000E+00 -0.45593999997E+02  0.45594000000E+02  0.51100000000E-03 0.  1.
    9900012    2    1    2    0    0 -0.16912501559E+02  0.18830253703E+02 -0.19393523619E+02  0.59301954120E+02  0.50000018406E+02 0.  0.
         12    1    1    2    0    0  0.16912501559E+02 -0.18830253703E+02  0.19393523619E+02  0.31886045880E+02  0.00000000000E+00 0. -1.
         11    1    3    3    0    0  0.23950129859E+01 -0.83476141375E+01 -0.10339365620E+02  0.13502637916E+02  0.51100000000E-03 0. -1.
        -11    1    3    3    0    0  0.25436484266E+01  0.91726201838E+01 -0.14127175194E+02  0.17034793441E+02  0.51100000000E-03 0.  1.
         12    1    3    3    0    0 -0.21851162972E+02  0.18005247656E+02  0.50730171947E+01  0.28764522764E+02  0.00000000000E+00 0. -1.
</event>
<event>
 7    1  0.6963701E-013  0.5930193E+02  0.7816164E-02  0.1266605E+00
        -11   -1    0    0    0    0  0.00000000000E+00  0.00000000000E+00  0.45593999997E+02  0.45594000000E+02  0.51100000000E-03 0.  1.
         11   -1    0    0    0    0 -0.00000000000E+00 -0.00000000000E+00 -0.45593999997E+02  0.45594000000E+02  0.51100000000E-03 0. -1.
    9900012    2    1    2    0    0 -0.19232945055E+02 -0.24031210990E+02  0.83256161432E+01  0.59301934685E+02  0.49999982960E+02 0.  0.
         12    1    1    2    0    0  0.19232945055E+02  0.24031210990E+02 -0.83256161432E+01  0.31886065315E+02  0.00000000000E+00 0. -1.
         11    1    3    3    0    0 -0.10981897934E+02 -0.14921495435E+02 -0.61529066885E+01  0.19522073897E+02  0.51100000000E-03 0. -1.
        -11    1    3    3    0    0  0.11312048476E+02 -0.62999087669E+01 -0.31174663455E+01  0.13318028678E+02  0.51100000000E-03 0.  1.
        -12    1    3    3    0    0 -0.19563095596E+02 -0.28098067881E+01  0.17595989177E+02  0.26461832110E+02  0.00000000000E+00 0.  1.
</event>
<event>
 7    1  0.6963701E-013  0.5930193E+02  0.7816164E-02  0.1266605E+00
        -11   -1    0    0    0    0  0.00000000000E+00  0.00000000000E+00  0.45593999997E+02  0.45594000000E+02  0.51100000000E-03 0.  1.
         11   -1    0    0    0    0 -0.00000000000E+00 -0.00000000000E+00 -0.45593999997E+02  0.45594000000E+02  0.51100000000E-03 0. -1.
    9900012    2    1    2    0    0 -0.12914957109E+02  0.10422562736E+02  0.27226738397E+02  0.59301933845E+02  0.49999981429E+02 0.  0.
         12    1    1    2    0    0  0.12914957109E+02 -0.10422562736E+02 -0.27226738397E+02  0.31886066155E+02  0.00000000000E+00 0. -1.
         11    1    3    3    0    0 -0.31057563882E+00  0.13864451786E+02  0.80034218924E+01  0.16011690817E+02  0.51100000000E-03 0. -1.
        -11    1    3    3    0    0  0.82224545103E+01  0.10292779031E+02  0.29380443039E+01  0.13497487283E+02  0.51100000000E-03 0.  1.
         12    1    3    3    0    0 -0.20826835980E+02 -0.13734668081E+02  0.16285272200E+02  0.29792755745E+02  0.00000000000E+00 0. -1.
</event>
<event>
 7    1  0.6963701E-013  0.5930195E+02  0.7816164E-02  0.1266605E+00
        -11   -1    0    0    0    0  0.00000000000E+00  0.00000000000E+00  0.45593999997E+02  0.45594000000E+02  0.51100000000E-03 0.  1.
         11   -1    0    0    0    0 -0.00000000000E+00 -0.00000000000E+00 -0.45593999997E+02  0.45594000000E+02  0.51100000000E-03 0. -1.
    9900012    2    1    2    0    0  0.28682427438E+01  0.12270636279E+02  0.29290354338E+02  0.59301949941E+02  0.50000010785E+02 0.  0.
         12    1    1    2    0    0 -0.28682427438E+01 -0.12270636279E+02 -0.29290354338E+02  0.31886050059E+02  0.00000000000E+00 0. -1.
         11    1    3    3    0    0  0.32139815428E+01  0.29697563745E+02  0.22479969381E+02  0.37384809660E+02  0.51100000000E-03 0. -1.
        -11    1    3    3    0    0 -0.14278060078E+01 -0.38623966564E+01  0.72106574539E+01  0.83036328860E+01  0.51100000000E-03 0.  1.
        -12    1    3    3    0    0  0.10820672088E+01 -0.13564530809E+02 -0.40027249711E+00  0.13613507395E+02  0.00000000000E+00 0.  1.
</event>
<event>
 7    1  0.6963701E-013  0.5930199E+02  0.7816164E-02  0.1266605E+00
        -11   -1    0    0    0    0  0.00000000000E+00  0.00000000000E+00  0.45593999997E+02  0.45594000000E+02  0.51100000000E-03 0.  1.
         11   -1    0    0    0    0 -0.00000000000E+00 -0.00000000000E+00 -0.45593999997E+02  0.45594000000E+02  0.51100000000E-03 0. -1.
    9900012    2    1    2    0    0 -0.20507804867E+02  0.21706368041E+02  0.11179508780E+02  0.59301985972E+02  0.50000076497E+02 0.  0.
         12    1    1    2    0    0  0.20507804867E+02 -0.21706368041E+02 -0.11179508780E+02  0.31886014028E+02  0.00000000000E+00 0. -1.
         11    1    3    3    0    0 -0.47733544342E+01  0.23352418088E+00  0.19874597283E+02  0.20441112091E+02  0.51100000000E-03 0. -1.
        -11    1    3    3    0    0 -0.21211231673E+02  0.19515576378E+02 -0.51977301057E+00  0.28827837843E+02  0.51100000000E-03 0.  1.
        -12    1    3    3    0    0  0.54767812399E+01  0.19572674825E+01 -0.81753154923E+01  0.10033036038E+02  0.00000000000E+00 0.  1.
</event>
<event>
 7    1  0.6963701E-013  0.5930193E+02  0.7816164E-02  0.1266605E+00
        -11   -1    0    0    0    0  0.00000000000E+00  0.00000000000E+00  0.45593999997E+02  0.45594000000E+02  0.51100000000E-03 0. -1.
         11   -1    0    0    0    0 -0.00000000000E+00 -0.00000000000E+00 -0.45593999997E+02  0.45594000000E+02  0.51100000000E-03 0.  1.
    9900012    2    1    2    0    0  0.23964706279E+02  0.18412514262E+02 -0.10168271242E+02  0.59301928299E+02  0.49999971315E+02 0.  0.
         12    1    1    2    0    0 -0.23964706279E+02 -0.18412514262E+02  0.10168271242E+02  0.31886071701E+02  0.00000000000E+00 0. -1.
         11    1    3    3    0    0  0.11225420428E+02  0.14813336466E+02 -0.20472924959E+02  0.27651142068E+02  0.51100000000E-03 0. -1.
        -11    1    3    3    0    0  0.19403709340E+02  0.61403718618E+01  0.16255011844E+01  0.20416913506E+02  0.51100000000E-03 0.  1.
         12    1    3    3    0    0 -0.66644234892E+01 -0.25411940660E+01  0.86791525322E+01  0.11233872725E+02  0.00000000000E+00 0. -1.
</event>
<event>
 7    1  0.6963701E-013  0.5930185E+02  0.7816164E-02  0.1266605E+00
        -11   -1    0    0    0    0  0.00000000000E+00  0.00000000000E+00  0.45593999997E+02  0.45594000000E+02  0.51100000000E-03 0.  1.
         11   -1    0    0    0    0 -0.00000000000E+00 -0.00000000000E+00 -0.45593999997E+02  0.45594000000E+02  0.51100000000E-03 0. -1.
    9900012    2    1    2    0    0  0.23516618439E+01 -0.18416273461E+02  0.25923674442E+02  0.59301853506E+02  0.49999834910E+02 0.  0.
         12    1    1    2    0    0 -0.23516618439E+01  0.18416273461E+02 -0.25923674442E+02  0.31886146494E+02  0.00000000000E+00 0. -1.
         11    1    3    3    0    0  0.16471280852E+02 -0.14941639697E+02  0.27944932001E+02  0.35713791657E+02  0.51100000000E-03 0. -1.
        -11    1    3    3    0    0 -0.28848150033E+01  0.11495346328E+00  0.77510440737E+01  0.82712790060E+01  0.51100000000E-03 0.  1.
         12    1    3    3    0    0 -0.11234804004E+02 -0.35895872279E+01 -0.97723016322E+01  0.15316782843E+02  0.00000000000E+00 0. -1.
</event>
<event>
 7    1  0.6963701E-013  0.5930188E+02  0.7816164E-02  0.1266605E+00
        -11   -1    0    0    0    0  0.00000000000E+00  0.00000000000E+00  0.45593999997E+02  0.45594000000E+02  0.51100000000E-03 0. -1.
         11   -1    0    0    0    0 -0.00000000000E+00 -0.00000000000E+00 -0.45593999997E+02  0.45594000000E+02  0.51100000000E-03 0.  1.
    9900012    2    1    2    0    0 -0.43830241092E+01 -0.54275660497E+01 -0.31113591500E+02  0.59301875281E+02  0.49999874623E+02 0.  0.
         12    1    1    2    0    0  0.43830241092E+01  0.54275660497E+01  0.31113591500E+02  0.31886124719E+02  0.00000000000E+00 0. -1.
         11    1    3    3    0    0  0.92763758127E+01  0.83729253736E+01 -0.14923910939E+01  0.12585080809E+02  0.51100000000E-03 0. -1.
        -11    1    3    3    0    0  0.51926746619E+00 -0.31479974930E+01 -0.28786451982E+02  0.28962723368E+02  0.51100000000E-03 0.  1.
         12    1    3    3    0    0 -0.14178667388E+02 -0.10652493930E+02 -0.83474842376E+00  0.17754071104E+02  0.00000000000E+00 0. -1.
</event>
<event>
 7    1  0.6963701E-013  0.5930195E+02  0.7816164E-02  0.1266605E+00
        -11   -1    0    0    0    0  0.00000000000E+00  0.00000000000E+00  0.45593999997E+02  0.45594000000E+02  0.51100000000E-03 0. -1.
         11   -1    0    0    0    0 -0.00000000000E+00 -0.00000000000E+00 -0.45593999997E+02  0.45594000000E+02  0.51100000000E-03 0.  1.
    9900012    2    1    2    0    0 -0.10635963200E+02 -0.28907868468E+02 -0.82420643965E+01  0.59301949789E+02  0.50000010507E+02 0.  0.
         12    1    1    2    0    0  0.10635963200E+02  0.28907868468E+02  0.82420643965E+01  0.31886050211E+02  0.00000000000E+00 0. -1.
         11    1    3    3    0    0 -0.24656907947E+01  0.34178334739E+01  0.90536222526E+01  0.99864554725E+01  0.51100000000E-03 0. -1.
        -11    1    3    3    0    0 -0.82742611525E+01 -0.32005896962E+02 -0.10587681978E+01  0.33075093777E+02  0.51100000000E-03 0.  1.
        -12    1    3    3    0    0  0.10398874703E+00 -0.31980497949E+00 -0.16236918451E+02  0.16240400539E+02  0.00000000000E+00 0.  1.
</event>
<event>
 7    1  0.6963701E-013  0.5930192E+02  0.7816164E-02  0.1266605E+00
        -11   -1    0    0    0    0  0.00000000000E+00  0.00000000000E+00  0.45593999997E+02  0.45594000000E+02  0.51100000000E-03 0. -1.
         11   -1    0    0    0    0 -0.00000000000E+00 -0.00000000000E+00 -0.45593999997E+02  0.45594000000E+02  0.51100000000E-03 0.  1.
    9900012    2    1    2    0    0 -0.26633735600E+02  0.12966073842E+02 -0.11800303893E+02  0.59301919732E+02  0.49999955690E+02 0.  0.
         12    1    1    2    0    0  0.26633735600E+02 -0.12966073842E+02  0.11800303893E+02  0.31886080268E+02  0.00000000000E+00 0. -1.
         11    1    3    3    0    0  0.28114834738E+01 -0.16951707787E+01 -0.18933932644E+01  0.37898524519E+01  0.51100000000E-03 0. -1.
        -11    1    3    3    0    0 -0.66983634327E-01  0.27294854484E+01 -0.21558205192E+02  0.21730411615E+02  0.51100000000E-03 0.  1.
         12    1    3    3    0    0 -0.29378235440E+02  0.11931759172E+02  0.11651294562E+02  0.33781655665E+02  0.00000000000E+00 0. -1.
</event>
<event>
 7    1  0.6963701E-013  0.5930201E+02  0.7816164E-02  0.1266605E+00
        -11   -1    0    0    0    0  0.00000000000E+00  0.00000000000E+00  0.45593999997E+02  0.45594000000E+02  0.51100000000E-03 0.  1.
         11   -1    0    0    0    0 -0.00000000000E+00 -0.00000000000E+00 -0.45593999997E+02  0.45594000000E+02  0.51100000000E-03 0. -1.
    9900012    2    1    2    0    0  0.81892269520E+01  0.48618097531E+01  0.30430510059E+02  0.59302006608E+02  0.50000114132E+02 0.  0.
         12    1    1    2    0    0 -0.81892269520E+01 -0.48618097531E+01 -0.30430510059E+02  0.31885993392E+02  0.00000000000E+00 0. -1.
         11    1    3    3    0    0  0.45816105184E+01  0.15833888963E+02 -0.66359920878E+01  0.17769062606E+02  0.51100000000E-03 0. -1.
        -11    1    3    3    0    0 -0.38159510531E+01  0.90249885505E+00  0.14086277982E+02  0.14621874513E+02  0.51100000000E-03 0.  1.
        -12    1    3    3    0    0  0.74235674867E+01 -0.11874578065E+02  0.22980224164E+02  0.26911069490E+02  0.00000000000E+00 0.  1.
</event>
<event>
 7    1  0.6963701E-013  0.5930189E+02  0.7816164E-02  0.1266605E+00
        -11   -1    0    0    0    0  0.00000000000E+00  0.00000000000E+00  0.45593999997E+02  0.45594000000E+02  0.51100000000E-03 0.  1.
         11   -1    0    0    0    0 -0.00000000000E+00 -0.00000000000E+00 -0.45593999997E+02  0.45594000000E+02  0.51100000000E-03 0. -1.
    9900012    2    1    2    0    0 -0.31619558218E+02 -0.26497801913E+01  0.31474013387E+01  0.59301891235E+02  0.49999903719E+02 0.  0.
         12    1    1    2    0    0  0.31619558218E+02  0.26497801913E+01 -0.31474013387E+01  0.31886108765E+02  0.00000000000E+00 0. -1.
         11    1    3    3    0    0 -0.16446732037E+01  0.31630991121E+01  0.17539232353E+00  0.35694409462E+01  0.51100000000E-03 0. -1.
        -11    1    3    3    0    0 -0.28929489734E+02  0.15492247256E+02  0.80842403809E+01  0.33797633706E+02  0.51100000000E-03 0.  1.
         12    1    3    3    0    0 -0.10453952804E+01 -0.21305126559E+02 -0.51122313657E+01  0.21934816583E+02  0.00000000000E+00 0. -1.
</event>
<event>
 7    1  0.6963701E-013  0.5930194E+02  0.7816164E-02  0.1266605E+00
        -11   -1    0    0    0    0  0.00000000000E+00  0.00000000000E+00  0.45593999997E+02  0.45594000000E+02  0.51100000000E-03 0.  1.
         11   -1    0    0    0    0 -0.00000000000E+00 -0.00000000000E+00 -0.45593999997E+02  0.45594000000E+02  0.51100000000E-03 0. -1.
    9900012    2    1    2    0    0 -0.11953966699E+02 -0.28130755065E+02  0.90820658731E+01  0.59301943159E+02  0.49999998416E+02 0.  0.
         12    1    1    2    0    0  0.11953966699E+02  0.28130755065E+02 -0.90820658731E+01  0.31886056841E+02  0.00000000000E+00 0. -1.
         11    1    3    3    0    0 -0.75991939500E+01 -0.21079120481E+01  0.15134492803E+01  0.80300417731E+01  0.51100000000E-03 0. -1.
        -11    1    3    3    0    0 -0.17574742253E+02 -0.15036019835E+01  0.14191727165E+02  0.22639291163E+02  0.51100000000E-03 0.  1.
         12    1    3    3    0    0  0.13219969504E+02 -0.24519241033E+02 -0.66231105726E+01  0.28632610223E+02  0.00000000000E+00 0. -1.
</event>
<event>
 7    1  0.6963701E-013  0.5930197E+02  0.7816164E-02  0.1266605E+00
        -11   -1    0    0    0    0  0.00000000000E+00  0.00000000000E+00  0.45593999997E+02  0.45594000000E+02  0.51100000000E-03 0. -1.
         11   -1    0    0    0    0 -0.00000000000E+00 -0.00000000000E+00 -0.45593999997E+02  0.45594000000E+02  0.51100000000E-03 0.  1.
    9900012    2    1    2    0    0  0.14364863204E+02  0.28323897116E+02  0.28506988530E+01  0.59301969726E+02  0.50000046867E+02 0.  0.
         12    1    1    2    0    0 -0.14364863204E+02 -0.28323897116E+02 -0.28506988530E+01  0.31886030274E+02  0.00000000000E+00 0. -1.
         11    1    3    3    0    0  0.10114704524E+02  0.39827166068E+02 -0.30909274012E+01  0.41207574996E+02  0.51100000000E-03 0.  1.
        -11    1    3    3    0    0  0.27171572681E+01 -0.59343012207E+01  0.93386637474E+01  0.11393397888E+02  0.51100000000E-03 0. -1.
        -12    1    3    3    0    0  0.15330014126E+01 -0.55689677316E+01 -0.33970374932E+01  0.67009968406E+01  0.00000000000E+00 0.  1.
</event>
<event>
 7    1  0.6963701E-013  0.5930194E+02  0.7816164E-02  0.1266605E+00
        -11   -1    0    0    0    0  0.00000000000E+00  0.00000000000E+00  0.45593999997E+02  0.45594000000E+02  0.51100000000E-03 0.  1.
         11   -1    0    0    0    0 -0.00000000000E+00 -0.00000000000E+00 -0.45593999997E+02  0.45594000000E+02  0.51100000000E-03 0. -1.
    9900012    2    1    2    0    0  0.29573248494E+02 -0.11414838845E+02  0.34417129630E+01  0.59301937834E+02  0.49999988705E+02 0.  0.
         12    1    1    2    0    0 -0.29573248494E+02  0.11414838845E+02 -0.34417129630E+01  0.31886062166E+02  0.00000000000E+00 0. -1.
         11    1    3    3    0    0  0.80268480186E+01 -0.24196181982E+02  0.53882491166E+01  0.26056069167E+02  0.51100000000E-03 0. -1.
        -11    1    3    3    0    0 -0.41453810601E+01 -0.18680541140E+00  0.11354883221E+01  0.43021406748E+01  0.51100000000E-03 0.  1.
         12    1    3    3    0    0  0.25691781535E+02  0.12968148549E+02 -0.30820244757E+01  0.28943727993E+02  0.00000000000E+00 0. -1.
</event>
<event>
 7    1  0.6963701E-013  0.5930196E+02  0.7816164E-02  0.1266605E+00
        -11   -1    0    0    0    0  0.00000000000E+00  0.00000000000E+00  0.45593999997E+02  0.45594000000E+02  0.51100000000E-03 0.  1.
         11   -1    0    0    0    0 -0.00000000000E+00 -0.00000000000E+00 -0.45593999997E+02  0.45594000000E+02  0.51100000000E-03 0. -1.
    9900012    2    1    2    0    0 -0.25612176603E+02  0.12150909967E+02  0.14597655858E+02  0.59301956659E+02  0.50000023037E+02 0.  0.
         12    1    1    2    0    0  0.25612176603E+02 -0.12150909967E+02 -0.14597655858E+02  0.31886043341E+02  0.00000000000E+00 0. -1.
         11    1    3    3    0    0 -0.10763459824E+02 -0.76995449260E+01  0.43531895251E+01  0.13931450706E+02  0.51100000000E-03 0.  1.
        -11    1    3    3    0    0 -0.16888936444E+02 -0.62180636179E+01  0.30838184051E+01  0.18259529720E+02  0.51100000000E-03 0. -1.
         12    1    3    3    0    0  0.20402196654E+01  0.26068518511E+02  0.71606479274E+01  0.27110976234E+02  0.00000000000E+00 0. -1.
</event>
<event>
 7    1  0.6963701E-013  0.5930195E+02  0.7816164E-02  0.1266605E+00
        -11   -1    0    0    0    0  0.00000000000E+00  0.00000000000E+00  0.45593999997E+02  0.45594000000E+02  0.51100000000E-03 0. -1.
         11   -1    0    0    0    0 -0.00000000000E+00 -0.00000000000E+00 -0.45593999997E+02  0.45594000000E+02  0.51100000000E-03 0.  1.
    9900012    2    1    2    0    0  0.23376555004E+02  0.16431904630E+02 -0.14150941933E+02  0.59301953346E+02  0.50000016995E+02 0.  0.
         12    1    1    2    0    0 -0.23376555004E+02 -0.16431904630E+02  0.14150941933E+02  0.31886046654E+02  0.00000000000E+00 0. -1.
         11    1    3    3    0    0  0.38404874270E+01  0.93451151114E+01 -0.79496363800E+01  0.12856019561E+02  0.51100000000E-03 0. -1.
        -11    1    3    3    0    0  0.21201277331E+02  0.20663142119E+02 -0.11523734831E+02  0.31768790777E+02  0.51100000000E-03 0.  1.
         12    1    3    3    0    0 -0.16652097538E+01 -0.13576352601E+02  0.53224292785E+01  0.14677143008E+02  0.00000000000E+00 0. -1.
</event>
<event>
 7    1  0.6963701E-013  0.5930194E+02  0.7816164E-02  0.1266605E+00
        -11   -1    0    0    0    0  0.00000000000E+00  0.00000000000E+00  0.45593999997E+02  0.45594000000E+02  0.51100000000E-03 0. -1.
         11   -1    0    0    0    0 -0.00000000000E+00 -0.00000000000E+00 -0.45593999997E+02  0.45594000000E+02  0.51100000000E-03 0.  1.
    9900012    2    1    2    0    0 -0.15573277761E+02  0.14573465576E+02 -0.23702486903E+02  0.59301940906E+02  0.49999994307E+02 0.  0.
         12    1    1    2    0    0  0.15573277761E+02 -0.14573465576E+02  0.23702486903E+02  0.31886059094E+02  0.00000000000E+00 0. -1.
         11    1    3    3    0    0  0.63715052877E+01  0.30591329685E+01  0.70280609441E+01  0.99673474428E+01  0.51100000000E-03 0.  1.
        -11    1    3    3    0    0 -0.12493427110E+01  0.15256220092E+01  0.58285500549E+01  0.61530785570E+01  0.51100000000E-03 0. -1.
        -12    1    3    3    0    0 -0.20695440338E+02  0.99887105982E+01 -0.36559097902E+02  0.43181514907E+02  0.00000000000E+00 0.  1.
</event>
<event>
 7    1  0.6963701E-013  0.5930188E+02  0.7816164E-02  0.1266605E+00
        -11   -1    0    0    0    0  0.00000000000E+00  0.00000000000E+00  0.45593999997E+02  0.45594000000E+02  0.51100000000E-03 0. -1.
         11   -1    0    0    0    0 -0.00000000000E+00 -0.00000000000E+00 -0.45593999997E+02  0.45594000000E+02  0.51100000000E-03 0.  1.
    9900012    2    1    2    0    0  0.30954219735E+02  0.19412003570E+01 -0.74022129389E+01  0.59301878652E+02  0.49999880771E+02 0.  0.
         12    1    1    2    0    0 -0.30954219735E+02 -0.19412003570E+01  0.74022129389E+01  0.31886121348E+02  0.00000000000E+00 0. -1.
         11    1    3    3    0    0  0.98148767347E+01 -0.14162538666E+01 -0.16083296744E+02  0.18894708644E+02  0.51100000000E-03 0. -1.
        -11    1    3    3    0    0  0.19414671939E+02  0.10769817048E+02 -0.67468696587E+01  0.23204281850E+02  0.51100000000E-03 0.  1.
         12    1    3    3    0    0  0.17246710611E+01 -0.74123628239E+01  0.15427953463E+02  0.17202888158E+02  0.00000000000E+00 0. -1.
</event>
<event>
 7    1  0.6963701E-013  0.5930198E+02  0.7816164E-02  0.1266605E+00
        -11   -1    0    0    0    0  0.00000000000E+00  0.00000000000E+00  0.45593999997E+02  0.45594000000E+02  0.51100000000E-03 0. -1.
         11   -1    0    0    0    0 -0.00000000000E+00 -0.00000000000E+00 -0.45593999997E+02  0.45594000000E+02  0.51100000000E-03 0.  1.
    9900012    2    1    2    0    0  0.16083543368E+02  0.25359949429E+02  0.10719633979E+02  0.59301984962E+02  0.50000074655E+02 0.  0.
         12    1    1    2    0    0 -0.16083543368E+02 -0.25359949429E+02 -0.10719633979E+02  0.31886015038E+02  0.00000000000E+00 0. -1.
         11    1    3    3    0    0  0.86810325359E+01  0.55889059502E+00 -0.50539238209E+01  0.10060558177E+02  0.51100000000E-03 0.  1.
        -11    1    3    3    0    0  0.10907882436E+02 -0.57272737160E+01  0.13726313710E+02  0.18444382662E+02  0.51100000000E-03 0. -1.
        -12    1    3    3    0    0 -0.35053716038E+01  0.30528332550E+02  0.20472440902E+01  0.30797044123E+02  0.00000000000E+00 0.  1.
</event>
<event>
 7    1  0.6963701E-013  0.5930196E+02  0.7816164E-02  0.1266605E+00
        -11   -1    0    0    0    0  0.00000000000E+00  0.00000000000E+00  0.45593999997E+02  0.45594000000E+02  0.51100000000E-03 0. -1.
         11   -1    0    0    0    0 -0.00000000000E+00 -0.00000000000E+00 -0.45593999997E+02  0.45594000000E+02  0.51100000000E-03 0.  1.
    9900012    2    1    2    0    0  0.22420038020E+02 -0.15291423679E+02 -0.16740182395E+02  0.59301961526E+02  0.50000031913E+02 0.  0.
         12    1    1    2    0    0 -0.22420038020E+02  0.15291423679E+02  0.16740182395E+02  0.31886038474E+02  0.00000000000E+00 0. -1.
         11    1    3    3    0    0  0.10066642002E+02 -0.19520356840E+02 -0.10251841771E+02  0.24238025339E+02  0.51100000000E-03 0. -1.
        -11    1    3    3    0    0 -0.89241673930E+01 -0.42599715782E+01 -0.70566892633E+01  0.12148456080E+02  0.51100000000E-03 0.  1.
        -12    1    3    3    0    0  0.21277563411E+02  0.84889047393E+01  0.56834863927E+00  0.22915480108E+02  0.00000000000E+00 0.  1.
</event>
<event>
 7    1  0.6963701E-013  0.5930199E+02  0.7816164E-02  0.1266605E+00
        -11   -1    0    0    0    0  0.00000000000E+00  0.00000000000E+00  0.45593999997E+02  0.45594000000E+02  0.51100000000E-03 0.  1.
         11   -1    0    0    0    0 -0.00000000000E+00 -0.00000000000E+00 -0.45593999997E+02  0.45594000000E+02  0.51100000000E-03 0. -1.
    9900012    2    1    2    0    0  0.48799644713E+01 -0.94706016567E+01  0.30053473670E+02  0.59301990080E+02  0.50000083989E+02 0.  0.
         12    1    1    2    0    0 -0.48799644713E+01  0.94706016567E+01 -0.30053473670E+02  0.31886009920E+02  0.00000000000E+00 0. -1.
         11    1    3    3    0    0  0.13075666603E+01  0.12897427015E+01 -0.18537095557E+01  0.26094838925E+01  0.51100000000E-03 0. -1.
        -11    1    3    3    0    0  0.22305206401E+02 -0.15173012509E+02  0.13948543822E+02  0.30369465195E+02  0.51100000000E-03 0.  1.
         12    1    3    3    0    0 -0.18732808590E+02  0.44126681509E+01  0.17958639403E+02  0.26323040993E+02  0.00000000000E+00 0. -1.
</event>
<event>
 7    1  0.6963701E-013  0.5930193E+02  0.7816164E-02  0.1266605E+00
        -11   -1    0    0    0    0  0.00000000000E+00  0.00000000000E+00  0.45593999997E+02  0.45594000000E+02  0.51100000000E-03 0. -1.
         11   -1    0    0    0    0 -0.00000000000E+00 -0.00000000000E+00 -0.45593999997E+02  0.45594000000E+02  0.51100000000E-03 0.  1.
    9900012    2    1    2    0    0 -0.14100549536E+02  0.28111922871E+02 -0.52550392393E+01  0.59301934985E+02  0.49999983508E+02 0.  0.
         12    1    1    2    0    0  0.14100549536E+02 -0.28111922871E+02  0.52550392393E+01  0.31886065015E+02  0.00000000000E+00 0. -1.
         11    1    3    3    0    0  0.43262175466E+01  0.55478725891E+01 -0.11363231587E+02  0.13364807552E+02  0.51100000000E-03 0. -1.
        -11    1    3    3    0    0  0.12311686696E+01 -0.76804046926E+01 -0.36158572176E+01  0.85778095231E+01  0.51100000000E-03 0.  1.
         12    1    3    3    0    0 -0.19657935752E+02  0.30244454975E+02  0.97240495655E+01  0.37359317910E+02  0.00000000000E+00 0. -1.
</event>
<event>
 7    1  0.6963701E-013  0.5930193E+02  0.7816164E-02  0.1266605E+00
        -11   -1    0    0    0    0  0.00000000000E+00  0.00000000000E+00  0.45593999997E+02  0.45594000000E+02  0.51100000000E-03 0.  1.
         11   -1    0    0    0    0 -0.00000000000E+00 -0.00000000000E+00 -0.45593999997E+02  0.45594000000E+02  0.51100000000E-03 0. -1.
    9900012    2    1    2    0    0  0.43980665639E+01  0.24924764195E+02  0.19394194675E+02  0.59301927072E+02  0.49999969076E+02 0.  0.
         12    1    1    2    0    0 -0.43980665639E+01 -0.24924764195E+02 -0.19394194675E+02  0.31886072928E+02  0.00000000000E+00 0. -1.
         11    1    3    3    0    0 -0.71225086283E+01  0.23085116149E+02  0.17239493606E+02  0.29679165366E+02  0.51100000000E-03 0. -1.
        -11    1    3    3    0    0  0.14351274677E+02  0.12079805835E+02 -0.11491330979E+00  0.18758837896E+02  0.51100000000E-03 0.  1.
         12    1    3    3    0    0 -0.28306994848E+01 -0.10240157789E+02  0.22696143790E+01  0.10863923810E+02  0.00000000000E+00 0. -1.
</event>
<event>
 7    1  0.6963701E-013  0.5930194E+02  0.7816164E-02  0.1266605E+00
        -11   -1    0    0    0    0  0.00000000000E+00  0.00000000000E+00  0.45593999997E+02  0.45594000000E+02  0.51100000000E-03 0. -1.
         11   -1    0    0    0    0 -0.00000000000E+00 -0.00000000000E+00 -0.45593999997E+02  0.45594000000E+02  0.51100000000E-03 0.  1.
    9900012    2    1    2    0    0 -0.26292765835E+02 -0.15225833331E+02 -0.96739466277E+01  0.59301940676E+02  0.49999993887E+02 0.  0.
         12    1    1    2    0    0  0.26292765835E+02  0.15225833331E+02  0.96739466277E+01  0.31886059324E+02  0.00000000000E+00 0. -1.
         11    1    3    3    0    0 -0.27484761368E+02  0.78953044320E+01 -0.75927295699E+01  0.29587116826E+02  0.51100000000E-03 0. -1.
        -11    1    3    3    0    0 -0.56357091622E+01 -0.12972031988E+01 -0.35752977157E+01  0.67990225707E+01  0.51100000000E-03 0.  1.
         12    1    3    3    0    0  0.68277046946E+01 -0.21823934564E+02  0.14940806579E+01  0.22915801279E+02  0.00000000000E+00 0. -1.
</event>
<event>
 7    1  0.6963701E-013  0.5930192E+02  0.7816164E-02  0.1266605E+00
        -11   -1    0    0    0    0  0.00000000000E+00  0.00000000000E+00  0.45593999997E+02  0.45594000000E+02  0.51100000000E-03 0.  1.
         11   -1    0    0    0    0 -0.00000000000E+00 -0.00000000000E+00 -0.45593999997E+02  0.45594000000E+02  0.51100000000E-03 0. -1.
    9900012    2    1    2    0    0 -0.52957519741E+01  0.20804080490E+02  0.23576839995E+02  0.59301919367E+02  0.49999955024E+02 0.  0.
         12    1    1    2    0    0  0.52957519741E+01 -0.20804080490E+02 -0.23576839995E+02  0.31886080633E+02  0.00000000000E+00 0. -1.
         11    1    3    3    0    0 -0.10186089927E+02 -0.50525351461E+01  0.18312282502E+01  0.11516854456E+02  0.51100000000E-03 0. -1.
        -11    1    3    3    0    0 -0.68410048345E+01  0.22659882767E+02  0.25757043432E+02  0.34981351043E+02  0.51100000000E-03 0.  1.
         12    1    3    3    0    0  0.11731342787E+02  0.31967328689E+01 -0.40114316870E+01  0.12803713868E+02  0.00000000000E+00 0. -1.
</event>
<event>
 7    1  0.6963701E-013  0.5930194E+02  0.7816164E-02  0.1266605E+00
        -11   -1    0    0    0    0  0.00000000000E+00  0.00000000000E+00  0.45593999997E+02  0.45594000000E+02  0.51100000000E-03 0.  1.
         11   -1    0    0    0    0 -0.00000000000E+00 -0.00000000000E+00 -0.45593999997E+02  0.45594000000E+02  0.51100000000E-03 0. -1.
    9900012    2    1    2    0    0  0.88353181106E+01  0.13878519748E+02  0.27313819494E+02  0.59301938909E+02  0.49999990666E+02 0.  0.
         12    1    1    2    0    0 -0.88353181106E+01 -0.13878519748E+02 -0.27313819494E+02  0.31886061091E+02  0.00000000000E+00 0. -1.
         11    1    3    3    0    0  0.57707304442E+01 -0.80672969671E+01  0.31245372992E+01  0.10399295352E+02  0.51100000000E-03 0. -1.
        -11    1    3    3    0    0  0.17002716359E+02  0.90729668160E+01  0.22835895112E+02  0.29881251585E+02  0.51100000000E-03 0.  1.
         12    1    3    3    0    0 -0.13938128693E+02  0.12872849900E+02  0.13533870823E+01  0.19021391973E+02  0.00000000000E+00 0. -1.
</event>
<event>
 7    1  0.6963701E-013  0.5930194E+02  0.7816164E-02  0.1266605E+00
        -11   -1    0    0    0    0  0.00000000000E+00  0.00000000000E+00  0.45593999997E+02  0.45594000000E+02  0.51100000000E-03 0.  1.
         11   -1    0    0    0    0 -0.00000000000E+00 -0.00000000000E+00 -0.45593999997E+02  0.45594000000E+02  0.51100000000E-03 0. -1.
    9900012    2    1    2    0    0 -0.15651471187E+02  0.23168384691E+02  0.15329009389E+02  0.59301935201E+02  0.49999983902E+02 0.  0.
         12    1    1    2    0    0  0.15651471187E+02 -0.23168384691E+02 -0.15329009389E+02  0.31886064799E+02  0.00000000000E+00 0. -1.
         11    1    3    3    0    0 -0.24532025073E+01  0.23480330654E+02  0.14631550495E+02  0.27774563909E+02  0.51100000000E-03 0. -1.
        -11    1    3    3    0    0 -0.52616229276E+01  0.13920692821E+02  0.26461643696E+01  0.15115308485E+02  0.51100000000E-03 0.  1.
        -12    1    3    3    0    0 -0.79366457523E+01 -0.14232638784E+02 -0.19487054759E+01  0.16412062807E+02  0.00000000000E+00 0.  1.
</event>
<event>
 7    1  0.6963701E-013  0.5930193E+02  0.7816164E-02  0.1266605E+00
        -11   -1    0    0    0    0  0.00000000000E+00  0.00000000000E+00  0.45593999997E+02  0.45594000000E+02  0.51100000000E-03 0.  1.
         11   -1    0    0    0    0 -0.00000000000E+00 -0.00000000000E+00 -0.45593999997E+02  0.45594000000E+02  0.51100000000E-03 0. -1.
    9900012    2    1    2    0    0 -0.26663431870E+02 -0.16998136938E+02  0.41043852844E+01  0.59301933498E+02  0.49999980796E+02 0.  0.
         12    1    1    2    0    0  0.26663431870E+02  0.16998136938E+02 -0.41043852844E+01  0.31886066502E+02  0.00000000000E+00 0. -1.
         11    1    3    3    0    0 -0.30863007082E+02 -0.61197341091E+01 -0.10009961738E+01  0.31479808533E+02  0.51100000000E-03 0. -1.
        -11    1    3    3    0    0 -0.71273676018E+01 -0.76958422525E+01  0.10532953950E+02  0.14865008446E+02  0.51100000000E-03 0.  1.
        -12    1    3    3    0    0  0.11326942814E+02 -0.31825605761E+01 -0.54275724923E+01  0.12957116519E+02  0.00000000000E+00 0.  1.
</event>
<event>
 7    1  0.6963701E-013  0.5930195E+02  0.7816164E-02  0.1266605E+00
        -11   -1    0    0    0    0  0.00000000000E+00  0.00000000000E+00  0.45593999997E+02  0.45594000000E+02  0.51100000000E-03 0. -1.
         11   -1    0    0    0    0 -0.00000000000E+00 -0.00000000000E+00 -0.45593999997E+02  0.45594000000E+02  0.51100000000E-03 0.  1.
    9900012    2    1    2    0    0  0.27255654860E+02  0.79396253916E+01 -0.14519365267E+02  0.59301947549E+02  0.50000006421E+02 0.  0.
         12    1    1    2    0    0 -0.27255654860E+02 -0.79396253916E+01  0.14519365267E+02  0.31886052451E+02  0.00000000000E+00 0. -1.
         11    1    3    3    0    0  0.13296491465E+01 -0.19807141759E+00 -0.51585407577E+01  0.53308294054E+01  0.51100000000E-03 0. -1.
        -11    1    3    3    0    0  0.18006531901E+02  0.17401738927E+02 -0.24162297572E+02  0.34797590908E+02  0.51100000000E-03 0.  1.
         12    1    3    3    0    0  0.79194738121E+01 -0.92640421176E+01  0.14801473063E+02  0.19173527235E+02  0.00000000000E+00 0. -1.
</event>
<event>
 7    1  0.6963701E-013  0.5930195E+02  0.7816164E-02  0.1266605E+00
        -11   -1    0    0    0    0  0.00000000000E+00  0.00000000000E+00  0.45593999997E+02  0.45594000000E+02  0.51100000000E-03 0.  1.
         11   -1    0    0    0    0 -0.00000000000E+00 -0.00000000000E+00 -0.45593999997E+02  0.45594000000E+02  0.51100000000E-03 0. -1.
    9900012    2    1    2    0    0  0.95626134756E+01  0.22859088760E+02 -0.20068350559E+02  0.59301949609E+02  0.50000010178E+02 0.  0.
         12    1    1    2    0    0 -0.95626134756E+01 -0.22859088760E+02  0.20068350559E+02  0.31886050391E+02  0.00000000000E+00 0. -1.
         11    1    3    3    0    0  0.76918827574E+00  0.29729238604E+01  0.27047939184E+01  0.40921677978E+01  0.51100000000E-03 0. -1.
        -11    1    3    3    0    0  0.18745390301E+02  0.23235726410E+02  0.30396168486E+00  0.29856004962E+02  0.51100000000E-03 0.  1.
         12    1    3    3    0    0 -0.99519651007E+01 -0.33495615107E+01 -0.23077106162E+02  0.25353776849E+02  0.00000000000E+00 0. -1.
</event>
<event>
 7    1  0.6963701E-013  0.5930196E+02  0.7816164E-02  0.1266605E+00
        -11   -1    0    0    0    0  0.00000000000E+00  0.00000000000E+00  0.45593999997E+02  0.45594000000E+02  0.51100000000E-03 0.  1.
         11   -1    0    0    0    0 -0.00000000000E+00 -0.00000000000E+00 -0.45593999997E+02  0.45594000000E+02  0.51100000000E-03 0. -1.
    9900012    2    1    2    0    0  0.30781176071E+02  0.68736557196E+01  0.46895116127E+01  0.59301961324E+02  0.50000031544E+02 0.  0.
         12    1    1    2    0    0 -0.30781176071E+02 -0.68736557196E+01 -0.46895116127E+01  0.31886038676E+02  0.00000000000E+00 0. -1.
         11    1    3    3    0    0 -0.14207767384E+01 -0.43201828725E+01 -0.47534007348E+01  0.65785564830E+01  0.51100000000E-03 0. -1.
        -11    1    3    3    0    0 -0.23416683558E+01  0.77593999576E+01  0.15494146167E+02  0.17486001947E+02  0.51100000000E-03 0.  1.
        -12    1    3    3    0    0  0.34543621165E+02  0.34344386345E+01 -0.60512338197E+01  0.35237402894E+02  0.00000000000E+00 0.  1.
</event>
<event>
 7    1  0.6963701E-013  0.5930195E+02  0.7816164E-02  0.1266605E+00
        -11   -1    0    0    0    0  0.00000000000E+00  0.00000000000E+00  0.45593999997E+02  0.45594000000E+02  0.51100000000E-03 0.  1.
         11   -1    0    0    0    0 -0.00000000000E+00 -0.00000000000E+00 -0.45593999997E+02  0.45594000000E+02  0.51100000000E-03 0. -1.
    9900012    2    1    2    0    0  0.60017100022E+01  0.27518803817E+02  0.14947087160E+02  0.59301945038E+02  0.50000001842E+02 0.  0.
         12    1    1    2    0    0 -0.60017100022E+01 -0.27518803817E+02 -0.14947087160E+02  0.31886054962E+02  0.00000000000E+00 0. -1.
         11    1    3    3    0    0  0.53078044386E+01  0.11104602552E+02  0.23906864634E+01  0.12537957083E+02  0.51100000000E-03 0. -1.
        -11    1    3    3    0    0  0.13016485992E+02  0.11619195732E+02  0.23728860828E+02  0.29453241816E+02  0.51100000000E-03 0.  1.
         12    1    3    3    0    0 -0.12322580428E+02  0.47950055333E+01 -0.11172460131E+02  0.17310746138E+02  0.00000000000E+00 0. -1.
</event>
<event>
 7    1  0.6963701E-013  0.5930194E+02  0.7816164E-02  0.1266605E+00
        -11   -1    0    0    0    0  0.00000000000E+00  0.00000000000E+00  0.45593999997E+02  0.45594000000E+02  0.51100000000E-03 0.  1.
         11   -1    0    0    0    0 -0.00000000000E+00 -0.00000000000E+00 -0.45593999997E+02  0.45594000000E+02  0.51100000000E-03 0. -1.
    9900012    2    1    2    0    0 -0.26093202847E+02  0.17523444601E+02  0.53660202169E+01  0.59301944765E+02  0.50000001344E+02 0.  0.
         12    1    1    2    0    0  0.26093202847E+02 -0.17523444601E+02 -0.53660202169E+01  0.31886055235E+02  0.00000000000E+00 0. -1.
         11    1    3    3    0    0 -0.49818087927E+01  0.38593122277E+00  0.45504240807E+01  0.67582335955E+01  0.51100000000E-03 0. -1.
        -11    1    3    3    0    0 -0.47468425810E+01 -0.14744580373E+02 -0.49168113852E+01  0.16251467606E+02  0.51100000000E-03 0.  1.
        -12    1    3    3    0    0 -0.16364551473E+02  0.31882093751E+02  0.57324075214E+01  0.36292243564E+02  0.00000000000E+00 0.  1.
</event>
<event>
 7    1  0.6963701E-013  0.5930193E+02  0.7816164E-02  0.1266605E+00
        -11   -1    0    0    0    0  0.00000000000E+00  0.00000000000E+00  0.45593999997E+02  0.45594000000E+02  0.51100000000E-03 0.  1.
         11   -1    0    0    0    0 -0.00000000000E+00 -0.00000000000E+00 -0.45593999997E+02  0.45594000000E+02  0.51100000000E-03 0. -1.
    9900012    2    1    2    0    0  0.83913058654E+01  0.11681206151E+02  0.28457979026E+02  0.59301934681E+02  0.49999982954E+02 0.  0.
         12    1    1    2    0    0 -0.83913058654E+01 -0.11681206151E+02 -0.28457979026E+02  0.31886065319E+02  0.00000000000E+00 0. -1.
         11    1    3    3    0    0 -0.14908053094E+02  0.10299617084E+02  0.12084182690E+02  0.21779798683E+02  0.51100000000E-03 0. -1.
        -11    1    3    3    0    0  0.47660245970E+01  0.60571741900E+01 -0.47347348730E+01  0.90455549418E+01  0.51100000000E-03 0.  1.
         12    1    3    3    0    0  0.18533334362E+02 -0.46755851230E+01  0.21108531210E+02  0.28476581056E+02  0.00000000000E+00 0. -1.
</event>
<event>
 7    1  0.6963701E-013  0.5930195E+02  0.7816164E-02  0.1266605E+00
        -11   -1    0    0    0    0  0.00000000000E+00  0.00000000000E+00  0.45593999997E+02  0.45594000000E+02  0.51100000000E-03 0.  1.
         11   -1    0    0    0    0 -0.00000000000E+00 -0.00000000000E+00 -0.45593999997E+02  0.45594000000E+02  0.51100000000E-03 0. -1.
    9900012    2    1    2    0    0 -0.22553650180E+02 -0.50432911565E+01  0.21968569989E+02  0.59301953060E+02  0.50000016472E+02 0.  0.
         12    1    1    2    0    0  0.22553650180E+02  0.50432911565E+01 -0.21968569989E+02  0.31886046940E+02  0.00000000000E+00 0. -1.
         11    1    3    3    0    0  0.22665727659E+01 -0.29325897853E+01 -0.47899079892E+01  0.60564555441E+01  0.51100000000E-03 0. -1.
        -11    1    3    3    0    0 -0.51962260072E+01 -0.13336413118E+02 -0.41948511729E+01  0.14915007751E+02  0.51100000000E-03 0.  1.
        -12    1    3    3    0    0 -0.19623996939E+02  0.11225711747E+02  0.30953329151E+02  0.38330489765E+02  0.00000000000E+00 0.  1.
</event>
<event>
 7    1  0.6963701E-013  0.5930196E+02  0.7816164E-02  0.1266605E+00
        -11   -1    0    0    0    0  0.00000000000E+00  0.00000000000E+00  0.45593999997E+02  0.45594000000E+02  0.51100000000E-03 0.  1.
         11   -1    0    0    0    0 -0.00000000000E+00 -0.00000000000E+00 -0.45593999997E+02  0.45594000000E+02  0.51100000000E-03 0. -1.
    9900012    2    1    2    0    0  0.28495816366E+02  0.19874368957E+01 -0.14168913919E+02  0.59301959521E+02  0.50000028257E+02 0.  0.
         12    1    1    2    0    0 -0.28495816366E+02 -0.19874368957E+01  0.14168913919E+02  0.31886040479E+02  0.00000000000E+00 0. -1.
         11    1    3    3    0    0  0.14518058253E+02  0.41718543955E+00  0.55891418220E+01  0.15562344479E+02  0.51100000000E-03 0.  1.
        -11    1    3    3    0    0  0.15082037964E+02 -0.15412076523E+02 -0.77617187936E+01  0.22918207844E+02  0.51100000000E-03 0. -1.
         12    1    3    3    0    0 -0.11042798507E+01  0.16982327979E+02 -0.11996336947E+02  0.20821407198E+02  0.00000000000E+00 0. -1.
</event>
<event>
 7    1  0.6963701E-013  0.5930195E+02  0.7816164E-02  0.1266605E+00
        -11   -1    0    0    0    0  0.00000000000E+00  0.00000000000E+00  0.45593999997E+02  0.45594000000E+02  0.51100000000E-03 0.  1.
         11   -1    0    0    0    0 -0.00000000000E+00 -0.00000000000E+00 -0.45593999997E+02  0.45594000000E+02  0.51100000000E-03 0. -1.
    9900012    2    1    2    0    0 -0.47417251532E+00 -0.14350748410E+01  0.31850207765E+02  0.59301952675E+02  0.50000015770E+02 0.  0.
         12    1    1    2    0    0  0.47417251532E+00  0.14350748410E+01 -0.31850207765E+02  0.31886047325E+02  0.00000000000E+00 0. -1.
         11    1    3    3    0    0  0.43091163279E+01  0.99372468514E+01  0.21531864890E+01  0.11043259067E+02  0.51100000000E-03 0. -1.
        -11    1    3    3    0    0  0.11610629919E+02 -0.18797698790E+01 -0.14010564805E+01  0.11844966080E+02  0.51100000000E-03 0.  1.
        -12    1    3    3    0    0 -0.16393918762E+02 -0.94925518133E+01  0.31098077756E+02  0.36413727527E+02  0.00000000000E+00 0.  1.
</event>
<event>
 7    1  0.6963701E-013  0.5930194E+02  0.7816164E-02  0.1266605E+00
        -11   -1    0    0    0    0  0.00000000000E+00  0.00000000000E+00  0.45593999997E+02  0.45594000000E+02  0.51100000000E-03 0. -1.
         11   -1    0    0    0    0 -0.00000000000E+00 -0.00000000000E+00 -0.45593999997E+02  0.45594000000E+02  0.51100000000E-03 0.  1.
    9900012    2    1    2    0    0  0.12691997778E+02 -0.19513497092E+02 -0.21791223440E+02  0.59301940423E+02  0.49999993425E+02 0.  0.
         12    1    1    2    0    0 -0.12691997778E+02  0.19513497092E+02  0.21791223440E+02  0.31886059577E+02  0.00000000000E+00 0. -1.
         11    1    3    3    0    0  0.32515599482E+01 -0.69814075912E+01 -0.23193274970E+01  0.80431321232E+01  0.51100000000E-03 0. -1.
        -11    1    3    3    0    0 -0.79072098705E+01 -0.24832568277E+02 -0.91548044393E+01  0.27622289183E+02  0.51100000000E-03 0.  1.
        -12    1    3    3    0    0  0.17347647700E+02  0.12300478776E+02 -0.10317091504E+02  0.23636519116E+02  0.00000000000E+00 0.  1.
</event>
<event>
 7    1  0.6963701E-013  0.5930196E+02  0.7816164E-02  0.1266605E+00
        -11   -1    0    0    0    0  0.00000000000E+00  0.00000000000E+00  0.45593999997E+02  0.45594000000E+02  0.51100000000E-03 0. -1.
         11   -1    0    0    0    0 -0.00000000000E+00 -0.00000000000E+00 -0.45593999997E+02  0.45594000000E+02  0.51100000000E-03 0.  1.
    9900012    2    1    2    0    0  0.18062152001E+02  0.90639590826E+01 -0.24664206143E+02  0.59301956755E+02  0.50000023211E+02 0.  0.
         12    1    1    2    0    0 -0.18062152001E+02 -0.90639590826E+01  0.24664206143E+02  0.31886043245E+02  0.00000000000E+00 0. -1.
         11    1    3    3    0    0  0.53293798950E+01 -0.12581054916E+02  0.42974928417E+01  0.14323186721E+02  0.51100000000E-03 0. -1.
        -11    1    3    3    0    0  0.72452397658E+01 -0.34148757498E+01 -0.11228739939E+02  0.13792732743E+02  0.51100000000E-03 0.  1.
        -12    1    3    3    0    0  0.54875323406E+01  0.25059889748E+02 -0.17732959045E+02  0.31186037290E+02  0.00000000000E+00 0.  1.
</event>
<event>
 7    1  0.6963701E-013  0.5930194E+02  0.7816164E-02  0.1266605E+00
        -11   -1    0    0    0    0  0.00000000000E+00  0.00000000000E+00  0.45593999997E+02  0.45594000000E+02  0.51100000000E-03 0.  1.
         11   -1    0    0    0    0 -0.00000000000E+00 -0.00000000000E+00 -0.45593999997E+02  0.45594000000E+02  0.51100000000E-03 0. -1.
    9900012    2    1    2    0    0 -0.28020712420E+02 -0.61167183931E+00  0.15204812083E+02  0.59301940703E+02  0.49999993937E+02 0.  0.
         12    1    1    2    0    0  0.28020712420E+02  0.61167183931E+00 -0.15204812083E+02  0.31886059297E+02  0.00000000000E+00 0. -1.
         11    1    3    3    0    0 -0.27532373511E+02  0.25482724086E+01  0.15940653973E+02  0.31915979270E+02  0.51100000000E-03 0. -1.
        -11    1    3    3    0    0 -0.59871601815E+01 -0.12107731986E+02  0.61356060046E+01  0.14835394237E+02  0.51100000000E-03 0.  1.
         12    1    3    3    0    0  0.54988212718E+01  0.89477877378E+01 -0.68714478940E+01  0.12550567196E+02  0.00000000000E+00 0. -1.
</event>
<event>
 7    1  0.6963701E-013  0.5930197E+02  0.7816164E-02  0.1266605E+00
        -11   -1    0    0    0    0  0.00000000000E+00  0.00000000000E+00  0.45593999997E+02  0.45594000000E+02  0.51100000000E-03 0.  1.
         11   -1    0    0    0    0 -0.00000000000E+00 -0.00000000000E+00 -0.45593999997E+02  0.45594000000E+02  0.51100000000E-03 0. -1.
    9900012    2    1    2    0    0 -0.54648471576E+01  0.29508161044E+02 -0.10776026302E+02  0.59301970684E+02  0.50000048614E+02 0.  0.
         12    1    1    2    0    0  0.54648471576E+01 -0.29508161044E+02  0.10776026302E+02  0.31886029316E+02  0.00000000000E+00 0. -1.
         11    1    3    3    0    0  0.10967204533E+02  0.72676484500E+01  0.63828254495E+00  0.13172156017E+02  0.51100000000E-03 0. -1.
        -11    1    3    3    0    0 -0.82366910700E+01 -0.69135013810E+01  0.48023913262E+01  0.11777204415E+02  0.51100000000E-03 0.  1.
         12    1    3    3    0    0 -0.81953606207E+01  0.29154013975E+02 -0.16216700174E+02  0.34352610252E+02  0.00000000000E+00 0. -1.
</event>
<event>
 7    1  0.6963701E-013  0.5930193E+02  0.7816164E-02  0.1266605E+00
        -11   -1    0    0    0    0  0.00000000000E+00  0.00000000000E+00  0.45593999997E+02  0.45594000000E+02  0.51100000000E-03 0. -1.
         11   -1    0    0    0    0 -0.00000000000E+00 -0.00000000000E+00 -0.45593999997E+02  0.45594000000E+02  0.51100000000E-03 0.  1.
    9900012    2    1    2    0    0 -0.25514102658E+02  0.15078642120E+02 -0.11763782239E+02  0.59301930076E+02  0.49999974555E+02 0.  0.
         12    1    1    2    0    0  0.25514102658E+02 -0.15078642120E+02  0.11763782239E+02  0.31886069924E+02  0.00000000000E+00 0. -1.
         11    1    3    3    0    0 -0.14479836140E+02 -0.23737155549E+01  0.14369537632E+02  0.20537375495E+02  0.51100000000E-03 0. -1.
        -11    1    3    3    0    0  0.57677939446E+01  0.36114829222E+01 -0.72950407717E+01  0.99763658717E+01  0.51100000000E-03 0.  1.
        -12    1    3    3    0    0 -0.16802060463E+02  0.13840874753E+02 -0.18838279099E+02  0.28788188709E+02  0.00000000000E+00 0.  1.
</event>
<event>
 7    1  0.6963701E-013  0.5930196E+02  0.7816164E-02  0.1266605E+00
        -11   -1    0    0    0    0  0.00000000000E+00  0.00000000000E+00  0.45593999997E+02  0.45594000000E+02  0.51100000000E-03 0.  1.
         11   -1    0    0    0    0 -0.00000000000E+00 -0.00000000000E+00 -0.45593999997E+02  0.45594000000E+02  0.51100000000E-03 0. -1.
    9900012    2    1    2    0    0  0.17113802399E+02 -0.20793487192E+02 -0.17072440765E+02  0.59301959546E+02  0.50000028301E+02 0.  0.
         12    1    1    2    0    0 -0.17113802399E+02  0.20793487192E+02  0.17072440765E+02  0.31886040454E+02  0.00000000000E+00 0. -1.
         11    1    3    3    0    0  0.11517165091E+02 -0.39542849260E+00 -0.87179822961E+01  0.14450075121E+02  0.51100000000E-03 0. -1.
        -11    1    3    3    0    0 -0.15874261927E+02 -0.45703759083E+01  0.10899905040E+01  0.16555017585E+02  0.51100000000E-03 0.  1.
         12    1    3    3    0    0  0.21470899235E+02 -0.15827682792E+02 -0.94444489732E+01  0.28296866839E+02  0.00000000000E+00 0. -1.
</event>
<event>
 7    1  0.6963701E-013  0.5930194E+02  0.7816164E-02  0.1266605E+00
        -11   -1    0    0    0    0  0.00000000000E+00  0.00000000000E+00  0.45593999997E+02  0.45594000000E+02  0.51100000000E-03 0.  1.
         11   -1    0    0    0    0 -0.00000000000E+00 -0.00000000000E+00 -0.45593999997E+02  0.45594000000E+02  0.51100000000E-03 0. -1.
    9900012    2    1    2    0    0 -0.31368144911E+02 -0.69455710055E+00  0.56813451102E+01  0.59301943377E+02  0.49999998813E+02 0.  0.
         12    1    1    2    0    0  0.31368144911E+02  0.69455710055E+00 -0.56813451102E+01  0.31886056623E+02  0.00000000000E+00 0. -1.
         11    1    3    3    0    0  0.48176516319E+01  0.71759496787E+01  0.45081332331E+00  0.86548976858E+01  0.51100000000E-03 0. -1.
        -11    1    3    3    0    0 -0.45169893904E+01  0.11807646793E+02  0.42912261901E+01  0.13350593186E+02  0.51100000000E-03 0.  1.
         12    1    3    3    0    0 -0.31668807152E+02 -0.19678153572E+02  0.93930559679E+00  0.37296452505E+02  0.00000000000E+00 0. -1.
</event>
<event>
 7    1  0.6963701E-013  0.5930195E+02  0.7816164E-02  0.1266605E+00
        -11   -1    0    0    0    0  0.00000000000E+00  0.00000000000E+00  0.45593999997E+02  0.45594000000E+02  0.51100000000E-03 0. -1.
         11   -1    0    0    0    0 -0.00000000000E+00 -0.00000000000E+00 -0.45593999997E+02  0.45594000000E+02  0.51100000000E-03 0.  1.
    9900012    2    1    2    0    0 -0.28409747696E+02  0.13268515906E+02 -0.57924894756E+01  0.59301949558E+02  0.50000010085E+02 0.  0.
         12    1    1    2    0    0  0.28409747696E+02 -0.13268515906E+02  0.57924894756E+01  0.31886050442E+02  0.00000000000E+00 0. -1.
         11    1    3    3    0    0 -0.66451664202E+01  0.60013157704E+01 -0.37322504423E+01  0.97007072605E+01  0.51100000000E-03 0. -1.
        -11    1    3    3    0    0 -0.16944277930E+01  0.19598524885E+02 -0.13051366802E+02  0.23607444565E+02  0.51100000000E-03 0.  1.
         12    1    3    3    0    0 -0.20070153483E+02 -0.12331324750E+02  0.10991127769E+02  0.25993797732E+02  0.00000000000E+00 0. -1.
</event>
<event>
 7    1  0.6963701E-013  0.5930197E+02  0.7816164E-02  0.1266605E+00
        -11   -1    0    0    0    0  0.00000000000E+00  0.00000000000E+00  0.45593999997E+02  0.45594000000E+02  0.51100000000E-03 0.  1.
         11   -1    0    0    0    0 -0.00000000000E+00 -0.00000000000E+00 -0.45593999997E+02  0.45594000000E+02  0.51100000000E-03 0. -1.
    9900012    2    1    2    0    0 -0.13446114353E+02  0.28153950655E+02  0.65784342480E+01  0.59301972875E+02  0.50000052610E+02 0.  0.
         12    1    1    2    0    0  0.13446114353E+02 -0.28153950655E+02 -0.65784342480E+01  0.31886027125E+02  0.00000000000E+00 0. -1.
         11    1    3    3    0    0  0.37250760076E+01 -0.17917383481E+01 -0.68143173623E+01  0.79700338108E+01  0.51100000000E-03 0. -1.
        -11    1    3    3    0    0  0.84628294810E+01 -0.17674696770E+01  0.94687401909E+00  0.86971261089E+01  0.51100000000E-03 0.  1.
        -12    1    3    3    0    0 -0.25634019842E+02  0.31713158680E+02  0.12445877591E+02  0.42634812955E+02  0.00000000000E+00 0.  1.
</event>
<event>
 7    1  0.6963701E-013  0.5930195E+02  0.7816164E-02  0.1266605E+00
        -11   -1    0    0    0    0  0.00000000000E+00  0.00000000000E+00  0.45593999997E+02  0.45594000000E+02  0.51100000000E-03 0.  1.
         11   -1    0    0    0    0 -0.00000000000E+00 -0.00000000000E+00 -0.45593999997E+02  0.45594000000E+02  0.51100000000E-03 0. -1.
    9900012    2    1    2    0    0  0.19620994702E+02  0.84409113390E+01  0.23674623964E+02  0.59301949176E+02  0.50000009389E+02 0.  0.
         12    1    1    2    0    0 -0.19620994702E+02 -0.84409113390E+01 -0.23674623964E+02  0.31886050824E+02  0.00000000000E+00 0. -1.
         11    1    3    3    0    0 -0.56657518086E+01  0.13189342121E+02 -0.15330214009E+01  0.14436399967E+02  0.51100000000E-03 0. -1.
        -11    1    3    3    0    0  0.91204889438E+00  0.88885718951E+01  0.39671330826E+01  0.97763330895E+01  0.51100000000E-03 0.  1.
        -12    1    3    3    0    0  0.24374697616E+02 -0.13637002677E+02  0.21240512282E+02  0.35089216120E+02  0.00000000000E+00 0.  1.
</event>
<event>
 7    1  0.6963701E-013  0.5930194E+02  0.7816164E-02  0.1266605E+00
        -11   -1    0    0    0    0  0.00000000000E+00  0.00000000000E+00  0.45593999997E+02  0.45594000000E+02  0.51100000000E-03 0.  1.
         11   -1    0    0    0    0 -0.00000000000E+00 -0.00000000000E+00 -0.45593999997E+02  0.45594000000E+02  0.51100000000E-03 0. -1.
    9900012    2    1    2    0    0  0.40418829840E+01 -0.31062788733E+02  0.59570877064E+01  0.59301944178E+02  0.50000000274E+02 0.  0.
         12    1    1    2    0    0 -0.40418829840E+01  0.31062788733E+02 -0.59570877064E+01  0.31886055822E+02  0.00000000000E+00 0. -1.
         11    1    3    3    0    0 -0.59339340163E+01 -0.18941824807E+01  0.55303999048E+01  0.83297553114E+01  0.51100000000E-03 0. -1.
        -11    1    3    3    0    0 -0.56988880141E+01 -0.16686573183E+02 -0.16943360117E+02  0.24453966989E+02  0.51100000000E-03 0.  1.
        -12    1    3    3    0    0  0.15674705014E+02 -0.12482033070E+02  0.17370047919E+02  0.26518221878E+02  0.00000000000E+00 0.  1.
</event>
<event>
 7    1  0.6963701E-013  0.5930198E+02  0.7816164E-02  0.1266605E+00
        -11   -1    0    0    0    0  0.00000000000E+00  0.00000000000E+00  0.45593999997E+02  0.45594000000E+02  0.51100000000E-03 0. -1.
         11   -1    0    0    0    0 -0.00000000000E+00 -0.00000000000E+00 -0.45593999997E+02  0.45594000000E+02  0.51100000000E-03 0.  1.
    9900012    2    1    2    0    0  0.18237980690E+01  0.31729648076E+02  0.25732503804E+01  0.59301977608E+02  0.50000061243E+02 0.  0.
         12    1    1    2    0    0 -0.18237980690E+01 -0.31729648076E+02 -0.25732503804E+01  0.31886022392E+02  0.00000000000E+00 0. -1.
         11    1    3    3    0    0  0.16422744351E+02  0.35006274465E+01  0.15893324256E+02  0.23120525096E+02  0.51100000000E-03 0. -1.
        -11    1    3    3    0    0 -0.51542191867E+01  0.43903703514E+01  0.94948082850E+00  0.68368736533E+01  0.51100000000E-03 0.  1.
        -12    1    3    3    0    0 -0.94447270950E+01  0.23838650278E+02 -0.14269554704E+02  0.29344578860E+02  0.00000000000E+00 0.  1.
</event>
<event>
 7    1  0.6963701E-013  0.5930193E+02  0.7816164E-02  0.1266605E+00
        -11   -1    0    0    0    0  0.00000000000E+00  0.00000000000E+00  0.45593999997E+02  0.45594000000E+02  0.51100000000E-03 0.  1.
         11   -1    0    0    0    0 -0.00000000000E+00 -0.00000000000E+00 -0.45593999997E+02  0.45594000000E+02  0.51100000000E-03 0. -1.
    9900012    2    1    2    0    0  0.13312779628E+02 -0.28572009613E+02  0.48095035308E+01  0.59301934721E+02  0.49999983028E+02 0.  0.
         12    1    1    2    0    0 -0.13312779628E+02  0.28572009613E+02 -0.48095035308E+01  0.31886065279E+02  0.00000000000E+00 0. -1.
         11    1    3    3    0    0 -0.76853605664E+01 -0.19679518803E+01  0.11538818064E+02  0.14002925559E+02  0.51100000000E-03 0.  1.
        -11    1    3    3    0    0 -0.62689115956E+01 -0.79132155592E+01 -0.69215106525E+01  0.12240324467E+02  0.51100000000E-03 0. -1.
        -12    1    3    3    0    0  0.27267051790E+02 -0.18690842173E+02  0.19219611950E+00  0.33058684696E+02  0.00000000000E+00 0.  1.
</event>
<event>
 7    1  0.7648114E-013  0.5930202E+02  0.7816164E-02  0.1266605E+00
        -11   -1    0    0    0    0  0.00000000000E+00  0.00000000000E+00  0.45593999997E+02  0.45594000000E+02  0.51100000000E-03 0. -1.
         11   -1    0    0    0    0 -0.00000000000E+00 -0.00000000000E+00 -0.45593999997E+02  0.45594000000E+02  0.51100000000E-03 0.  1.
    9900012    2    1    2    0    0  0.27042679587E+02  0.14199281953E+02 -0.91536767536E+01  0.59302016789E+02  0.50000132699E+02 0.  0.
         12    1    1    2    0    0 -0.27042679587E+02 -0.14199281953E+02  0.91536767536E+01  0.31885983211E+02  0.00000000000E+00 0. -1.
         11    1    3    3    0    0  0.72859066055E+01  0.90960030690E+01 -0.13957213232E+02  0.18183110525E+02  0.51100000000E-03 0. -1.
        -11    1    3    3    0    0  0.14369507382E+02 -0.11113961266E+02 -0.79163347904E+01  0.19815933846E+02  0.51100000000E-03 0.  1.
         12    1    3    3    0    0  0.53872655995E+01  0.16217240150E+02  0.12719871269E+02  0.21302972418E+02  0.00000000000E+00 0. -1.
</event>
<event>
 7    1  0.6963701E-013  0.5930194E+02  0.7816164E-02  0.1266605E+00
        -11   -1    0    0    0    0  0.00000000000E+00  0.00000000000E+00  0.45593999997E+02  0.45594000000E+02  0.51100000000E-03 0. -1.
         11   -1    0    0    0    0 -0.00000000000E+00 -0.00000000000E+00 -0.45593999997E+02  0.45594000000E+02  0.51100000000E-03 0.  1.
    9900012    2    1    2    0    0 -0.29719340498E+02  0.11276813124E+02  0.25129909681E+01  0.59301939763E+02  0.49999992221E+02 0.  0.
         12    1    1    2    0    0  0.29719340498E+02 -0.11276813124E+02 -0.25129909681E+01  0.31886060237E+02  0.00000000000E+00 0. -1.
         11    1    3    3    0    0 -0.44071269468E+01 -0.14657792695E+01  0.56722615158E+01  0.73311545992E+01  0.51100000000E-03 0. -1.
        -11    1    3    3    0    0 -0.12316508060E+02 -0.13646099831E+02 -0.11137110812E+02  0.21492967429E+02  0.51100000000E-03 0.  1.
        -12    1    3    3    0    0 -0.12995705491E+02  0.26388692225E+02  0.79778402644E+01  0.30477817735E+02  0.00000000000E+00 0.  1.
</event>
<event>
 7    1  0.6963701E-013  0.5930195E+02  0.7816164E-02  0.1266605E+00
        -11   -1    0    0    0    0  0.00000000000E+00  0.00000000000E+00  0.45593999997E+02  0.45594000000E+02  0.51100000000E-03 0. -1.
         11   -1    0    0    0    0 -0.00000000000E+00 -0.00000000000E+00 -0.45593999997E+02  0.45594000000E+02  0.51100000000E-03 0.  1.
    9900012    2    1    2    0    0 -0.10766460287E+01  0.28602477930E+02 -0.14052009262E+02  0.59301954860E+02  0.50000019755E+02 0.  0.
         12    1    1    2    0    0  0.10766460287E+01 -0.28602477930E+02  0.14052009262E+02  0.31886045140E+02  0.00000000000E+00 0. -1.
         11    1    3    3    0    0  0.68297050019E+00  0.42051479397E+01 -0.11730685496E+02  0.12480332542E+02  0.51100000000E-03 0. -1.
        -11    1    3    3    0    0  0.18317528915E+01  0.40677046589E+01 -0.19475735198E+02  0.19980135175E+02  0.51100000000E-03 0.  1.
         12    1    3    3    0    0 -0.35913694204E+01  0.20329625331E+02  0.17154411432E+02  0.26841487142E+02  0.00000000000E+00 0. -1.
</event>
<event>
 7    1  0.6963701E-013  0.5930203E+02  0.7816164E-02  0.1266604E+00
        -11   -1    0    0    0    0  0.00000000000E+00  0.00000000000E+00  0.45593999997E+02  0.45594000000E+02  0.51100000000E-03 0.  1.
         11   -1    0    0    0    0 -0.00000000000E+00 -0.00000000000E+00 -0.45593999997E+02  0.45594000000E+02  0.51100000000E-03 0. -1.
    9900012    2    1    2    0    0 -0.14841911814E+02 -0.27805070347E+02 -0.48281190959E+01  0.59302031028E+02  0.50000158667E+02 0.  0.
         12    1    1    2    0    0  0.14841911814E+02  0.27805070347E+02  0.48281190959E+01  0.31885968972E+02  0.00000000000E+00 0. -1.
         11    1    3    3    0    0 -0.53495101805E+01 -0.25695322937E+01 -0.52342830288E+01  0.79131204001E+01  0.51100000000E-03 0. -1.
        -11    1    3    3    0    0 -0.60682453734E+01 -0.16304963703E+02 -0.21398678341E+02  0.27578594567E+02  0.51100000000E-03 0.  1.
        -12    1    3    3    0    0 -0.34241562605E+01 -0.89305743497E+01  0.21804842274E+02  0.23810316061E+02  0.00000000000E+00 0.  1.
</event>
<event>
 7    1  0.6963701E-013  0.5930194E+02  0.7816164E-02  0.1266605E+00
        -11   -1    0    0    0    0  0.00000000000E+00  0.00000000000E+00  0.45593999997E+02  0.45594000000E+02  0.51100000000E-03 0.  1.
         11   -1    0    0    0    0 -0.00000000000E+00 -0.00000000000E+00 -0.45593999997E+02  0.45594000000E+02  0.51100000000E-03 0. -1.
    9900012    2    1    2    0    0 -0.14811858583E+02  0.23685605750E+02  0.15372756174E+02  0.59301941811E+02  0.49999995957E+02 0.  0.
         12    1    1    2    0    0  0.14811858583E+02 -0.23685605750E+02 -0.15372756174E+02  0.31886058189E+02  0.00000000000E+00 0. -1.
         11    1    3    3    0    0 -0.14234087037E+02 -0.54523921760E+01 -0.53697833907E+01  0.16160828820E+02  0.51100000000E-03 0. -1.
        -11    1    3    3    0    0 -0.94493331179E+01  0.47229368870E+01  0.11382743900E+02  0.15529420085E+02  0.51100000000E-03 0.  1.
        -12    1    3    3    0    0  0.88715615716E+01  0.24415061039E+02  0.93597956639E+01  0.27611692906E+02  0.00000000000E+00 0.  1.
</event>
<event>
 7    1  0.7590030E-013  0.5930195E+02  0.7816164E-02  0.1266605E+00
        -11   -1    0    0    0    0  0.00000000000E+00  0.00000000000E+00  0.45593999997E+02  0.45594000000E+02  0.51100000000E-03 0. -1.
         11   -1    0    0    0    0 -0.00000000000E+00 -0.00000000000E+00 -0.45593999997E+02  0.45594000000E+02  0.51100000000E-03 0.  1.
    9900012    2    1    2    0    0 -0.27646366029E+02 -0.13151786651E+02 -0.89122956742E+01  0.59301951940E+02  0.50000014430E+02 0.  0.
         12    1    1    2    0    0  0.27646366029E+02  0.13151786651E+02  0.89122956742E+01  0.31886048060E+02  0.00000000000E+00 0. -1.
         11    1    3    3    0    0  0.77305813623E+01 -0.45085901063E+01 -0.97124919673E+00  0.90018108294E+01  0.51100000000E-03 0. -1.
        -11    1    3    3    0    0 -0.58186963637E+01  0.10247304198E+02  0.51469013739E+01  0.12859046027E+02  0.51100000000E-03 0.  1.
        -12    1    3    3    0    0 -0.29558251027E+02 -0.18890500743E+02 -0.13087947851E+02  0.37441095084E+02  0.00000000000E+00 0.  1.
</event>
<event>
 7    1  0.6963701E-013  0.5930195E+02  0.7816164E-02  0.1266605E+00
        -11   -1    0    0    0    0  0.00000000000E+00  0.00000000000E+00  0.45593999997E+02  0.45594000000E+02  0.51100000000E-03 0.  1.
         11   -1    0    0    0    0 -0.00000000000E+00 -0.00000000000E+00 -0.45593999997E+02  0.45594000000E+02  0.51100000000E-03 0. -1.
    9900012    2    1    2    0    0 -0.29757264604E+02 -0.78693657470E+01  0.83245633497E+01  0.59301951814E+02  0.50000014200E+02 0.  0.
         12    1    1    2    0    0  0.29757264604E+02  0.78693657470E+01 -0.83245633497E+01  0.31886048186E+02  0.00000000000E+00 0. -1.
         11    1    3    3    0    0 -0.17321645015E+02  0.10342306156E+02  0.67946693991E+01  0.21287794981E+02  0.51100000000E-03 0. -1.
        -11    1    3    3    0    0 -0.41848729961E+01  0.87856116100E+01  0.95810949268E+00  0.97784511767E+01  0.51100000000E-03 0.  1.
        -12    1    3    3    0    0 -0.82507465926E+01 -0.26997283513E+02  0.57178445797E+00  0.28235705656E+02  0.00000000000E+00 0.  1.
</event>
<event>
 7    1  0.6963701E-013  0.5930200E+02  0.7816164E-02  0.1266605E+00
        -11   -1    0    0    0    0  0.00000000000E+00  0.00000000000E+00  0.45593999997E+02  0.45594000000E+02  0.51100000000E-03 0. -1.
         11   -1    0    0    0    0 -0.00000000000E+00 -0.00000000000E+00 -0.45593999997E+02  0.45594000000E+02  0.51100000000E-03 0.  1.
    9900012    2    1    2    0    0  0.26155033218E+02 -0.13347335738E+02 -0.12428984684E+02  0.59302003164E+02  0.50000107850E+02 0.  0.
         12    1    1    2    0    0 -0.26155033218E+02  0.13347335738E+02  0.12428984684E+02  0.31885996836E+02  0.00000000000E+00 0. -1.
         11    1    3    3    0    0 -0.18542455790E+01 -0.11746436883E+02 -0.60188510321E+01  0.13328299746E+02  0.51100000000E-03 0. -1.
        -11    1    3    3    0    0  0.78861380747E+01 -0.14195739097E+02 -0.13586400118E+02  0.21173106779E+02  0.51100000000E-03 0.  1.
         12    1    3    3    0    0  0.20123140723E+02  0.12594840242E+02  0.71762664657E+01  0.24800596639E+02  0.00000000000E+00 0. -1.
</event>
<event>
 7    1  0.6963701E-013  0.5930193E+02  0.7816164E-02  0.1266605E+00
        -11   -1    0    0    0    0  0.00000000000E+00  0.00000000000E+00  0.45593999997E+02  0.45594000000E+02  0.51100000000E-03 0. -1.
         11   -1    0    0    0    0 -0.00000000000E+00 -0.00000000000E+00 -0.45593999997E+02  0.45594000000E+02  0.51100000000E-03 0.  1.
    9900012    2    1    2    0    0  0.25816647451E+02 -0.11067247433E+02  0.15090990410E+02  0.59301933405E+02  0.49999980626E+02 0.  0.
         12    1    1    2    0    0 -0.25816647451E+02  0.11067247433E+02 -0.15090990410E+02  0.31886066595E+02  0.00000000000E+00 0. -1.
         11    1    3    3    0    0 -0.75147649566E+01 -0.12705102311E+02  0.83896695972E+01  0.16978747695E+02  0.51100000000E-03 0. -1.
        -11    1    3    3    0    0  0.22307513997E+02 -0.10039342421E+02  0.90717715090E+01  0.26090431494E+02  0.51100000000E-03 0.  1.
        -12    1    3    3    0    0  0.11023898411E+02  0.11677197298E+02 -0.23704506962E+01  0.16232754215E+02  0.00000000000E+00 0.  1.
</event>
<event>
 7    1  0.6963701E-013  0.5930195E+02  0.7816164E-02  0.1266605E+00
        -11   -1    0    0    0    0  0.00000000000E+00  0.00000000000E+00  0.45593999997E+02  0.45594000000E+02  0.51100000000E-03 0.  1.
         11   -1    0    0    0    0 -0.00000000000E+00 -0.00000000000E+00 -0.45593999997E+02  0.45594000000E+02  0.51100000000E-03 0. -1.
    9900012    2    1    2    0    0  0.12109871273E+02 -0.27282224944E+02 -0.11213902251E+02  0.59301946876E+02  0.50000005194E+02 0.  0.
         12    1    1    2    0    0 -0.12109871273E+02  0.27282224944E+02  0.11213902251E+02  0.31886053124E+02  0.00000000000E+00 0. -1.
         11    1    3    3    0    0  0.92913824648E+01  0.12179131796E+01  0.36955397656E+01  0.10073237565E+02  0.51100000000E-03 0. -1.
        -11    1    3    3    0    0  0.14313052269E+01  0.85024793634E+01 -0.75829556764E+01  0.11482247473E+02  0.51100000000E-03 0.  1.
        -12    1    3    3    0    0  0.13871835812E+01 -0.37002617487E+02 -0.73264863405E+01  0.37746461838E+02  0.00000000000E+00 0.  1.
</event>
<event>
 7    1  0.6963701E-013  0.5930194E+02  0.7816164E-02  0.1266605E+00
        -11   -1    0    0    0    0  0.00000000000E+00  0.00000000000E+00  0.45593999997E+02  0.45594000000E+02  0.51100000000E-03 0.  1.
         11   -1    0    0    0    0 -0.00000000000E+00 -0.00000000000E+00 -0.45593999997E+02  0.45594000000E+02  0.51100000000E-03 0. -1.
    9900012    2    1    2    0    0  0.14617840049E+02 -0.42771331238E+01  0.28013318210E+02  0.59301935448E+02  0.49999984353E+02 0.  0.
         12    1    1    2    0    0 -0.14617840049E+02  0.42771331238E+01 -0.28013318210E+02  0.31886064552E+02  0.00000000000E+00 0. -1.
         11    1    3    3    0    0  0.42959908972E+01 -0.16982238503E+02  0.41011036879E+01  0.17990859181E+02  0.51100000000E-03 0. -1.
        -11    1    3    3    0    0 -0.86257167332E+01  0.93254717772E+01  0.33305274873E+01  0.13132396074E+02  0.51100000000E-03 0.  1.
        -12    1    3    3    0    0  0.18947565885E+02  0.33796336020E+01  0.20581687035E+02  0.28178680193E+02  0.00000000000E+00 0.  1.
</event>
<event>
 7    1  0.6963701E-013  0.5930191E+02  0.7816164E-02  0.1266605E+00
        -11   -1    0    0    0    0  0.00000000000E+00  0.00000000000E+00  0.45593999997E+02  0.45594000000E+02  0.51100000000E-03 0. -1.
         11   -1    0    0    0    0 -0.00000000000E+00 -0.00000000000E+00 -0.45593999997E+02  0.45594000000E+02  0.51100000000E-03 0.  1.
    9900012    2    1    2    0    0  0.55299673244E+01 -0.19303189438E+02 -0.24769524626E+02  0.59301905675E+02  0.49999930054E+02 0.  0.
         12    1    1    2    0    0 -0.55299673244E+01  0.19303189438E+02  0.24769524626E+02  0.31886094325E+02  0.00000000000E+00 0. -1.
         11    1    3    3    0    0  0.93659980221E+01 -0.74276185214E+01 -0.43773022412E+01  0.12729972939E+02  0.51100000000E-03 0. -1.
        -11    1    3    3    0    0  0.58755011572E+01 -0.17382020548E+02 -0.27702274838E+02  0.33227581670E+02  0.51100000000E-03 0.  1.
         12    1    3    3    0    0 -0.97115318549E+01  0.55064496314E+01  0.73100524531E+01  0.13344351066E+02  0.00000000000E+00 0. -1.
</event>
<event>
 7    1  0.6963701E-013  0.5930193E+02  0.7816164E-02  0.1266605E+00
        -11   -1    0    0    0    0  0.00000000000E+00  0.00000000000E+00  0.45593999997E+02  0.45594000000E+02  0.51100000000E-03 0.  1.
         11   -1    0    0    0    0 -0.00000000000E+00 -0.00000000000E+00 -0.45593999997E+02  0.45594000000E+02  0.51100000000E-03 0. -1.
    9900012    2    1    2    0    0  0.17820002487E+01 -0.16876786394E+02  0.26994815907E+02  0.59301928907E+02  0.49999972424E+02 0.  0.
         12    1    1    2    0    0 -0.17820002487E+01  0.16876786394E+02 -0.26994815907E+02  0.31886071093E+02  0.00000000000E+00 0. -1.
         11    1    3    3    0    0 -0.13192505536E+02  0.37791631115E+01  0.17887083552E+01  0.13839210743E+02  0.51100000000E-03 0. -1.
        -11    1    3    3    0    0  0.86210055803E+01  0.37274858688E+01 -0.57893257351E+00  0.94101568161E+01  0.51100000000E-03 0.  1.
        -12    1    3    3    0    0  0.63535002048E+01 -0.24383435375E+02  0.25785040125E+02  0.36052561348E+02  0.00000000000E+00 0.  1.
</event>
<event>
 7    1  0.6963701E-013  0.5930178E+02  0.7816164E-02  0.1266605E+00
        -11   -1    0    0    0    0  0.00000000000E+00  0.00000000000E+00  0.45593999997E+02  0.45594000000E+02  0.51100000000E-03 0. -1.
         11   -1    0    0    0    0 -0.00000000000E+00 -0.00000000000E+00 -0.45593999997E+02  0.45594000000E+02  0.51100000000E-03 0.  1.
    9900012    2    1    2    0    0  0.12606318112E+01  0.22399090397E+02 -0.22658824307E+02  0.59301784136E+02  0.49999708395E+02 0.  0.
         12    1    1    2    0    0 -0.12606318112E+01 -0.22399090397E+02  0.22658824307E+02  0.31886215864E+02  0.00000000000E+00 0. -1.
         11    1    3    3    0    0  0.11529801217E+01  0.13506377422E+02 -0.89356167603E+01  0.16235665720E+02  0.51100000000E-03 0. -1.
        -11    1    3    3    0    0  0.71829477733E+00  0.21294298743E+02 -0.19938684609E+02  0.29180717102E+02  0.51100000000E-03 0.  1.
         12    1    3    3    0    0 -0.61064308783E+00 -0.12401585768E+02  0.62154770632E+01  0.13885401315E+02  0.00000000000E+00 0. -1.
</event>
<event>
 7    1  0.6963701E-013  0.5930193E+02  0.7816164E-02  0.1266605E+00
        -11   -1    0    0    0    0  0.00000000000E+00  0.00000000000E+00  0.45593999997E+02  0.45594000000E+02  0.51100000000E-03 0.  1.
         11   -1    0    0    0    0 -0.00000000000E+00 -0.00000000000E+00 -0.45593999997E+02  0.45594000000E+02  0.51100000000E-03 0. -1.
    9900012    2    1    2    0    0 -0.23286154773E+02  0.18746927072E+02  0.11091864867E+02  0.59301925532E+02  0.49999966268E+02 0.  0.
         12    1    1    2    0    0  0.23286154773E+02 -0.18746927072E+02 -0.11091864867E+02  0.31886074468E+02  0.00000000000E+00 0. -1.
         11    1    3    3    0    0 -0.21398826644E+02 -0.11806666176E+02  0.10008295254E+02  0.26409716433E+02  0.51100000000E-03 0. -1.
        -11    1    3    3    0    0  0.57937004402E+00  0.14128418853E+02  0.63038396771E+01  0.15481804929E+02  0.51100000000E-03 0.  1.
        -12    1    3    3    0    0 -0.24666981731E+01  0.16425174396E+02 -0.52202700639E+01  0.17410404170E+02  0.00000000000E+00 0.  1.
</event>
<event>
 7    1  0.6963701E-013  0.5930194E+02  0.7816164E-02  0.1266605E+00
        -11   -1    0    0    0    0  0.00000000000E+00  0.00000000000E+00  0.45593999997E+02  0.45594000000E+02  0.51100000000E-03 0.  1.
         11   -1    0    0    0    0 -0.00000000000E+00 -0.00000000000E+00 -0.45593999997E+02  0.45594000000E+02  0.51100000000E-03 0. -1.
    9900012    2    1    2    0    0  0.83411654165E-01  0.17351556376E+02  0.26751402311E+02  0.59301937342E+02  0.49999987808E+02 0.  0.
         12    1    1    2    0    0 -0.83411654165E-01 -0.17351556376E+02 -0.26751402311E+02  0.31886062658E+02  0.00000000000E+00 0. -1.
         11    1    3    3    0    0 -0.58894218408E+01 -0.36760324254E+01  0.34451307801E+01  0.77503180815E+01  0.51100000000E-03 0. -1.
        -11    1    3    3    0    0 -0.14561022756E+02  0.45330778114E+01  0.19782840011E+02  0.24978649630E+02  0.51100000000E-03 0.  1.
         12    1    3    3    0    0  0.20533856251E+02  0.16494510991E+02  0.35234315197E+01  0.26572969631E+02  0.00000000000E+00 0. -1.
</event>
<event>
 7    1  0.6963701E-013  0.5930189E+02  0.7816164E-02  0.1266605E+00
        -11   -1    0    0    0    0  0.00000000000E+00  0.00000000000E+00  0.45593999997E+02  0.45594000000E+02  0.51100000000E-03 0.  1.
         11   -1    0    0    0    0 -0.00000000000E+00 -0.00000000000E+00 -0.45593999997E+02  0.45594000000E+02  0.51100000000E-03 0. -1.
    9900012    2    1    2    0    0 -0.26086453424E+01 -0.13728839144E+02  0.28660741578E+02  0.59301887623E+02  0.49999897131E+02 0.  0.
         12    1    1    2    0    0  0.26086453424E+01  0.13728839144E+02 -0.28660741578E+02  0.31886112377E+02  0.00000000000E+00 0. -1.
         11    1    3    3    0    0  0.41409027478E+01 -0.22381042886E+02  0.77737073038E+01  0.24051791654E+02  0.51100000000E-03 0. -1.
        -11    1    3    3    0    0 -0.16811662077E+02  0.46753594512E+01  0.14485639576E+02  0.22678728403E+02  0.51100000000E-03 0.  1.
         12    1    3    3    0    0  0.10062113987E+02  0.39768442915E+01  0.64013946976E+01  0.12571367566E+02  0.00000000000E+00 0. -1.
</event>
<event>
 7    1  0.6963701E-013  0.5930200E+02  0.7816164E-02  0.1266605E+00
        -11   -1    0    0    0    0  0.00000000000E+00  0.00000000000E+00  0.45593999997E+02  0.45594000000E+02  0.51100000000E-03 0.  1.
         11   -1    0    0    0    0 -0.00000000000E+00 -0.00000000000E+00 -0.45593999997E+02  0.45594000000E+02  0.51100000000E-03 0. -1.
    9900012    2    1    2    0    0  0.25410809127E+02  0.62373507770E+01  0.18223701156E+02  0.59301999169E+02  0.50000100564E+02 0.  0.
         12    1    1    2    0    0 -0.25410809127E+02 -0.62373507770E+01 -0.18223701156E+02  0.31886000831E+02  0.00000000000E+00 0. -1.
         11    1    3    3    0    0  0.17955636446E+02  0.55750788261E+01 -0.19267050746E+01  0.18899697797E+02  0.51100000000E-03 0. -1.
        -11    1    3    3    0    0 -0.75431822832E+01  0.10160158381E+02 -0.11120759820E+01  0.12702957551E+02  0.51100000000E-03 0.  1.
        -12    1    3    3    0    0  0.14998354964E+02 -0.94978864304E+01  0.21262482212E+02  0.27699343821E+02  0.00000000000E+00 0.  1.
</event>
<event>
 7    1  0.6963701E-013  0.5930191E+02  0.7816164E-02  0.1266605E+00
        -11   -1    0    0    0    0  0.00000000000E+00  0.00000000000E+00  0.45593999997E+02  0.45594000000E+02  0.51100000000E-03 0.  1.
         11   -1    0    0    0    0 -0.00000000000E+00 -0.00000000000E+00 -0.45593999997E+02  0.45594000000E+02  0.51100000000E-03 0. -1.
    9900012    2    1    2    0    0  0.30182847375E+01 -0.77999075323E+01  0.30769690795E+02  0.59301914134E+02  0.49999945481E+02 0.  0.
         12    1    1    2    0    0 -0.30182847375E+01  0.77999075323E+01 -0.30769690795E+02  0.31886085866E+02  0.00000000000E+00 0. -1.
         11    1    3    3    0    0  0.52905964610E+01 -0.12595236249E+02  0.72241295884E+01  0.15453751508E+02  0.51100000000E-03 0.  1.
        -11    1    3    3    0    0 -0.17036389838E+02 -0.24189183180E+01  0.28814325627E+01  0.17446844942E+02  0.51100000000E-03 0. -1.
        -12    1    3    3    0    0  0.14764078115E+02  0.72142470349E+01  0.20664128644E+02  0.26401317684E+02  0.00000000000E+00 0.  1.
</event>
<event>
 7    1  0.6963701E-013  0.5930192E+02  0.7816164E-02  0.1266605E+00
        -11   -1    0    0    0    0  0.00000000000E+00  0.00000000000E+00  0.45593999997E+02  0.45594000000E+02  0.51100000000E-03 0. -1.
         11   -1    0    0    0    0 -0.00000000000E+00 -0.00000000000E+00 -0.45593999997E+02  0.45594000000E+02  0.51100000000E-03 0.  1.
    9900012    2    1    2    0    0 -0.30629150202E+02 -0.67738907481E+01 -0.57176350399E+01  0.59301924851E+02  0.49999965027E+02 0.  0.
         12    1    1    2    0    0  0.30629150202E+02  0.67738907481E+01  0.57176350399E+01  0.31886075149E+02  0.00000000000E+00 0. -1.
         11    1    3    3    0    0 -0.53536266591E+00  0.58082457374E+01 -0.26275326235E+01  0.63973634943E+01  0.51100000000E-03 0. -1.
        -11    1    3    3    0    0 -0.81464443548E+01 -0.73440705577E+01 -0.21267849770E+02  0.23929508187E+02  0.51100000000E-03 0.  1.
        -12    1    3    3    0    0 -0.21947343181E+02 -0.52380659278E+01  0.18177747353E+02  0.28975053170E+02  0.00000000000E+00 0.  1.
</event>
<event>
 7    1  0.6963701E-013  0.5930194E+02  0.7816164E-02  0.1266605E+00
        -11   -1    0    0    0    0  0.00000000000E+00  0.00000000000E+00  0.45593999997E+02  0.45594000000E+02  0.51100000000E-03 0.  1.
         11   -1    0    0    0    0 -0.00000000000E+00 -0.00000000000E+00 -0.45593999997E+02  0.45594000000E+02  0.51100000000E-03 0. -1.
    9900012    2    1    2    0    0  0.24566406024E+02  0.16523348331E+01  0.20260369270E+02  0.59301935987E+02  0.49999985335E+02 0.  0.
         12    1    1    2    0    0 -0.24566406024E+02 -0.16523348331E+01 -0.20260369270E+02  0.31886064013E+02  0.00000000000E+00 0. -1.
         11    1    3    3    0    0  0.13170826855E+02  0.14461762234E+02  0.15358990931E+02  0.24869898465E+02  0.51100000000E-03 0. -1.
        -11    1    3    3    0    0  0.19515230339E+02 -0.76270955960E+01 -0.39829935646E+01  0.21327940369E+02  0.51100000000E-03 0.  1.
        -12    1    3    3    0    0 -0.81196511703E+01 -0.51823318051E+01  0.88843719029E+01  0.13104097152E+02  0.00000000000E+00 0.  1.
</event>
<event>
 7    1  0.6963701E-013  0.5930180E+02  0.7816164E-02  0.1266605E+00
        -11   -1    0    0    0    0  0.00000000000E+00  0.00000000000E+00  0.45593999997E+02  0.45594000000E+02  0.51100000000E-03 0.  1.
         11   -1    0    0    0    0 -0.00000000000E+00 -0.00000000000E+00 -0.45593999997E+02  0.45594000000E+02  0.51100000000E-03 0. -1.
    9900012    2    1    2    0    0 -0.14036049178E+02 -0.25531735933E+02  0.12955666900E+02  0.59301803596E+02  0.49999743886E+02 0.  0.
         12    1    1    2    0    0  0.14036049178E+02  0.25531735933E+02 -0.12955666900E+02  0.31886196404E+02  0.00000000000E+00 0. -1.
         11    1    3    3    0    0 -0.12299294192E+02 -0.13112692655E+02 -0.13844670720E+02  0.22691193312E+02  0.51100000000E-03 0. -1.
        -11    1    3    3    0    0 -0.90337385191E+01 -0.10320339514E+02  0.69879946333E+01  0.15393177338E+02  0.51100000000E-03 0.  1.
        -12    1    3    3    0    0  0.72969835333E+01 -0.20987037641E+01  0.19812342987E+02  0.21217432946E+02  0.00000000000E+00 0.  1.
</event>
<event>
 7    1  0.6963701E-013  0.5930195E+02  0.7816164E-02  0.1266605E+00
        -11   -1    0    0    0    0  0.00000000000E+00  0.00000000000E+00  0.45593999997E+02  0.45594000000E+02  0.51100000000E-03 0.  1.
         11   -1    0    0    0    0 -0.00000000000E+00 -0.00000000000E+00 -0.45593999997E+02  0.45594000000E+02  0.51100000000E-03 0. -1.
    9900012    2    1    2    0    0 -0.84856385044E+01  0.18122087333E+02  0.24825469978E+02  0.59301951801E+02  0.50000014177E+02 0.  0.
         12    1    1    2    0    0  0.84856385044E+01 -0.18122087333E+02 -0.24825469978E+02  0.31886048199E+02  0.00000000000E+00 0. -1.
         11    1    3    3    0    0  0.23635169815E+01  0.40049954796E+01 -0.87992421226E+01  0.99525305077E+01  0.51100000000E-03 0. -1.
        -11    1    3    3    0    0  0.90020460701E+01 -0.28077364796E+01  0.13178757476E+02  0.16204933399E+02  0.51100000000E-03 0.  1.
        -12    1    3    3    0    0 -0.19851201556E+02  0.16924828333E+02  0.20445954624E+02  0.33144487894E+02  0.00000000000E+00 0.  1.
</event>
<event>
 7    1  0.6963701E-013  0.5930195E+02  0.7816164E-02  0.1266605E+00
        -11   -1    0    0    0    0  0.00000000000E+00  0.00000000000E+00  0.45593999997E+02  0.45594000000E+02  0.51100000000E-03 0.  1.
         11   -1    0    0    0    0 -0.00000000000E+00 -0.00000000000E+00 -0.45593999997E+02  0.45594000000E+02  0.51100000000E-03 0. -1.
    9900012    2    1    2    0    0  0.57576192122E+01 -0.21892982983E+02 -0.22455902503E+02  0.59301945993E+02  0.50000003585E+02 0.  0.
         12    1    1    2    0    0 -0.57576192122E+01  0.21892982983E+02  0.22455902503E+02  0.31886054007E+02  0.00000000000E+00 0. -1.
         11    1    3    3    0    0 -0.52286311707E+01 -0.66060327215E+01 -0.11413715412E+02  0.14186301562E+02  0.51100000000E-03 0. -1.
        -11    1    3    3    0    0 -0.12184844196E+01 -0.45284673467E+01  0.14272708212E+02  0.15023379139E+02  0.51100000000E-03 0.  1.
         12    1    3    3    0    0  0.12204734803E+02 -0.10758482915E+02 -0.25314895303E+02  0.30092265293E+02  0.00000000000E+00 0. -1.
</event>
<event>
 7    1  0.6963701E-013  0.5930193E+02  0.7816164E-02  0.1266605E+00
        -11   -1    0    0    0    0  0.00000000000E+00  0.00000000000E+00  0.45593999997E+02  0.45594000000E+02  0.51100000000E-03 0. -1.
         11   -1    0    0    0    0 -0.00000000000E+00 -0.00000000000E+00 -0.45593999997E+02  0.45594000000E+02  0.51100000000E-03 0.  1.
    9900012    2    1    2    0    0 -0.25697292433E+02 -0.18141090108E+02  0.52222138846E+01  0.59301929270E+02  0.49999973086E+02 0.  0.
         12    1    1    2    0    0  0.25697292433E+02  0.18141090108E+02 -0.52222138846E+01  0.31886070730E+02  0.00000000000E+00 0. -1.
         11    1    3    3    0    0 -0.12999598404E+02  0.74147516238E+00  0.16039558240E+02  0.20659302333E+02  0.51100000000E-03 0. -1.
        -11    1    3    3    0    0 -0.10379870529E+02 -0.26008980479E+02 -0.35925650744E+01  0.28233230453E+02  0.51100000000E-03 0.  1.
         12    1    3    3    0    0 -0.23178235006E+01  0.71264152082E+01 -0.72247792815E+01  0.10409396484E+02  0.00000000000E+00 0. -1.
</event>
<event>
 7    1  0.6963701E-013  0.5930193E+02  0.7816164E-02  0.1266605E+00
        -11   -1    0    0    0    0  0.00000000000E+00  0.00000000000E+00  0.45593999997E+02  0.45594000000E+02  0.51100000000E-03 0.  1.
         11   -1    0    0    0    0 -0.00000000000E+00 -0.00000000000E+00 -0.45593999997E+02  0.45594000000E+02  0.51100000000E-03 0. -1.
    9900012    2    1    2    0    0  0.80642347314E+01  0.15703220986E+02  0.26553694982E+02  0.59301925479E+02  0.49999966172E+02 0.  0.
         12    1    1    2    0    0 -0.80642347314E+01 -0.15703220986E+02 -0.26553694982E+02  0.31886074521E+02  0.00000000000E+00 0. -1.
         11    1    3    3    0    0  0.65485652954E+01  0.18260366647E+01  0.24795245140E+01  0.72364466008E+01  0.51100000000E-03 0. -1.
        -11    1    3    3    0    0  0.21886242841E+02  0.98780022579E+01  0.65266279808E+01  0.24883316246E+02  0.51100000000E-03 0.  1.
        -12    1    3    3    0    0 -0.20370573405E+02  0.39991820638E+01  0.17547542487E+02  0.27182162633E+02  0.00000000000E+00 0.  1.
</event>
<event>
 7    1  0.6963701E-013  0.5930194E+02  0.7816164E-02  0.1266605E+00
        -11   -1    0    0    0    0  0.00000000000E+00  0.00000000000E+00  0.45593999997E+02  0.45594000000E+02  0.51100000000E-03 0.  1.
         11   -1    0    0    0    0 -0.00000000000E+00 -0.00000000000E+00 -0.45593999997E+02  0.45594000000E+02  0.51100000000E-03 0. -1.
    9900012    2    1    2    0    0  0.14705925960E+02 -0.29664479694E+01  0.28136394001E+02  0.59301941302E+02  0.49999995030E+02 0.  0.
         12    1    1    2    0    0 -0.14705925960E+02  0.29664479694E+01 -0.28136394001E+02  0.31886058698E+02  0.00000000000E+00 0. -1.
         11    1    3    3    0    0  0.66103828716E+01  0.67218052356E+01  0.21600085562E+02  0.23567849369E+02  0.51100000000E-03 0. -1.
        -11    1    3    3    0    0  0.15621357145E+02 -0.44090734517E+01 -0.83382460880E+01  0.18248097869E+02  0.51100000000E-03 0.  1.
         12    1    3    3    0    0 -0.75258140558E+01 -0.52791797533E+01  0.14874554527E+02  0.17485994065E+02  0.00000000000E+00 0. -1.
</event>
<event>
 7    1  0.6963701E-013  0.5930172E+02  0.7816164E-02  0.1266606E+00
        -11   -1    0    0    0    0  0.00000000000E+00  0.00000000000E+00  0.45593999997E+02  0.45594000000E+02  0.51100000000E-03 0.  1.
         11   -1    0    0    0    0 -0.00000000000E+00 -0.00000000000E+00 -0.45593999997E+02  0.45594000000E+02  0.51100000000E-03 0. -1.
    9900012    2    1    2    0    0 -0.19378923991E+02 -0.99504781399E+01  0.23284755603E+02  0.59301724680E+02  0.49999599962E+02 0.  0.
         12    1    1    2    0    0  0.19378923991E+02  0.99504781399E+01 -0.23284755603E+02  0.31886275320E+02  0.00000000000E+00 0. -1.
         11    1    3    3    0    0  0.64385530212E+01 -0.75715659441E+01 -0.79942296906E+01  0.12755049371E+02  0.51100000000E-03 0. -1.
        -11    1    3    3    0    0 -0.76885919542E+01 -0.61382694718E+01  0.25211717705E+02  0.27063324043E+02  0.51100000000E-03 0.  1.
         12    1    3    3    0    0 -0.18128885058E+02  0.37593572760E+01  0.60672675882E+01  0.19483351266E+02  0.00000000000E+00 0. -1.
</event>
<event>
 7    1  0.6963701E-013  0.5930197E+02  0.7816164E-02  0.1266605E+00
        -11   -1    0    0    0    0  0.00000000000E+00  0.00000000000E+00  0.45593999997E+02  0.45594000000E+02  0.51100000000E-03 0. -1.
         11   -1    0    0    0    0 -0.00000000000E+00 -0.00000000000E+00 -0.45593999997E+02  0.45594000000E+02  0.51100000000E-03 0.  1.
    9900012    2    1    2    0    0 -0.19145480133E+02 -0.23793884954E+02 -0.91662672136E+01  0.59301971314E+02  0.50000049764E+02 0.  0.
         12    1    1    2    0    0  0.19145480133E+02  0.23793884954E+02  0.91662672136E+01  0.31886028686E+02  0.00000000000E+00 0. -1.
         11    1    3    3    0    0 -0.23372209083E+02 -0.12750562936E+02 -0.16918266869E+02  0.31544647196E+02  0.51100000000E-03 0. -1.
        -11    1    3    3    0    0  0.32212730239E+01 -0.16672899947E+02 -0.13209343184E+01  0.17032529474E+02  0.51100000000E-03 0.  1.
         12    1    3    3    0    0  0.10054559262E+01  0.56295779291E+01  0.90729339734E+01  0.10724794644E+02  0.00000000000E+00 0. -1.
</event>
<event>
 7    1  0.6963701E-013  0.5930207E+02  0.7816164E-02  0.1266604E+00
        -11   -1    0    0    0    0  0.00000000000E+00  0.00000000000E+00  0.45593999997E+02  0.45594000000E+02  0.51100000000E-03 0.  1.
         11   -1    0    0    0    0 -0.00000000000E+00 -0.00000000000E+00 -0.45593999997E+02  0.45594000000E+02  0.51100000000E-03 0. -1.
    9900012    2    1    2    0    0 -0.17163261510E+02  0.19079608133E+02  0.18923631781E+02  0.59302065296E+02  0.50000221164E+02 0.  0.
         12    1    1    2    0    0  0.17163261510E+02 -0.19079608133E+02 -0.18923631781E+02  0.31885934704E+02  0.00000000000E+00 0. -1.
         11    1    3    3    0    0 -0.11543614587E+02  0.64743263575E+01  0.18819231893E+02  0.23007290775E+02  0.51100000000E-03 0. -1.
        -11    1    3    3    0    0 -0.15682554440E+01  0.18764726659E+02  0.11979142547E+02  0.22317577112E+02  0.51100000000E-03 0.  1.
         12    1    3    3    0    0 -0.40513914792E+01 -0.61594448831E+01 -0.11874742659E+02  0.13977197409E+02  0.00000000000E+00 0. -1.
</event>
<event>
 7    1  0.6963701E-013  0.5930203E+02  0.7816164E-02  0.1266604E+00
        -11   -1    0    0    0    0  0.00000000000E+00  0.00000000000E+00  0.45593999997E+02  0.45594000000E+02  0.51100000000E-03 0.  1.
         11   -1    0    0    0    0 -0.00000000000E+00 -0.00000000000E+00 -0.45593999997E+02  0.45594000000E+02  0.51100000000E-03 0. -1.
    9900012    2    1    2    0    0 -0.15547560430E+02 -0.14162117968E+02  0.23967114070E+02  0.59302034788E+02  0.50000165525E+02 0.  0.
         12    1    1    2    0    0  0.15547560430E+02  0.14162117968E+02 -0.23967114070E+02  0.31885965212E+02  0.00000000000E+00 0. -1.
         11    1    3    3    0    0 -0.81999245018E+01  0.30471294750E+01  0.10614153136E+02  0.13754417724E+02  0.51100000000E-03 0. -1.
        -11    1    3    3    0    0 -0.73380479695E+01  0.94109418529E+01 -0.52847424437E+01  0.13051485644E+02  0.51100000000E-03 0.  1.
         12    1    3    3    0    0 -0.95879589870E-02 -0.26620189296E+02  0.18637703377E+02  0.32496131420E+02  0.00000000000E+00 0. -1.
</event>
<event>
 7    1  0.6963701E-013  0.5930194E+02  0.7816164E-02  0.1266605E+00
        -11   -1    0    0    0    0  0.00000000000E+00  0.00000000000E+00  0.45593999997E+02  0.45594000000E+02  0.51100000000E-03 0. -1.
         11   -1    0    0    0    0 -0.00000000000E+00 -0.00000000000E+00 -0.45593999997E+02  0.45594000000E+02  0.51100000000E-03 0.  1.
    9900012    2    1    2    0    0  0.22024913939E+02 -0.15307240448E+02 -0.17242741281E+02  0.59301943940E+02  0.49999999840E+02 0.  0.
         12    1    1    2    0    0 -0.22024913939E+02  0.15307240448E+02  0.17242741281E+02  0.31886056060E+02  0.00000000000E+00 0. -1.
         11    1    3    3    0    0  0.13654784103E+02 -0.45248098200E+00  0.30759506653E+01  0.14004261519E+02  0.51100000000E-03 0. -1.
        -11    1    3    3    0    0  0.22234584740E+02 -0.13232011941E+02 -0.92324400010E+01  0.27471819146E+02  0.51100000000E-03 0.  1.
        -12    1    3    3    0    0 -0.13864454904E+02 -0.16227475256E+01 -0.11086251945E+02  0.17825863275E+02  0.00000000000E+00 0.  1.
</event>
<event>
 7    1  0.6963701E-013  0.5930193E+02  0.7816164E-02  0.1266605E+00
        -11   -1    0    0    0    0  0.00000000000E+00  0.00000000000E+00  0.45593999997E+02  0.45594000000E+02  0.51100000000E-03 0.  1.
         11   -1    0    0    0    0 -0.00000000000E+00 -0.00000000000E+00 -0.45593999997E+02  0.45594000000E+02  0.51100000000E-03 0. -1.
    9900012    2    1    2    0    0  0.13334134856E+02 -0.90912873615E+01  0.27500379105E+02  0.59301929230E+02  0.49999973012E+02 0.  0.
         12    1    1    2    0    0 -0.13334134856E+02  0.90912873615E+01 -0.27500379105E+02  0.31886070770E+02  0.00000000000E+00 0. -1.
         11    1    3    3    0    0  0.15932652507E+02 -0.14915137835E+01  0.23897496035E+02  0.28760464988E+02  0.51100000000E-03 0. -1.
        -11    1    3    3    0    0  0.10746946533E+01  0.69354128768E+01  0.11593909595E+02  0.13552625588E+02  0.51100000000E-03 0.  1.
         12    1    3    3    0    0 -0.36732123048E+01 -0.14535186455E+02 -0.79910265250E+01  0.16988838655E+02  0.00000000000E+00 0. -1.
</event>
<event>
 7    1  0.6963701E-013  0.5930193E+02  0.7816164E-02  0.1266605E+00
        -11   -1    0    0    0    0  0.00000000000E+00  0.00000000000E+00  0.45593999997E+02  0.45594000000E+02  0.51100000000E-03 0. -1.
         11   -1    0    0    0    0 -0.00000000000E+00 -0.00000000000E+00 -0.45593999997E+02  0.45594000000E+02  0.51100000000E-03 0.  1.
    9900012    2    1    2    0    0  0.23099335670E+01  0.27737196246E+02 -0.15557435980E+02  0.59301926819E+02  0.49999968615E+02 0.  0.
         12    1    1    2    0    0 -0.23099335670E+01 -0.27737196246E+02  0.15557435980E+02  0.31886073181E+02  0.00000000000E+00 0. -1.
         11    1    3    3    0    0  0.10059560488E+02  0.20333471764E+01  0.44033388546E+01  0.11167750503E+02  0.51100000000E-03 0. -1.
        -11    1    3    3    0    0  0.84923899282E+01  0.12923865301E+02  0.45053253626E+01  0.16107294555E+02  0.51100000000E-03 0.  1.
        -12    1    3    3    0    0 -0.16242016850E+02  0.12779983768E+02 -0.24466100197E+02  0.32026881761E+02  0.00000000000E+00 0.  1.
</event>
<event>
 7    1  0.6963701E-013  0.5930180E+02  0.7816164E-02  0.1266605E+00
        -11   -1    0    0    0    0  0.00000000000E+00  0.00000000000E+00  0.45593999997E+02  0.45594000000E+02  0.51100000000E-03 0.  1.
         11   -1    0    0    0    0 -0.00000000000E+00 -0.00000000000E+00 -0.45593999997E+02  0.45594000000E+02  0.51100000000E-03 0. -1.
    9900012    2    1    2    0    0 -0.29674168276E+02 -0.81400324074E+01  0.83614154296E+01  0.59301801443E+02  0.49999739958E+02 0.  0.
         12    1    1    2    0    0  0.29674168276E+02  0.81400324074E+01 -0.83614154296E+01  0.31886198557E+02  0.00000000000E+00 0. -1.
         11    1    3    3    0    0 -0.11064477217E+02 -0.88247128709E+01 -0.18334215614E+02  0.23161210585E+02  0.51100000000E-03 0. -1.
        -11    1    3    3    0    0  0.21810600349E+01 -0.25114546537E+01  0.35889391898E+01  0.48933538726E+01  0.51100000000E-03 0.  1.
        -12    1    3    3    0    0 -0.20790751094E+02  0.31961351172E+01  0.23106691854E+02  0.31247236985E+02  0.00000000000E+00 0.  1.
</event>
<event>
 7    1  0.6963701E-013  0.5930194E+02  0.7816164E-02  0.1266605E+00
        -11   -1    0    0    0    0  0.00000000000E+00  0.00000000000E+00  0.45593999997E+02  0.45594000000E+02  0.51100000000E-03 0.  1.
         11   -1    0    0    0    0 -0.00000000000E+00 -0.00000000000E+00 -0.45593999997E+02  0.45594000000E+02  0.51100000000E-03 0. -1.
    9900012    2    1    2    0    0  0.76502772749E+01 -0.13382371081E+02  0.27912469281E+02  0.59301944435E+02  0.50000000743E+02 0.  0.
         12    1    1    2    0    0 -0.76502772749E+01  0.13382371081E+02 -0.27912469281E+02  0.31886055565E+02  0.00000000000E+00 0. -1.
         11    1    3    3    0    0  0.97324026357E+01 -0.19125201062E+01  0.23099201383E+02  0.25138625639E+02  0.51100000000E-03 0. -1.
        -11    1    3    3    0    0  0.30983984156E+01  0.77602461855E+01  0.10530783545E+02  0.13443172837E+02  0.51100000000E-03 0.  1.
         12    1    3    3    0    0 -0.51805237764E+01 -0.19230097160E+02 -0.57175156468E+01  0.20720145959E+02  0.00000000000E+00 0. -1.
</event>
<event>
 7    1  0.6963701E-013  0.5930194E+02  0.7816164E-02  0.1266605E+00
        -11   -1    0    0    0    0  0.00000000000E+00  0.00000000000E+00  0.45593999997E+02  0.45594000000E+02  0.51100000000E-03 0. -1.
         11   -1    0    0    0    0 -0.00000000000E+00 -0.00000000000E+00 -0.45593999997E+02  0.45594000000E+02  0.51100000000E-03 0.  1.
    9900012    2    1    2    0    0  0.31340041997E+02  0.52327520158E+01  0.26722522668E+01  0.59301939437E+02  0.49999991628E+02 0.  0.
         12    1    1    2    0    0 -0.31340041997E+02 -0.52327520158E+01 -0.26722522668E+01  0.31886060563E+02  0.00000000000E+00 0. -1.
         11    1    3    3    0    0  0.13395318347E+02  0.73063283237E+01  0.19403179131E+02  0.24684009963E+02  0.51100000000E-03 0. -1.
        -11    1    3    3    0    0  0.12166638011E+02 -0.57118801234E+01  0.29720069994E+01  0.13765372530E+02  0.51100000000E-03 0.  1.
        -12    1    3    3    0    0  0.57780856391E+01  0.36383038154E+01 -0.19702933863E+02  0.20852556945E+02  0.00000000000E+00 0.  1.
</event>
<event>
 7    1  0.6963701E-013  0.5930194E+02  0.7816164E-02  0.1266605E+00
        -11   -1    0    0    0    0  0.00000000000E+00  0.00000000000E+00  0.45593999997E+02  0.45594000000E+02  0.51100000000E-03 0.  1.
         11   -1    0    0    0    0 -0.00000000000E+00 -0.00000000000E+00 -0.45593999997E+02  0.45594000000E+02  0.51100000000E-03 0. -1.
    9900012    2    1    2    0    0 -0.14903220932E+02  0.15738190890E+02  0.23386405494E+02  0.59301943352E+02  0.49999998768E+02 0.  0.
         12    1    1    2    0    0  0.14903220932E+02 -0.15738190890E+02 -0.23386405494E+02  0.31886056648E+02  0.00000000000E+00 0. -1.
         11    1    3    3    0    0 -0.37672303158E+01  0.10533796068E+02  0.10028438389E+02  0.15024062721E+02  0.51100000000E-03 0. -1.
        -11    1    3    3    0    0 -0.19337274167E+02  0.16988817194E+02  0.15056718893E+02  0.29820376691E+02  0.51100000000E-03 0.  1.
        -12    1    3    3    0    0  0.82012835516E+01 -0.11784422373E+02 -0.16987517890E+01  0.14457503941E+02  0.00000000000E+00 0.  1.
</event>
<event>
 7    1  0.6963701E-013  0.5930193E+02  0.7816164E-02  0.1266605E+00
        -11   -1    0    0    0    0  0.00000000000E+00  0.00000000000E+00  0.45593999997E+02  0.45594000000E+02  0.51100000000E-03 0. -1.
         11   -1    0    0    0    0 -0.00000000000E+00 -0.00000000000E+00 -0.45593999997E+02  0.45594000000E+02  0.51100000000E-03 0.  1.
    9900012    2    1    2    0    0  0.21690283922E+02 -0.74897317135E+01 -0.22139484544E+02  0.59301932923E+02  0.49999979748E+02 0.  0.
         12    1    1    2    0    0 -0.21690283922E+02  0.74897317135E+01  0.22139484544E+02  0.31886067077E+02  0.00000000000E+00 0. -1.
         11    1    3    3    0    0  0.11604821430E+02  0.98423260898E+01 -0.22420756155E+01  0.15380837643E+02  0.51100000000E-03 0. -1.
        -11    1    3    3    0    0  0.17928584849E+02 -0.19052870904E+02 -0.23456832619E+02  0.35137857663E+02  0.51100000000E-03 0.  1.
         12    1    3    3    0    0 -0.78431223573E+01  0.17208131003E+01  0.35594236906E+01  0.87832376176E+01  0.00000000000E+00 0. -1.
</event>
<event>
 7    1  0.6963701E-013  0.5930182E+02  0.7816164E-02  0.1266605E+00
        -11   -1    0    0    0    0  0.00000000000E+00  0.00000000000E+00  0.45593999997E+02  0.45594000000E+02  0.51100000000E-03 0. -1.
         11   -1    0    0    0    0 -0.00000000000E+00 -0.00000000000E+00 -0.45593999997E+02  0.45594000000E+02  0.51100000000E-03 0.  1.
    9900012    2    1    2    0    0  0.27223457450E+02  0.16567072858E+02 -0.10694541344E+01  0.59301823203E+02  0.49999779644E+02 0.  0.
         12    1    1    2    0    0 -0.27223457450E+02 -0.16567072858E+02  0.10694541344E+01  0.31886176797E+02  0.00000000000E+00 0. -1.
         11    1    3    3    0    0  0.54673850192E+01  0.98198904239E-01 -0.18358569228E+02  0.19155652073E+02  0.51100000000E-03 0. -1.
        -11    1    3    3    0    0 -0.92550940285E+00 -0.14993873147E+01 -0.39011305681E+01  0.42806015868E+01  0.51100000000E-03 0.  1.
        -12    1    3    3    0    0  0.22681581833E+02  0.17968261269E+02  0.21190245661E+02  0.35865569543E+02  0.00000000000E+00 0.  1.
</event>
<event>
 7    1  0.6963701E-013  0.5930195E+02  0.7816164E-02  0.1266605E+00
        -11   -1    0    0    0    0  0.00000000000E+00  0.00000000000E+00  0.45593999997E+02  0.45594000000E+02  0.51100000000E-03 0.  1.
         11   -1    0    0    0    0 -0.00000000000E+00 -0.00000000000E+00 -0.45593999997E+02  0.45594000000E+02  0.51100000000E-03 0. -1.
    9900012    2    1    2    0    0  0.24133281250E+02 -0.14415533966E+02  0.15049830580E+02  0.59301948443E+02  0.50000008052E+02 0.  0.
         12    1    1    2    0    0 -0.24133281250E+02  0.14415533966E+02 -0.15049830580E+02  0.31886051557E+02  0.00000000000E+00 0. -1.
         11    1    3    3    0    0  0.82379814797E+01 -0.12966920883E+02  0.20227478741E+01  0.15495060028E+02  0.51100000000E-03 0. -1.
        -11    1    3    3    0    0  0.14174460936E+02 -0.19183437218E+02  0.55858279168E+01  0.24497368840E+02  0.51100000000E-03 0.  1.
         12    1    3    3    0    0  0.17208388346E+01  0.17734824135E+02  0.74412547889E+01  0.19309519575E+02  0.00000000000E+00 0. -1.
</event>
<event>
 7    1  0.6963701E-013  0.5930194E+02  0.7816164E-02  0.1266605E+00
        -11   -1    0    0    0    0  0.00000000000E+00  0.00000000000E+00  0.45593999997E+02  0.45594000000E+02  0.51100000000E-03 0.  1.
         11   -1    0    0    0    0 -0.00000000000E+00 -0.00000000000E+00 -0.45593999997E+02  0.45594000000E+02  0.51100000000E-03 0. -1.
    9900012    2    1    2    0    0  0.17820900238E+02 -0.12140157012E+02  0.23489425693E+02  0.59301936948E+02  0.49999987088E+02 0.  0.
         12    1    1    2    0    0 -0.17820900238E+02  0.12140157012E+02 -0.23489425693E+02  0.31886063052E+02  0.00000000000E+00 0. -1.
         11    1    3    3    0    0  0.31333786907E+01  0.54185048812E+01  0.98613811206E+00  0.63364600373E+01  0.51100000000E-03 0. -1.
        -11    1    3    3    0    0  0.23686472634E+02 -0.13094153396E+02  0.30019906323E+02  0.40419062519E+02  0.51100000000E-03 0.  1.
        -12    1    3    3    0    0 -0.89989510865E+01 -0.44645084975E+01 -0.75166187415E+01  0.12546414392E+02  0.00000000000E+00 0.  1.
</event>
<event>
 7    1  0.6963701E-013  0.5930193E+02  0.7816164E-02  0.1266605E+00
        -11   -1    0    0    0    0  0.00000000000E+00  0.00000000000E+00  0.45593999997E+02  0.45594000000E+02  0.51100000000E-03 0.  1.
         11   -1    0    0    0    0 -0.00000000000E+00 -0.00000000000E+00 -0.45593999997E+02  0.45594000000E+02  0.51100000000E-03 0. -1.
    9900012    2    1    2    0    0  0.14143471882E+01 -0.15187198316E+02  0.28001246242E+02  0.59301934677E+02  0.49999982946E+02 0.  0.
         12    1    1    2    0    0 -0.14143471882E+01  0.15187198316E+02 -0.28001246242E+02  0.31886065323E+02  0.00000000000E+00 0. -1.
         11    1    3    3    0    0 -0.61924899311E+01 -0.59069641911E+00 -0.25104488777E+01  0.67080703362E+01  0.51100000000E-03 0. -1.
        -11    1    3    3    0    0 -0.10938014562E+02 -0.17692989997E+02  0.25929686926E+02  0.33242002375E+02  0.51100000000E-03 0.  1.
         12    1    3    3    0    0  0.18544851681E+02  0.30964881002E+01  0.45820081944E+01  0.19351861965E+02  0.00000000000E+00 0. -1.
</event>
<event>
 7    1  0.6963701E-013  0.5930196E+02  0.7816164E-02  0.1266605E+00
        -11   -1    0    0    0    0  0.00000000000E+00  0.00000000000E+00  0.45593999997E+02  0.45594000000E+02  0.51100000000E-03 0.  1.
         11   -1    0    0    0    0 -0.00000000000E+00 -0.00000000000E+00 -0.45593999997E+02  0.45594000000E+02  0.51100000000E-03 0. -1.
    9900012    2    1    2    0    0  0.10996110547E+02  0.17560017310E+02  0.24237381471E+02  0.59301963626E+02  0.50000035742E+02 0.  0.
         12    1    1    2    0    0 -0.10996110547E+02 -0.17560017310E+02 -0.24237381471E+02  0.31886036374E+02  0.00000000000E+00 0. -1.
         11    1    3    3    0    0  0.13263203661E+02  0.27353143856E+02  0.19332995396E+01  0.30460543290E+02  0.51100000000E-03 0.  1.
        -11    1    3    3    0    0 -0.29048634002E+01  0.27304226549E+01  0.98288694823E+00  0.41060329105E+01  0.51100000000E-03 0. -1.
         12    1    3    3    0    0  0.63777028548E+00 -0.12523549201E+02  0.21321194983E+02  0.24735387425E+02  0.00000000000E+00 0. -1.
</event>
<event>
 7    1  0.6963701E-013  0.5930194E+02  0.7816164E-02  0.1266605E+00
        -11   -1    0    0    0    0  0.00000000000E+00  0.00000000000E+00  0.45593999997E+02  0.45594000000E+02  0.51100000000E-03 0. -1.
         11   -1    0    0    0    0 -0.00000000000E+00 -0.00000000000E+00 -0.45593999997E+02  0.45594000000E+02  0.51100000000E-03 0.  1.
    9900012    2    1    2    0    0  0.19245610379E+02  0.76054581352E+01 -0.24258689483E+02  0.59301944619E+02  0.50000001079E+02 0.  0.
         12    1    1    2    0    0 -0.19245610379E+02 -0.76054581352E+01  0.24258689483E+02  0.31886055381E+02  0.00000000000E+00 0. -1.
         11    1    3    3    0    0 -0.88999329400E+01 -0.34769981122E+01  0.14763293594E+00  0.95561560239E+01  0.51100000000E-03 0. -1.
        -11    1    3    3    0    0 -0.26427452739E+01  0.10135057121E+02 -0.45414601703E-01  0.10474041636E+02  0.51100000000E-03 0.  1.
        -12    1    3    3    0    0  0.30788288593E+02  0.94739912591E+00 -0.24360907818E+02  0.39271746960E+02  0.00000000000E+00 0.  1.
</event>
<event>
 7    1  0.6963701E-013  0.5930195E+02  0.7816164E-02  0.1266605E+00
        -11   -1    0    0    0    0  0.00000000000E+00  0.00000000000E+00  0.45593999997E+02  0.45594000000E+02  0.51100000000E-03 0.  1.
         11   -1    0    0    0    0 -0.00000000000E+00 -0.00000000000E+00 -0.45593999997E+02  0.45594000000E+02  0.51100000000E-03 0. -1.
    9900012    2    1    2    0    0  0.11515115639E+02 -0.28957763962E+02  0.67505645645E+01  0.59301951268E+02  0.50000013204E+02 0.  0.
         12    1    1    2    0    0 -0.11515115639E+02  0.28957763962E+02 -0.67505645645E+01  0.31886048732E+02  0.00000000000E+00 0. -1.
         11    1    3    3    0    0 -0.59650992200E+01 -0.44631186893E+00 -0.10294200002E+02  0.11905971482E+02  0.51100000000E-03 0. -1.
        -11    1    3    3    0    0 -0.19937980237E+01  0.27012423663E+01 -0.38328336920E+01  0.50953464311E+01  0.51100000000E-03 0.  1.
        -12    1    3    3    0    0  0.19474012882E+02 -0.31212694459E+02  0.20877598259E+02  0.42300633354E+02  0.00000000000E+00 0.  1.
</event>
<event>
 7    1  0.6963701E-013  0.5930195E+02  0.7816164E-02  0.1266605E+00
        -11   -1    0    0    0    0  0.00000000000E+00  0.00000000000E+00  0.45593999997E+02  0.45594000000E+02  0.51100000000E-03 0. -1.
         11   -1    0    0    0    0 -0.00000000000E+00 -0.00000000000E+00 -0.45593999997E+02  0.45594000000E+02  0.51100000000E-03 0.  1.
    9900012    2    1    2    0    0 -0.14656345260E+02  0.63420637988E+01 -0.27598734122E+02  0.59301947332E+02  0.50000006027E+02 0.  0.
         12    1    1    2    0    0  0.14656345260E+02 -0.63420637988E+01  0.27598734122E+02  0.31886052668E+02  0.00000000000E+00 0. -1.
         11    1    3    3    0    0  0.95488634301E+01 -0.41353740073E+01 -0.14524669701E+02  0.17867516368E+02  0.51100000000E-03 0. -1.
        -11    1    3    3    0    0  0.50797482855E+01  0.86088622249E+00 -0.89626076575E+01  0.10337954537E+02  0.51100000000E-03 0.  1.
         12    1    3    3    0    0 -0.29284956976E+02  0.96165515836E+01 -0.41114567630E+01  0.31096476426E+02  0.00000000000E+00 0. -1.
</event>
<event>
 7    1  0.6963701E-013  0.5930195E+02  0.7816164E-02  0.1266605E+00
        -11   -1    0    0    0    0  0.00000000000E+00  0.00000000000E+00  0.45593999997E+02  0.45594000000E+02  0.51100000000E-03 0.  1.
         11   -1    0    0    0    0 -0.00000000000E+00 -0.00000000000E+00 -0.45593999997E+02  0.45594000000E+02  0.51100000000E-03 0. -1.
    9900012    2    1    2    0    0  0.22257981822E+02 -0.22726017521E+02  0.21978385004E+01  0.59301950994E+02  0.50000012705E+02 0.  0.
         12    1    1    2    0    0 -0.22257981822E+02  0.22726017521E+02 -0.21978385004E+01  0.31886049006E+02  0.00000000000E+00 0. -1.
         11    1    3    3    0    0 -0.47487210482E+01 -0.90645283571E+01  0.98093637387E+01  0.14175318097E+02  0.51100000000E-03 0. -1.
        -11    1    3    3    0    0  0.12157015810E+02 -0.22706503467E+02  0.89106764667E+00  0.25771541182E+02  0.51100000000E-03 0.  1.
        -12    1    3    3    0    0  0.14849687060E+02  0.90450143031E+01 -0.85025928849E+01  0.19355091715E+02  0.00000000000E+00 0.  1.
</event>
<event>
 7    1  0.6963701E-013  0.5930196E+02  0.7816164E-02  0.1266605E+00
        -11   -1    0    0    0    0  0.00000000000E+00  0.00000000000E+00  0.45593999997E+02  0.45594000000E+02  0.51100000000E-03 0.  1.
         11   -1    0    0    0    0 -0.00000000000E+00 -0.00000000000E+00 -0.45593999997E+02  0.45594000000E+02  0.51100000000E-03 0. -1.
    9900012    2    1    2    0    0  0.20394407765E+02 -0.18345920674E+02  0.16254694149E+02  0.59301956731E+02  0.50000023168E+02 0.  0.
         12    1    1    2    0    0 -0.20394407765E+02  0.18345920674E+02 -0.16254694149E+02  0.31886043269E+02  0.00000000000E+00 0. -1.
         11    1    3    3    0    0  0.53414861305E+01 -0.81327585688E+01  0.24285797299E+02  0.26162438471E+02  0.51100000000E-03 0. -1.
        -11    1    3    3    0    0 -0.11415174293E+01 -0.83351874008E+01  0.70154845736E+01  0.10954242790E+02  0.51100000000E-03 0.  1.
        -12    1    3    3    0    0  0.16194439064E+02 -0.18779747044E+01 -0.15046587723E+02  0.22185275470E+02  0.00000000000E+00 0.  1.
</event>
<event>
 7    1  0.6963701E-013  0.5930195E+02  0.7816164E-02  0.1266605E+00
        -11   -1    0    0    0    0  0.00000000000E+00  0.00000000000E+00  0.45593999997E+02  0.45594000000E+02  0.51100000000E-03 0. -1.
         11   -1    0    0    0    0 -0.00000000000E+00 -0.00000000000E+00 -0.45593999997E+02  0.45594000000E+02  0.51100000000E-03 0.  1.
    9900012    2    1    2    0    0  0.25837221952E+02 -0.94596421766E+01  0.16114386950E+02  0.59301947640E+02  0.50000006588E+02 0.  0.
         12    1    1    2    0    0 -0.25837221952E+02  0.94596421766E+01 -0.16114386950E+02  0.31886052360E+02  0.00000000000E+00 0. -1.
         11    1    3    3    0    0  0.29724158313E+01 -0.10537331400E+01  0.11888355712E+02  0.12299537032E+02  0.51100000000E-03 0. -1.
        -11    1    3    3    0    0 -0.59450252393E+01  0.85245433043E+01 -0.60703908345E+01  0.12035813591E+02  0.51100000000E-03 0.  1.
        -12    1    3    3    0    0  0.28809831360E+02 -0.16930452341E+02  0.10296422072E+02  0.34966597017E+02  0.00000000000E+00 0.  1.
</event>
<event>
 7    1  0.6963701E-013  0.5930194E+02  0.7816164E-02  0.1266605E+00
        -11   -1    0    0    0    0  0.00000000000E+00  0.00000000000E+00  0.45593999997E+02  0.45594000000E+02  0.51100000000E-03 0.  1.
         11   -1    0    0    0    0 -0.00000000000E+00 -0.00000000000E+00 -0.45593999997E+02  0.45594000000E+02  0.51100000000E-03 0. -1.
    9900012    2    1    2    0    0  0.31757179422E+02  0.18929695202E+01 -0.21492336721E+01  0.59301937468E+02  0.49999988036E+02 0.  0.
         12    1    1    2    0    0 -0.31757179422E+02 -0.18929695202E+01  0.21492336721E+01  0.31886062532E+02  0.00000000000E+00 0. -1.
         11    1    3    3    0    0  0.16866405274E+02  0.31155733888E+01  0.48007583179E+01  0.17810943409E+02  0.51100000000E-03 0. -1.
        -11    1    3    3    0    0 -0.76189680486E+01  0.37888754682E+01  0.98077124709E+01  0.12984432048E+02  0.51100000000E-03 0.  1.
        -12    1    3    3    0    0  0.22509742196E+02 -0.50114793367E+01 -0.16757704461E+02  0.28506562011E+02  0.00000000000E+00 0.  1.
</event>
<event>
 7    1  0.6963701E-013  0.5930196E+02  0.7816164E-02  0.1266605E+00
        -11   -1    0    0    0    0  0.00000000000E+00  0.00000000000E+00  0.45593999997E+02  0.45594000000E+02  0.51100000000E-03 0.  1.
         11   -1    0    0    0    0 -0.00000000000E+00 -0.00000000000E+00 -0.45593999997E+02  0.45594000000E+02  0.51100000000E-03 0. -1.
    9900012    2    1    2    0    0 -0.29009760917E+02 -0.10648182059E+02 -0.78593523931E+01  0.59301961838E+02  0.50000032482E+02 0.  0.
         12    1    1    2    0    0  0.29009760917E+02  0.10648182059E+02  0.78593523931E+01  0.31886038162E+02  0.00000000000E+00 0. -1.
         11    1    3    3    0    0 -0.42407394135E+01  0.12887905151E+02 -0.69489968380E+00  0.13585464872E+02  0.51100000000E-03 0. -1.
        -11    1    3    3    0    0 -0.15926115239E+02 -0.13887038905E+01 -0.13629791383E+02  0.21008114111E+02  0.51100000000E-03 0.  1.
        -12    1    3    3    0    0 -0.88429062647E+01 -0.22147383320E+02  0.64653386739E+01  0.24708382855E+02  0.00000000000E+00 0.  1.
</event>
<event>
 7    1  0.6963701E-013  0.5930193E+02  0.7816164E-02  0.1266605E+00
        -11   -1    0    0    0    0  0.00000000000E+00  0.00000000000E+00  0.45593999997E+02  0.45594000000E+02  0.51100000000E-03 0.  1.
         11   -1    0    0    0    0 -0.00000000000E+00 -0.00000000000E+00 -0.45593999997E+02  0.45594000000E+02  0.51100000000E-03 0. -1.
    9900012    2    1    2    0    0  0.16378575424E+01 -0.23391505399E+02  0.21607320094E+02  0.59301931195E+02  0.49999976597E+02 0.  0.
         12    1    1    2    0    0 -0.16378575424E+01  0.23391505399E+02 -0.21607320094E+02  0.31886068805E+02  0.00000000000E+00 0. -1.
         11    1    3    3    0    0  0.12830021443E+02 -0.22860129947E+01 -0.10766151877E+02  0.16904003435E+02  0.51100000000E-03 0. -1.
        -11    1    3    3    0    0 -0.99728256022E+01 -0.51048634140E+01  0.15346232422E+02  0.19000624484E+02  0.51100000000E-03 0.  1.
        -12    1    3    3    0    0 -0.12193382981E+01 -0.16000628990E+02  0.17027239549E+02  0.23397303276E+02  0.00000000000E+00 0.  1.
</event>
<event>
 7    1  0.6963701E-013  0.5930194E+02  0.7816164E-02  0.1266605E+00
        -11   -1    0    0    0    0  0.00000000000E+00  0.00000000000E+00  0.45593999997E+02  0.45594000000E+02  0.51100000000E-03 0.  1.
         11   -1    0    0    0    0 -0.00000000000E+00 -0.00000000000E+00 -0.45593999997E+02  0.45594000000E+02  0.51100000000E-03 0. -1.
    9900012    2    1    2    0    0  0.11110890371E+02 -0.19189140801E+02  0.22913875792E+02  0.59301941709E+02  0.49999995771E+02 0.  0.
         12    1    1    2    0    0 -0.11110890371E+02  0.19189140801E+02 -0.22913875792E+02  0.31886058291E+02  0.00000000000E+00 0. -1.
         11    1    3    3    0    0  0.73182886078E+01 -0.13237192278E+02  0.76031689877E+01  0.16928933412E+02  0.51100000000E-03 0. -1.
        -11    1    3    3    0    0  0.11206959182E+02 -0.16716585113E+02  0.20108036132E+02  0.28449486274E+02  0.51100000000E-03 0.  1.
        -12    1    3    3    0    0 -0.74143574186E+01  0.10764636590E+02 -0.47973293277E+01  0.13923522023E+02  0.00000000000E+00 0.  1.
</event>
<event>
 7    1  0.6963701E-013  0.5930195E+02  0.7816164E-02  0.1266605E+00
        -11   -1    0    0    0    0  0.00000000000E+00  0.00000000000E+00  0.45593999997E+02  0.45594000000E+02  0.51100000000E-03 0.  1.
         11   -1    0    0    0    0 -0.00000000000E+00 -0.00000000000E+00 -0.45593999997E+02  0.45594000000E+02  0.51100000000E-03 0. -1.
    9900012    2    1    2    0    0  0.14220410286E+02  0.44271709233E+01  0.28193970613E+02  0.59301954619E+02  0.50000019316E+02 0.  0.
         12    1    1    2    0    0 -0.14220410286E+02 -0.44271709233E+01 -0.28193970613E+02  0.31886045381E+02  0.00000000000E+00 0. -1.
         11    1    3    3    0    0  0.37230560754E+01 -0.19588228220E+02  0.52359042901E+01  0.20614910268E+02  0.51100000000E-03 0.  1.
        -11    1    3    3    0    0  0.78090637984E+01  0.12401056294E+01  0.36531551067E+01  0.87100448837E+01  0.51100000000E-03 0. -1.
        -12    1    3    3    0    0  0.26882904123E+01  0.22775293514E+02  0.19304911216E+02  0.29976999468E+02  0.00000000000E+00 0.  1.
</event>
<event>
 7    1  0.7642585E-013  0.5930196E+02  0.7816164E-02  0.1266605E+00
        -11   -1    0    0    0    0  0.00000000000E+00  0.00000000000E+00  0.45593999997E+02  0.45594000000E+02  0.51100000000E-03 0. -1.
         11   -1    0    0    0    0 -0.00000000000E+00 -0.00000000000E+00 -0.45593999997E+02  0.45594000000E+02  0.51100000000E-03 0.  1.
    9900012    2    1    2    0    0  0.73926767314E+01  0.16339903108E+02 -0.26364283727E+02  0.59301959806E+02  0.50000028776E+02 0.  0.
         12    1    1    2    0    0 -0.73926767314E+01 -0.16339903108E+02  0.26364283727E+02  0.31886040194E+02  0.00000000000E+00 0. -1.
         11    1    3    3    0    0  0.92510127123E+01 -0.82168670828E+01  0.61580196931E+01  0.13820974917E+02  0.51100000000E-03 0.  1.
        -11    1    3    3    0    0  0.48357154021E+01  0.17041575490E+01  0.56064691871E-01  0.51275179096E+01  0.51100000000E-03 0. -1.
        -12    1    3    3    0    0 -0.66940513831E+01  0.22852612641E+02 -0.32578368112E+02  0.40353466980E+02  0.00000000000E+00 0.  1.
</event>
<event>
 7    1  0.6963701E-013  0.5930197E+02  0.7816164E-02  0.1266605E+00
        -11   -1    0    0    0    0  0.00000000000E+00  0.00000000000E+00  0.45593999997E+02  0.45594000000E+02  0.51100000000E-03 0.  1.
         11   -1    0    0    0    0 -0.00000000000E+00 -0.00000000000E+00 -0.45593999997E+02  0.45594000000E+02  0.51100000000E-03 0. -1.
    9900012    2    1    2    0    0 -0.18387884848E+02  0.16269521223E+02  0.20344709195E+02  0.59301971363E+02  0.50000049853E+02 0.  0.
         12    1    1    2    0    0  0.18387884848E+02 -0.16269521223E+02 -0.20344709195E+02  0.31886028637E+02  0.00000000000E+00 0. -1.
         11    1    3    3    0    0 -0.15977128949E+02  0.72866770381E+01 -0.79438037369E+01  0.19273513686E+02  0.51100000000E-03 0. -1.
        -11    1    3    3    0    0 -0.38498500269E+01 -0.53179815304E+01 -0.16927859855E+01  0.67799555633E+01  0.51100000000E-03 0.  1.
        -12    1    3    3    0    0  0.14390941284E+01  0.14300825716E+02  0.29981298917E+02  0.33248502114E+02  0.00000000000E+00 0.  1.
</event>
<event>
 7    1  0.6963701E-013  0.5930196E+02  0.7816164E-02  0.1266605E+00
        -11   -1    0    0    0    0  0.00000000000E+00  0.00000000000E+00  0.45593999997E+02  0.45594000000E+02  0.51100000000E-03 0.  1.
         11   -1    0    0    0    0 -0.00000000000E+00 -0.00000000000E+00 -0.45593999997E+02  0.45594000000E+02  0.51100000000E-03 0. -1.
    9900012    2    1    2    0    0 -0.19105122388E+02  0.20518397230E+02 -0.15189117430E+02  0.59301958937E+02  0.50000027191E+02 0.  0.
         12    1    1    2    0    0  0.19105122388E+02 -0.20518397230E+02  0.15189117430E+02  0.31886041063E+02  0.00000000000E+00 0. -1.
         11    1    3    3    0    0  0.72264926296E+01 -0.37175543856E+00 -0.13850036992E+02  0.15626385468E+02  0.51100000000E-03 0. -1.
        -11    1    3    3    0    0 -0.89389436726E+01 -0.53742898467E+01  0.49621095347E+01  0.11550334914E+02  0.51100000000E-03 0.  1.
         12    1    3    3    0    0 -0.17392671345E+02  0.26264442515E+02 -0.63011899725E+01  0.32125238555E+02  0.00000000000E+00 0. -1.
</event>
<event>
 7    1  0.6963701E-013  0.5930195E+02  0.7816164E-02  0.1266605E+00
        -11   -1    0    0    0    0  0.00000000000E+00  0.00000000000E+00  0.45593999997E+02  0.45594000000E+02  0.51100000000E-03 0.  1.
         11   -1    0    0    0    0 -0.00000000000E+00 -0.00000000000E+00 -0.45593999997E+02  0.45594000000E+02  0.51100000000E-03 0. -1.
    9900012    2    1    2    0    0  0.17020474318E+02  0.15426579337E+01  0.26919214997E+02  0.59301945437E+02  0.50000002571E+02 0.  0.
         12    1    1    2    0    0 -0.17020474318E+02 -0.15426579337E+01 -0.26919214997E+02  0.31886054563E+02  0.00000000000E+00 0. -1.
         11    1    3    3    0    0 -0.57895462689E+01  0.17803486319E+02  0.77916699787E+01  0.20277896647E+02  0.51100000000E-03 0.  1.
        -11    1    3    3    0    0  0.12609758243E+02 -0.10979351232E+02  0.84584108867E-02  0.16719815436E+02  0.51100000000E-03 0. -1.
        -12    1    3    3    0    0  0.10200262344E+02 -0.52814771534E+01  0.19119086608E+02  0.22304233354E+02  0.00000000000E+00 0.  1.
</event>
<event>
 7    1  0.6963701E-013  0.5930197E+02  0.7816164E-02  0.1266605E+00
        -11   -1    0    0    0    0  0.00000000000E+00  0.00000000000E+00  0.45593999997E+02  0.45594000000E+02  0.51100000000E-03 0.  1.
         11   -1    0    0    0    0 -0.00000000000E+00 -0.00000000000E+00 -0.45593999997E+02  0.45594000000E+02  0.51100000000E-03 0. -1.
    9900012    2    1    2    0    0 -0.28318444879E+02 -0.11618283235E+02 -0.89330783594E+01  0.59301973050E+02  0.50000052929E+02 0.  0.
         12    1    1    2    0    0  0.28318444879E+02  0.11618283235E+02  0.89330783594E+01  0.31886026950E+02  0.00000000000E+00 0. -1.
         11    1    3    3    0    0 -0.16970131608E+02 -0.36271386417E+01 -0.44120699782E+01  0.17905526054E+02  0.51100000000E-03 0. -1.
        -11    1    3    3    0    0 -0.70037712436E+01 -0.11711312679E+01  0.16990824614E+02  0.18415006962E+02  0.51100000000E-03 0.  1.
        -12    1    3    3    0    0 -0.43445420272E+01 -0.68200133249E+01 -0.21511832996E+02  0.22981440033E+02  0.00000000000E+00 0.  1.
</event>
<event>
 7    1  0.6963701E-013  0.5930192E+02  0.7816164E-02  0.1266605E+00
        -11   -1    0    0    0    0  0.00000000000E+00  0.00000000000E+00  0.45593999997E+02  0.45594000000E+02  0.51100000000E-03 0.  1.
         11   -1    0    0    0    0 -0.00000000000E+00 -0.00000000000E+00 -0.45593999997E+02  0.45594000000E+02  0.51100000000E-03 0. -1.
    9900012    2    1    2    0    0  0.31743187608E+01 -0.17249345356E+02  0.26629039330E+02  0.59301922310E+02  0.49999960391E+02 0.  0.
         12    1    1    2    0    0 -0.31743187608E+01  0.17249345356E+02 -0.26629039330E+02  0.31886077690E+02  0.00000000000E+00 0. -1.
         11    1    3    3    0    0  0.73896436255E+01 -0.52988835669E+00 -0.27071374301E+01  0.78877251416E+01  0.51100000000E-03 0. -1.
        -11    1    3    3    0    0 -0.48612997463E+00  0.11550567875E+02  0.16490932598E+02  0.20139582885E+02  0.51100000000E-03 0.  1.
        -12    1    3    3    0    0 -0.37291948901E+01 -0.28270024875E+02  0.12845244163E+02  0.31274614283E+02  0.00000000000E+00 0.  1.
</event>
<event>
 7    1  0.6963701E-013  0.5930192E+02  0.7816164E-02  0.1266605E+00
        -11   -1    0    0    0    0  0.00000000000E+00  0.00000000000E+00  0.45593999997E+02  0.45594000000E+02  0.51100000000E-03 0. -1.
         11   -1    0    0    0    0 -0.00000000000E+00 -0.00000000000E+00 -0.45593999997E+02  0.45594000000E+02  0.51100000000E-03 0.  1.
    9900012    2    1    2    0    0 -0.30883882722E+02 -0.48631404648E+01 -0.62655966245E+01  0.59301920777E+02  0.49999957597E+02 0.  0.
         12    1    1    2    0    0  0.30883882722E+02  0.48631404648E+01  0.62655966245E+01  0.31886079223E+02  0.00000000000E+00 0. -1.
         11    1    3    3    0    0 -0.37578526081E+01 -0.41914595942E+01  0.30332160328E+01  0.63945437301E+01  0.51100000000E-03 0. -1.
        -11    1    3    3    0    0 -0.98676594563E+01 -0.22280350383E+02 -0.56372788594E+01  0.25011270050E+02  0.51100000000E-03 0.  1.
        -12    1    3    3    0    0 -0.17258370657E+02  0.21608669512E+02 -0.36615337979E+01  0.27896106997E+02  0.00000000000E+00 0.  1.
</event>
<event>
 7    1  0.6963701E-013  0.5930195E+02  0.7816164E-02  0.1266605E+00
        -11   -1    0    0    0    0  0.00000000000E+00  0.00000000000E+00  0.45593999997E+02  0.45594000000E+02  0.51100000000E-03 0. -1.
         11   -1    0    0    0    0 -0.00000000000E+00 -0.00000000000E+00 -0.45593999997E+02  0.45594000000E+02  0.51100000000E-03 0.  1.
    9900012    2    1    2    0    0 -0.14368698179E+02  0.27689628405E+02 -0.65988746178E+01  0.59301950467E+02  0.50000011744E+02 0.  0.
         12    1    1    2    0    0  0.14368698179E+02 -0.27689628405E+02  0.65988746178E+01  0.31886049533E+02  0.00000000000E+00 0. -1.
         11    1    3    3    0    0 -0.62832913302E+01 -0.74141672463E+00 -0.15014977333E+01  0.65026105837E+01  0.51100000000E-03 0. -1.
        -11    1    3    3    0    0  0.71832113123E+01  0.59831342359E+01 -0.19821190193E+02  0.21915200226E+02  0.51100000000E-03 0.  1.
         12    1    3    3    0    0 -0.15268618161E+02  0.22447910894E+02  0.14723813308E+02  0.30884139657E+02  0.00000000000E+00 0. -1.
</event>
<event>
 7    1  0.6963701E-013  0.5930194E+02  0.7816164E-02  0.1266605E+00
        -11   -1    0    0    0    0  0.00000000000E+00  0.00000000000E+00  0.45593999997E+02  0.45594000000E+02  0.51100000000E-03 0.  1.
         11   -1    0    0    0    0 -0.00000000000E+00 -0.00000000000E+00 -0.45593999997E+02  0.45594000000E+02  0.51100000000E-03 0. -1.
    9900012    2    1    2    0    0 -0.19542761709E+02  0.20146857916E+02  0.15129617376E+02  0.59301941274E+02  0.49999994978E+02 0.  0.
         12    1    1    2    0    0  0.19542761709E+02 -0.20146857916E+02 -0.15129617376E+02  0.31886058726E+02  0.00000000000E+00 0. -1.
         11    1    3    3    0    0 -0.44874673819E+01  0.47987290604E+01  0.78432625099E+01  0.10231418824E+02  0.51100000000E-03 0. -1.
        -11    1    3    3    0    0 -0.73919908594E+01  0.40340556641E+01  0.25182786244E+02  0.26553490490E+02  0.51100000000E-03 0.  1.
         12    1    3    3    0    0 -0.76633034677E+01  0.11314073192E+02 -0.17896431377E+02  0.22517031959E+02  0.00000000000E+00 0. -1.
</event>
<event>
 7    1  0.6963701E-013  0.5930194E+02  0.7816164E-02  0.1266605E+00
        -11   -1    0    0    0    0  0.00000000000E+00  0.00000000000E+00  0.45593999997E+02  0.45594000000E+02  0.51100000000E-03 0. -1.
         11   -1    0    0    0    0 -0.00000000000E+00 -0.00000000000E+00 -0.45593999997E+02  0.45594000000E+02  0.51100000000E-03 0.  1.
    9900012    2    1    2    0    0 -0.41401836918E+01  0.16710362326E+02 -0.26839218648E+02  0.59301937407E+02  0.49999987925E+02 0.  0.
         12    1    1    2    0    0  0.41401836918E+01 -0.16710362326E+02  0.26839218648E+02  0.31886062593E+02  0.00000000000E+00 0. -1.
         11    1    3    3    0    0  0.11275486743E+02  0.13125978465E+02  0.23268321680E+00  0.17305549795E+02  0.51100000000E-03 0. -1.
        -11    1    3    3    0    0 -0.54146452017E+01  0.13331624300E+02 -0.23543081911E+02  0.27592160033E+02  0.51100000000E-03 0.  1.
         12    1    3    3    0    0 -0.10001025234E+02 -0.97472404387E+01 -0.35288199536E+01  0.14404227579E+02  0.00000000000E+00 0. -1.
</event>
<event>
 7    1  0.6963701E-013  0.5930195E+02  0.7816164E-02  0.1266605E+00
        -11   -1    0    0    0    0  0.00000000000E+00  0.00000000000E+00  0.45593999997E+02  0.45594000000E+02  0.51100000000E-03 0. -1.
         11   -1    0    0    0    0 -0.00000000000E+00 -0.00000000000E+00 -0.45593999997E+02  0.45594000000E+02  0.51100000000E-03 0.  1.
    9900012    2    1    2    0    0  0.21870822527E+02 -0.22340677716E+02  0.62674950957E+01  0.59301948918E+02  0.50000008919E+02 0.  0.
         12    1    1    2    0    0 -0.21870822527E+02  0.22340677716E+02 -0.62674950957E+01  0.31886051082E+02  0.00000000000E+00 0. -1.
         11    1    3    3    0    0  0.45582309231E+01 -0.27609363659E+01  0.31941928434E+01  0.62131398621E+01  0.51100000000E-03 0. -1.
        -11    1    3    3    0    0  0.26268389651E+02  0.50873986754E+01  0.16863741822E+01  0.26809583702E+02  0.51100000000E-03 0.  1.
         12    1    3    3    0    0 -0.89557980472E+01 -0.24667140026E+02  0.13869280702E+01  0.26279225353E+02  0.00000000000E+00 0. -1.
</event>
<event>
 7    1  0.6963701E-013  0.5930197E+02  0.7816164E-02  0.1266605E+00
        -11   -1    0    0    0    0  0.00000000000E+00  0.00000000000E+00  0.45593999997E+02  0.45594000000E+02  0.51100000000E-03 0.  1.
         11   -1    0    0    0    0 -0.00000000000E+00 -0.00000000000E+00 -0.45593999997E+02  0.45594000000E+02  0.51100000000E-03 0. -1.
    9900012    2    1    2    0    0  0.18304702457E+02 -0.18906892385E+02  0.18005178734E+02  0.59301965864E+02  0.50000039824E+02 0.  0.
         12    1    1    2    0    0 -0.18304702457E+02  0.18906892385E+02 -0.18005178734E+02  0.31886034136E+02  0.00000000000E+00 0. -1.
         11    1    3    3    0    0  0.77445274377E+01 -0.17570084323E+02 -0.97765722419E+01  0.21546854374E+02  0.51100000000E-03 0. -1.
        -11    1    3    3    0    0  0.16963775749E+02  0.18877515364E+01  0.13453445738E+02  0.21733119794E+02  0.51100000000E-03 0.  1.
        -12    1    3    3    0    0 -0.64036007295E+01 -0.32245595986E+01  0.14328305238E+02  0.16021991696E+02  0.00000000000E+00 0.  1.
</event>
<event>
 7    1  0.6963701E-013  0.5930195E+02  0.7816164E-02  0.1266605E+00
        -11   -1    0    0    0    0  0.00000000000E+00  0.00000000000E+00  0.45593999997E+02  0.45594000000E+02  0.51100000000E-03 0.  1.
         11   -1    0    0    0    0 -0.00000000000E+00 -0.00000000000E+00 -0.45593999997E+02  0.45594000000E+02  0.51100000000E-03 0. -1.
    9900012    2    1    2    0    0 -0.22885429242E+02 -0.22185835584E+02 -0.87524800038E+00  0.59301949269E+02  0.50000009559E+02 0.  0.
         12    1    1    2    0    0  0.22885429242E+02  0.22185835584E+02  0.87524800038E+00  0.31886050731E+02  0.00000000000E+00 0. -1.
         11    1    3    3    0    0 -0.13394936551E+01  0.15267056321E+01  0.17126190013E+01  0.26567155368E+01  0.51100000000E-03 0. -1.
        -11    1    3    3    0    0 -0.13581174492E+02  0.12684994690E+02  0.34472591775E+01  0.18900819743E+02  0.51100000000E-03 0.  1.
        -12    1    3    3    0    0 -0.79647610956E+01 -0.36397535906E+02 -0.60351261792E+01  0.37744413989E+02  0.00000000000E+00 0.  1.
</event>
<event>
 7    1  0.6963701E-013  0.5930194E+02  0.7816164E-02  0.1266605E+00
        -11   -1    0    0    0    0  0.00000000000E+00  0.00000000000E+00  0.45593999997E+02  0.45594000000E+02  0.51100000000E-03 0.  1.
         11   -1    0    0    0    0 -0.00000000000E+00 -0.00000000000E+00 -0.45593999997E+02  0.45594000000E+02  0.51100000000E-03 0. -1.
    9900012    2    1    2    0    0 -0.21804466441E+02 -0.46205474460E+01  0.22802113238E+02  0.59301943743E+02  0.49999999481E+02 0.  0.
         12    1    1    2    0    0  0.21804466441E+02  0.46205474460E+01 -0.22802113238E+02  0.31886056257E+02  0.00000000000E+00 0. -1.
         11    1    3    3    0    0 -0.19766522011E+02 -0.13227793249E+01  0.26829794222E+02  0.33351206811E+02  0.51100000000E-03 0. -1.
        -11    1    3    3    0    0 -0.20999009528E+00  0.99492858048E+01  0.35676636820E+01  0.10571688998E+02  0.51100000000E-03 0.  1.
         12    1    3    3    0    0 -0.18279543350E+01 -0.13247053926E+02 -0.75953446652E+01  0.15379047934E+02  0.00000000000E+00 0. -1.
</event>
<event>
 7    1  0.6963701E-013  0.5930194E+02  0.7816164E-02  0.1266605E+00
        -11   -1    0    0    0    0  0.00000000000E+00  0.00000000000E+00  0.45593999997E+02  0.45594000000E+02  0.51100000000E-03 0.  1.
         11   -1    0    0    0    0 -0.00000000000E+00 -0.00000000000E+00 -0.45593999997E+02  0.45594000000E+02  0.51100000000E-03 0. -1.
    9900012    2    1    2    0    0 -0.13447273245E+02 -0.13438450276E+01  0.28880539143E+02  0.59301943198E+02  0.49999998487E+02 0.  0.
         12    1    1    2    0    0  0.13447273245E+02  0.13438450276E+01 -0.28880539143E+02  0.31886056802E+02  0.00000000000E+00 0. -1.
         11    1    3    3    0    0 -0.27464300780E+02 -0.31098194649E+01  0.48679280496E+01  0.28065201196E+02  0.51100000000E-03 0. -1.
        -11    1    3    3    0    0 -0.59981699563E+00 -0.23284122194E+01 -0.45102668553E+00  0.24463665351E+01  0.51100000000E-03 0.  1.
        -12    1    3    3    0    0  0.14616844530E+02  0.40943866567E+01  0.24463637779E+02  0.28790375467E+02  0.00000000000E+00 0.  1.
</event>
<event>
 7    1  0.6963701E-013  0.5930194E+02  0.7816164E-02  0.1266605E+00
        -11   -1    0    0    0    0  0.00000000000E+00  0.00000000000E+00  0.45593999997E+02  0.45594000000E+02  0.51100000000E-03 0.  1.
         11   -1    0    0    0    0 -0.00000000000E+00 -0.00000000000E+00 -0.45593999997E+02  0.45594000000E+02  0.51100000000E-03 0. -1.
    9900012    2    1    2    0    0  0.55988711863E+00 -0.24698594281E+02  0.20159042798E+02  0.59301936594E+02  0.49999986442E+02 0.  0.
         12    1    1    2    0    0 -0.55988711863E+00  0.24698594281E+02 -0.20159042798E+02  0.31886063406E+02  0.00000000000E+00 0. -1.
         11    1    3    3    0    0  0.67526446109E+01  0.53644190398E+01  0.62231023979E+01  0.10634952026E+02  0.51100000000E-03 0. -1.
        -11    1    3    3    0    0 -0.69880248046E+01 -0.54933144124E+01  0.21237803805E+02  0.23022886539E+02  0.51100000000E-03 0.  1.
         12    1    3    3    0    0  0.79526731238E+00 -0.24569698908E+02 -0.73018634048E+01  0.25644098029E+02  0.00000000000E+00 0. -1.
</event>
<event>
 7    1  0.6963701E-013  0.5930195E+02  0.7816164E-02  0.1266605E+00
        -11   -1    0    0    0    0  0.00000000000E+00  0.00000000000E+00  0.45593999997E+02  0.45594000000E+02  0.51100000000E-03 0.  1.
         11   -1    0    0    0    0 -0.00000000000E+00 -0.00000000000E+00 -0.45593999997E+02  0.45594000000E+02  0.51100000000E-03 0. -1.
    9900012    2    1    2    0    0 -0.24531216207E+02  0.14429098217E+02  0.14378472526E+02  0.59301954210E+02  0.50000018570E+02 0.  0.
         12    1    1    2    0    0  0.24531216207E+02 -0.14429098217E+02 -0.14378472526E+02  0.31886045790E+02  0.00000000000E+00 0. -1.
         11    1    3    3    0    0 -0.14829878376E+02  0.19510489646E+02  0.16013444165E+02  0.29274816706E+02  0.51100000000E-03 0. -1.
        -11    1    3    3    0    0  0.91444923606E+01 -0.22228212478E+00  0.36683302726E+01  0.98553435824E+01  0.51100000000E-03 0.  1.
        -12    1    3    3    0    0 -0.18845830192E+02 -0.48591093039E+01 -0.53033019121E+01  0.20171793921E+02  0.00000000000E+00 0.  1.
</event>
<event>
 7    1  0.6963701E-013  0.5930194E+02  0.7816164E-02  0.1266605E+00
        -11   -1    0    0    0    0  0.00000000000E+00  0.00000000000E+00  0.45593999997E+02  0.45594000000E+02  0.51100000000E-03 0. -1.
         11   -1    0    0    0    0 -0.00000000000E+00 -0.00000000000E+00 -0.45593999997E+02  0.45594000000E+02  0.51100000000E-03 0.  1.
    9900012    2    1    2    0    0 -0.10760973687E+02  0.34065623892E+01 -0.29821427258E+02  0.59301941201E+02  0.49999994845E+02 0.  0.
         12    1    1    2    0    0  0.10760973687E+02 -0.34065623892E+01  0.29821427258E+02  0.31886058799E+02  0.00000000000E+00 0. -1.
         11    1    3    3    0    0  0.21494883448E+01 -0.99617853657E+01 -0.13945493477E+02  0.17272355265E+02  0.51100000000E-03 0. -1.
        -11    1    3    3    0    0  0.11563096633E+02  0.67041111843E+01 -0.74497340644E+01  0.15301923030E+02  0.51100000000E-03 0.  1.
        -12    1    3    3    0    0 -0.24473558665E+02  0.66642365707E+01 -0.84261997163E+01  0.26727662907E+02  0.00000000000E+00 0.  1.
</event>
<event>
 7    1  0.6963701E-013  0.5930193E+02  0.7816164E-02  0.1266605E+00
        -11   -1    0    0    0    0  0.00000000000E+00  0.00000000000E+00  0.45593999997E+02  0.45594000000E+02  0.51100000000E-03 0.  1.
         11   -1    0    0    0    0 -0.00000000000E+00 -0.00000000000E+00 -0.45593999997E+02  0.45594000000E+02  0.51100000000E-03 0. -1.
    9900012    2    1    2    0    0 -0.25649164665E+01  0.31732708518E+02  0.17826786518E+01  0.59301928910E+02  0.49999972430E+02 0.  0.
         12    1    1    2    0    0  0.25649164665E+01 -0.31732708518E+02 -0.17826786518E+01  0.31886071090E+02  0.00000000000E+00 0. -1.
         11    1    3    3    0    0  0.10014972758E+02  0.10079226532E+02 -0.24606861162E+01  0.14420314256E+02  0.51100000000E-03 0. -1.
        -11    1    3    3    0    0  0.75199803098E+01  0.17865320621E+02  0.12235163983E+02  0.22922020476E+02  0.51100000000E-03 0.  1.
         12    1    3    3    0    0 -0.20099869534E+02  0.37881613652E+01 -0.79917992147E+01  0.21959594179E+02  0.00000000000E+00 0. -1.
</event>
<event>
 7    1  0.6963701E-013  0.5930194E+02  0.7816164E-02  0.1266605E+00
        -11   -1    0    0    0    0  0.00000000000E+00  0.00000000000E+00  0.45593999997E+02  0.45594000000E+02  0.51100000000E-03 0.  1.
         11   -1    0    0    0    0 -0.00000000000E+00 -0.00000000000E+00 -0.45593999997E+02  0.45594000000E+02  0.51100000000E-03 0. -1.
    9900012    2    1    2    0    0 -0.13953399860E+02  0.28605087560E+02 -0.19423307689E+01  0.59301936418E+02  0.49999986121E+02 0.  0.
         12    1    1    2    0    0  0.13953399860E+02 -0.28605087560E+02  0.19423307689E+01  0.31886063582E+02  0.00000000000E+00 0. -1.
         11    1    3    3    0    0 -0.10295164201E+01  0.21396416134E+02 -0.12848460335E+02  0.24978980377E+02  0.51100000000E-03 0. -1.
        -11    1    3    3    0    0 -0.13613213436E+00 -0.43769919553E+01 -0.77553719554E+01  0.89063115240E+01  0.51100000000E-03 0.  1.
        -12    1    3    3    0    0 -0.12787751305E+02  0.11585663381E+02  0.18661501522E+02  0.25416644516E+02  0.00000000000E+00 0.  1.
</event>
<event>
 7    1  0.6963701E-013  0.5930175E+02  0.7816164E-02  0.1266605E+00
        -11   -1    0    0    0    0  0.00000000000E+00  0.00000000000E+00  0.45593999997E+02  0.45594000000E+02  0.51100000000E-03 0. -1.
         11   -1    0    0    0    0 -0.00000000000E+00 -0.00000000000E+00 -0.45593999997E+02  0.45594000000E+02  0.51100000000E-03 0.  1.
    9900012    2    1    2    0    0 -0.11513802479E+02 -0.10555343209E+02 -0.27798386731E+02  0.59301745554E+02  0.49999638030E+02 0.  0.
         12    1    1    2    0    0  0.11513802479E+02  0.10555343209E+02  0.27798386731E+02  0.31886254446E+02  0.00000000000E+00 0. -1.
         11    1    3    3    0    0 -0.63606371721E+01  0.21715733588E-02 -0.10347000872E+01  0.64442466187E+01  0.51100000000E-03 0. -1.
        -11    1    3    3    0    0  0.10662668879E+02  0.10904648064E+01  0.76944522650E+01  0.13194173602E+02  0.51100000000E-03 0.  1.
        -12    1    3    3    0    0 -0.15815834185E+02 -0.11647979588E+02 -0.34458138909E+02  0.39663325334E+02  0.00000000000E+00 0.  1.
</event>
<event>
 7    1  0.6963701E-013  0.5930194E+02  0.7816164E-02  0.1266605E+00
        -11   -1    0    0    0    0  0.00000000000E+00  0.00000000000E+00  0.45593999997E+02  0.45594000000E+02  0.51100000000E-03 0.  1.
         11   -1    0    0    0    0 -0.00000000000E+00 -0.00000000000E+00 -0.45593999997E+02  0.45594000000E+02  0.51100000000E-03 0. -1.
    9900012    2    1    2    0    0 -0.25675955249E+02  0.12531169070E+02  0.14157545284E+02  0.59301937768E+02  0.49999988584E+02 0.  0.
         12    1    1    2    0    0  0.25675955249E+02 -0.12531169070E+02 -0.14157545284E+02  0.31886062232E+02  0.00000000000E+00 0. -1.
         11    1    3    3    0    0 -0.22207911922E+02  0.10255111162E+02 -0.78778180668E+00  0.24474052736E+02  0.51100000000E-03 0. -1.
        -11    1    3    3    0    0 -0.13863686454E+02  0.57016218459E+01  0.18038075314E+02  0.23453836681E+02  0.51100000000E-03 0.  1.
        -12    1    3    3    0    0  0.10395643128E+02 -0.34255639380E+01 -0.30927482232E+01  0.11374048351E+02  0.00000000000E+00 0.  1.
</event>
<event>
 7    1  0.6963701E-013  0.5930194E+02  0.7816164E-02  0.1266605E+00
        -11   -1    0    0    0    0  0.00000000000E+00  0.00000000000E+00  0.45593999997E+02  0.45594000000E+02  0.51100000000E-03 0.  1.
         11   -1    0    0    0    0 -0.00000000000E+00 -0.00000000000E+00 -0.45593999997E+02  0.45594000000E+02  0.51100000000E-03 0. -1.
    9900012    2    1    2    0    0 -0.71488280840E+01  0.31011201343E+02  0.19799778321E+01  0.59301942484E+02  0.49999997185E+02 0.  0.
         12    1    1    2    0    0  0.71488280840E+01 -0.31011201343E+02 -0.19799778321E+01  0.31886057516E+02  0.00000000000E+00 0. -1.
         11    1    3    3    0    0 -0.23900944457E+00 -0.72117458405E+01 -0.14899279829E+02  0.16554604896E+02  0.51100000000E-03 0. -1.
        -11    1    3    3    0    0  0.10347407442E+01  0.50463071836E+01  0.19286158346E+01  0.55004966955E+01  0.51100000000E-03 0.  1.
        -12    1    3    3    0    0 -0.79445593837E+01  0.33176640000E+02  0.14950641826E+02  0.37246840893E+02  0.00000000000E+00 0.  1.
</event>
<event>
 7    1  0.6963701E-013  0.5930195E+02  0.7816164E-02  0.1266605E+00
        -11   -1    0    0    0    0  0.00000000000E+00  0.00000000000E+00  0.45593999997E+02  0.45594000000E+02  0.51100000000E-03 0.  1.
         11   -1    0    0    0    0 -0.00000000000E+00 -0.00000000000E+00 -0.45593999997E+02  0.45594000000E+02  0.51100000000E-03 0. -1.
    9900012    2    1    2    0    0  0.14305141718E+02  0.23097986994E+02  0.16690295366E+02  0.59301952234E+02  0.50000014966E+02 0.  0.
         12    1    1    2    0    0 -0.14305141718E+02 -0.23097986994E+02 -0.16690295366E+02  0.31886047766E+02  0.00000000000E+00 0. -1.
         11    1    3    3    0    0  0.73929978574E+01  0.35740546492E+02  0.72591703532E+01  0.37212076472E+02  0.51100000000E-03 0. -1.
        -11    1    3    3    0    0  0.22261427369E+01  0.29483665342E+01  0.16552567341E+01  0.40482652855E+01  0.51100000000E-03 0.  1.
        -12    1    3    3    0    0  0.46860011234E+01 -0.15590926033E+02  0.77758682787E+01  0.18041610476E+02  0.00000000000E+00 0.  1.
</event>
<event>
 7    1  0.6963701E-013  0.5930188E+02  0.7816164E-02  0.1266605E+00
        -11   -1    0    0    0    0  0.00000000000E+00  0.00000000000E+00  0.45593999997E+02  0.45594000000E+02  0.51100000000E-03 0.  1.
         11   -1    0    0    0    0 -0.00000000000E+00 -0.00000000000E+00 -0.45593999997E+02  0.45594000000E+02  0.51100000000E-03 0. -1.
    9900012    2    1    2    0    0 -0.17736851105E+02  0.22478565246E+02  0.14030060000E+02  0.59301884428E+02  0.49999891305E+02 0.  0.
         12    1    1    2    0    0  0.17736851105E+02 -0.22478565246E+02 -0.14030060000E+02  0.31886115572E+02  0.00000000000E+00 0. -1.
         11    1    3    3    0    0  0.58364894014E+00 -0.63155620794E+01  0.57714525430E+01  0.85753504407E+01  0.51100000000E-03 0. -1.
        -11    1    3    3    0    0  0.17260663038E-01 -0.57210915708E+00  0.15371296629E+02  0.15381949393E+02  0.51100000000E-03 0.  1.
         12    1    3    3    0    0 -0.18337760708E+02  0.29366236483E+02 -0.71126891714E+01  0.35344584595E+02  0.00000000000E+00 0. -1.
</event>
<event>
 7    1  0.6963701E-013  0.5930194E+02  0.7816164E-02  0.1266605E+00
        -11   -1    0    0    0    0  0.00000000000E+00  0.00000000000E+00  0.45593999997E+02  0.45594000000E+02  0.51100000000E-03 0.  1.
         11   -1    0    0    0    0 -0.00000000000E+00 -0.00000000000E+00 -0.45593999997E+02  0.45594000000E+02  0.51100000000E-03 0. -1.
    9900012    2    1    2    0    0  0.17797723068E+01  0.19365976550E+02  0.25268803718E+02  0.59301935982E+02  0.49999985327E+02 0.  0.
         12    1    1    2    0    0 -0.17797723068E+01 -0.19365976550E+02 -0.25268803718E+02  0.31886064018E+02  0.00000000000E+00 0. -1.
         11    1    3    3    0    0  0.17116194885E+01  0.51091210678E+01  0.63869152222E+01  0.83561621379E+01  0.51100000000E-03 0. -1.
        -11    1    3    3    0    0  0.11319745376E+02  0.10564690572E+02  0.30594769887E+02  0.34289783711E+02  0.51100000000E-03 0.  1.
         12    1    3    3    0    0 -0.11251592558E+02  0.36921649105E+01 -0.11712881391E+02  0.16655990133E+02  0.00000000000E+00 0. -1.
</event>
<event>
 7    1  0.6963701E-013  0.5930194E+02  0.7816164E-02  0.1266605E+00
        -11   -1    0    0    0    0  0.00000000000E+00  0.00000000000E+00  0.45593999997E+02  0.45594000000E+02  0.51100000000E-03 0.  1.
         11   -1    0    0    0    0 -0.00000000000E+00 -0.00000000000E+00 -0.45593999997E+02  0.45594000000E+02  0.51100000000E-03 0. -1.
    9900012    2    1    2    0    0  0.18619495253E+02 -0.25881647212E+02  0.41882072253E+00  0.59301942284E+02  0.49999996820E+02 0.  0.
         12    1    1    2    0    0 -0.18619495253E+02  0.25881647212E+02 -0.41882072253E+00  0.31886057716E+02  0.00000000000E+00 0. -1.
         11    1    3    3    0    0  0.17885038650E+02 -0.16350240203E+02 -0.16420659289E+02  0.29271880943E+02  0.51100000000E-03 0. -1.
        -11    1    3    3    0    0  0.78683037503E+01 -0.39930656625E+01 -0.20801262993E+01  0.90654124547E+01  0.51100000000E-03 0.  1.
        -12    1    3    3    0    0 -0.71338471470E+01 -0.55383413469E+01  0.18919606310E+02  0.20964648887E+02  0.00000000000E+00 0.  1.
</event>
<event>
 7    1  0.6963701E-013  0.5930196E+02  0.7816164E-02  0.1266605E+00
        -11   -1    0    0    0    0  0.00000000000E+00  0.00000000000E+00  0.45593999997E+02  0.45594000000E+02  0.51100000000E-03 0.  1.
         11   -1    0    0    0    0 -0.00000000000E+00 -0.00000000000E+00 -0.45593999997E+02  0.45594000000E+02  0.51100000000E-03 0. -1.
    9900012    2    1    2    0    0  0.94355981493E+01 -0.14001676826E+02  0.27048882854E+02  0.59301960265E+02  0.50000029612E+02 0.  0.
         12    1    1    2    0    0 -0.94355981493E+01  0.14001676826E+02 -0.27048882854E+02  0.31886039735E+02  0.00000000000E+00 0. -1.
         11    1    3    3    0    0  0.12558616432E+02 -0.52345615628E+01 -0.61546560143E+01  0.14933160160E+02  0.51100000000E-03 0. -1.
        -11    1    3    3    0    0  0.48295820087E+01 -0.77096806593E+01 -0.10779323462E+01  0.91611121951E+01  0.51100000000E-03 0.  1.
        -12    1    3    3    0    0 -0.79526002913E+01 -0.10574346038E+01  0.34281471214E+02  0.35207687910E+02  0.00000000000E+00 0.  1.
</event>
<event>
 7    1  0.6963701E-013  0.5930194E+02  0.7816164E-02  0.1266605E+00
        -11   -1    0    0    0    0  0.00000000000E+00  0.00000000000E+00  0.45593999997E+02  0.45594000000E+02  0.51100000000E-03 0. -1.
         11   -1    0    0    0    0 -0.00000000000E+00 -0.00000000000E+00 -0.45593999997E+02  0.45594000000E+02  0.51100000000E-03 0.  1.
    9900012    2    1    2    0    0 -0.13080812563E+02 -0.17340831449E+02 -0.23343276224E+02  0.59301942898E+02  0.49999997939E+02 0.  0.
         12    1    1    2    0    0  0.13080812563E+02  0.17340831449E+02  0.23343276224E+02  0.31886057102E+02  0.00000000000E+00 0. -1.
         11    1    3    3    0    0 -0.13356996621E+02 -0.44877153884E+01  0.40018115523E+01  0.14647984302E+02  0.51100000000E-03 0. -1.
        -11    1    3    3    0    0 -0.10548786762E+02 -0.20419422670E+00  0.21658465457E+01  0.10770770118E+02  0.51100000000E-03 0.  1.
        -12    1    3    3    0    0  0.10824970820E+02 -0.12648921834E+02 -0.29510934322E+02  0.33883188477E+02  0.00000000000E+00 0.  1.
</event>
<event>
 7    1  0.6963701E-013  0.5930194E+02  0.7816164E-02  0.1266605E+00
        -11   -1    0    0    0    0  0.00000000000E+00  0.00000000000E+00  0.45593999997E+02  0.45594000000E+02  0.51100000000E-03 0.  1.
         11   -1    0    0    0    0 -0.00000000000E+00 -0.00000000000E+00 -0.45593999997E+02  0.45594000000E+02  0.51100000000E-03 0. -1.
    9900012    2    1    2    0    0 -0.30798612799E+02  0.80001212498E+01 -0.20406488640E+01  0.59301941320E+02  0.49999995063E+02 0.  0.
         12    1    1    2    0    0  0.30798612799E+02 -0.80001212498E+01  0.20406488640E+01  0.31886058680E+02  0.00000000000E+00 0. -1.
         11    1    3    3    0    0 -0.51143989565E+01  0.11877294667E+02  0.37857938742E+01  0.13474399460E+02  0.51100000000E-03 0. -1.
        -11    1    3    3    0    0 -0.34457450095E+02  0.19858606218E+01 -0.18938688285E+01  0.34566548119E+02  0.51100000000E-03 0.  1.
         12    1    3    3    0    0  0.87732362531E+01 -0.58630340387E+01 -0.39325739097E+01  0.11260993742E+02  0.00000000000E+00 0. -1.
</event>
<event>
 7    1  0.6963701E-013  0.5930198E+02  0.7816164E-02  0.1266605E+00
        -11   -1    0    0    0    0  0.00000000000E+00  0.00000000000E+00  0.45593999997E+02  0.45594000000E+02  0.51100000000E-03 0.  1.
         11   -1    0    0    0    0 -0.00000000000E+00 -0.00000000000E+00 -0.45593999997E+02  0.45594000000E+02  0.51100000000E-03 0. -1.
    9900012    2    1    2    0    0  0.77764241405E+00  0.27847956500E+02 -0.15511452459E+02  0.59301975376E+02  0.50000057171E+02 0.  0.
         12    1    1    2    0    0 -0.77764241405E+00 -0.27847956500E+02  0.15511452459E+02  0.31886024624E+02  0.00000000000E+00 0. -1.
         11    1    3    3    0    0  0.19899525353E+02  0.15955474640E+02 -0.13765111395E+02  0.28983556928E+02  0.51100000000E-03 0. -1.
        -11    1    3    3    0    0 -0.10384265441E+02  0.98547785412E+01  0.85393807176E+01  0.16669452665E+02  0.51100000000E-03 0.  1.
        -12    1    3    3    0    0 -0.87376174974E+01  0.20377033193E+01 -0.10285721782E+02  0.13648965782E+02  0.00000000000E+00 0.  1.
</event>
<event>
 7    1  0.6963701E-013  0.5930196E+02  0.7816164E-02  0.1266605E+00
        -11   -1    0    0    0    0  0.00000000000E+00  0.00000000000E+00  0.45593999997E+02  0.45594000000E+02  0.51100000000E-03 0.  1.
         11   -1    0    0    0    0 -0.00000000000E+00 -0.00000000000E+00 -0.45593999997E+02  0.45594000000E+02  0.51100000000E-03 0. -1.
    9900012    2    1    2    0    0  0.11127553967E+02  0.24188252529E+02  0.17544965386E+02  0.59301955591E+02  0.50000021089E+02 0.  0.
         12    1    1    2    0    0 -0.11127553967E+02 -0.24188252529E+02 -0.17544965386E+02  0.31886044409E+02  0.00000000000E+00 0. -1.
         11    1    3    3    0    0  0.31000191801E+01  0.12880313607E+02  0.10185818083E+01  0.13287215912E+02  0.51100000000E-03 0. -1.
        -11    1    3    3    0    0  0.12681962053E+02  0.20924828522E+02 -0.20830134709E+01  0.24556456494E+02  0.51100000000E-03 0.  1.
        -12    1    3    3    0    0 -0.46544272661E+01 -0.96168895998E+01  0.18609397048E+02  0.21458283185E+02  0.00000000000E+00 0.  1.
</event>
<event>
 7    1  0.6963701E-013  0.5930195E+02  0.7816164E-02  0.1266605E+00
        -11   -1    0    0    0    0  0.00000000000E+00  0.00000000000E+00  0.45593999997E+02  0.45594000000E+02  0.51100000000E-03 0. -1.
         11   -1    0    0    0    0 -0.00000000000E+00 -0.00000000000E+00 -0.45593999997E+02  0.45594000000E+02  0.51100000000E-03 0.  1.
    9900012    2    1    2    0    0 -0.98472096394E+01  0.27885787929E+02  0.11922064819E+02  0.59301947631E+02  0.50000006572E+02 0.  0.
         12    1    1    2    0    0  0.98472096394E+01 -0.27885787929E+02 -0.11922064819E+02  0.31886052369E+02  0.00000000000E+00 0. -1.
         11    1    3    3    0    0  0.25470630394E+01  0.73934820286E+01  0.37161399563E+01  0.86579907063E+01  0.51100000000E-03 0. -1.
        -11    1    3    3    0    0  0.99878605965E+01  0.67657914396E+01 -0.12375632655E+02  0.17282638021E+02  0.51100000000E-03 0.  1.
        -12    1    3    3    0    0 -0.22382133275E+02  0.13726514461E+02  0.20581557517E+02  0.33361318904E+02  0.00000000000E+00 0.  1.
</event>
<event>
 7    1  0.6963701E-013  0.5930195E+02  0.7816164E-02  0.1266605E+00
        -11   -1    0    0    0    0  0.00000000000E+00  0.00000000000E+00  0.45593999997E+02  0.45594000000E+02  0.51100000000E-03 0. -1.
         11   -1    0    0    0    0 -0.00000000000E+00 -0.00000000000E+00 -0.45593999997E+02  0.45594000000E+02  0.51100000000E-03 0.  1.
    9900012    2    1    2    0    0  0.11376992180E+02  0.27818118311E+02  0.10650648170E+02  0.59301953461E+02  0.50000017203E+02 0.  0.
         12    1    1    2    0    0 -0.11376992180E+02 -0.27818118311E+02 -0.10650648170E+02  0.31886046539E+02  0.00000000000E+00 0. -1.
         11    1    3    3    0    0  0.10465028336E+02  0.18300117876E+01  0.12020304228E+02  0.16042240343E+02  0.51100000000E-03 0. -1.
        -11    1    3    3    0    0  0.92266709537E+01 -0.34881786126E+01 -0.70322202584E+01  0.12114081432E+02  0.51100000000E-03 0.  1.
         12    1    3    3    0    0 -0.83147071096E+01  0.29476285136E+02  0.56625642006E+01  0.31145631686E+02  0.00000000000E+00 0. -1.
</event>
<event>
 7    1  0.6963701E-013  0.5930193E+02  0.7816164E-02  0.1266605E+00
        -11   -1    0    0    0    0  0.00000000000E+00  0.00000000000E+00  0.45593999997E+02  0.45594000000E+02  0.51100000000E-03 0. -1.
         11   -1    0    0    0    0 -0.00000000000E+00 -0.00000000000E+00 -0.45593999997E+02  0.45594000000E+02  0.51100000000E-03 0.  1.
    9900012    2    1    2    0    0  0.28029725100E+02  0.92414135587E+01 -0.12068634099E+02  0.59301934975E+02  0.49999983490E+02 0.  0.
         12    1    1    2    0    0 -0.28029725100E+02 -0.92414135587E+01  0.12068634099E+02  0.31886065025E+02  0.00000000000E+00 0. -1.
         11    1    3    3    0    0  0.13796982467E+02  0.68868185436E+01 -0.10728353598E+02  0.18785168778E+02  0.51100000000E-03 0. -1.
        -11    1    3    3    0    0  0.24123425523E+02 -0.64587326447E+00 -0.10861689479E+02  0.26463807546E+02  0.51100000000E-03 0.  1.
        -12    1    3    3    0    0 -0.98906828891E+01  0.30004682796E+01  0.95214089779E+01  0.14052958651E+02  0.00000000000E+00 0.  1.
</event>
<event>
 7    1  0.6963701E-013  0.5930200E+02  0.7816164E-02  0.1266605E+00
        -11   -1    0    0    0    0  0.00000000000E+00  0.00000000000E+00  0.45593999997E+02  0.45594000000E+02  0.51100000000E-03 0.  1.
         11   -1    0    0    0    0 -0.00000000000E+00 -0.00000000000E+00 -0.45593999997E+02  0.45594000000E+02  0.51100000000E-03 0. -1.
    9900012    2    1    2    0    0 -0.17054812909E+01 -0.31757092010E+02 -0.23011431730E+01  0.59302002771E+02  0.50000107134E+02 0.  0.
         12    1    1    2    0    0  0.17054812909E+01  0.31757092010E+02  0.23011431730E+01  0.31885997229E+02  0.00000000000E+00 0. -1.
         11    1    3    3    0    0 -0.36643107542E+01 -0.96659763036E+01 -0.80862833522E+01  0.13124261881E+02  0.51100000000E-03 0. -1.
        -11    1    3    3    0    0 -0.84334832236E+01 -0.30963727321E+02  0.29951575840E+01  0.32231149811E+02  0.51100000000E-03 0.  1.
         12    1    3    3    0    0  0.10392312687E+02  0.88726116150E+01  0.27899825953E+01  0.13946591079E+02  0.00000000000E+00 0. -1.
</event>
<event>
 7    1  0.6963701E-013  0.5930195E+02  0.7816164E-02  0.1266605E+00
        -11   -1    0    0    0    0  0.00000000000E+00  0.00000000000E+00  0.45593999997E+02  0.45594000000E+02  0.51100000000E-03 0. -1.
         11   -1    0    0    0    0 -0.00000000000E+00 -0.00000000000E+00 -0.45593999997E+02  0.45594000000E+02  0.51100000000E-03 0.  1.
    9900012    2    1    2    0    0  0.21748939751E+02 -0.66137029430E+01 -0.22359849389E+02  0.59301948009E+02  0.50000007260E+02 0.  0.
         12    1    1    2    0    0 -0.21748939751E+02  0.66137029430E+01  0.22359849389E+02  0.31886051991E+02  0.00000000000E+00 0. -1.
         11    1    3    3    0    0 -0.10940508818E+01 -0.12335025344E+01 -0.33601620063E+01  0.37428818848E+01  0.51100000000E-03 0. -1.
        -11    1    3    3    0    0  0.15672278830E+02 -0.39880867280E+01 -0.34677569596E+02  0.38263023833E+02  0.51100000000E-03 0.  1.
         12    1    3    3    0    0  0.71707118024E+01 -0.13921136806E+01  0.15677882213E+02  0.17296042291E+02  0.00000000000E+00 0. -1.
</event>
<event>
 7    1  0.6963701E-013  0.5930196E+02  0.7816164E-02  0.1266605E+00
        -11   -1    0    0    0    0  0.00000000000E+00  0.00000000000E+00  0.45593999997E+02  0.45594000000E+02  0.51100000000E-03 0.  1.
         11   -1    0    0    0    0 -0.00000000000E+00 -0.00000000000E+00 -0.45593999997E+02  0.45594000000E+02  0.51100000000E-03 0. -1.
    9900012    2    1    2    0    0  0.28234392732E+02  0.14757730247E+02  0.13220841916E+01  0.59301961651E+02  0.50000032140E+02 0.  0.
         12    1    1    2    0    0 -0.28234392732E+02 -0.14757730247E+02 -0.13220841916E+01  0.31886038349E+02  0.00000000000E+00 0. -1.
         11    1    3    3    0    0 -0.51531343241E+01 -0.82011354401E+01  0.17995172979E+01  0.98514810377E+01  0.51100000000E-03 0. -1.
        -11    1    3    3    0    0  0.30923801792E+01 -0.39605393582E+00 -0.96268341625E+01  0.10119071605E+02  0.51100000000E-03 0.  1.
        -12    1    3    3    0    0  0.30295146877E+02  0.23354919623E+02  0.91494010561E+01  0.39331409008E+02  0.00000000000E+00 0.  1.
</event>
<event>
 7    1  0.6963701E-013  0.5930195E+02  0.7816164E-02  0.1266605E+00
        -11   -1    0    0    0    0  0.00000000000E+00  0.00000000000E+00  0.45593999997E+02  0.45594000000E+02  0.51100000000E-03 0.  1.
         11   -1    0    0    0    0 -0.00000000000E+00 -0.00000000000E+00 -0.45593999997E+02  0.45594000000E+02  0.51100000000E-03 0. -1.
    9900012    2    1    2    0    0  0.16532946676E+02  0.15706181381E+02  0.22286722022E+02  0.59301946028E+02  0.50000003649E+02 0.  0.
         12    1    1    2    0    0 -0.16532946676E+02 -0.15706181381E+02 -0.22286722022E+02  0.31886053972E+02  0.00000000000E+00 0. -1.
         11    1    3    3    0    0 -0.11299818116E+01 -0.53071765841E+01  0.14151711607E+01  0.56076458397E+01  0.51100000000E-03 0. -1.
        -11    1    3    3    0    0 -0.46595499710E+01  0.22554002718E+02  0.21220216314E+02  0.31316002702E+02  0.51100000000E-03 0.  1.
         12    1    3    3    0    0  0.22322478459E+02 -0.15406447530E+01 -0.34866545271E+00  0.22378297486E+02  0.00000000000E+00 0. -1.
</event>
<event>
 7    1  0.6963701E-013  0.5930191E+02  0.7816164E-02  0.1266605E+00
        -11   -1    0    0    0    0  0.00000000000E+00  0.00000000000E+00  0.45593999997E+02  0.45594000000E+02  0.51100000000E-03 0. -1.
         11   -1    0    0    0    0 -0.00000000000E+00 -0.00000000000E+00 -0.45593999997E+02  0.45594000000E+02  0.51100000000E-03 0.  1.
    9900012    2    1    2    0    0  0.22877310454E+02  0.19698915461E+02 -0.10261766340E+02  0.59301914440E+02  0.49999946038E+02 0.  0.
         12    1    1    2    0    0 -0.22877310454E+02 -0.19698915461E+02  0.10261766340E+02  0.31886085560E+02  0.00000000000E+00 0. -1.
         11    1    3    3    0    0  0.35859279883E+00 -0.85182865224E+01  0.86871828820E+00  0.85699746673E+01  0.51100000000E-03 0. -1.
        -11    1    3    3    0    0 -0.69835140466E+01 -0.19896230191E+01 -0.20109562736E+01  0.75347205384E+01  0.51100000000E-03 0.  1.
         12    1    3    3    0    0  0.29502231702E+02  0.30206825003E+02 -0.91195283544E+01  0.43197219234E+02  0.00000000000E+00 0. -1.
</event>
<event>
 7    1  0.6963701E-013  0.5930195E+02  0.7816164E-02  0.1266605E+00
        -11   -1    0    0    0    0  0.00000000000E+00  0.00000000000E+00  0.45593999997E+02  0.45594000000E+02  0.51100000000E-03 0. -1.
         11   -1    0    0    0    0 -0.00000000000E+00 -0.00000000000E+00 -0.45593999997E+02  0.45594000000E+02  0.51100000000E-03 0.  1.
    9900012    2    1    2    0    0 -0.18613526523E+02  0.67256957741E+01 -0.25000437844E+02  0.59301949043E+02  0.50000009146E+02 0.  0.
         12    1    1    2    0    0  0.18613526523E+02 -0.67256957741E+01  0.25000437844E+02  0.31886050957E+02  0.00000000000E+00 0. -1.
         11    1    3    3    0    0 -0.12234289151E+02 -0.14308538888E+02 -0.14067715676E+02  0.23501334871E+02  0.51100000000E-03 0.  1.
        -11    1    3    3    0    0 -0.81132486843E+01 -0.29793320486E+01 -0.75727434666E+01  0.11491199569E+02  0.51100000000E-03 0. -1.
        -12    1    3    3    0    0  0.17340113123E+01  0.24013566711E+02 -0.33599787015E+01  0.24309414602E+02  0.00000000000E+00 0.  1.
</event>
<event>
 7    1  0.6963701E-013  0.5930192E+02  0.7816164E-02  0.1266605E+00
        -11   -1    0    0    0    0  0.00000000000E+00  0.00000000000E+00  0.45593999997E+02  0.45594000000E+02  0.51100000000E-03 0.  1.
         11   -1    0    0    0    0 -0.00000000000E+00 -0.00000000000E+00 -0.45593999997E+02  0.45594000000E+02  0.51100000000E-03 0. -1.
    9900012    2    1    2    0    0  0.15988063219E+02  0.10848010552E+02  0.25365817716E+02  0.59301918290E+02  0.49999953061E+02 0.  0.
         12    1    1    2    0    0 -0.15988063219E+02 -0.10848010552E+02 -0.25365817716E+02  0.31886081710E+02  0.00000000000E+00 0. -1.
         11    1    3    3    0    0  0.10076302359E+02 -0.49718163418E+01  0.14410205251E+01  0.11328166991E+02  0.51100000000E-03 0. -1.
        -11    1    3    3    0    0 -0.11453374186E+02 -0.51209532307E+01  0.13418007419E+01  0.12617621477E+02  0.51100000000E-03 0.  1.
        -12    1    3    3    0    0  0.17365135046E+02  0.20940780124E+02  0.22582996449E+02  0.35356129822E+02  0.00000000000E+00 0.  1.
</event>
<event>
 7    1  0.6963701E-013  0.5930180E+02  0.7816164E-02  0.1266605E+00
        -11   -1    0    0    0    0  0.00000000000E+00  0.00000000000E+00  0.45593999997E+02  0.45594000000E+02  0.51100000000E-03 0. -1.
         11   -1    0    0    0    0 -0.00000000000E+00 -0.00000000000E+00 -0.45593999997E+02  0.45594000000E+02  0.51100000000E-03 0.  1.
    9900012    2    1    2    0    0 -0.39256129155E+00 -0.31016827308E+02 -0.73845637954E+01  0.59301804507E+02  0.49999745546E+02 0.  0.
         12    1    1    2    0    0  0.39256129155E+00  0.31016827308E+02  0.73845637954E+01  0.31886195493E+02  0.00000000000E+00 0. -1.
         11    1    3    3    0    0 -0.35925795450E+01 -0.45681565794E+00 -0.84023303427E+01  0.91495608518E+01  0.51100000000E-03 0. -1.
        -11    1    3    3    0    0  0.94327890050E+01 -0.11759161416E+02 -0.17457935987E+02  0.23065882052E+02  0.51100000000E-03 0.  1.
         12    1    3    3    0    0 -0.62327707516E+01 -0.18800850233E+02  0.18475702535E+02  0.27086361603E+02  0.00000000000E+00 0. -1.
</event>
<event>
 7    1  0.6963701E-013  0.5930193E+02  0.7816164E-02  0.1266605E+00
        -11   -1    0    0    0    0  0.00000000000E+00  0.00000000000E+00  0.45593999997E+02  0.45594000000E+02  0.51100000000E-03 0.  1.
         11   -1    0    0    0    0 -0.00000000000E+00 -0.00000000000E+00 -0.45593999997E+02  0.45594000000E+02  0.51100000000E-03 0. -1.
    9900012    2    1    2    0    0  0.12760837632E+02  0.80283619456E+01  0.28096757227E+02  0.59301931894E+02  0.49999977870E+02 0.  0.
         12    1    1    2    0    0 -0.12760837632E+02 -0.80283619456E+01 -0.28096757227E+02  0.31886068106E+02  0.00000000000E+00 0. -1.
         11    1    3    3    0    0  0.11340177442E+02  0.28812943587E-01  0.59912704017E+01  0.12825590664E+02  0.51100000000E-03 0. -1.
        -11    1    3    3    0    0  0.38490740604E+01 -0.11639379097E+02  0.23638703751E+02  0.26628534173E+02  0.51100000000E-03 0.  1.
         12    1    3    3    0    0 -0.24284138706E+01  0.19638928099E+02 -0.15332169253E+01  0.19847807057E+02  0.00000000000E+00 0. -1.
</event>
<event>
 7    1  0.6963701E-013  0.5930196E+02  0.7816164E-02  0.1266605E+00
        -11   -1    0    0    0    0  0.00000000000E+00  0.00000000000E+00  0.45593999997E+02  0.45594000000E+02  0.51100000000E-03 0.  1.
         11   -1    0    0    0    0 -0.00000000000E+00 -0.00000000000E+00 -0.45593999997E+02  0.45594000000E+02  0.51100000000E-03 0. -1.
    9900012    2    1    2    0    0 -0.26831315150E+02 -0.13657454565E+02 -0.10501144904E+02  0.59301959447E+02  0.50000028120E+02 0.  0.
         12    1    1    2    0    0  0.26831315150E+02  0.13657454565E+02  0.10501144904E+02  0.31886040553E+02  0.00000000000E+00 0. -1.
         11    1    3    3    0    0 -0.13222143058E+02  0.10687888395E+02 -0.10699852731E+02  0.20088376592E+02  0.51100000000E-03 0. -1.
        -11    1    3    3    0    0 -0.64936605209E+01  0.54290526939E+01 -0.13033232307E+01  0.85639296949E+01  0.51100000000E-03 0.  1.
        -12    1    3    3    0    0 -0.71155115712E+01 -0.29774395654E+02  0.15020310578E+01  0.30649653159E+02  0.00000000000E+00 0.  1.
</event>
<event>
 7    1  0.6963701E-013  0.5930195E+02  0.7816164E-02  0.1266605E+00
        -11   -1    0    0    0    0  0.00000000000E+00  0.00000000000E+00  0.45593999997E+02  0.45594000000E+02  0.51100000000E-03 0.  1.
         11   -1    0    0    0    0 -0.00000000000E+00 -0.00000000000E+00 -0.45593999997E+02  0.45594000000E+02  0.51100000000E-03 0. -1.
    9900012    2    1    2    0    0  0.24424466454E+02 -0.15345494994E+02  0.13589761062E+02  0.59301946875E+02  0.50000005192E+02 0.  0.
         12    1    1    2    0    0 -0.24424466454E+02  0.15345494994E+02 -0.13589761062E+02  0.31886053125E+02  0.00000000000E+00 0. -1.
         11    1    3    3    0    0 -0.33279151170E+01 -0.28352068352E+01  0.11403352250E+01  0.45181612976E+01  0.51100000000E-03 0. -1.
        -11    1    3    3    0    0 -0.11304983274E-02 -0.17865105634E+02 -0.83206649287E+01  0.19707751412E+02  0.51100000000E-03 0.  1.
        -12    1    3    3    0    0  0.27753512069E+02  0.53548174747E+01  0.20770090766E+02  0.35076034165E+02  0.00000000000E+00 0.  1.
</event>
<event>
 7    1  0.6963701E-013  0.5930196E+02  0.7816164E-02  0.1266605E+00
        -11   -1    0    0    0    0  0.00000000000E+00  0.00000000000E+00  0.45593999997E+02  0.45594000000E+02  0.51100000000E-03 0.  1.
         11   -1    0    0    0    0 -0.00000000000E+00 -0.00000000000E+00 -0.45593999997E+02  0.45594000000E+02  0.51100000000E-03 0. -1.
    9900012    2    1    2    0    0 -0.18847703514E+02 -0.99444634320E+01  0.23719002535E+02  0.59301962900E+02  0.50000034419E+02 0.  0.
         12    1    1    2    0    0  0.18847703514E+02  0.99444634320E+01 -0.23719002535E+02  0.31886037100E+02  0.00000000000E+00 0. -1.
         11    1    3    3    0    0 -0.49933819758E+01 -0.12993834193E+02  0.96245059261E+01  0.16923495654E+02  0.51100000000E-03 0. -1.
        -11    1    3    3    0    0 -0.78031984508E+01 -0.28997898751E+01 -0.12188235784E+02  0.14759802816E+02  0.51100000000E-03 0.  1.
        -12    1    3    3    0    0 -0.60511230872E+01  0.59491606359E+01  0.26282732392E+02  0.27618664430E+02  0.00000000000E+00 0.  1.
</event>
<event>
 7    1  0.6963701E-013  0.5930193E+02  0.7816164E-02  0.1266605E+00
        -11   -1    0    0    0    0  0.00000000000E+00  0.00000000000E+00  0.45593999997E+02  0.45594000000E+02  0.51100000000E-03 0. -1.
         11   -1    0    0    0    0 -0.00000000000E+00 -0.00000000000E+00 -0.45593999997E+02  0.45594000000E+02  0.51100000000E-03 0.  1.
    9900012    2    1    2    0    0 -0.27953102005E+02 -0.29333928716E+01  0.15057917026E+02  0.59301928266E+02  0.49999971255E+02 0.  0.
         12    1    1    2    0    0  0.27953102005E+02  0.29333928716E+01 -0.15057917026E+02  0.31886071734E+02  0.00000000000E+00 0. -1.
         11    1    3    3    0    0  0.28638353430E+01 -0.74964838349E+01 -0.84409122387E+01  0.11646794514E+02  0.51100000000E-03 0. -1.
        -11    1    3    3    0    0  0.11426678159E+01  0.90242216448E+01  0.38750377198E+01  0.98872738216E+01  0.51100000000E-03 0.  1.
        -12    1    3    3    0    0 -0.31959605164E+02 -0.44611306816E+01  0.19623791545E+02  0.37767859931E+02  0.00000000000E+00 0.  1.
</event>
<event>
 7    1  0.6963701E-013  0.5930197E+02  0.7816164E-02  0.1266605E+00
        -11   -1    0    0    0    0  0.00000000000E+00  0.00000000000E+00  0.45593999997E+02  0.45594000000E+02  0.51100000000E-03 0.  1.
         11   -1    0    0    0    0 -0.00000000000E+00 -0.00000000000E+00 -0.45593999997E+02  0.45594000000E+02  0.51100000000E-03 0. -1.
    9900012    2    1    2    0    0 -0.26301055832E+02  0.13655029517E+02  0.11769191025E+02  0.59301965026E+02  0.50000038296E+02 0.  0.
         12    1    1    2    0    0  0.26301055832E+02 -0.13655029517E+02 -0.11769191025E+02  0.31886034974E+02  0.00000000000E+00 0. -1.
         11    1    3    3    0    0 -0.28443042402E+02  0.38386670855E-01  0.33017854423E+01  0.28634069253E+02  0.51100000000E-03 0. -1.
        -11    1    3    3    0    0 -0.11471101659E+02  0.92897287578E+01  0.69124813602E+01  0.16299313866E+02  0.51100000000E-03 0.  1.
        -12    1    3    3    0    0  0.13613088230E+02  0.43269140882E+01  0.15549242227E+01  0.14368581907E+02  0.00000000000E+00 0.  1.
</event>
<event>
 7    1  0.6963701E-013  0.5930185E+02  0.7816164E-02  0.1266605E+00
        -11   -1    0    0    0    0  0.00000000000E+00  0.00000000000E+00  0.45593999997E+02  0.45594000000E+02  0.51100000000E-03 0.  1.
         11   -1    0    0    0    0 -0.00000000000E+00 -0.00000000000E+00 -0.45593999997E+02  0.45594000000E+02  0.51100000000E-03 0. -1.
    9900012    2    1    2    0    0  0.80801045474E+01 -0.16175066647E+02  0.26264147181E+02  0.59301854142E+02  0.49999836070E+02 0.  0.
         12    1    1    2    0    0 -0.80801045474E+01  0.16175066647E+02 -0.26264147181E+02  0.31886145858E+02  0.00000000000E+00 0. -1.
         11    1    3    3    0    0 -0.12725668921E+02 -0.21287931737E+00  0.25458573714E+01  0.12979574612E+02  0.51100000000E-03 0. -1.
        -11    1    3    3    0    0  0.78706783537E+01 -0.32918390384E+01  0.26647729442E+02  0.27980086967E+02  0.51100000000E-03 0.  1.
        -12    1    3    3    0    0  0.12935095115E+02 -0.12670348291E+02 -0.29294396329E+01  0.18342192563E+02  0.00000000000E+00 0.  1.
</event>
<event>
 7    1  0.6963701E-013  0.5930195E+02  0.7816164E-02  0.1266605E+00
        -11   -1    0    0    0    0  0.00000000000E+00  0.00000000000E+00  0.45593999997E+02  0.45594000000E+02  0.51100000000E-03 0. -1.
         11   -1    0    0    0    0 -0.00000000000E+00 -0.00000000000E+00 -0.45593999997E+02  0.45594000000E+02  0.51100000000E-03 0.  1.
    9900012    2    1    2    0    0  0.21424609188E+02  0.13128865026E+02 -0.19630053548E+02  0.59301953239E+02  0.50000016800E+02 0.  0.
         12    1    1    2    0    0 -0.21424609188E+02 -0.13128865026E+02  0.19630053548E+02  0.31886046761E+02  0.00000000000E+00 0. -1.
         11    1    3    3    0    0  0.16480756784E+02 -0.32020413017E+01 -0.16887738580E+02  0.23813108308E+02  0.51100000000E-03 0. -1.
        -11    1    3    3    0    0  0.14101774199E+02  0.89624579729E+01 -0.11962692892E+02  0.20549737467E+02  0.51100000000E-03 0.  1.
         12    1    3    3    0    0 -0.91579217956E+01  0.73684483552E+01  0.92203779238E+01  0.14939107464E+02  0.00000000000E+00 0. -1.
</event>
<event>
 7    1  0.6963701E-013  0.5930198E+02  0.7816164E-02  0.1266605E+00
        -11   -1    0    0    0    0  0.00000000000E+00  0.00000000000E+00  0.45593999997E+02  0.45594000000E+02  0.51100000000E-03 0. -1.
         11   -1    0    0    0    0 -0.00000000000E+00 -0.00000000000E+00 -0.45593999997E+02  0.45594000000E+02  0.51100000000E-03 0.  1.
    9900012    2    1    2    0    0 -0.16246179348E+02 -0.21578513926E+02 -0.16945423849E+02  0.59301984318E+02  0.50000073480E+02 0.  0.
         12    1    1    2    0    0  0.16246179348E+02  0.21578513926E+02  0.16945423849E+02  0.31886015682E+02  0.00000000000E+00 0. -1.
         11    1    3    3    0    0  0.93211555581E+01 -0.72844727353E+01 -0.37911873224E+01  0.12422583690E+02  0.51100000000E-03 0. -1.
        -11    1    3    3    0    0 -0.62951702559E+01 -0.17770710130E+02 -0.18671305668E+02  0.26533845607E+02  0.51100000000E-03 0.  1.
         12    1    3    3    0    0 -0.19272164650E+02  0.34766689397E+01  0.55170691410E+01  0.20345555021E+02  0.00000000000E+00 0. -1.
</event>
<event>
 7    1  0.6963701E-013  0.5930195E+02  0.7816164E-02  0.1266605E+00
        -11   -1    0    0    0    0  0.00000000000E+00  0.00000000000E+00  0.45593999997E+02  0.45594000000E+02  0.51100000000E-03 0. -1.
         11   -1    0    0    0    0 -0.00000000000E+00 -0.00000000000E+00 -0.45593999997E+02  0.45594000000E+02  0.51100000000E-03 0.  1.
    9900012    2    1    2    0    0  0.12111036785E+01 -0.29384931222E+02 -0.12319879150E+02  0.59301946978E+02  0.50000005381E+02 0.  0.
         12    1    1    2    0    0 -0.12111036785E+01  0.29384931222E+02  0.12319879150E+02  0.31886053022E+02  0.00000000000E+00 0. -1.
         11    1    3    3    0    0  0.89151103246E+01 -0.57894449560E+01  0.46504460738E+01  0.11602737347E+02  0.51100000000E-03 0. -1.
        -11    1    3    3    0    0 -0.74787494954E+01 -0.13053711326E+02  0.10452562287E+02  0.18319037421E+02  0.51100000000E-03 0.  1.
         12    1    3    3    0    0 -0.22525715064E+00 -0.10541774940E+02 -0.27422887511E+02  0.29380172210E+02  0.00000000000E+00 0. -1.
</event>
<event>
 7    1  0.6963701E-013  0.5930196E+02  0.7816164E-02  0.1266605E+00
        -11   -1    0    0    0    0  0.00000000000E+00  0.00000000000E+00  0.45593999997E+02  0.45594000000E+02  0.51100000000E-03 0.  1.
         11   -1    0    0    0    0 -0.00000000000E+00 -0.00000000000E+00 -0.45593999997E+02  0.45594000000E+02  0.51100000000E-03 0. -1.
    9900012    2    1    2    0    0  0.26606479639E+02  0.16403999013E+02 -0.63026689528E+01  0.59301959507E+02  0.50000028230E+02 0.  0.
         12    1    1    2    0    0 -0.26606479639E+02 -0.16403999013E+02  0.63026689528E+01  0.31886040493E+02  0.00000000000E+00 0. -1.
         11    1    3    3    0    0 -0.27754336676E+01  0.47434345429E+01 -0.97116770334E+00  0.55808933223E+01  0.51100000000E-03 0. -1.
        -11    1    3    3    0    0  0.72483380560E+01  0.26034823757E+02 -0.37269507077E+01  0.27280773715E+02  0.51100000000E-03 0.  1.
         12    1    3    3    0    0  0.22133575251E+02 -0.14374259288E+02 -0.16045505417E+01  0.26440292470E+02  0.00000000000E+00 0. -1.
</event>
<event>
 7    1  0.6963701E-013  0.5930195E+02  0.7816164E-02  0.1266605E+00
        -11   -1    0    0    0    0  0.00000000000E+00  0.00000000000E+00  0.45593999997E+02  0.45594000000E+02  0.51100000000E-03 0. -1.
         11   -1    0    0    0    0 -0.00000000000E+00 -0.00000000000E+00 -0.45593999997E+02  0.45594000000E+02  0.51100000000E-03 0.  1.
    9900012    2    1    2    0    0  0.64112500644E+01  0.16455898778E+02 -0.26548441936E+02  0.59301945036E+02  0.50000001839E+02 0.  0.
         12    1    1    2    0    0 -0.64112500644E+01 -0.16455898778E+02  0.26548441936E+02  0.31886054964E+02  0.00000000000E+00 0. -1.
         11    1    3    3    0    0 -0.78167745569E+01 -0.97912931417E+01 -0.18204226619E+01  0.12660384070E+02  0.51100000000E-03 0. -1.
        -11    1    3    3    0    0  0.19826461572E+01  0.91879023484E+01 -0.23837181480E+02  0.25623420079E+02  0.51100000000E-03 0.  1.
         12    1    3    3    0    0  0.12245378464E+02  0.17059289571E+02 -0.89083779319E+00  0.21018140887E+02  0.00000000000E+00 0. -1.
</event>
<event>
 7    1  0.6963701E-013  0.5930193E+02  0.7816164E-02  0.1266605E+00
        -11   -1    0    0    0    0  0.00000000000E+00  0.00000000000E+00  0.45593999997E+02  0.45594000000E+02  0.51100000000E-03 0. -1.
         11   -1    0    0    0    0 -0.00000000000E+00 -0.00000000000E+00 -0.45593999997E+02  0.45594000000E+02  0.51100000000E-03 0.  1.
    9900012    2    1    2    0    0 -0.16047557856E+01  0.22996979804E+02 -0.22029186725E+02  0.59301931114E+02  0.49999976448E+02 0.  0.
         12    1    1    2    0    0  0.16047557856E+01 -0.22996979804E+02  0.22029186725E+02  0.31886068886E+02  0.00000000000E+00 0. -1.
         11    1    3    3    0    0  0.65419941858E+01  0.18899464708E+02 -0.34419140007E+01  0.20293699180E+02  0.51100000000E-03 0. -1.
        -11    1    3    3    0    0  0.69432689131E+01  0.12439829895E+02 -0.16245792524E+02  0.21607501614E+02  0.51100000000E-03 0.  1.
        -12    1    3    3    0    0 -0.15090018884E+02 -0.83423147984E+01 -0.23414802000E+01  0.17400730320E+02  0.00000000000E+00 0.  1.
</event>
<event>
 7    1  0.6963701E-013  0.5930194E+02  0.7816164E-02  0.1266605E+00
        -11   -1    0    0    0    0  0.00000000000E+00  0.00000000000E+00  0.45593999997E+02  0.45594000000E+02  0.51100000000E-03 0.  1.
         11   -1    0    0    0    0 -0.00000000000E+00 -0.00000000000E+00 -0.45593999997E+02  0.45594000000E+02  0.51100000000E-03 0. -1.
    9900012    2    1    2    0    0  0.29250940620E+01 -0.19469837322E+02  0.25081662456E+02  0.59301944549E+02  0.50000000951E+02 0.  0.
         12    1    1    2    0    0 -0.29250940620E+01  0.19469837322E+02 -0.25081662456E+02  0.31886055451E+02  0.00000000000E+00 0. -1.
         11    1    3    3    0    0  0.70457739258E+01 -0.11915166098E+02  0.16947028032E+02  0.21881861729E+02  0.51100000000E-03 0. -1.
        -11    1    3    3    0    0  0.44436176922E+01  0.64450387461E+01  0.17036992191E+02  0.18749489748E+02  0.51100000000E-03 0.  1.
         12    1    3    3    0    0 -0.85642975560E+01 -0.13999709971E+02 -0.89023577661E+01  0.18670593073E+02  0.00000000000E+00 0. -1.
</event>
<event>
 7    1  0.6963701E-013  0.5930190E+02  0.7816164E-02  0.1266605E+00
        -11   -1    0    0    0    0  0.00000000000E+00  0.00000000000E+00  0.45593999997E+02  0.45594000000E+02  0.51100000000E-03 0. -1.
         11   -1    0    0    0    0 -0.00000000000E+00 -0.00000000000E+00 -0.45593999997E+02  0.45594000000E+02  0.51100000000E-03 0.  1.
    9900012    2    1    2    0    0 -0.10413023387E+01 -0.85115746345E+01 -0.30711430504E+02  0.59301903078E+02  0.49999925317E+02 0.  0.
         12    1    1    2    0    0  0.10413023387E+01  0.85115746345E+01  0.30711430504E+02  0.31886096922E+02  0.00000000000E+00 0. -1.
         11    1    3    3    0    0 -0.12128284427E+02  0.79061617573E+01  0.49514828015E+01  0.15300975755E+02  0.51100000000E-03 0.  1.
        -11    1    3    3    0    0  0.52907079872E+01 -0.76480515807E+01 -0.31307447440E+01  0.98125351923E+01  0.51100000000E-03 0. -1.
        -12    1    3    3    0    0  0.57962741008E+01 -0.87696848111E+01 -0.32532168562E+02  0.34188392130E+02  0.00000000000E+00 0.  1.
</event>
<event>
 7    1  0.6963701E-013  0.5930192E+02  0.7816164E-02  0.1266605E+00
        -11   -1    0    0    0    0  0.00000000000E+00  0.00000000000E+00  0.45593999997E+02  0.45594000000E+02  0.51100000000E-03 0.  1.
         11   -1    0    0    0    0 -0.00000000000E+00 -0.00000000000E+00 -0.45593999997E+02  0.45594000000E+02  0.51100000000E-03 0. -1.
    9900012    2    1    2    0    0 -0.84190043822E+01  0.41743826294E+01  0.30469935184E+02  0.59301920667E+02  0.49999957395E+02 0.  0.
         12    1    1    2    0    0  0.84190043822E+01 -0.41743826294E+01 -0.30469935184E+02  0.31886079333E+02  0.00000000000E+00 0. -1.
         11    1    3    3    0    0 -0.67487448619E+01  0.98515348833E+01  0.18927117063E+02  0.22379322093E+02  0.51100000000E-03 0. -1.
        -11    1    3    3    0    0 -0.15323022689E+02 -0.53178434211E+01  0.15773631163E+02  0.22624807696E+02  0.51100000000E-03 0.  1.
        -12    1    3    3    0    0  0.13652763168E+02 -0.35930883273E+00 -0.42308130423E+01  0.14297790877E+02  0.00000000000E+00 0.  1.
</event>
<event>
 7    1  0.6963701E-013  0.5930195E+02  0.7816164E-02  0.1266605E+00
        -11   -1    0    0    0    0  0.00000000000E+00  0.00000000000E+00  0.45593999997E+02  0.45594000000E+02  0.51100000000E-03 0.  1.
         11   -1    0    0    0    0 -0.00000000000E+00 -0.00000000000E+00 -0.45593999997E+02  0.45594000000E+02  0.51100000000E-03 0. -1.
    9900012    2    1    2    0    0  0.13854988558E+02 -0.24732859258E+02  0.14596058028E+02  0.59301953757E+02  0.50000017744E+02 0.  0.
         12    1    1    2    0    0 -0.13854988558E+02  0.24732859258E+02 -0.14596058028E+02  0.31886046243E+02  0.00000000000E+00 0. -1.
         11    1    3    3    0    0  0.18056412229E+02 -0.30643865441E+02  0.13663079087E+02  0.38101971631E+02  0.51100000000E-03 0. -1.
        -11    1    3    3    0    0  0.61227446931E+00 -0.70634076261E+01  0.18616888655E+01  0.73302450854E+01  0.51100000000E-03 0.  1.
         12    1    3    3    0    0 -0.48136981406E+01  0.12974413809E+02 -0.92870992444E+00  0.13869737041E+02  0.00000000000E+00 0. -1.
</event>
<event>
 7    1  0.6963701E-013  0.5930194E+02  0.7816164E-02  0.1266605E+00
        -11   -1    0    0    0    0  0.00000000000E+00  0.00000000000E+00  0.45593999997E+02  0.45594000000E+02  0.51100000000E-03 0.  1.
         11   -1    0    0    0    0 -0.00000000000E+00 -0.00000000000E+00 -0.45593999997E+02  0.45594000000E+02  0.51100000000E-03 0. -1.
    9900012    2    1    2    0    0  0.13425732592E+02 -0.19529737761E+02  0.21332133522E+02  0.59301939201E+02  0.49999991198E+02 0.  0.
         12    1    1    2    0    0 -0.13425732592E+02  0.19529737761E+02 -0.21332133522E+02  0.31886060799E+02  0.00000000000E+00 0. -1.
         11    1    3    3    0    0 -0.23676155154E+01 -0.14823897563E+02 -0.55741161291E+01  0.16013254293E+02  0.51100000000E-03 0. -1.
        -11    1    3    3    0    0 -0.66422508645E+01  0.71997579844E+00  0.16820937162E+02  0.18099220673E+02  0.51100000000E-03 0.  1.
         12    1    3    3    0    0  0.22435598972E+02 -0.54258159971E+01  0.10085312489E+02  0.25189464235E+02  0.00000000000E+00 0. -1.
</event>
<event>
 7    1  0.6963701E-013  0.5930193E+02  0.7816164E-02  0.1266605E+00
        -11   -1    0    0    0    0  0.00000000000E+00  0.00000000000E+00  0.45593999997E+02  0.45594000000E+02  0.51100000000E-03 0.  1.
         11   -1    0    0    0    0 -0.00000000000E+00 -0.00000000000E+00 -0.45593999997E+02  0.45594000000E+02  0.51100000000E-03 0. -1.
    9900012    2    1    2    0    0 -0.64919101175E+01 -0.95483276566E+01  0.29722146471E+02  0.59301930175E+02  0.49999974737E+02 0.  0.
         12    1    1    2    0    0  0.64919101175E+01  0.95483276566E+01 -0.29722146471E+02  0.31886069825E+02  0.00000000000E+00 0. -1.
         11    1    3    3    0    0  0.69481003089E+00  0.71185609580E+01  0.23058302046E+01  0.75148868445E+01  0.51100000000E-03 0. -1.
        -11    1    3    3    0    0  0.59125988873E+01  0.99879718009E+01  0.16438955108E+02  0.20123559616E+02  0.51100000000E-03 0.  1.
         12    1    3    3    0    0 -0.13099319036E+02 -0.26654860416E+02  0.10977361158E+02  0.31663483715E+02  0.00000000000E+00 0. -1.
</event>
<event>
 7    1  0.6963701E-013  0.5930195E+02  0.7816164E-02  0.1266605E+00
        -11   -1    0    0    0    0  0.00000000000E+00  0.00000000000E+00  0.45593999997E+02  0.45594000000E+02  0.51100000000E-03 0. -1.
         11   -1    0    0    0    0 -0.00000000000E+00 -0.00000000000E+00 -0.45593999997E+02  0.45594000000E+02  0.51100000000E-03 0.  1.
    9900012    2    1    2    0    0 -0.10630508744E+02 -0.12971341380E+02 -0.27119307466E+02  0.59301948962E+02  0.50000008999E+02 0.  0.
         12    1    1    2    0    0  0.10630508744E+02  0.12971341380E+02  0.27119307466E+02  0.31886051038E+02  0.00000000000E+00 0. -1.
         11    1    3    3    0    0 -0.10488433431E+02  0.65250970502E+01 -0.28190426865E+01  0.12670087974E+02  0.51100000000E-03 0. -1.
        -11    1    3    3    0    0 -0.56647840136E+01  0.51085361973E+01 -0.19530874605E+02  0.20967641333E+02  0.51100000000E-03 0.  1.
        -12    1    3    3    0    0  0.55227087003E+01 -0.24604974628E+02 -0.47693901747E+01  0.25664219654E+02  0.00000000000E+00 0.  1.
</event>
<event>
 7    1  0.6963701E-013  0.5930183E+02  0.7816164E-02  0.1266605E+00
        -11   -1    0    0    0    0  0.00000000000E+00  0.00000000000E+00  0.45593999997E+02  0.45594000000E+02  0.51100000000E-03 0. -1.
         11   -1    0    0    0    0 -0.00000000000E+00 -0.00000000000E+00 -0.45593999997E+02  0.45594000000E+02  0.51100000000E-03 0.  1.
    9900012    2    1    2    0    0  0.31615709263E+02  0.17604644383E+01  0.37517437550E+01  0.59301829198E+02  0.49999790578E+02 0.  0.
         12    1    1    2    0    0 -0.31615709263E+02 -0.17604644383E+01 -0.37517437550E+01  0.31886170802E+02  0.00000000000E+00 0. -1.
         11    1    3    3    0    0  0.12903807160E+02  0.45433432423E+01  0.18865316870E+02  0.23303441547E+02  0.51100000000E-03 0.  1.
        -11    1    3    3    0    0  0.57563507992E+00  0.27414819583E+01  0.66016709804E+01  0.71714112326E+01  0.51100000000E-03 0. -1.
        -12    1    3    3    0    0  0.18136267022E+02 -0.55243607624E+01 -0.21715244095E+02  0.28826976419E+02  0.00000000000E+00 0.  1.
</event>
<event>
 7    1  0.6963701E-013  0.5930195E+02  0.7816164E-02  0.1266605E+00
        -11   -1    0    0    0    0  0.00000000000E+00  0.00000000000E+00  0.45593999997E+02  0.45594000000E+02  0.51100000000E-03 0.  1.
         11   -1    0    0    0    0 -0.00000000000E+00 -0.00000000000E+00 -0.45593999997E+02  0.45594000000E+02  0.51100000000E-03 0. -1.
    9900012    2    1    2    0    0  0.18621733349E+02 -0.12601866209E+01  0.25852716196E+02  0.59301953554E+02  0.50000017375E+02 0.  0.
         12    1    1    2    0    0 -0.18621733349E+02  0.12601866209E+01 -0.25852716196E+02  0.31886046446E+02  0.00000000000E+00 0. -1.
         11    1    3    3    0    0  0.14783875473E+02 -0.15132517420E+02  0.11260665308E+02  0.23965780624E+02  0.51100000000E-03 0. -1.
        -11    1    3    3    0    0  0.81023823095E+01  0.44377480812E+01  0.21150592424E+02  0.23080072947E+02  0.51100000000E-03 0.  1.
         12    1    3    3    0    0 -0.42645244343E+01  0.94345827179E+01 -0.65585415362E+01  0.12256099983E+02  0.00000000000E+00 0. -1.
</event>
<event>
 7    1  0.6963701E-013  0.5930192E+02  0.7816164E-02  0.1266605E+00
        -11   -1    0    0    0    0  0.00000000000E+00  0.00000000000E+00  0.45593999997E+02  0.45594000000E+02  0.51100000000E-03 0.  1.
         11   -1    0    0    0    0 -0.00000000000E+00 -0.00000000000E+00 -0.45593999997E+02  0.45594000000E+02  0.51100000000E-03 0. -1.
    9900012    2    1    2    0    0  0.11604834347E+02 -0.10613880148E+01  0.29680357941E+02  0.59301915696E+02  0.49999948330E+02 0.  0.
         12    1    1    2    0    0 -0.11604834347E+02  0.10613880148E+01 -0.29680357941E+02  0.31886084304E+02  0.00000000000E+00 0. -1.
         11    1    3    3    0    0 -0.96403047020E+01 -0.10394792259E+02  0.87556953370E+01  0.16662814347E+02  0.51100000000E-03 0. -1.
        -11    1    3    3    0    0  0.54327728340E+01  0.13146037306E+02  0.22153752196E+02  0.26327211287E+02  0.51100000000E-03 0.  1.
        -12    1    3    3    0    0  0.15812366215E+02 -0.38126330613E+01 -0.12290895925E+01  0.16311890062E+02  0.00000000000E+00 0.  1.
</event>
<event>
 7    1  0.6963701E-013  0.5930195E+02  0.7816164E-02  0.1266605E+00
        -11   -1    0    0    0    0  0.00000000000E+00  0.00000000000E+00  0.45593999997E+02  0.45594000000E+02  0.51100000000E-03 0. -1.
         11   -1    0    0    0    0 -0.00000000000E+00 -0.00000000000E+00 -0.45593999997E+02  0.45594000000E+02  0.51100000000E-03 0.  1.
    9900012    2    1    2    0    0  0.40109748599E+00  0.30213828502E+01 -0.31740049492E+02  0.59301947010E+02  0.50000005438E+02 0.  0.
         12    1    1    2    0    0 -0.40109748599E+00 -0.30213828502E+01  0.31740049492E+02  0.31886052990E+02  0.00000000000E+00 0. -1.
         11    1    3    3    0    0 -0.80155917422E+01  0.31013764698E+01 -0.81845129387E+00  0.86335456080E+01  0.51100000000E-03 0. -1.
        -11    1    3    3    0    0 -0.87220611338E+01  0.14752669549E+02 -0.10114398741E+02  0.19900167622E+02  0.51100000000E-03 0.  1.
        -12    1    3    3    0    0  0.17138750362E+02 -0.14832663169E+02 -0.20807199457E+02  0.30768233779E+02  0.00000000000E+00 0.  1.
</event>
<event>
 7    1  0.6963701E-013  0.5930196E+02  0.7816164E-02  0.1266605E+00
        -11   -1    0    0    0    0  0.00000000000E+00  0.00000000000E+00  0.45593999997E+02  0.45594000000E+02  0.51100000000E-03 0.  1.
         11   -1    0    0    0    0 -0.00000000000E+00 -0.00000000000E+00 -0.45593999997E+02  0.45594000000E+02  0.51100000000E-03 0. -1.
    9900012    2    1    2    0    0 -0.14890737297E+02 -0.23435889243E+02  0.15676242351E+02  0.59301960169E+02  0.50000029438E+02 0.  0.
         12    1    1    2    0    0  0.14890737297E+02  0.23435889243E+02 -0.15676242351E+02  0.31886039831E+02  0.00000000000E+00 0. -1.
         11    1    3    3    0    0 -0.56521092484E+01 -0.11267026973E+02 -0.69243356591E+01  0.14381886537E+02  0.51100000000E-03 0.  1.
        -11    1    3    3    0    0 -0.10770691908E+02 -0.13963409787E+02 -0.41084551151E+01  0.18107015788E+02  0.51100000000E-03 0. -1.
        -12    1    3    3    0    0  0.15320638598E+01  0.17945475173E+01  0.26709033125E+02  0.26813057844E+02  0.00000000000E+00 0.  1.
</event>
<event>
 7    1  0.6963701E-013  0.5930195E+02  0.7816164E-02  0.1266605E+00
        -11   -1    0    0    0    0  0.00000000000E+00  0.00000000000E+00  0.45593999997E+02  0.45594000000E+02  0.51100000000E-03 0.  1.
         11   -1    0    0    0    0 -0.00000000000E+00 -0.00000000000E+00 -0.45593999997E+02  0.45594000000E+02  0.51100000000E-03 0. -1.
    9900012    2    1    2    0    0 -0.23108414377E+02  0.15527584679E+02  0.15543980427E+02  0.59301952447E+02  0.50000015355E+02 0.  0.
         12    1    1    2    0    0  0.23108414377E+02 -0.15527584679E+02 -0.15543980427E+02  0.31886047553E+02  0.00000000000E+00 0. -1.
         11    1    3    3    0    0 -0.60928662811E+01 -0.68545891536E+01 -0.38749809326E+01  0.99560981048E+01  0.51100000000E-03 0. -1.
        -11    1    3    3    0    0 -0.14286512690E+02  0.97181821855E+01 -0.79847990976E+01  0.19034298693E+02  0.51100000000E-03 0.  1.
        -12    1    3    3    0    0 -0.27290354058E+01  0.12663991647E+02  0.27403760457E+02  0.30311555650E+02  0.00000000000E+00 0.  1.
</event>
<event>
 7    1  0.6963701E-013  0.5930215E+02  0.7816164E-02  0.1266604E+00
        -11   -1    0    0    0    0  0.00000000000E+00  0.00000000000E+00  0.45593999997E+02  0.45594000000E+02  0.51100000000E-03 0.  1.
         11   -1    0    0    0    0 -0.00000000000E+00 -0.00000000000E+00 -0.45593999997E+02  0.45594000000E+02  0.51100000000E-03 0. -1.
    9900012    2    1    2    0    0  0.11937883121E+01  0.26559173540E+02 -0.17603772112E+02  0.59302146990E+02  0.50000370152E+02 0.  0.
         12    1    1    2    0    0 -0.11937883121E+01 -0.26559173540E+02  0.17603772112E+02  0.31885853010E+02  0.00000000000E+00 0. -1.
         11    1    3    3    0    0 -0.54456517774E+01  0.27016342341E+02 -0.15361110938E+02  0.31551570583E+02  0.51100000000E-03 0. -1.
        -11    1    3    3    0    0 -0.59066295071E+01  0.72340730574E+01  0.57867083273E+01  0.10986631816E+02  0.51100000000E-03 0.  1.
         12    1    3    3    0    0  0.12546069597E+02 -0.76912418583E+01 -0.80293695009E+01  0.16763944590E+02  0.00000000000E+00 0. -1.
</event>
<event>
 7    1  0.6963701E-013  0.5930194E+02  0.7816164E-02  0.1266605E+00
        -11   -1    0    0    0    0  0.00000000000E+00  0.00000000000E+00  0.45593999997E+02  0.45594000000E+02  0.51100000000E-03 0. -1.
         11   -1    0    0    0    0 -0.00000000000E+00 -0.00000000000E+00 -0.45593999997E+02  0.45594000000E+02  0.51100000000E-03 0.  1.
    9900012    2    1    2    0    0 -0.26565400383E+02 -0.17473451396E+02 -0.23829832590E+01  0.59301943323E+02  0.49999998714E+02 0.  0.
         12    1    1    2    0    0  0.26565400383E+02  0.17473451396E+02  0.23829832590E+01  0.31886056677E+02  0.00000000000E+00 0. -1.
         11    1    3    3    0    0  0.53161348179E+01  0.46474937848E+01 -0.35899174790E+01  0.79213632443E+01  0.51100000000E-03 0.  1.
        -11    1    3    3    0    0 -0.23633596724E+02 -0.30087653156E+02 -0.45851536246E+01  0.38533587953E+02  0.51100000000E-03 0. -1.
         12    1    3    3    0    0 -0.82479384766E+01  0.79667079744E+01  0.57920878446E+01  0.12846992125E+02  0.00000000000E+00 0. -1.
</event>
<event>
 7    1  0.6963701E-013  0.5930194E+02  0.7816164E-02  0.1266605E+00
        -11   -1    0    0    0    0  0.00000000000E+00  0.00000000000E+00  0.45593999997E+02  0.45594000000E+02  0.51100000000E-03 0.  1.
         11   -1    0    0    0    0 -0.00000000000E+00 -0.00000000000E+00 -0.45593999997E+02  0.45594000000E+02  0.51100000000E-03 0. -1.
    9900012    2    1    2    0    0  0.93861635939E+00 -0.30922836428E+02  0.77212537167E+01  0.59301943919E+02  0.49999999802E+02 0.  0.
         12    1    1    2    0    0 -0.93861635939E+00  0.30922836428E+02 -0.77212537167E+01  0.31886056081E+02  0.00000000000E+00 0. -1.
         11    1    3    3    0    0  0.10254673090E+02  0.16886744045E+01 -0.10849594904E+02  0.15024102345E+02  0.51100000000E-03 0. -1.
        -11    1    3    3    0    0  0.38626732867E+01 -0.10007370918E+02  0.14126536982E+02  0.17737721527E+02  0.51100000000E-03 0.  1.
        -12    1    3    3    0    0 -0.13178730017E+02 -0.22604139915E+02  0.44443116394E+01  0.26540120047E+02  0.00000000000E+00 0.  1.
</event>
<event>
 7    1  0.6963701E-013  0.5930195E+02  0.7816164E-02  0.1266605E+00
        -11   -1    0    0    0    0  0.00000000000E+00  0.00000000000E+00  0.45593999997E+02  0.45594000000E+02  0.51100000000E-03 0.  1.
         11   -1    0    0    0    0 -0.00000000000E+00 -0.00000000000E+00 -0.45593999997E+02  0.45594000000E+02  0.51100000000E-03 0. -1.
    9900012    2    1    2    0    0  0.38222936663E+01 -0.31379396079E+02  0.41765628413E+01  0.59301951259E+02  0.50000013188E+02 0.  0.
         12    1    1    2    0    0 -0.38222936663E+01  0.31379396079E+02 -0.41765628413E+01  0.31886048741E+02  0.00000000000E+00 0. -1.
         11    1    3    3    0    0  0.41881366618E+01 -0.59466931608E+01  0.17399072048E+02  0.18858190704E+02  0.51100000000E-03 0. -1.
        -11    1    3    3    0    0  0.47493733918E+01 -0.24154157739E+01  0.74001115478E+01  0.91187955431E+01  0.51100000000E-03 0.  1.
         12    1    3    3    0    0 -0.51152163874E+01 -0.23017287144E+02 -0.20622620755E+02  0.31324965011E+02  0.00000000000E+00 0. -1.
</event>
<event>
 7    1  0.6963701E-013  0.5930196E+02  0.7816164E-02  0.1266605E+00
        -11   -1    0    0    0    0  0.00000000000E+00  0.00000000000E+00  0.45593999997E+02  0.45594000000E+02  0.51100000000E-03 0.  1.
         11   -1    0    0    0    0 -0.00000000000E+00 -0.00000000000E+00 -0.45593999997E+02  0.45594000000E+02  0.51100000000E-03 0. -1.
    9900012    2    1    2    0    0 -0.25834056728E+02 -0.18640582126E+02  0.13600718337E+01  0.59301959411E+02  0.50000028055E+02 0.  0.
         12    1    1    2    0    0  0.25834056728E+02  0.18640582126E+02 -0.13600718337E+01  0.31886040589E+02  0.00000000000E+00 0. -1.
         11    1    3    3    0    0  0.43623270296E+01 -0.21305480131E+01  0.34688191033E+01  0.59667275940E+01  0.51100000000E-03 0. -1.
        -11    1    3    3    0    0 -0.12351547382E+02  0.39974758655E+01  0.16050350929E+02  0.20643505062E+02  0.51100000000E-03 0.  1.
         12    1    3    3    0    0 -0.17844836376E+02 -0.20507509979E+02 -0.18159098199E+02  0.32691726755E+02  0.00000000000E+00 0. -1.
</event>
<event>
 7    1  0.6963701E-013  0.5930192E+02  0.7816164E-02  0.1266605E+00
        -11   -1    0    0    0    0  0.00000000000E+00  0.00000000000E+00  0.45593999997E+02  0.45594000000E+02  0.51100000000E-03 0.  1.
         11   -1    0    0    0    0 -0.00000000000E+00 -0.00000000000E+00 -0.45593999997E+02  0.45594000000E+02  0.51100000000E-03 0. -1.
    9900012    2    1    2    0    0  0.24409459449E+02  0.20158186522E+02 -0.38141802299E+01  0.59301918941E+02  0.49999954248E+02 0.  0.
         12    1    1    2    0    0 -0.24409459449E+02 -0.20158186522E+02  0.38141802299E+01  0.31886081059E+02  0.00000000000E+00 0. -1.
         11    1    3    3    0    0  0.24384268579E+02  0.14286483988E+02 -0.10144114456E+02  0.30026642124E+02  0.51100000000E-03 0. -1.
        -11    1    3    3    0    0  0.13094027520E+02 -0.20678278515E+01  0.22182605619E+01  0.13440615645E+02  0.51100000000E-03 0.  1.
        -12    1    3    3    0    0 -0.13068836650E+02  0.79395303858E+01  0.41116736640E+01  0.15834661172E+02  0.00000000000E+00 0.  1.
</event>
<event>
 7    1  0.6963701E-013  0.5930194E+02  0.7816164E-02  0.1266605E+00
        -11   -1    0    0    0    0  0.00000000000E+00  0.00000000000E+00  0.45593999997E+02  0.45594000000E+02  0.51100000000E-03 0. -1.
         11   -1    0    0    0    0 -0.00000000000E+00 -0.00000000000E+00 -0.45593999997E+02  0.45594000000E+02  0.51100000000E-03 0.  1.
    9900012    2    1    2    0    0 -0.27647493948E+01  0.11593152551E+02 -0.29574915075E+02  0.59301943063E+02  0.49999998240E+02 0.  0.
         12    1    1    2    0    0  0.27647493948E+01 -0.11593152551E+02  0.29574915075E+02  0.31886056937E+02  0.00000000000E+00 0. -1.
         11    1    3    3    0    0  0.55130843788E+01  0.16546652516E+02 -0.60388756462E+01  0.18456809806E+02  0.51100000000E-03 0.  1.
        -11    1    3    3    0    0 -0.33126128513E+01 -0.75516987272E+01  0.63690462196E+01  0.10419515707E+02  0.51100000000E-03 0. -1.
         12    1    3    3    0    0 -0.49652209224E+01  0.25981987621E+01 -0.29905085649E+02  0.30425617550E+02  0.00000000000E+00 0. -1.
</event>
<event>
 7    1  0.6963701E-013  0.5930195E+02  0.7816164E-02  0.1266605E+00
        -11   -1    0    0    0    0  0.00000000000E+00  0.00000000000E+00  0.45593999997E+02  0.45594000000E+02  0.51100000000E-03 0. -1.
         11   -1    0    0    0    0 -0.00000000000E+00 -0.00000000000E+00 -0.45593999997E+02  0.45594000000E+02  0.51100000000E-03 0.  1.
    9900012    2    1    2    0    0 -0.10318831013E+02 -0.27089504694E+02 -0.13281595990E+02  0.59301947719E+02  0.50000006731E+02 0.  0.
         12    1    1    2    0    0  0.10318831013E+02  0.27089504694E+02  0.13281595990E+02  0.31886052281E+02  0.00000000000E+00 0. -1.
         11    1    3    3    0    0  0.84961768034E+01  0.91430435644E+00 -0.37786021357E+01  0.93433830646E+01  0.51100000000E-03 0. -1.
        -11    1    3    3    0    0  0.74275549031E+01 -0.50799588108E+01 -0.12028712474E+02  0.15022132918E+02  0.51100000000E-03 0.  1.
        -12    1    3    3    0    0 -0.26242562720E+02 -0.22923850240E+02  0.25257186196E+01  0.34936431736E+02  0.00000000000E+00 0.  1.
</event>
<event>
 7    1  0.6963701E-013  0.5930196E+02  0.7816164E-02  0.1266605E+00
        -11   -1    0    0    0    0  0.00000000000E+00  0.00000000000E+00  0.45593999997E+02  0.45594000000E+02  0.51100000000E-03 0.  1.
         11   -1    0    0    0    0 -0.00000000000E+00 -0.00000000000E+00 -0.45593999997E+02  0.45594000000E+02  0.51100000000E-03 0. -1.
    9900012    2    1    2    0    0 -0.21023660993E+02 -0.21164724382E+02  0.11259647027E+02  0.59301960251E+02  0.50000029587E+02 0.  0.
         12    1    1    2    0    0  0.21023660993E+02  0.21164724382E+02 -0.11259647027E+02  0.31886039749E+02  0.00000000000E+00 0. -1.
         11    1    3    3    0    0  0.25193094303E+01 -0.26062185122E+01 -0.85395939504E+00  0.37240491201E+01  0.51100000000E-03 0. -1.
        -11    1    3    3    0    0 -0.81551727919E+01  0.12666192368E+02 -0.61449927577E+01  0.16269609972E+02  0.51100000000E-03 0.  1.
         12    1    3    3    0    0 -0.15387797631E+02 -0.31224698238E+02  0.18258599180E+02  0.39308301159E+02  0.00000000000E+00 0. -1.
</event>
<event>
 7    1  0.6963701E-013  0.5930187E+02  0.7816164E-02  0.1266605E+00
        -11   -1    0    0    0    0  0.00000000000E+00  0.00000000000E+00  0.45593999997E+02  0.45594000000E+02  0.51100000000E-03 0.  1.
         11   -1    0    0    0    0 -0.00000000000E+00 -0.00000000000E+00 -0.45593999997E+02  0.45594000000E+02  0.51100000000E-03 0. -1.
    9900012    2    1    2    0    0 -0.14073220210E+02  0.12343370444E+02  0.25812994146E+02  0.59301874682E+02  0.49999873530E+02 0.  0.
         12    1    1    2    0    0  0.14073220210E+02 -0.12343370444E+02 -0.25812994146E+02  0.31886125318E+02  0.00000000000E+00 0. -1.
         11    1    3    3    0    0 -0.14352741098E+02  0.21913979645E+01 -0.31881001723E+01  0.14864971747E+02  0.51100000000E-03 0. -1.
        -11    1    3    3    0    0 -0.54663578414E+01  0.16677202038E+02  0.40459696670E+01  0.18010552648E+02  0.51100000000E-03 0.  1.
        -12    1    3    3    0    0  0.57458787287E+01 -0.65252295587E+01  0.24955124651E+02  0.26426350287E+02  0.00000000000E+00 0.  1.
</event>
<event>
 7    1  0.6963701E-013  0.5930196E+02  0.7816164E-02  0.1266605E+00
        -11   -1    0    0    0    0  0.00000000000E+00  0.00000000000E+00  0.45593999997E+02  0.45594000000E+02  0.51100000000E-03 0. -1.
         11   -1    0    0    0    0 -0.00000000000E+00 -0.00000000000E+00 -0.45593999997E+02  0.45594000000E+02  0.51100000000E-03 0.  1.
    9900012    2    1    2    0    0  0.19589744789E+01 -0.27242883756E+02 -0.16453185275E+02  0.59301959135E+02  0.50000027552E+02 0.  0.
         12    1    1    2    0    0 -0.19589744789E+01  0.27242883756E+02  0.16453185275E+02  0.31886040865E+02  0.00000000000E+00 0. -1.
         11    1    3    3    0    0  0.14789451790E+02 -0.36151167245E+01 -0.48685654031E+01  0.15984363689E+02  0.51100000000E-03 0. -1.
        -11    1    3    3    0    0 -0.31875799627E+01 -0.29678177447E+02 -0.11342030140E+02  0.31931121661E+02  0.51100000000E-03 0.  1.
        -12    1    3    3    0    0 -0.96428973488E+01  0.60504104151E+01 -0.24258973208E+00  0.11386473785E+02  0.00000000000E+00 0.  1.
</event>
<event>
 7    1  0.6963701E-013  0.5930194E+02  0.7816164E-02  0.1266605E+00
        -11   -1    0    0    0    0  0.00000000000E+00  0.00000000000E+00  0.45593999997E+02  0.45594000000E+02  0.51100000000E-03 0.  1.
         11   -1    0    0    0    0 -0.00000000000E+00 -0.00000000000E+00 -0.45593999997E+02  0.45594000000E+02  0.51100000000E-03 0. -1.
    9900012    2    1    2    0    0 -0.25275833242E+02 -0.19374309034E+02  0.15777448099E+01  0.59301939169E+02  0.49999991139E+02 0.  0.
         12    1    1    2    0    0  0.25275833242E+02  0.19374309034E+02 -0.15777448099E+01  0.31886060831E+02  0.00000000000E+00 0. -1.
         11    1    3    3    0    0 -0.89378774261E+01 -0.67981535908E+01 -0.19613954464E+00  0.11231162723E+02  0.51100000000E-03 0. -1.
        -11    1    3    3    0    0 -0.13091111876E+02 -0.12510082842E+02  0.21482807428E+02  0.28096092221E+02  0.51100000000E-03 0.  1.
        -12    1    3    3    0    0 -0.32468439403E+01 -0.66072601653E-01 -0.19708923074E+02  0.19974684225E+02  0.00000000000E+00 0.  1.
</event>
<event>
 7    1  0.6963701E-013  0.5930194E+02  0.7816164E-02  0.1266605E+00
        -11   -1    0    0    0    0  0.00000000000E+00  0.00000000000E+00  0.45593999997E+02  0.45594000000E+02  0.51100000000E-03 0. -1.
         11   -1    0    0    0    0 -0.00000000000E+00 -0.00000000000E+00 -0.45593999997E+02  0.45594000000E+02  0.51100000000E-03 0.  1.
    9900012    2    1    2    0    0  0.27468108632E+02  0.16127642492E+02 -0.14570990366E+01  0.59301937500E+02  0.49999988095E+02 0.  0.
         12    1    1    2    0    0 -0.27468108632E+02 -0.16127642492E+02  0.14570990366E+01  0.31886062500E+02  0.00000000000E+00 0. -1.
         11    1    3    3    0    0  0.26057466298E+02  0.13585549111E+02 -0.13032038471E+01  0.29415251742E+02  0.51100000000E-03 0. -1.
        -11    1    3    3    0    0  0.11880935564E+02 -0.31145419787E+01  0.87019320980E+01  0.15052595262E+02  0.51100000000E-03 0.  1.
        -12    1    3    3    0    0 -0.10470293230E+02  0.56566353595E+01 -0.88558272875E+01  0.14834090496E+02  0.00000000000E+00 0.  1.
</event>
<event>
 7    1  0.6963701E-013  0.5930193E+02  0.7816164E-02  0.1266605E+00
        -11   -1    0    0    0    0  0.00000000000E+00  0.00000000000E+00  0.45593999997E+02  0.45594000000E+02  0.51100000000E-03 0.  1.
         11   -1    0    0    0    0 -0.00000000000E+00 -0.00000000000E+00 -0.45593999997E+02  0.45594000000E+02  0.51100000000E-03 0. -1.
    9900012    2    1    2    0    0 -0.31564152885E+02 -0.29913007582E+01  0.33878516432E+01  0.59301934605E+02  0.49999982816E+02 0.  0.
         12    1    1    2    0    0  0.31564152885E+02  0.29913007582E+01 -0.33878516432E+01  0.31886065395E+02  0.00000000000E+00 0. -1.
         11    1    3    3    0    0 -0.28111640189E+02 -0.31082527430E+01 -0.25890281306E+01  0.28401208005E+02  0.51100000000E-03 0. -1.
        -11    1    3    3    0    0 -0.31233997204E+01  0.11796815128E+02 -0.64836789340E+01  0.13818775842E+02  0.51100000000E-03 0.  1.
        -12    1    3    3    0    0 -0.32911297623E+00 -0.11679863144E+02  0.12460558708E+02  0.17081950758E+02  0.00000000000E+00 0.  1.
</event>
<event>
 7    1  0.6963701E-013  0.5930194E+02  0.7816164E-02  0.1266605E+00
        -11   -1    0    0    0    0  0.00000000000E+00  0.00000000000E+00  0.45593999997E+02  0.45594000000E+02  0.51100000000E-03 0. -1.
         11   -1    0    0    0    0 -0.00000000000E+00 -0.00000000000E+00 -0.45593999997E+02  0.45594000000E+02  0.51100000000E-03 0.  1.
    9900012    2    1    2    0    0 -0.20904767560E+02  0.23835764682E+02  0.34011672992E+01  0.59301938410E+02  0.49999989755E+02 0.  0.
         12    1    1    2    0    0  0.20904767560E+02 -0.23835764682E+02 -0.34011672992E+01  0.31886061590E+02  0.00000000000E+00 0. -1.
         11    1    3    3    0    0  0.11388866072E+02  0.37351218162E+01  0.58744830999E+01  0.13347919588E+02  0.51100000000E-03 0.  1.
        -11    1    3    3    0    0  0.18039772142E+00 -0.23103785934E+01 -0.59100082908E+01  0.63481171099E+01  0.51100000000E-03 0. -1.
        -12    1    3    3    0    0 -0.32474031353E+02  0.22411021459E+02  0.34366924902E+01  0.39605901712E+02  0.00000000000E+00 0.  1.
</event>
<event>
 7    1  0.6963701E-013  0.5930179E+02  0.7816164E-02  0.1266605E+00
        -11   -1    0    0    0    0  0.00000000000E+00  0.00000000000E+00  0.45593999997E+02  0.45594000000E+02  0.51100000000E-03 0.  1.
         11   -1    0    0    0    0 -0.00000000000E+00 -0.00000000000E+00 -0.45593999997E+02  0.45594000000E+02  0.51100000000E-03 0. -1.
    9900012    2    1    2    0    0 -0.42468561776E+01 -0.29356273017E+02  0.11700588501E+02  0.59301791004E+02  0.49999720922E+02 0.  0.
         12    1    1    2    0    0  0.42468561776E+01  0.29356273017E+02 -0.11700588501E+02  0.31886208996E+02  0.00000000000E+00 0. -1.
         11    1    3    3    0    0 -0.34273848091E+01  0.57922099131E+01  0.84792778526E+01  0.10825655429E+02  0.51100000000E-03 0. -1.
        -11    1    3    3    0    0  0.14665592389E+02 -0.23900266336E+02 -0.33494410125E+01  0.28240415833E+02  0.51100000000E-03 0.  1.
         12    1    3    3    0    0 -0.15485063757E+02 -0.11248216594E+02  0.65707516607E+01  0.20235719742E+02  0.00000000000E+00 0. -1.
</event>
<event>
 7    1  0.6963701E-013  0.5930193E+02  0.7816164E-02  0.1266605E+00
        -11   -1    0    0    0    0  0.00000000000E+00  0.00000000000E+00  0.45593999997E+02  0.45594000000E+02  0.51100000000E-03 0. -1.
         11   -1    0    0    0    0 -0.00000000000E+00 -0.00000000000E+00 -0.45593999997E+02  0.45594000000E+02  0.51100000000E-03 0.  1.
    9900012    2    1    2    0    0  0.47260501260E+01 -0.30488649896E+02  0.80515893646E+01  0.59301930729E+02  0.49999975746E+02 0.  0.
         12    1    1    2    0    0 -0.47260501260E+01  0.30488649896E+02 -0.80515893646E+01  0.31886069271E+02  0.00000000000E+00 0. -1.
         11    1    3    3    0    0 -0.17294704258E+01  0.65172661768E+01 -0.76143509353E+01  0.10170750552E+02  0.51100000000E-03 0. -1.
        -11    1    3    3    0    0 -0.18226055790E+01  0.35341953354E+01 -0.16135292502E+01  0.42913756148E+01  0.51100000000E-03 0.  1.
        -12    1    3    3    0    0  0.82781261307E+01 -0.40540111408E+02  0.17279469550E+02  0.44839804562E+02  0.00000000000E+00 0.  1.
</event>
<event>
 7    1  0.6963701E-013  0.5930199E+02  0.7816164E-02  0.1266605E+00
        -11   -1    0    0    0    0  0.00000000000E+00  0.00000000000E+00  0.45593999997E+02  0.45594000000E+02  0.51100000000E-03 0.  1.
         11   -1    0    0    0    0 -0.00000000000E+00 -0.00000000000E+00 -0.45593999997E+02  0.45594000000E+02  0.51100000000E-03 0. -1.
    9900012    2    1    2    0    0 -0.21882533450E+02  0.14479837141E+02 -0.18116478789E+02  0.59301988058E+02  0.50000080300E+02 0.  0.
         12    1    1    2    0    0  0.21882533450E+02 -0.14479837141E+02  0.18116478789E+02  0.31886011942E+02  0.00000000000E+00 0. -1.
         11    1    3    3    0    0 -0.28988286891E+02  0.40550320188E+01 -0.19439627385E+02  0.35137774185E+02  0.51100000000E-03 0. -1.
        -11    1    3    3    0    0 -0.70840263127E+01  0.25116173835E+01 -0.15253059766E+01  0.76693030494E+01  0.51100000000E-03 0.  1.
         12    1    3    3    0    0  0.14189779753E+02  0.79131877389E+01  0.28484545720E+01  0.16494910824E+02  0.00000000000E+00 0. -1.
</event>
<event>
 7    1  0.6963701E-013  0.5930197E+02  0.7816164E-02  0.1266605E+00
        -11   -1    0    0    0    0  0.00000000000E+00  0.00000000000E+00  0.45593999997E+02  0.45594000000E+02  0.51100000000E-03 0.  1.
         11   -1    0    0    0    0 -0.00000000000E+00 -0.00000000000E+00 -0.45593999997E+02  0.45594000000E+02  0.51100000000E-03 0. -1.
    9900012    2    1    2    0    0  0.46176778943E+01  0.18353566635E+02  0.25662084596E+02  0.59301969466E+02  0.50000046394E+02 0.  0.
         12    1    1    2    0    0 -0.46176778943E+01 -0.18353566635E+02 -0.25662084596E+02  0.31886030534E+02  0.00000000000E+00 0. -1.
         11    1    3    3    0    0  0.35324376132E+01 -0.92058768482E+01  0.21062270940E+02  0.23256086116E+02  0.51100000000E-03 0. -1.
        -11    1    3    3    0    0 -0.12454272692E+01 -0.18850071497E+01 -0.45873396199E+01  0.51135140644E+01  0.51100000000E-03 0.  1.
        -12    1    3    3    0    0  0.23306675504E+01  0.29444450633E+02  0.91871532762E+01  0.30932369285E+02  0.00000000000E+00 0.  1.
</event>
<event>
 7    1  0.6963701E-013  0.5930194E+02  0.7816164E-02  0.1266605E+00
        -11   -1    0    0    0    0  0.00000000000E+00  0.00000000000E+00  0.45593999997E+02  0.45594000000E+02  0.51100000000E-03 0. -1.
         11   -1    0    0    0    0 -0.00000000000E+00 -0.00000000000E+00 -0.45593999997E+02  0.45594000000E+02  0.51100000000E-03 0.  1.
    9900012    2    1    2    0    0 -0.23071441256E+02 -0.19332827119E+02  0.10520040232E+02  0.59301939526E+02  0.49999991790E+02 0.  0.
         12    1    1    2    0    0  0.23071441256E+02  0.19332827119E+02 -0.10520040232E+02  0.31886060474E+02  0.00000000000E+00 0. -1.
         11    1    3    3    0    0 -0.87819106947E+00 -0.90678890266E+01  0.10427688298E+02  0.13846823262E+02  0.51100000000E-03 0. -1.
        -11    1    3    3    0    0 -0.10467252576E+02  0.10532309933E+02  0.11703017617E+02  0.18906442041E+02  0.51100000000E-03 0.  1.
        -12    1    3    3    0    0 -0.11725997611E+02 -0.20797248026E+02 -0.11610665683E+02  0.26548674223E+02  0.00000000000E+00 0.  1.
</event>
<event>
 7    1  0.6963701E-013  0.5930161E+02  0.7816164E-02  0.1266606E+00
        -11   -1    0    0    0    0  0.00000000000E+00  0.00000000000E+00  0.45593999997E+02  0.45594000000E+02  0.51100000000E-03 0.  1.
         11   -1    0    0    0    0 -0.00000000000E+00 -0.00000000000E+00 -0.45593999997E+02  0.45594000000E+02  0.51100000000E-03 0. -1.
    9900012    2    1    2    0    0  0.18599421215E+02 -0.81046171194E+01  0.24599161222E+02  0.59301607589E+02  0.49999386412E+02 0.  0.
         12    1    1    2    0    0 -0.18599421215E+02  0.81046171194E+01 -0.24599161222E+02  0.31886392411E+02  0.00000000000E+00 0. -1.
         11    1    3    3    0    0  0.12150612779E+01  0.74881769483E+01 -0.93967946608E+00  0.76440935158E+01  0.51100000000E-03 0. -1.
        -11    1    3    3    0    0  0.17933135639E+02  0.90986114770E+01  0.97873431418E+01  0.22364574011E+02  0.51100000000E-03 0.  1.
        -12    1    3    3    0    0 -0.54877570156E+00 -0.24691405545E+02  0.15751497546E+02  0.29292940062E+02  0.00000000000E+00 0.  1.
</event>
<event>
 7    1  0.6963701E-013  0.5930194E+02  0.7816164E-02  0.1266605E+00
        -11   -1    0    0    0    0  0.00000000000E+00  0.00000000000E+00  0.45593999997E+02  0.45594000000E+02  0.51100000000E-03 0.  1.
         11   -1    0    0    0    0 -0.00000000000E+00 -0.00000000000E+00 -0.45593999997E+02  0.45594000000E+02  0.51100000000E-03 0. -1.
    9900012    2    1    2    0    0 -0.35361403507E+01  0.29978463329E+02  0.10271724971E+02  0.59301939001E+02  0.49999990833E+02 0.  0.
         12    1    1    2    0    0  0.35361403507E+01 -0.29978463329E+02 -0.10271724971E+02  0.31886060999E+02  0.00000000000E+00 0. -1.
         11    1    3    3    0    0 -0.23087340760E+02  0.24126151123E+02  0.29216222479E+01  0.33520625713E+02  0.51100000000E-03 0. -1.
        -11    1    3    3    0    0  0.35112704002E+01  0.50261583504E+01  0.75410482555E+01  0.97189863999E+01  0.51100000000E-03 0.  1.
        -12    1    3    3    0    0  0.16039930009E+02  0.82615385503E+00 -0.19094553253E+00  0.16062326888E+02  0.00000000000E+00 0.  1.
</event>
<event>
 7    1  0.6963701E-013  0.5930194E+02  0.7816164E-02  0.1266605E+00
        -11   -1    0    0    0    0  0.00000000000E+00  0.00000000000E+00  0.45593999997E+02  0.45594000000E+02  0.51100000000E-03 0.  1.
         11   -1    0    0    0    0 -0.00000000000E+00 -0.00000000000E+00 -0.45593999997E+02  0.45594000000E+02  0.51100000000E-03 0. -1.
    9900012    2    1    2    0    0 -0.17895815605E+02  0.10585260852E+02  0.24174631023E+02  0.59301941156E+02  0.49999994763E+02 0.  0.
         12    1    1    2    0    0  0.17895815605E+02 -0.10585260852E+02 -0.24174631023E+02  0.31886058844E+02  0.00000000000E+00 0. -1.
         11    1    3    3    0    0 -0.19640716986E+02  0.15880158843E+01  0.12349851809E+01  0.19743473525E+02  0.51100000000E-03 0. -1.
        -11    1    3    3    0    0 -0.12549923546E+02  0.89726140549E+01  0.19483290220E+02  0.24851699782E+02  0.51100000000E-03 0.  1.
        -12    1    3    3    0    0  0.14294824927E+02  0.24630912437E-01  0.34563556225E+01  0.14706767849E+02  0.00000000000E+00 0.  1.
</event>
<event>
 7    1  0.6963701E-013  0.5930196E+02  0.7816164E-02  0.1266605E+00
        -11   -1    0    0    0    0  0.00000000000E+00  0.00000000000E+00  0.45593999997E+02  0.45594000000E+02  0.51100000000E-03 0. -1.
         11   -1    0    0    0    0 -0.00000000000E+00 -0.00000000000E+00 -0.45593999997E+02  0.45594000000E+02  0.51100000000E-03 0.  1.
    9900012    2    1    2    0    0  0.93045513866E+01 -0.13918424260E+01 -0.30466500465E+02  0.59301959913E+02  0.50000028971E+02 0.  0.
         12    1    1    2    0    0 -0.93045513866E+01  0.13918424260E+01  0.30466500465E+02  0.31886040087E+02  0.00000000000E+00 0. -1.
         11    1    3    3    0    0  0.16920715869E+01 -0.11528459904E+02 -0.14663643382E+01  0.11743880050E+02  0.51100000000E-03 0. -1.
        -11    1    3    3    0    0  0.16990076768E+02 -0.98603173004E+00 -0.23292131225E+01  0.17177316472E+02  0.51100000000E-03 0.  1.
        -12    1    3    3    0    0 -0.93775969685E+01  0.11122649208E+02 -0.26670923004E+02  0.30380763390E+02  0.00000000000E+00 0.  1.
</event>
<event>
 7    1  0.6963701E-013  0.5930189E+02  0.7816164E-02  0.1266605E+00
        -11   -1    0    0    0    0  0.00000000000E+00  0.00000000000E+00  0.45593999997E+02  0.45594000000E+02  0.51100000000E-03 0.  1.
         11   -1    0    0    0    0 -0.00000000000E+00 -0.00000000000E+00 -0.45593999997E+02  0.45594000000E+02  0.51100000000E-03 0. -1.
    9900012    2    1    2    0    0  0.19791324084E+02 -0.24449636660E+02  0.52194641270E+01  0.59301889425E+02  0.49999900418E+02 0.  0.
         12    1    1    2    0    0 -0.19791324084E+02  0.24449636660E+02 -0.52194641270E+01  0.31886110575E+02  0.00000000000E+00 0. -1.
         11    1    3    3    0    0  0.42613031911E+01 -0.21089312861E+02 -0.14547952582E+01  0.21564652822E+02  0.51100000000E-03 0.  1.
        -11    1    3    3    0    0 -0.43542426054E+01 -0.25504240856E+01 -0.10371674996E+02  0.11534111763E+02  0.51100000000E-03 0. -1.
        -12    1    3    3    0    0  0.19884263498E+02 -0.80989971403E+00  0.17045934381E+02  0.26203124840E+02  0.00000000000E+00 0.  1.
</event>
<event>
 7    1  0.6963701E-013  0.5930197E+02  0.7816164E-02  0.1266605E+00
        -11   -1    0    0    0    0  0.00000000000E+00  0.00000000000E+00  0.45593999997E+02  0.45594000000E+02  0.51100000000E-03 0.  1.
         11   -1    0    0    0    0 -0.00000000000E+00 -0.00000000000E+00 -0.45593999997E+02  0.45594000000E+02  0.51100000000E-03 0. -1.
    9900012    2    1    2    0    0 -0.19932320275E+02 -0.21898652863E+02  0.11826683455E+02  0.59301971236E+02  0.50000049622E+02 0.  0.
         12    1    1    2    0    0  0.19932320275E+02  0.21898652863E+02 -0.11826683455E+02  0.31886028764E+02  0.00000000000E+00 0. -1.
         11    1    3    3    0    0 -0.21028788090E+02 -0.66715864494E+01  0.50112959379E+01  0.22623728286E+02  0.51100000000E-03 0.  1.
        -11    1    3    3    0    0  0.56359368511E+01 -0.17388364936E+02 -0.87902553495E+01  0.20282692343E+02  0.51100000000E-03 0. -1.
         12    1    3    3    0    0 -0.45394690362E+01  0.21612985223E+01  0.15605642867E+02  0.16395550607E+02  0.00000000000E+00 0. -1.
</event>
<event>
 7    1  0.6963701E-013  0.5930195E+02  0.7816164E-02  0.1266605E+00
        -11   -1    0    0    0    0  0.00000000000E+00  0.00000000000E+00  0.45593999997E+02  0.45594000000E+02  0.51100000000E-03 0. -1.
         11   -1    0    0    0    0 -0.00000000000E+00 -0.00000000000E+00 -0.45593999997E+02  0.45594000000E+02  0.51100000000E-03 0.  1.
    9900012    2    1    2    0    0  0.99391853994E+01  0.16851768592E+02 -0.25178372905E+02  0.59301953315E+02  0.50000016937E+02 0.  0.
         12    1    1    2    0    0 -0.99391853994E+01 -0.16851768592E+02  0.25178372905E+02  0.31886046685E+02  0.00000000000E+00 0. -1.
         11    1    3    3    0    0 -0.20910131105E+01  0.11849960334E+02 -0.48955590969E+00  0.12042988042E+02  0.51100000000E-03 0. -1.
        -11    1    3    3    0    0  0.23624667322E+02  0.11995751410E+02 -0.13744751382E+02  0.29848637302E+02  0.51100000000E-03 0.  1.
        -12    1    3    3    0    0 -0.11594468812E+02 -0.69939431525E+01 -0.10944065614E+02  0.17410327970E+02  0.00000000000E+00 0.  1.
</event>
<event>
 7    1  0.6963701E-013  0.5930191E+02  0.7816164E-02  0.1266605E+00
        -11   -1    0    0    0    0  0.00000000000E+00  0.00000000000E+00  0.45593999997E+02  0.45594000000E+02  0.51100000000E-03 0.  1.
         11   -1    0    0    0    0 -0.00000000000E+00 -0.00000000000E+00 -0.45593999997E+02  0.45594000000E+02  0.51100000000E-03 0. -1.
    9900012    2    1    2    0    0  0.20619471527E+02  0.58001313505E+01  0.23620301876E+02  0.59301909138E+02  0.49999936369E+02 0.  0.
         12    1    1    2    0    0 -0.20619471527E+02 -0.58001313505E+01 -0.23620301876E+02  0.31886090862E+02  0.00000000000E+00 0. -1.
         11    1    3    3    0    0  0.80482391417E+01  0.43735495331E+01 -0.10342288519E+02  0.13815390724E+02  0.51100000000E-03 0. -1.
        -11    1    3    3    0    0 -0.43438235507E+01 -0.85688022715E+01  0.60529671847E+01  0.11354804596E+02  0.51100000000E-03 0.  1.
        -12    1    3    3    0    0  0.16915055936E+02  0.99953840889E+01  0.27909623210E+02  0.34131713818E+02  0.00000000000E+00 0.  1.
</event>
<event>
 7    1  0.6963701E-013  0.5930194E+02  0.7816164E-02  0.1266605E+00
        -11   -1    0    0    0    0  0.00000000000E+00  0.00000000000E+00  0.45593999997E+02  0.45594000000E+02  0.51100000000E-03 0.  1.
         11   -1    0    0    0    0 -0.00000000000E+00 -0.00000000000E+00 -0.45593999997E+02  0.45594000000E+02  0.51100000000E-03 0. -1.
    9900012    2    1    2    0    0  0.30004762569E+02  0.95675699291E+01 -0.49896377707E+01  0.59301942604E+02  0.49999997404E+02 0.  0.
         12    1    1    2    0    0 -0.30004762569E+02 -0.95675699291E+01  0.49896377707E+01  0.31886057396E+02  0.00000000000E+00 0. -1.
         11    1    3    3    0    0 -0.46998489144E+01  0.79387200567E+01 -0.47710876915E+01  0.10386295489E+02  0.51100000000E-03 0. -1.
        -11    1    3    3    0    0  0.80991291225E+01  0.12769467079E+02  0.10208849640E+02  0.18244884029E+02  0.51100000000E-03 0.  1.
        -12    1    3    3    0    0  0.26605482361E+02 -0.11140617207E+02 -0.10427399719E+02  0.30670763086E+02  0.00000000000E+00 0.  1.
</event>
<event>
 7    1  0.6963701E-013  0.5930199E+02  0.7816164E-02  0.1266605E+00
        -11   -1    0    0    0    0  0.00000000000E+00  0.00000000000E+00  0.45593999997E+02  0.45594000000E+02  0.51100000000E-03 0. -1.
         11   -1    0    0    0    0 -0.00000000000E+00 -0.00000000000E+00 -0.45593999997E+02  0.45594000000E+02  0.51100000000E-03 0.  1.
    9900012    2    1    2    0    0 -0.12053371360E+02  0.15839726301E+02 -0.24910574483E+02  0.59301993484E+02  0.50000090197E+02 0.  0.
         12    1    1    2    0    0  0.12053371360E+02 -0.15839726301E+02  0.24910574483E+02  0.31886006516E+02  0.00000000000E+00 0. -1.
         11    1    3    3    0    0 -0.26133373622E+02  0.51959932923E+01 -0.81048310042E+01  0.27850311471E+02  0.51100000000E-03 0. -1.
        -11    1    3    3    0    0 -0.12989863581E+01 -0.18468971063E+01  0.27875095297E+01  0.35872836686E+01  0.51100000000E-03 0.  1.
        -12    1    3    3    0    0  0.15378988620E+02  0.12490630115E+02 -0.19593253009E+02  0.27864398345E+02  0.00000000000E+00 0.  1.
</event>
<event>
 7    1  0.6963701E-013  0.5930195E+02  0.7816164E-02  0.1266605E+00
        -11   -1    0    0    0    0  0.00000000000E+00  0.00000000000E+00  0.45593999997E+02  0.45594000000E+02  0.51100000000E-03 0.  1.
         11   -1    0    0    0    0 -0.00000000000E+00 -0.00000000000E+00 -0.45593999997E+02  0.45594000000E+02  0.51100000000E-03 0. -1.
    9900012    2    1    2    0    0  0.14342788461E+01 -0.14243113206E+02  0.28492042260E+02  0.59301954435E+02  0.50000018980E+02 0.  0.
         12    1    1    2    0    0 -0.14342788461E+01  0.14243113206E+02 -0.28492042260E+02  0.31886045565E+02  0.00000000000E+00 0. -1.
         11    1    3    3    0    0 -0.93958217086E+01 -0.88704283435E+01  0.18736432331E+01  0.13056665110E+02  0.51100000000E-03 0.  1.
        -11    1    3    3    0    0  0.11919701011E+02 -0.11045024409E+02 -0.26039273028E+01  0.16457590165E+02  0.51100000000E-03 0. -1.
        -12    1    3    3    0    0 -0.10896004559E+01  0.56723395468E+01  0.29222326330E+02  0.29787699160E+02  0.00000000000E+00 0.  1.
</event>
<event>
 7    1  0.6963701E-013  0.5930194E+02  0.7816164E-02  0.1266605E+00
        -11   -1    0    0    0    0  0.00000000000E+00  0.00000000000E+00  0.45593999997E+02  0.45594000000E+02  0.51100000000E-03 0. -1.
         11   -1    0    0    0    0 -0.00000000000E+00 -0.00000000000E+00 -0.45593999997E+02  0.45594000000E+02  0.51100000000E-03 0.  1.
    9900012    2    1    2    0    0  0.20444995491E+01 -0.29456672506E+02 -0.12035167153E+02  0.59301940633E+02  0.49999993809E+02 0.  0.
         12    1    1    2    0    0 -0.20444995491E+01  0.29456672506E+02  0.12035167153E+02  0.31886059367E+02  0.00000000000E+00 0. -1.
         11    1    3    3    0    0 -0.36902390981E+01 -0.53318670364E+01 -0.52107028489E+01  0.83185392429E+01  0.51100000000E-03 0.  1.
        -11    1    3    3    0    0 -0.13480773260E+02 -0.20024266839E+02 -0.16342756673E+02  0.29151127012E+02  0.51100000000E-03 0. -1.
         12    1    3    3    0    0  0.19215511907E+02 -0.41005386311E+01  0.95182923685E+01  0.21832274378E+02  0.00000000000E+00 0. -1.
</event>
<event>
 7    1  0.6963701E-013  0.5930196E+02  0.7816164E-02  0.1266605E+00
        -11   -1    0    0    0    0  0.00000000000E+00  0.00000000000E+00  0.45593999997E+02  0.45594000000E+02  0.51100000000E-03 0.  1.
         11   -1    0    0    0    0 -0.00000000000E+00 -0.00000000000E+00 -0.45593999997E+02  0.45594000000E+02  0.51100000000E-03 0. -1.
    9900012    2    1    2    0    0  0.30571322591E+02  0.89328181769E+01 -0.15227160701E+01  0.59301958073E+02  0.50000025615E+02 0.  0.
         12    1    1    2    0    0 -0.30571322591E+02 -0.89328181769E+01  0.15227160701E+01  0.31886041927E+02  0.00000000000E+00 0. -1.
         11    1    3    3    0    0  0.15699018180E+01 -0.10517069766E+02 -0.29854646224E+01  0.11044742978E+02  0.51100000000E-03 0. -1.
        -11    1    3    3    0    0 -0.36368974924E+00  0.18758508000E+01  0.12232179862E+02  0.12380521431E+02  0.51100000000E-03 0.  1.
         12    1    3    3    0    0  0.29365110522E+02  0.17574037143E+02 -0.10769431310E+02  0.35876693664E+02  0.00000000000E+00 0. -1.
</event>
<event>
 7    1  0.6963701E-013  0.5930201E+02  0.7816164E-02  0.1266605E+00
        -11   -1    0    0    0    0  0.00000000000E+00  0.00000000000E+00  0.45593999997E+02  0.45594000000E+02  0.51100000000E-03 0. -1.
         11   -1    0    0    0    0 -0.00000000000E+00 -0.00000000000E+00 -0.45593999997E+02  0.45594000000E+02  0.51100000000E-03 0.  1.
    9900012    2    1    2    0    0 -0.21825313387E+02  0.34556109097E+01 -0.22987620850E+02  0.59302011485E+02  0.50000123026E+02 0.  0.
         12    1    1    2    0    0  0.21825313387E+02 -0.34556109097E+01  0.22987620850E+02  0.31885988515E+02  0.00000000000E+00 0. -1.
         11    1    3    3    0    0  0.88952243424E+01  0.98468029926E+01 -0.14538232620E+02  0.19683616366E+02  0.51100000000E-03 0. -1.
        -11    1    3    3    0    0 -0.52937148606E+01 -0.11558762688E+02 -0.36989448067E+01  0.13240491111E+02  0.51100000000E-03 0.  1.
        -12    1    3    3    0    0 -0.25426822869E+02  0.51675706051E+01 -0.47504434236E+01  0.26377904009E+02  0.00000000000E+00 0.  1.
</event>
<event>
 7    1  0.6963701E-013  0.5930195E+02  0.7816164E-02  0.1266605E+00
        -11   -1    0    0    0    0  0.00000000000E+00  0.00000000000E+00  0.45593999997E+02  0.45594000000E+02  0.51100000000E-03 0.  1.
         11   -1    0    0    0    0 -0.00000000000E+00 -0.00000000000E+00 -0.45593999997E+02  0.45594000000E+02  0.51100000000E-03 0. -1.
    9900012    2    1    2    0    0  0.83337005800E+01  0.27529642328E+02  0.13761857239E+02  0.59301945263E+02  0.50000002252E+02 0.  0.
         12    1    1    2    0    0 -0.83337005800E+01 -0.27529642328E+02 -0.13761857239E+02  0.31886054737E+02  0.00000000000E+00 0. -1.
         11    1    3    3    0    0  0.14234718308E+02 -0.60343546609E+01  0.84988107613E+01  0.17642857651E+02  0.51100000000E-03 0. -1.
        -11    1    3    3    0    0  0.76258164075E+01  0.43849647581E+01  0.34405237407E+01  0.94455384009E+01  0.51100000000E-03 0.  1.
        -12    1    3    3    0    0 -0.13526834135E+02  0.29179032231E+02  0.18225227365E+01  0.32213549211E+02  0.00000000000E+00 0.  1.
</event>
<event>
 7    1  0.6963701E-013  0.5930194E+02  0.7816164E-02  0.1266605E+00
        -11   -1    0    0    0    0  0.00000000000E+00  0.00000000000E+00  0.45593999997E+02  0.45594000000E+02  0.51100000000E-03 0. -1.
         11   -1    0    0    0    0 -0.00000000000E+00 -0.00000000000E+00 -0.45593999997E+02  0.45594000000E+02  0.51100000000E-03 0.  1.
    9900012    2    1    2    0    0  0.19937444521E+02  0.23576440662E+02 -0.79605673201E+01  0.59301939089E+02  0.49999990994E+02 0.  0.
         12    1    1    2    0    0 -0.19937444521E+02 -0.23576440662E+02  0.79605673201E+01  0.31886060911E+02  0.00000000000E+00 0. -1.
         11    1    3    3    0    0 -0.16145921158E+02  0.11194815798E+02 -0.46699485511E+01  0.20194630240E+02  0.51100000000E-03 0. -1.
        -11    1    3    3    0    0  0.82069483956E+00  0.19781010160E+01  0.31895546948E+00  0.21652151168E+01  0.51100000000E-03 0.  1.
         12    1    3    3    0    0  0.35262670839E+02  0.10403523848E+02 -0.36095742385E+01  0.36942093733E+02  0.00000000000E+00 0. -1.
</event>
<event>
 7    1  0.6963701E-013  0.5930193E+02  0.7816164E-02  0.1266605E+00
        -11   -1    0    0    0    0  0.00000000000E+00  0.00000000000E+00  0.45593999997E+02  0.45594000000E+02  0.51100000000E-03 0.  1.
         11   -1    0    0    0    0 -0.00000000000E+00 -0.00000000000E+00 -0.45593999997E+02  0.45594000000E+02  0.51100000000E-03 0. -1.
    9900012    2    1    2    0    0 -0.16008673813E+02 -0.25992456666E+02 -0.92106418407E+01  0.59301931507E+02  0.49999977166E+02 0.  0.
         12    1    1    2    0    0  0.16008673813E+02  0.25992456666E+02  0.92106418407E+01  0.31886068493E+02  0.00000000000E+00 0. -1.
         11    1    3    3    0    0 -0.23547400245E+02 -0.95222678455E+01 -0.16865807800E+02  0.30489491899E+02  0.51100000000E-03 0. -1.
        -11    1    3    3    0    0 -0.13902662806E+01 -0.29373621462E+01 -0.65144779364E+01  0.72800659169E+01  0.51100000000E-03 0.  1.
        -12    1    3    3    0    0  0.89289927121E+01 -0.13532826675E+02  0.14169643896E+02  0.21532373692E+02  0.00000000000E+00 0.  1.
</event>
<event>
 7    1  0.6963701E-013  0.5930194E+02  0.7816164E-02  0.1266605E+00
        -11   -1    0    0    0    0  0.00000000000E+00  0.00000000000E+00  0.45593999997E+02  0.45594000000E+02  0.51100000000E-03 0.  1.
         11   -1    0    0    0    0 -0.00000000000E+00 -0.00000000000E+00 -0.45593999997E+02  0.45594000000E+02  0.51100000000E-03 0. -1.
    9900012    2    1    2    0    0  0.12900250733E+01  0.18518792847E+02  0.25925100007E+02  0.59301942489E+02  0.49999997194E+02 0.  0.
         12    1    1    2    0    0 -0.12900250733E+01 -0.18518792847E+02 -0.25925100007E+02  0.31886057511E+02  0.00000000000E+00 0. -1.
         11    1    3    3    0    0 -0.17018840026E+02 -0.22786579452E+01  0.10232602009E+02  0.19988480232E+02  0.51100000000E-03 0. -1.
        -11    1    3    3    0    0 -0.23400980963E+01  0.13967228198E+02  0.78594743753E+01  0.16196631142E+02  0.51100000000E-03 0.  1.
         12    1    3    3    0    0  0.20648963195E+02  0.68302225934E+01  0.78330236236E+01  0.23116831115E+02  0.00000000000E+00 0. -1.
</event>
<event>
 7    1  0.6963701E-013  0.5930197E+02  0.7816164E-02  0.1266605E+00
        -11   -1    0    0    0    0  0.00000000000E+00  0.00000000000E+00  0.45593999997E+02  0.45594000000E+02  0.51100000000E-03 0. -1.
         11   -1    0    0    0    0 -0.00000000000E+00 -0.00000000000E+00 -0.45593999997E+02  0.45594000000E+02  0.51100000000E-03 0.  1.
    9900012    2    1    2    0    0 -0.77190218534E+01  0.10938608866E+01 -0.30918269544E+02  0.59301965100E+02  0.50000038431E+02 0.  0.
         12    1    1    2    0    0  0.77190218534E+01 -0.10938608866E+01  0.30918269544E+02  0.31886034900E+02  0.00000000000E+00 0. -1.
         11    1    3    3    0    0  0.14948633527E+01  0.59291217748E+01  0.29850766609E+01  0.68043944915E+01  0.51100000000E-03 0. -1.
        -11    1    3    3    0    0 -0.65242070494E+01  0.13818959072E+02 -0.29377816299E+02  0.33114724795E+02  0.51100000000E-03 0.  1.
         12    1    3    3    0    0 -0.26896781566E+01 -0.18654219960E+02 -0.45255299057E+01  0.19382845814E+02  0.00000000000E+00 0. -1.
</event>
<event>
 7    1  0.6963701E-013  0.5930192E+02  0.7816164E-02  0.1266605E+00
        -11   -1    0    0    0    0  0.00000000000E+00  0.00000000000E+00  0.45593999997E+02  0.45594000000E+02  0.51100000000E-03 0.  1.
         11   -1    0    0    0    0 -0.00000000000E+00 -0.00000000000E+00 -0.45593999997E+02  0.45594000000E+02  0.51100000000E-03 0. -1.
    9900012    2    1    2    0    0 -0.47887260052E+01  0.24937792658E+02  0.19284626437E+02  0.59301918143E+02  0.49999952792E+02 0.  0.
         12    1    1    2    0    0  0.47887260052E+01 -0.24937792658E+02 -0.19284626437E+02  0.31886081857E+02  0.00000000000E+00 0. -1.
         11    1    3    3    0    0 -0.22607867188E+02  0.13917047856E+02  0.75294151809E+01  0.27595144012E+02  0.51100000000E-03 0. -1.
        -11    1    3    3    0    0 -0.46023877838E+01  0.67453437176E+00  0.92479865719E+00  0.47425966251E+01  0.51100000000E-03 0.  1.
        -12    1    3    3    0    0  0.22421528967E+02  0.10346210430E+02  0.10830412599E+02  0.26964177505E+02  0.00000000000E+00 0.  1.
</event>
<event>
 7    1  0.6963701E-013  0.5930198E+02  0.7816164E-02  0.1266605E+00
        -11   -1    0    0    0    0  0.00000000000E+00  0.00000000000E+00  0.45593999997E+02  0.45594000000E+02  0.51100000000E-03 0.  1.
         11   -1    0    0    0    0 -0.00000000000E+00 -0.00000000000E+00 -0.45593999997E+02  0.45594000000E+02  0.51100000000E-03 0. -1.
    9900012    2    1    2    0    0 -0.24579707456E+02  0.34803585454E+01  0.20011085009E+02  0.59301977397E+02  0.50000060857E+02 0.  0.
         12    1    1    2    0    0  0.24579707456E+02 -0.34803585454E+01 -0.20011085009E+02  0.31886022603E+02  0.00000000000E+00 0. -1.
         11    1    3    3    0    0  0.72674583308E+01  0.89878588093E+01 -0.38690813537E+01  0.12188820589E+02  0.51100000000E-03 0. -1.
        -11    1    3    3    0    0 -0.88458120682E+01 -0.12220062537E+02  0.31093887984E+01  0.15402812033E+02  0.51100000000E-03 0.  1.
         12    1    3    3    0    0 -0.23001353718E+02  0.67125622729E+01  0.20770777564E+02  0.31710344775E+02  0.00000000000E+00 0. -1.
</event>
<event>
 7    1  0.6963701E-013  0.5930196E+02  0.7816164E-02  0.1266605E+00
        -11   -1    0    0    0    0  0.00000000000E+00  0.00000000000E+00  0.45593999997E+02  0.45594000000E+02  0.51100000000E-03 0.  1.
         11   -1    0    0    0    0 -0.00000000000E+00 -0.00000000000E+00 -0.45593999997E+02  0.45594000000E+02  0.51100000000E-03 0. -1.
    9900012    2    1    2    0    0  0.16426125524E+01  0.53851230451E+01  0.31385056133E+02  0.59301961132E+02  0.50000031194E+02 0.  0.
         12    1    1    2    0    0 -0.16426125524E+01 -0.53851230451E+01 -0.31385056133E+02  0.31886038868E+02  0.00000000000E+00 0. -1.
         11    1    3    3    0    0  0.59607874125E+01 -0.34803143627E+01  0.10405129847E+02  0.12486404688E+02  0.51100000000E-03 0. -1.
        -11    1    3    3    0    0  0.14543677017E+02 -0.73401668857E+01  0.42240262103E+01  0.16829705546E+02  0.51100000000E-03 0.  1.
         12    1    3    3    0    0 -0.18861851877E+02  0.16205604293E+02  0.16755900076E+02  0.29985850898E+02  0.00000000000E+00 0. -1.
</event>
<event>
 7    1  0.6963701E-013  0.5930193E+02  0.7816164E-02  0.1266605E+00
        -11   -1    0    0    0    0  0.00000000000E+00  0.00000000000E+00  0.45593999997E+02  0.45594000000E+02  0.51100000000E-03 0.  1.
         11   -1    0    0    0    0 -0.00000000000E+00 -0.00000000000E+00 -0.45593999997E+02  0.45594000000E+02  0.51100000000E-03 0. -1.
    9900012    2    1    2    0    0 -0.18075665480E+02 -0.25999880579E+02  0.37414022553E+01  0.59301928378E+02  0.49999971458E+02 0.  0.
         12    1    1    2    0    0  0.18075665480E+02  0.25999880579E+02 -0.37414022553E+01  0.31886071622E+02  0.00000000000E+00 0. -1.
         11    1    3    3    0    0  0.34337429181E+01  0.12368879813E+02 -0.35555335576E+01  0.13319969873E+02  0.51100000000E-03 0. -1.
        -11    1    3    3    0    0 -0.59606649178E+00 -0.32104045479E-01 -0.13392162039E+01  0.14662285750E+01  0.51100000000E-03 0.  1.
        -12    1    3    3    0    0 -0.20913341906E+02 -0.38336656347E+02  0.86361520167E+01  0.44515729930E+02  0.00000000000E+00 0.  1.
</event>
<event>
 7    1  0.6963701E-013  0.5930195E+02  0.7816164E-02  0.1266605E+00
        -11   -1    0    0    0    0  0.00000000000E+00  0.00000000000E+00  0.45593999997E+02  0.45594000000E+02  0.51100000000E-03 0. -1.
         11   -1    0    0    0    0 -0.00000000000E+00 -0.00000000000E+00 -0.45593999997E+02  0.45594000000E+02  0.51100000000E-03 0.  1.
    9900012    2    1    2    0    0 -0.26941135872E+02  0.28855746866E+01 -0.16809791581E+02  0.59301946053E+02  0.50000003693E+02 0.  0.
         12    1    1    2    0    0  0.26941135872E+02 -0.28855746866E+01  0.16809791581E+02  0.31886053947E+02  0.00000000000E+00 0. -1.
         11    1    3    3    0    0  0.15898481692E+01 -0.41200391260E+01  0.12082064896E+02  0.12863849813E+02  0.51100000000E-03 0. -1.
        -11    1    3    3    0    0 -0.71845325644E+01  0.12368341138E+02 -0.10289325037E+02  0.17619976750E+02  0.51100000000E-03 0.  1.
        -12    1    3    3    0    0 -0.21346451477E+02 -0.53627273252E+01 -0.18602531439E+02  0.28818119490E+02  0.00000000000E+00 0.  1.
</event>
<event>
 7    1  0.6963701E-013  0.5930200E+02  0.7816164E-02  0.1266605E+00
        -11   -1    0    0    0    0  0.00000000000E+00  0.00000000000E+00  0.45593999997E+02  0.45594000000E+02  0.51100000000E-03 0.  1.
         11   -1    0    0    0    0 -0.00000000000E+00 -0.00000000000E+00 -0.45593999997E+02  0.45594000000E+02  0.51100000000E-03 0. -1.
    9900012    2    1    2    0    0 -0.48903559769E+01  0.49498225221E+01  0.31117528851E+02  0.59302001092E+02  0.50000104071E+02 0.  0.
         12    1    1    2    0    0  0.48903559769E+01 -0.49498225221E+01 -0.31117528851E+02  0.31885998908E+02  0.00000000000E+00 0. -1.
         11    1    3    3    0    0  0.14205892749E+02  0.10801600485E+01  0.20225668223E+00  0.14248334729E+02  0.51100000000E-03 0. -1.
        -11    1    3    3    0    0 -0.37173602196E+01  0.50139855453E+01 -0.36314229123E+01  0.72212222428E+01  0.51100000000E-03 0.  1.
        -12    1    3    3    0    0 -0.15378888507E+02 -0.11443230717E+01  0.34546695081E+02  0.37832444119E+02  0.00000000000E+00 0.  1.
</event>
<event>
 7    1  0.6963701E-013  0.5930193E+02  0.7816164E-02  0.1266605E+00
        -11   -1    0    0    0    0  0.00000000000E+00  0.00000000000E+00  0.45593999997E+02  0.45594000000E+02  0.51100000000E-03 0.  1.
         11   -1    0    0    0    0 -0.00000000000E+00 -0.00000000000E+00 -0.45593999997E+02  0.45594000000E+02  0.51100000000E-03 0. -1.
    9900012    2    1    2    0    0  0.17733861476E+01 -0.24122148172E+02 -0.20777351152E+02  0.59301933266E+02  0.49999980374E+02 0.  0.
         12    1    1    2    0    0 -0.17733861476E+01  0.24122148172E+02  0.20777351152E+02  0.31886066734E+02  0.00000000000E+00 0. -1.
         11    1    3    3    0    0  0.11017760277E+02 -0.13797112059E+02 -0.13141568511E+02  0.22010274099E+02  0.51100000000E-03 0. -1.
        -11    1    3    3    0    0  0.26236394686E+01  0.46552363902E+01  0.99667158605E+01  0.11308852073E+02  0.51100000000E-03 0.  1.
         12    1    3    3    0    0 -0.11868013598E+02 -0.14980272503E+02 -0.17602498501E+02  0.25982807094E+02  0.00000000000E+00 0. -1.
</event>
<event>
 7    1  0.6963701E-013  0.5930194E+02  0.7816164E-02  0.1266605E+00
        -11   -1    0    0    0    0  0.00000000000E+00  0.00000000000E+00  0.45593999997E+02  0.45594000000E+02  0.51100000000E-03 0.  1.
         11   -1    0    0    0    0 -0.00000000000E+00 -0.00000000000E+00 -0.45593999997E+02  0.45594000000E+02  0.51100000000E-03 0. -1.
    9900012    2    1    2    0    0  0.23926299468E+02 -0.60521783058E+00  0.21068624878E+02  0.59301936443E+02  0.49999986168E+02 0.  0.
         12    1    1    2    0    0 -0.23926299468E+02  0.60521783058E+00 -0.21068624878E+02  0.31886063557E+02  0.00000000000E+00 0. -1.
         11    1    3    3    0    0  0.21625305624E+02  0.76822747838E+01 -0.25574568552E+01  0.23091378803E+02  0.51100000000E-03 0. -1.
        -11    1    3    3    0    0  0.93073177335E+01  0.42962428942E+01  0.23483739443E+01  0.10516592929E+02  0.51100000000E-03 0.  1.
        -12    1    3    3    0    0 -0.70063238896E+01 -0.12583735509E+02  0.21277707789E+02  0.25693964711E+02  0.00000000000E+00 0.  1.
</event>
<event>
 7    1  0.6963701E-013  0.5930197E+02  0.7816164E-02  0.1266605E+00
        -11   -1    0    0    0    0  0.00000000000E+00  0.00000000000E+00  0.45593999997E+02  0.45594000000E+02  0.51100000000E-03 0. -1.
         11   -1    0    0    0    0 -0.00000000000E+00 -0.00000000000E+00 -0.45593999997E+02  0.45594000000E+02  0.51100000000E-03 0.  1.
    9900012    2    1    2    0    0  0.38074571632E+01  0.82187565469E+01 -0.30572445642E+02  0.59301966667E+02  0.50000041288E+02 0.  0.
         12    1    1    2    0    0 -0.38074571632E+01 -0.82187565469E+01  0.30572445642E+02  0.31886033333E+02  0.00000000000E+00 0. -1.
         11    1    3    3    0    0  0.67827572007E+01 -0.73432712741E+00 -0.25330715247E+02  0.26233378866E+02  0.51100000000E-03 0. -1.
        -11    1    3    3    0    0 -0.14417639679E+02  0.89889901525E+01 -0.11018779542E+02  0.20250525443E+02  0.51100000000E-03 0.  1.
         12    1    3    3    0    0  0.11442339642E+02 -0.35906478181E-01  0.57770491467E+01  0.12818062357E+02  0.00000000000E+00 0. -1.
</event>
<event>
 7    1  0.6963701E-013  0.5930200E+02  0.7816164E-02  0.1266605E+00
        -11   -1    0    0    0    0  0.00000000000E+00  0.00000000000E+00  0.45593999997E+02  0.45594000000E+02  0.51100000000E-03 0. -1.
         11   -1    0    0    0    0 -0.00000000000E+00 -0.00000000000E+00 -0.45593999997E+02  0.45594000000E+02  0.51100000000E-03 0.  1.
    9900012    2    1    2    0    0 -0.27874556690E+01 -0.26936378655E+02 -0.16833853595E+02  0.59301999450E+02  0.50000101078E+02 0.  0.
         12    1    1    2    0    0  0.27874556690E+01  0.26936378655E+02  0.16833853595E+02  0.31886000550E+02  0.00000000000E+00 0. -1.
         11    1    3    3    0    0 -0.75052735819E+01  0.57668742002E+00  0.89325855090E+01  0.11681300615E+02  0.51100000000E-03 0. -1.
        -11    1    3    3    0    0 -0.46525646648E+01 -0.82694322797E+01 -0.24392398140E+02  0.26172866780E+02  0.51100000000E-03 0.  1.
         12    1    3    3    0    0  0.93703825777E+01 -0.19243633796E+02 -0.13740409644E+01  0.21447832056E+02  0.00000000000E+00 0. -1.
</event>
<event>
 7    1  0.6963701E-013  0.5930193E+02  0.7816164E-02  0.1266605E+00
        -11   -1    0    0    0    0  0.00000000000E+00  0.00000000000E+00  0.45593999997E+02  0.45594000000E+02  0.51100000000E-03 0.  1.
         11   -1    0    0    0    0 -0.00000000000E+00 -0.00000000000E+00 -0.45593999997E+02  0.45594000000E+02  0.51100000000E-03 0. -1.
    9900012    2    1    2    0    0  0.20034338316E+01  0.27257181895E+02  0.16424181196E+02  0.59301930315E+02  0.49999974991E+02 0.  0.
         12    1    1    2    0    0 -0.20034338316E+01 -0.27257181895E+02 -0.16424181196E+02  0.31886069685E+02  0.00000000000E+00 0. -1.
         11    1    3    3    0    0 -0.92058759920E+00 -0.10526374165E+02  0.13719694938E+02  0.17317103223E+02  0.51100000000E-03 0.  1.
        -11    1    3    3    0    0 -0.69862026846E+01  0.17187505705E+02 -0.19635886614E+01  0.18656716244E+02  0.51100000000E-03 0. -1.
        -12    1    3    3    0    0  0.99102241154E+01  0.20596050356E+02  0.46680749196E+01  0.23328110848E+02  0.00000000000E+00 0.  1.
</event>
<event>
 7    1  0.6963701E-013  0.5930198E+02  0.7816164E-02  0.1266605E+00
        -11   -1    0    0    0    0  0.00000000000E+00  0.00000000000E+00  0.45593999997E+02  0.45594000000E+02  0.51100000000E-03 0.  1.
         11   -1    0    0    0    0 -0.00000000000E+00 -0.00000000000E+00 -0.45593999997E+02  0.45594000000E+02  0.51100000000E-03 0. -1.
    9900012    2    1    2    0    0 -0.52660861247E+01  0.20117702540E+02  0.24171564854E+02  0.59301981653E+02  0.50000068619E+02 0.  0.
         12    1    1    2    0    0  0.52660861247E+01 -0.20117702540E+02 -0.24171564854E+02  0.31886018347E+02  0.00000000000E+00 0. -1.
         11    1    3    3    0    0 -0.95987202706E+01  0.22630375985E+02  0.14154206037E+02  0.28365664047E+02  0.51100000000E-03 0. -1.
        -11    1    3    3    0    0 -0.11213692327E+02  0.20020137419E+01  0.93449903027E+01  0.14733763899E+02  0.51100000000E-03 0.  1.
         12    1    3    3    0    0  0.15546326473E+02 -0.45146871868E+01  0.67236851443E+00  0.16202553706E+02  0.00000000000E+00 0. -1.
</event>
<event>
 7    1  0.6963701E-013  0.5930169E+02  0.7816164E-02  0.1266606E+00
        -11   -1    0    0    0    0  0.00000000000E+00  0.00000000000E+00  0.45593999997E+02  0.45594000000E+02  0.51100000000E-03 0.  1.
         11   -1    0    0    0    0 -0.00000000000E+00 -0.00000000000E+00 -0.45593999997E+02  0.45594000000E+02  0.51100000000E-03 0. -1.
    9900012    2    1    2    0    0  0.20973003909E+02 -0.14153768990E+02  0.19404659993E+02  0.59301687905E+02  0.49999532892E+02 0.  0.
         12    1    1    2    0    0 -0.20973003909E+02  0.14153768990E+02 -0.19404659993E+02  0.31886312095E+02  0.00000000000E+00 0. -1.
         11    1    3    3    0    0  0.12324124248E+02 -0.91366787596E+01 -0.10456179441E+02  0.18565953409E+02  0.51100000000E-03 0. -1.
        -11    1    3    3    0    0  0.45452377015E+01 -0.15460621616E+02  0.14257202690E+02  0.21516454990E+02  0.51100000000E-03 0.  1.
         12    1    3    3    0    0  0.41036419595E+01  0.10443531386E+02  0.15603636743E+02  0.19219279507E+02  0.00000000000E+00 0. -1.
</event>
<event>
 7    1  0.6963701E-013  0.5930194E+02  0.7816164E-02  0.1266605E+00
        -11   -1    0    0    0    0  0.00000000000E+00  0.00000000000E+00  0.45593999997E+02  0.45594000000E+02  0.51100000000E-03 0.  1.
         11   -1    0    0    0    0 -0.00000000000E+00 -0.00000000000E+00 -0.45593999997E+02  0.45594000000E+02  0.51100000000E-03 0. -1.
    9900012    2    1    2    0    0 -0.23183298229E+02 -0.21346467160E+02  0.48563355713E+01  0.59301937651E+02  0.49999988370E+02 0.  0.
         12    1    1    2    0    0  0.23183298229E+02  0.21346467160E+02 -0.48563355713E+01  0.31886062349E+02  0.00000000000E+00 0. -1.
         11    1    3    3    0    0 -0.64948488254E+01  0.36289240727E+01 -0.49869460313E+01  0.89566613294E+01  0.51100000000E-03 0. -1.
        -11    1    3    3    0    0  0.11732748728E+02 -0.12962898747E+02  0.85498594630E+01  0.19462636865E+02  0.51100000000E-03 0.  1.
         12    1    3    3    0    0 -0.28421198131E+02 -0.12012492485E+02  0.12934221396E+01  0.30882639456E+02  0.00000000000E+00 0. -1.
</event>
<event>
 7    1  0.6963701E-013  0.5930199E+02  0.7816164E-02  0.1266605E+00
        -11   -1    0    0    0    0  0.00000000000E+00  0.00000000000E+00  0.45593999997E+02  0.45594000000E+02  0.51100000000E-03 0. -1.
         11   -1    0    0    0    0 -0.00000000000E+00 -0.00000000000E+00 -0.45593999997E+02  0.45594000000E+02  0.51100000000E-03 0.  1.
    9900012    2    1    2    0    0  0.41646878104E+01  0.31469420379E+02 -0.30080988683E+01  0.59301988924E+02  0.50000081880E+02 0.  0.
         12    1    1    2    0    0 -0.41646878104E+01 -0.31469420379E+02  0.30080988683E+01  0.31886011076E+02  0.00000000000E+00 0. -1.
         11    1    3    3    0    0  0.11375602674E+02  0.30745817780E+01 -0.21397846377E+01  0.11976479778E+02  0.51100000000E-03 0. -1.
        -11    1    3    3    0    0  0.36971768616E+01  0.26565717064E+02  0.12819232874E+02  0.29727750867E+02  0.51100000000E-03 0.  1.
         12    1    3    3    0    0 -0.10908091726E+02  0.18291215366E+01 -0.13687547105E+02  0.17597758279E+02  0.00000000000E+00 0. -1.
</event>
<event>
 7    1  0.6963701E-013  0.5930187E+02  0.7816164E-02  0.1266605E+00
        -11   -1    0    0    0    0  0.00000000000E+00  0.00000000000E+00  0.45593999997E+02  0.45594000000E+02  0.51100000000E-03 0.  1.
         11   -1    0    0    0    0 -0.00000000000E+00 -0.00000000000E+00 -0.45593999997E+02  0.45594000000E+02  0.51100000000E-03 0. -1.
    9900012    2    1    2    0    0  0.15444264850E+02 -0.22909328502E+02  0.15917360294E+02  0.59301874366E+02  0.49999872954E+02 0.  0.
         12    1    1    2    0    0 -0.15444264850E+02  0.22909328502E+02 -0.15917360294E+02  0.31886125634E+02  0.00000000000E+00 0. -1.
         11    1    3    3    0    0 -0.12760050306E+02 -0.51429977238E+01  0.15458696413E+01  0.13844097032E+02  0.51100000000E-03 0. -1.
        -11    1    3    3    0    0 -0.36811753608E+01 -0.92883668651E+01  0.18088023622E+01  0.10153648473E+02  0.51100000000E-03 0.  1.
        -12    1    3    3    0    0  0.31885490517E+02 -0.84779639134E+01  0.12562688290E+02  0.35304128862E+02  0.00000000000E+00 0.  1.
</event>
<event>
 7    1  0.7457100E-013  0.5930189E+02  0.7816164E-02  0.1266605E+00
        -11   -1    0    0    0    0  0.00000000000E+00  0.00000000000E+00  0.45593999997E+02  0.45594000000E+02  0.51100000000E-03 0.  1.
         11   -1    0    0    0    0 -0.00000000000E+00 -0.00000000000E+00 -0.45593999997E+02  0.45594000000E+02  0.51100000000E-03 0. -1.
    9900012    2    1    2    0    0 -0.18880509077E+02  0.17583761784E+02  0.18736634258E+02  0.59301893860E+02  0.49999908505E+02 0.  0.
         12    1    1    2    0    0  0.18880509077E+02 -0.17583761784E+02 -0.18736634258E+02  0.31886106140E+02  0.00000000000E+00 0. -1.
         11    1    3    3    0    0 -0.98039520038E+01 -0.54378539783E+01 -0.66391905127E+01  0.13029450553E+02  0.51100000000E-03 0. -1.
        -11    1    3    3    0    0  0.89796385503E+01  0.71838008152E+01  0.23377827869E+00  0.11501980490E+02  0.51100000000E-03 0.  1.
        -12    1    3    3    0    0 -0.18056195624E+02  0.15837814947E+02  0.25142046492E+02  0.34770462817E+02  0.00000000000E+00 0.  1.
</event>
<event>
 7    1  0.6963701E-013  0.5930194E+02  0.7816164E-02  0.1266605E+00
        -11   -1    0    0    0    0  0.00000000000E+00  0.00000000000E+00  0.45593999997E+02  0.45594000000E+02  0.51100000000E-03 0. -1.
         11   -1    0    0    0    0 -0.00000000000E+00 -0.00000000000E+00 -0.45593999997E+02  0.45594000000E+02  0.51100000000E-03 0.  1.
    9900012    2    1    2    0    0 -0.21882229476E+02  0.11462097041E+02 -0.20162072196E+02  0.59301940497E+02  0.49999993560E+02 0.  0.
         12    1    1    2    0    0  0.21882229476E+02 -0.11462097041E+02  0.20162072196E+02  0.31886059503E+02  0.00000000000E+00 0. -1.
         11    1    3    3    0    0  0.79206955745E+01  0.92921829157E+01 -0.11542958148E+02  0.16802439251E+02  0.51100000000E-03 0. -1.
        -11    1    3    3    0    0 -0.14842795686E+02 -0.52789163737E+01  0.90589166410E+01  0.18172493303E+02  0.51100000000E-03 0.  1.
        -12    1    3    3    0    0 -0.14960129364E+02  0.74488304987E+01 -0.17678030689E+02  0.24327007943E+02  0.00000000000E+00 0.  1.
</event>
<event>
 7    1  0.6963701E-013  0.5930194E+02  0.7816164E-02  0.1266605E+00
        -11   -1    0    0    0    0  0.00000000000E+00  0.00000000000E+00  0.45593999997E+02  0.45594000000E+02  0.51100000000E-03 0.  1.
         11   -1    0    0    0    0 -0.00000000000E+00 -0.00000000000E+00 -0.45593999997E+02  0.45594000000E+02  0.51100000000E-03 0. -1.
    9900012    2    1    2    0    0 -0.45289278540E+01 -0.31495536421E+02 -0.20593121847E+01  0.59301940842E+02  0.49999994191E+02 0.  0.
         12    1    1    2    0    0  0.45289278540E+01  0.31495536421E+02  0.20593121847E+01  0.31886059158E+02  0.00000000000E+00 0. -1.
         11    1    3    3    0    0 -0.12470031845E+02 -0.15077020006E+02 -0.32045115781E+01  0.19826424821E+02  0.51100000000E-03 0. -1.
        -11    1    3    3    0    0 -0.25676876645E+01 -0.14875391799E+02 -0.14258546390E+02  0.20764788622E+02  0.51100000000E-03 0.  1.
        -12    1    3    3    0    0  0.10508791656E+02 -0.15431246152E+01  0.15403745783E+02  0.18710727399E+02  0.00000000000E+00 0.  1.
</event>
<event>
 7    1  0.6963701E-013  0.5930194E+02  0.7816164E-02  0.1266605E+00
        -11   -1    0    0    0    0  0.00000000000E+00  0.00000000000E+00  0.45593999997E+02  0.45594000000E+02  0.51100000000E-03 0. -1.
         11   -1    0    0    0    0 -0.00000000000E+00 -0.00000000000E+00 -0.45593999997E+02  0.45594000000E+02  0.51100000000E-03 0.  1.
    9900012    2    1    2    0    0 -0.64043545952E+01  0.29178907497E+02 -0.11148822454E+02  0.59301942818E+02  0.49999997794E+02 0.  0.
         12    1    1    2    0    0  0.64043545952E+01 -0.29178907497E+02  0.11148822454E+02  0.31886057182E+02  0.00000000000E+00 0. -1.
         11    1    3    3    0    0  0.68734673950E+01  0.13692370158E+01  0.12616144306E+02  0.14432132948E+02  0.51100000000E-03 0. -1.
        -11    1    3    3    0    0 -0.12322758582E+01  0.44016373773E+01  0.43808699078E+01  0.63312666033E+01  0.51100000000E-03 0.  1.
        -12    1    3    3    0    0 -0.12045546132E+02  0.23408033104E+02 -0.28145836667E+02  0.38538543267E+02  0.00000000000E+00 0.  1.
</event>
<event>
 7    1  0.6963701E-013  0.5930202E+02  0.7816164E-02  0.1266605E+00
        -11   -1    0    0    0    0  0.00000000000E+00  0.00000000000E+00  0.45593999997E+02  0.45594000000E+02  0.51100000000E-03 0.  1.
         11   -1    0    0    0    0 -0.00000000000E+00 -0.00000000000E+00 -0.45593999997E+02  0.45594000000E+02  0.51100000000E-03 0. -1.
    9900012    2    1    2    0    0  0.48294130071E+00 -0.17803839043E+02  0.26448175011E+02  0.59302017526E+02  0.50000134042E+02 0.  0.
         12    1    1    2    0    0 -0.48294130071E+00  0.17803839043E+02 -0.26448175011E+02  0.31885982474E+02  0.00000000000E+00 0. -1.
         11    1    3    3    0    0 -0.13696910422E+02 -0.84152572363E+01 -0.52256535201E+01  0.16903531123E+02  0.51100000000E-03 0. -1.
        -11    1    3    3    0    0 -0.40609807956E+01 -0.77697792829E+01  0.16215476855E+02  0.18433738769E+02  0.51100000000E-03 0.  1.
        -12    1    3    3    0    0  0.18240832518E+02 -0.16188025235E+01  0.15458351676E+02  0.23964747633E+02  0.00000000000E+00 0.  1.
</event>
<event>
 7    1  0.6963701E-013  0.5930194E+02  0.7816164E-02  0.1266605E+00
        -11   -1    0    0    0    0  0.00000000000E+00  0.00000000000E+00  0.45593999997E+02  0.45594000000E+02  0.51100000000E-03 0. -1.
         11   -1    0    0    0    0 -0.00000000000E+00 -0.00000000000E+00 -0.45593999997E+02  0.45594000000E+02  0.51100000000E-03 0.  1.
    9900012    2    1    2    0    0  0.29350790563E+02 -0.11568334463E+02 -0.46288009843E+01  0.59301936155E+02  0.49999985643E+02 0.  0.
         12    1    1    2    0    0 -0.29350790563E+02  0.11568334463E+02  0.46288009843E+01  0.31886063845E+02  0.00000000000E+00 0. -1.
         11    1    3    3    0    0  0.56226848803E+01 -0.41311685484E+01 -0.16819299918E+02  0.18209063370E+02  0.51100000000E-03 0. -1.
        -11    1    3    3    0    0  0.63289911117E+01 -0.10231047303E+02 -0.78820532936E+01  0.14382531829E+02  0.51100000000E-03 0.  1.
         12    1    3    3    0    0  0.17399114571E+02  0.27938813889E+01  0.20072552227E+02  0.26710340956E+02  0.00000000000E+00 0. -1.
</event>
<event>
 7    1  0.6963701E-013  0.5930192E+02  0.7816164E-02  0.1266605E+00
        -11   -1    0    0    0    0  0.00000000000E+00  0.00000000000E+00  0.45593999997E+02  0.45594000000E+02  0.51100000000E-03 0. -1.
         11   -1    0    0    0    0 -0.00000000000E+00 -0.00000000000E+00 -0.45593999997E+02  0.45594000000E+02  0.51100000000E-03 0.  1.
    9900012    2    1    2    0    0 -0.14632260515E+02  0.79144635879E+01 -0.27202582562E+02  0.59301917147E+02  0.49999950976E+02 0.  0.
         12    1    1    2    0    0  0.14632260515E+02 -0.79144635879E+01  0.27202582562E+02  0.31886082853E+02  0.00000000000E+00 0. -1.
         11    1    3    3    0    0 -0.79819072720E+01 -0.11116921623E+02 -0.17637387227E+01  0.13798824755E+02  0.51100000000E-03 0. -1.
        -11    1    3    3    0    0 -0.11475976104E+02 -0.54982478501E+01 -0.83095289487E+01  0.15197928430E+02  0.51100000000E-03 0.  1.
         12    1    3    3    0    0  0.48256228608E+01  0.24529633061E+02 -0.17129314891E+02  0.30305163961E+02  0.00000000000E+00 0. -1.
</event>
<event>
 7    1  0.6963701E-013  0.5930192E+02  0.7816164E-02  0.1266605E+00
        -11   -1    0    0    0    0  0.00000000000E+00  0.00000000000E+00  0.45593999997E+02  0.45594000000E+02  0.51100000000E-03 0. -1.
         11   -1    0    0    0    0 -0.00000000000E+00 -0.00000000000E+00 -0.45593999997E+02  0.45594000000E+02  0.51100000000E-03 0.  1.
    9900012    2    1    2    0    0 -0.83012968885E+01 -0.28687797811E+02 -0.11172314883E+02  0.59301923209E+02  0.49999962032E+02 0.  0.
         12    1    1    2    0    0  0.83012968885E+01  0.28687797811E+02  0.11172314883E+02  0.31886076791E+02  0.00000000000E+00 0. -1.
         11    1    3    3    0    0  0.89804343802E+01  0.78767885939E+01  0.77230743736E+00  0.11970315754E+02  0.51100000000E-03 0. -1.
        -11    1    3    3    0    0  0.49351930195E+01 -0.42556939532E+01 -0.26482858075E+01  0.70342362160E+01  0.51100000000E-03 0.  1.
         12    1    3    3    0    0 -0.22216924288E+02 -0.32308892451E+02 -0.92963365126E+01  0.40297371239E+02  0.00000000000E+00 0. -1.
</event>
<event>
 7    1  0.6963701E-013  0.5930170E+02  0.7816164E-02  0.1266606E+00
        -11   -1    0    0    0    0  0.00000000000E+00  0.00000000000E+00  0.45593999997E+02  0.45594000000E+02  0.51100000000E-03 0. -1.
         11   -1    0    0    0    0 -0.00000000000E+00 -0.00000000000E+00 -0.45593999997E+02  0.45594000000E+02  0.51100000000E-03 0.  1.
    9900012    2    1    2    0    0  0.30335554146E+02  0.60998513408E+00  0.98039755188E+01  0.59301704148E+02  0.49999562514E+02 0.  0.
         12    1    1    2    0    0 -0.30335554146E+02 -0.60998513408E+00 -0.98039755188E+01  0.31886295852E+02  0.00000000000E+00 0. -1.
         11    1    3    3    0    0  0.18445288743E+02 -0.64044049963E+01 -0.34624594381E+00  0.19528567963E+02  0.51100000000E-03 0. -1.
        -11    1    3    3    0    0  0.17454889069E+02  0.58341159927E+01  0.20754716704E+02  0.27739292124E+02  0.51100000000E-03 0.  1.
         12    1    3    3    0    0 -0.55646236650E+01  0.11802741377E+01 -0.10604495241E+02  0.12033844061E+02  0.00000000000E+00 0. -1.
</event>
<event>
 7    1  0.6963701E-013  0.5930197E+02  0.7816164E-02  0.1266605E+00
        -11   -1    0    0    0    0  0.00000000000E+00  0.00000000000E+00  0.45593999997E+02  0.45594000000E+02  0.51100000000E-03 0. -1.
         11   -1    0    0    0    0 -0.00000000000E+00 -0.00000000000E+00 -0.45593999997E+02  0.45594000000E+02  0.51100000000E-03 0.  1.
    9900012    2    1    2    0    0 -0.30587560750E+01  0.30597582451E+02 -0.84351017009E+01  0.59301968869E+02  0.50000045305E+02 0.  0.
         12    1    1    2    0    0  0.30587560750E+01 -0.30597582451E+02  0.84351017009E+01  0.31886031131E+02  0.00000000000E+00 0. -1.
         11    1    3    3    0    0  0.13997544185E+02 -0.15843574928E+00 -0.37110358874E+01  0.14481993396E+02  0.51100000000E-03 0. -1.
        -11    1    3    3    0    0 -0.43578210428E+00 -0.55767188943E+00 -0.90751826946E+01  0.91027383342E+01  0.51100000000E-03 0.  1.
         12    1    3    3    0    0 -0.16620518155E+02  0.31313690089E+02  0.43511168811E+01  0.35717237140E+02  0.00000000000E+00 0. -1.
</event>
<event>
 7    1  0.6963701E-013  0.5930194E+02  0.7816164E-02  0.1266605E+00
        -11   -1    0    0    0    0  0.00000000000E+00  0.00000000000E+00  0.45593999997E+02  0.45594000000E+02  0.51100000000E-03 0.  1.
         11   -1    0    0    0    0 -0.00000000000E+00 -0.00000000000E+00 -0.45593999997E+02  0.45594000000E+02  0.51100000000E-03 0. -1.
    9900012    2    1    2    0    0  0.14488920656E+02 -0.22812053019E+02  0.16923418392E+02  0.59301942313E+02  0.49999996874E+02 0.  0.
         12    1    1    2    0    0 -0.14488920656E+02  0.22812053019E+02 -0.16923418392E+02  0.31886057687E+02  0.00000000000E+00 0. -1.
         11    1    3    3    0    0 -0.10564250840E+02  0.49810483971E+01 -0.41520265338E+01  0.12395707464E+02  0.51100000000E-03 0. -1.
        -11    1    3    3    0    0  0.47308320589E+01 -0.28753784104E+00 -0.25099981860E+01  0.53631652160E+01  0.51100000000E-03 0.  1.
        -12    1    3    3    0    0  0.20322339437E+02 -0.27505563575E+02  0.23585443112E+02  0.41543069633E+02  0.00000000000E+00 0.  1.
</event>
<event>
 7    1  0.6963701E-013  0.5930192E+02  0.7816164E-02  0.1266605E+00
        -11   -1    0    0    0    0  0.00000000000E+00  0.00000000000E+00  0.45593999997E+02  0.45594000000E+02  0.51100000000E-03 0.  1.
         11   -1    0    0    0    0 -0.00000000000E+00 -0.00000000000E+00 -0.45593999997E+02  0.45594000000E+02  0.51100000000E-03 0. -1.
    9900012    2    1    2    0    0 -0.17289771280E+02  0.24655892534E+02  0.10482024529E+02  0.59301920501E+02  0.49999957093E+02 0.  0.
         12    1    1    2    0    0  0.17289771280E+02 -0.24655892534E+02 -0.10482024529E+02  0.31886079499E+02  0.00000000000E+00 0. -1.
         11    1    3    3    0    0  0.52787131824E+01  0.97332272661E+01 -0.92414217074E+01  0.14422357689E+02  0.51100000000E-03 0. -1.
        -11    1    3    3    0    0 -0.93561984036E+01 -0.68015037025E+01  0.15124215877E+02  0.19040504388E+02  0.51100000000E-03 0.  1.
         12    1    3    3    0    0 -0.13212286058E+02  0.21724168971E+02  0.45992303594E+01  0.25839058424E+02  0.00000000000E+00 0. -1.
</event>
<event>
 7    1  0.6963701E-013  0.5930194E+02  0.7816164E-02  0.1266605E+00
        -11   -1    0    0    0    0  0.00000000000E+00  0.00000000000E+00  0.45593999997E+02  0.45594000000E+02  0.51100000000E-03 0.  1.
         11   -1    0    0    0    0 -0.00000000000E+00 -0.00000000000E+00 -0.45593999997E+02  0.45594000000E+02  0.51100000000E-03 0. -1.
    9900012    2    1    2    0    0 -0.18733740308E+02 -0.25588582688E+02 -0.33154816695E+01  0.59301937079E+02  0.49999987327E+02 0.  0.
         12    1    1    2    0    0  0.18733740308E+02  0.25588582688E+02  0.33154816695E+01  0.31886062921E+02  0.00000000000E+00 0. -1.
         11    1    3    3    0    0 -0.42640888082E+00  0.34389799263E+01 -0.38447700883E+01  0.51759699343E+01  0.51100000000E-03 0. -1.
        -11    1    3    3    0    0 -0.14166335729E+02  0.52923845096E+01  0.10186558568E+02  0.18233496031E+02  0.51100000000E-03 0.  1.
        -12    1    3    3    0    0 -0.41409956983E+01 -0.34319947124E+02 -0.96572701492E+01  0.35892471114E+02  0.00000000000E+00 0.  1.
</event>
<event>
 7    1  0.6963701E-013  0.5930194E+02  0.7816164E-02  0.1266605E+00
        -11   -1    0    0    0    0  0.00000000000E+00  0.00000000000E+00  0.45593999997E+02  0.45594000000E+02  0.51100000000E-03 0.  1.
         11   -1    0    0    0    0 -0.00000000000E+00 -0.00000000000E+00 -0.45593999997E+02  0.45594000000E+02  0.51100000000E-03 0. -1.
    9900012    2    1    2    0    0  0.20440475042E+02  0.23860625436E+02  0.54385831293E+01  0.59301942661E+02  0.49999997508E+02 0.  0.
         12    1    1    2    0    0 -0.20440475042E+02 -0.23860625436E+02 -0.54385831293E+01  0.31886057339E+02  0.00000000000E+00 0. -1.
         11    1    3    3    0    0 -0.91824129359E+01  0.13381177100E+02 -0.28271929476E+01  0.16473179054E+02  0.51100000000E-03 0. -1.
        -11    1    3    3    0    0  0.82026873956E+01  0.17388721523E+02  0.63174543877E+01  0.20237636891E+02  0.51100000000E-03 0.  1.
         12    1    3    3    0    0  0.21420200582E+02 -0.69092731869E+01  0.19483216892E+01  0.22591126717E+02  0.00000000000E+00 0. -1.
</event>
<event>
 7    1  0.6963701E-013  0.5930194E+02  0.7816164E-02  0.1266605E+00
        -11   -1    0    0    0    0  0.00000000000E+00  0.00000000000E+00  0.45593999997E+02  0.45594000000E+02  0.51100000000E-03 0. -1.
         11   -1    0    0    0    0 -0.00000000000E+00 -0.00000000000E+00 -0.45593999997E+02  0.45594000000E+02  0.51100000000E-03 0.  1.
    9900012    2    1    2    0    0  0.28607397580E+02 -0.68919395219E+00 -0.14066360366E+02  0.59301942255E+02  0.49999996767E+02 0.  0.
         12    1    1    2    0    0 -0.28607397580E+02  0.68919395219E+00  0.14066360366E+02  0.31886057745E+02  0.00000000000E+00 0. -1.
         11    1    3    3    0    0  0.13151524606E+02 -0.57627508852E+00 -0.86813535348E+01  0.15768975614E+02  0.51100000000E-03 0. -1.
        -11    1    3    3    0    0  0.20432517239E+02  0.54949744031E+01 -0.18709341553E+02  0.28243972207E+02  0.51100000000E-03 0.  1.
         12    1    3    3    0    0 -0.49766442650E+01 -0.56078932667E+01  0.13324334722E+02  0.15288994434E+02  0.00000000000E+00 0. -1.
</event>
<event>
 7    1  0.6963701E-013  0.5930197E+02  0.7816164E-02  0.1266605E+00
        -11   -1    0    0    0    0  0.00000000000E+00  0.00000000000E+00  0.45593999997E+02  0.45594000000E+02  0.51100000000E-03 0.  1.
         11   -1    0    0    0    0 -0.00000000000E+00 -0.00000000000E+00 -0.45593999997E+02  0.45594000000E+02  0.51100000000E-03 0. -1.
    9900012    2    1    2    0    0  0.24565516883E+01 -0.31701306250E+02 -0.23898779563E+01  0.59301968877E+02  0.50000045319E+02 0.  0.
         12    1    1    2    0    0 -0.24565516883E+01  0.31701306250E+02  0.23898779563E+01  0.31886031123E+02  0.00000000000E+00 0. -1.
         11    1    3    3    0    0  0.40041649245E+01 -0.10824089449E+02 -0.55130930015E+01  0.12790169813E+02  0.51100000000E-03 0. -1.
        -11    1    3    3    0    0  0.13406417779E+02 -0.26450661115E+02 -0.20775632008E+01  0.29726852847E+02  0.51100000000E-03 0.  1.
         12    1    3    3    0    0 -0.14954031016E+02  0.55734443138E+01  0.52007782460E+01  0.16784946217E+02  0.00000000000E+00 0. -1.
</event>
<event>
 7    1  0.6963701E-013  0.5930194E+02  0.7816164E-02  0.1266605E+00
        -11   -1    0    0    0    0  0.00000000000E+00  0.00000000000E+00  0.45593999997E+02  0.45594000000E+02  0.51100000000E-03 0.  1.
         11   -1    0    0    0    0 -0.00000000000E+00 -0.00000000000E+00 -0.45593999997E+02  0.45594000000E+02  0.51100000000E-03 0. -1.
    9900012    2    1    2    0    0 -0.89104727982E+01  0.27797202887E+02 -0.12831195423E+02  0.59301943646E+02  0.49999999304E+02 0.  0.
         12    1    1    2    0    0  0.89104727982E+01 -0.27797202887E+02  0.12831195423E+02  0.31886056354E+02  0.00000000000E+00 0. -1.
         11    1    3    3    0    0  0.93957502530E+01  0.89861304146E+01  0.13998356337E+01  0.13076322216E+02  0.51100000000E-03 0.  1.
        -11    1    3    3    0    0  0.95494031816E+01  0.15601347328E+00  0.59311012849E+00  0.95690762989E+01  0.51100000000E-03 0. -1.
        -12    1    3    3    0    0 -0.27855626233E+02  0.18655058999E+02 -0.14824141185E+02  0.36656545131E+02  0.00000000000E+00 0.  1.
</event>
<event>
 7    1  0.6963701E-013  0.5930193E+02  0.7816164E-02  0.1266605E+00
        -11   -1    0    0    0    0  0.00000000000E+00  0.00000000000E+00  0.45593999997E+02  0.45594000000E+02  0.51100000000E-03 0. -1.
         11   -1    0    0    0    0 -0.00000000000E+00 -0.00000000000E+00 -0.45593999997E+02  0.45594000000E+02  0.51100000000E-03 0.  1.
    9900012    2    1    2    0    0 -0.29904525030E+02  0.96598166575E+01 -0.53971117238E+01  0.59301929529E+02  0.49999973557E+02 0.  0.
         12    1    1    2    0    0  0.29904525030E+02 -0.96598166575E+01  0.53971117238E+01  0.31886070471E+02  0.00000000000E+00 0. -1.
         11    1    3    3    0    0 -0.13831444881E+02  0.10584986993E+02  0.49734362360E+01  0.18113141234E+02  0.51100000000E-03 0. -1.
        -11    1    3    3    0    0 -0.10830414463E+02  0.14995153700E+02 -0.14983155713E+02  0.23804358158E+02  0.51100000000E-03 0.  1.
        -12    1    3    3    0    0 -0.52426656869E+01 -0.15920324035E+02  0.46126077533E+01  0.17384430137E+02  0.00000000000E+00 0.  1.
</event>
<event>
 7    1  0.6963701E-013  0.5930195E+02  0.7816164E-02  0.1266605E+00
        -11   -1    0    0    0    0  0.00000000000E+00  0.00000000000E+00  0.45593999997E+02  0.45594000000E+02  0.51100000000E-03 0.  1.
         11   -1    0    0    0    0 -0.00000000000E+00 -0.00000000000E+00 -0.45593999997E+02  0.45594000000E+02  0.51100000000E-03 0. -1.
    9900012    2    1    2    0    0  0.23093359106E+02 -0.53368066680E+01  0.21329219579E+02  0.59301947437E+02  0.50000006218E+02 0.  0.
         12    1    1    2    0    0 -0.23093359106E+02  0.53368066680E+01 -0.21329219579E+02  0.31886052563E+02  0.00000000000E+00 0. -1.
         11    1    3    3    0    0  0.15848207236E+02  0.39438369832E+01 -0.40933899592E+01  0.16836726652E+02  0.51100000000E-03 0. -1.
        -11    1    3    3    0    0  0.19653005740E+02 -0.53571217932E+01  0.11434999215E+02  0.23360192547E+02  0.51100000000E-03 0.  1.
         12    1    3    3    0    0 -0.12407853870E+02 -0.39235218580E+01  0.13987610323E+02  0.19105028238E+02  0.00000000000E+00 0. -1.
</event>
<event>
 7    1  0.6963701E-013  0.5930193E+02  0.7816164E-02  0.1266605E+00
        -11   -1    0    0    0    0  0.00000000000E+00  0.00000000000E+00  0.45593999997E+02  0.45594000000E+02  0.51100000000E-03 0.  1.
         11   -1    0    0    0    0 -0.00000000000E+00 -0.00000000000E+00 -0.45593999997E+02  0.45594000000E+02  0.51100000000E-03 0. -1.
    9900012    2    1    2    0    0  0.86661720691E+01  0.18712907410E+02  0.24319662254E+02  0.59301930719E+02  0.49999975727E+02 0.  0.
         12    1    1    2    0    0 -0.86661720691E+01 -0.18712907410E+02 -0.24319662254E+02  0.31886069281E+02  0.00000000000E+00 0. -1.
         11    1    3    3    0    0 -0.10638293997E+02  0.18539804006E+02  0.79516831230E+01  0.22806290722E+02  0.51100000000E-03 0. -1.
        -11    1    3    3    0    0 -0.58904452657E+01  0.37629658809E+01  0.51572217825E+01  0.86864373839E+01  0.51100000000E-03 0.  1.
         12    1    3    3    0    0  0.25194911332E+02 -0.35898624765E+01  0.11210757348E+02  0.27809202613E+02  0.00000000000E+00 0. -1.
</event>
<event>
 7    1  0.6963701E-013  0.5930194E+02  0.7816164E-02  0.1266605E+00
        -11   -1    0    0    0    0  0.00000000000E+00  0.00000000000E+00  0.45593999997E+02  0.45594000000E+02  0.51100000000E-03 0. -1.
         11   -1    0    0    0    0 -0.00000000000E+00 -0.00000000000E+00 -0.45593999997E+02  0.45594000000E+02  0.51100000000E-03 0.  1.
    9900012    2    1    2    0    0  0.26565423752E+02 -0.17362890271E+02 -0.30868956043E+01  0.59301943138E+02  0.49999998378E+02 0.  0.
         12    1    1    2    0    0 -0.26565423752E+02  0.17362890271E+02  0.30868956043E+01  0.31886056862E+02  0.00000000000E+00 0. -1.
         11    1    3    3    0    0  0.18722524873E+01  0.10661960494E+02 -0.67889827662E+01  0.12777833080E+02  0.51100000000E-03 0. -1.
        -11    1    3    3    0    0  0.10863052088E+02  0.58093123129E+00 -0.70699954931E+01  0.12974136514E+02  0.51100000000E-03 0.  1.
         12    1    3    3    0    0  0.13830119177E+02 -0.28605781997E+02  0.10772082655E+02  0.33549973544E+02  0.00000000000E+00 0. -1.
</event>
<event>
 7    1  0.6963701E-013  0.5930194E+02  0.7816164E-02  0.1266605E+00
        -11   -1    0    0    0    0  0.00000000000E+00  0.00000000000E+00  0.45593999997E+02  0.45594000000E+02  0.51100000000E-03 0.  1.
         11   -1    0    0    0    0 -0.00000000000E+00 -0.00000000000E+00 -0.45593999997E+02  0.45594000000E+02  0.51100000000E-03 0. -1.
    9900012    2    1    2    0    0 -0.31322187508E+02 -0.56771432115E+01 -0.18469539633E+01  0.59301943106E+02  0.49999998318E+02 0.  0.
         12    1    1    2    0    0  0.31322187508E+02  0.56771432115E+01  0.18469539633E+01  0.31886056894E+02  0.00000000000E+00 0. -1.
         11    1    3    3    0    0 -0.62047887075E+01  0.15464289048E+02 -0.99150900522E+01  0.19389498438E+02  0.51100000000E-03 0. -1.
        -11    1    3    3    0    0  0.15278995794E+01  0.28333241174E+01  0.10691818709E+01  0.33919541290E+01  0.51100000000E-03 0.  1.
        -12    1    3    3    0    0 -0.26645298380E+02 -0.23974756377E+02  0.69989542181E+01  0.36520490539E+02  0.00000000000E+00 0.  1.
</event>
<event>
 7    1  0.6963701E-013  0.5930196E+02  0.7816164E-02  0.1266605E+00
        -11   -1    0    0    0    0  0.00000000000E+00  0.00000000000E+00  0.45593999997E+02  0.45594000000E+02  0.51100000000E-03 0.  1.
         11   -1    0    0    0    0 -0.00000000000E+00 -0.00000000000E+00 -0.45593999997E+02  0.45594000000E+02  0.51100000000E-03 0. -1.
    9900012    2    1    2    0    0 -0.23053481092E+02  0.14006186945E+02  0.17002440203E+02  0.59301964874E+02  0.50000038019E+02 0.  0.
         12    1    1    2    0    0  0.23053481092E+02 -0.14006186945E+02 -0.17002440203E+02  0.31886035126E+02  0.00000000000E+00 0. -1.
         11    1    3    3    0    0 -0.72244643097E+01 -0.22277163051E+01 -0.12723160983E+01  0.76664459180E+01  0.51100000000E-03 0. -1.
        -11    1    3    3    0    0 -0.22977871051E+01  0.17491407582E+02 -0.99897931942E+01  0.20273754786E+02  0.51100000000E-03 0.  1.
         12    1    3    3    0    0 -0.13531229677E+02 -0.12575043318E+01  0.28264549495E+02  0.31361764170E+02  0.00000000000E+00 0. -1.
</event>
<event>
 7    1  0.6963701E-013  0.5930194E+02  0.7816164E-02  0.1266605E+00
        -11   -1    0    0    0    0  0.00000000000E+00  0.00000000000E+00  0.45593999997E+02  0.45594000000E+02  0.51100000000E-03 0. -1.
         11   -1    0    0    0    0 -0.00000000000E+00 -0.00000000000E+00 -0.45593999997E+02  0.45594000000E+02  0.51100000000E-03 0.  1.
    9900012    2    1    2    0    0 -0.13291535342E+02 -0.24727429129E+02 -0.15119849622E+02  0.59301944808E+02  0.50000001423E+02 0.  0.
         12    1    1    2    0    0  0.13291535342E+02  0.24727429129E+02  0.15119849622E+02  0.31886055192E+02  0.00000000000E+00 0. -1.
         11    1    3    3    0    0 -0.70591064868E+01  0.10022758046E+02 -0.91418745844E+01  0.15292499286E+02  0.51100000000E-03 0. -1.
        -11    1    3    3    0    0 -0.13084649650E+02 -0.14245081723E+02 -0.10371783539E+02  0.21947763070E+02  0.51100000000E-03 0.  1.
         12    1    3    3    0    0  0.68522207949E+01 -0.20505105453E+02  0.43938085008E+01  0.22061682451E+02  0.00000000000E+00 0. -1.
</event>
<event>
 7    1  0.6963701E-013  0.5930202E+02  0.7816164E-02  0.1266604E+00
        -11   -1    0    0    0    0  0.00000000000E+00  0.00000000000E+00  0.45593999997E+02  0.45594000000E+02  0.51100000000E-03 0. -1.
         11   -1    0    0    0    0 -0.00000000000E+00 -0.00000000000E+00 -0.45593999997E+02  0.45594000000E+02  0.51100000000E-03 0.  1.
    9900012    2    1    2    0    0 -0.98095649087E+01 -0.27050884141E+02 -0.13738182178E+02  0.59302022736E+02  0.50000143545E+02 0.  0.
         12    1    1    2    0    0  0.98095649087E+01  0.27050884141E+02  0.13738182178E+02  0.31885977264E+02  0.00000000000E+00 0. -1.
         11    1    3    3    0    0 -0.22619069074E+01  0.12887235695E+02 -0.95884630007E+01  0.16221457693E+02  0.51100000000E-03 0. -1.
        -11    1    3    3    0    0 -0.18214277917E+01 -0.45120156283E+01  0.39789584988E+01  0.62855385789E+01  0.51100000000E-03 0.  1.
        -12    1    3    3    0    0 -0.57262302096E+01 -0.35426104208E+02 -0.81286776759E+01  0.36795026464E+02  0.00000000000E+00 0.  1.
</event>
<event>
 7    1  0.6963701E-013  0.5930191E+02  0.7816164E-02  0.1266605E+00
        -11   -1    0    0    0    0  0.00000000000E+00  0.00000000000E+00  0.45593999997E+02  0.45594000000E+02  0.51100000000E-03 0.  1.
         11   -1    0    0    0    0 -0.00000000000E+00 -0.00000000000E+00 -0.45593999997E+02  0.45594000000E+02  0.51100000000E-03 0. -1.
    9900012    2    1    2    0    0 -0.17802184303E+02  0.24574533547E+02  0.97927240302E+01  0.59301907280E+02  0.49999932981E+02 0.  0.
         12    1    1    2    0    0  0.17802184303E+02 -0.24574533547E+02 -0.97927240302E+01  0.31886092720E+02  0.00000000000E+00 0. -1.
         11    1    3    3    0    0 -0.57676772781E+01 -0.12480843825E+02 -0.49567559214E+01  0.14615299973E+02  0.51100000000E-03 0. -1.
        -11    1    3    3    0    0 -0.38499116408E+01  0.92209605165E+00 -0.14969067560E+01  0.42323528761E+01  0.51100000000E-03 0.  1.
        -12    1    3    3    0    0 -0.81845953844E+01  0.36133281320E+02  0.16246386708E+02  0.40454254431E+02  0.00000000000E+00 0.  1.
</event>
<event>
 7    1  0.6963701E-013  0.5930197E+02  0.7816164E-02  0.1266605E+00
        -11   -1    0    0    0    0  0.00000000000E+00  0.00000000000E+00  0.45593999997E+02  0.45594000000E+02  0.51100000000E-03 0. -1.
         11   -1    0    0    0    0 -0.00000000000E+00 -0.00000000000E+00 -0.45593999997E+02  0.45594000000E+02  0.51100000000E-03 0.  1.
    9900012    2    1    2    0    0  0.18978949279E+02 -0.24962023764E+02 -0.57806588548E+01  0.59301966020E+02  0.50000040109E+02 0.  0.
         12    1    1    2    0    0 -0.18978949279E+02  0.24962023764E+02  0.57806588548E+01  0.31886033980E+02  0.00000000000E+00 0. -1.
         11    1    3    3    0    0  0.15280026239E+02 -0.16849376804E+02  0.55952836647E+01  0.23424088031E+02  0.51100000000E-03 0. -1.
        -11    1    3    3    0    0  0.17367535871E+02 -0.10280840427E+02 -0.64534818109E+01  0.21189016255E+02  0.51100000000E-03 0.  1.
        -12    1    3    3    0    0 -0.13668612830E+02  0.21681934670E+01 -0.49224607086E+01  0.14688861734E+02  0.00000000000E+00 0.  1.
</event>
<event>
 7    1  0.6963701E-013  0.5930193E+02  0.7816164E-02  0.1266605E+00
        -11   -1    0    0    0    0  0.00000000000E+00  0.00000000000E+00  0.45593999997E+02  0.45594000000E+02  0.51100000000E-03 0.  1.
         11   -1    0    0    0    0 -0.00000000000E+00 -0.00000000000E+00 -0.45593999997E+02  0.45594000000E+02  0.51100000000E-03 0. -1.
    9900012    2    1    2    0    0 -0.16683059271E+02 -0.28425001610E+00  0.27171969740E+02  0.59301934011E+02  0.49999981732E+02 0.  0.
         12    1    1    2    0    0  0.16683059271E+02  0.28425001610E+00 -0.27171969740E+02  0.31886065989E+02  0.00000000000E+00 0. -1.
         11    1    3    3    0    0 -0.18517786723E+01  0.32619206991E+01  0.62821030244E+01  0.73166952628E+01  0.51100000000E-03 0. -1.
        -11    1    3    3    0    0 -0.22634573283E+02  0.15189541953E+02  0.10808352587E+02  0.29323481689E+02  0.51100000000E-03 0.  1.
         12    1    3    3    0    0  0.78032926836E+01 -0.18735712669E+02  0.10081514128E+02  0.22661757059E+02  0.00000000000E+00 0. -1.
</event>
<event>
 7    1  0.7152306E-013  0.5930194E+02  0.7816164E-02  0.1266605E+00
        -11   -1    0    0    0    0  0.00000000000E+00  0.00000000000E+00  0.45593999997E+02  0.45594000000E+02  0.51100000000E-03 0. -1.
         11   -1    0    0    0    0 -0.00000000000E+00 -0.00000000000E+00 -0.45593999997E+02  0.45594000000E+02  0.51100000000E-03 0.  1.
    9900012    2    1    2    0    0 -0.19351851742E+02  0.57342316169E+01 -0.24684918700E+02  0.59301940518E+02  0.49999993599E+02 0.  0.
         12    1    1    2    0    0  0.19351851742E+02 -0.57342316169E+01  0.24684918700E+02  0.31886059482E+02  0.00000000000E+00 0. -1.
         11    1    3    3    0    0 -0.13443545355E+01 -0.13305832795E+02 -0.28543183713E+00  0.13376619419E+02  0.51100000000E-03 0. -1.
        -11    1    3    3    0    0 -0.12177413616E+02 -0.44141017512E+01 -0.15431735148E+02  0.20147261516E+02  0.51100000000E-03 0.  1.
        -12    1    3    3    0    0 -0.58300835907E+01  0.23454166163E+02 -0.89677517145E+01  0.25778059583E+02  0.00000000000E+00 0.  1.
</event>
<event>
 7    1  0.6963701E-013  0.5930185E+02  0.7816164E-02  0.1266605E+00
        -11   -1    0    0    0    0  0.00000000000E+00  0.00000000000E+00  0.45593999997E+02  0.45594000000E+02  0.51100000000E-03 0. -1.
         11   -1    0    0    0    0 -0.00000000000E+00 -0.00000000000E+00 -0.45593999997E+02  0.45594000000E+02  0.51100000000E-03 0.  1.
    9900012    2    1    2    0    0 -0.16567819655E+02 -0.26245847128E+02  0.73068131923E+01  0.59301848482E+02  0.49999825747E+02 0.  0.
         12    1    1    2    0    0  0.16567819655E+02  0.26245847128E+02 -0.73068131923E+01  0.31886151518E+02  0.00000000000E+00 0. -1.
         11    1    3    3    0    0 -0.49781598363E+01  0.30413003988E+01 -0.15116191751E+01  0.60263236109E+01  0.51100000000E-03 0. -1.
        -11    1    3    3    0    0 -0.17083440819E+02 -0.39571055852E+01 -0.10953918299E+02  0.20675854546E+02  0.51100000000E-03 0.  1.
         12    1    3    3    0    0  0.54937810006E+01 -0.25330041942E+02  0.19772350666E+02  0.32599670326E+02  0.00000000000E+00 0. -1.
</event>
<event>
 7    1  0.6963701E-013  0.5930195E+02  0.7816164E-02  0.1266605E+00
        -11   -1    0    0    0    0  0.00000000000E+00  0.00000000000E+00  0.45593999997E+02  0.45594000000E+02  0.51100000000E-03 0. -1.
         11   -1    0    0    0    0 -0.00000000000E+00 -0.00000000000E+00 -0.45593999997E+02  0.45594000000E+02  0.51100000000E-03 0.  1.
    9900012    2    1    2    0    0  0.13076965619E+02  0.21716776319E+02 -0.19341537571E+02  0.59301945382E+02  0.50000002470E+02 0.  0.
         12    1    1    2    0    0 -0.13076965619E+02 -0.21716776319E+02  0.19341537571E+02  0.31886054618E+02  0.00000000000E+00 0. -1.
         11    1    3    3    0    0  0.39391364137E+01 -0.30313175621E+01 -0.12530001970E+01  0.51259820135E+01  0.51100000000E-03 0. -1.
        -11    1    3    3    0    0  0.26333979500E+02  0.18273411742E+02 -0.15553130494E+02  0.35627179532E+02  0.51100000000E-03 0.  1.
         12    1    3    3    0    0 -0.17196150295E+02  0.64746821394E+01 -0.25354068798E+01  0.18548783836E+02  0.00000000000E+00 0. -1.
</event>
<event>
 7    1  0.6963701E-013  0.5930208E+02  0.7816164E-02  0.1266604E+00
        -11   -1    0    0    0    0  0.00000000000E+00  0.00000000000E+00  0.45593999997E+02  0.45594000000E+02  0.51100000000E-03 0. -1.
         11   -1    0    0    0    0 -0.00000000000E+00 -0.00000000000E+00 -0.45593999997E+02  0.45594000000E+02  0.51100000000E-03 0.  1.
    9900012    2    1    2    0    0  0.31885702238E+00  0.16599904741E+02 -0.27222298538E+02  0.59302077638E+02  0.50000243673E+02 0.  0.
         12    1    1    2    0    0 -0.31885702238E+00 -0.16599904741E+02  0.27222298538E+02  0.31885922362E+02  0.00000000000E+00 0. -1.
         11    1    3    3    0    0 -0.14798680564E+02  0.46852336024E+01 -0.18607679595E+01  0.15633771714E+02  0.51100000000E-03 0. -1.
        -11    1    3    3    0    0  0.87049259142E+01 -0.96609710370E+01 -0.10241536211E+02  0.16552920007E+02  0.51100000000E-03 0.  1.
        -12    1    3    3    0    0  0.64126116726E+01  0.21575642175E+02 -0.15119994367E+02  0.27115385916E+02  0.00000000000E+00 0.  1.
</event>
<event>
 7    1  0.6963701E-013  0.5930194E+02  0.7816164E-02  0.1266605E+00
        -11   -1    0    0    0    0  0.00000000000E+00  0.00000000000E+00  0.45593999997E+02  0.45594000000E+02  0.51100000000E-03 0. -1.
         11   -1    0    0    0    0 -0.00000000000E+00 -0.00000000000E+00 -0.45593999997E+02  0.45594000000E+02  0.51100000000E-03 0.  1.
    9900012    2    1    2    0    0  0.29005591605E+02  0.23980727778E+01  0.13024806170E+02  0.59301942339E+02  0.49999996920E+02 0.  0.
         12    1    1    2    0    0 -0.29005591605E+02 -0.23980727778E+01 -0.13024806170E+02  0.31886057661E+02  0.00000000000E+00 0. -1.
         11    1    3    3    0    0 -0.54637211762E+01  0.12394640639E+01 -0.93564167450E+01  0.10905551560E+02  0.51100000000E-03 0. -1.
        -11    1    3    3    0    0  0.21478609631E+02  0.12939491488E+02  0.10339595675E+02  0.27123206864E+02  0.51100000000E-03 0.  1.
        -12    1    3    3    0    0  0.12990703151E+02 -0.11780882774E+02  0.12041627240E+02  0.21273183915E+02  0.00000000000E+00 0.  1.
</event>
<event>
 7    1  0.6963701E-013  0.5930208E+02  0.7816164E-02  0.1266604E+00
        -11   -1    0    0    0    0  0.00000000000E+00  0.00000000000E+00  0.45593999997E+02  0.45594000000E+02  0.51100000000E-03 0.  1.
         11   -1    0    0    0    0 -0.00000000000E+00 -0.00000000000E+00 -0.45593999997E+02  0.45594000000E+02  0.51100000000E-03 0. -1.
    9900012    2    1    2    0    0 -0.13300612836E+02 -0.25459766964E+02 -0.13842182019E+02  0.59302077734E+02  0.50000243848E+02 0.  0.
         12    1    1    2    0    0  0.13300612836E+02  0.25459766964E+02  0.13842182019E+02  0.31885922266E+02  0.00000000000E+00 0. -1.
         11    1    3    3    0    0 -0.38858942861E+01 -0.70898308776E+01 -0.37930147732E+01  0.89304444238E+01  0.51100000000E-03 0. -1.
        -11    1    3    3    0    0 -0.18031237351E+02 -0.12882067516E+02  0.12623723377E+02  0.25503560066E+02  0.51100000000E-03 0.  1.
         12    1    3    3    0    0  0.86165188013E+01 -0.54878685705E+01 -0.22672890622E+02  0.24868073244E+02  0.00000000000E+00 0. -1.
</event>
<event>
 7    1  0.6963701E-013  0.5930193E+02  0.7816164E-02  0.1266605E+00
        -11   -1    0    0    0    0  0.00000000000E+00  0.00000000000E+00  0.45593999997E+02  0.45594000000E+02  0.51100000000E-03 0. -1.
         11   -1    0    0    0    0 -0.00000000000E+00 -0.00000000000E+00 -0.45593999997E+02  0.45594000000E+02  0.51100000000E-03 0.  1.
    9900012    2    1    2    0    0 -0.46398276869E+00  0.19057779440E+02 -0.25559878995E+02  0.59301926999E+02  0.49999968943E+02 0.  0.
         12    1    1    2    0    0  0.46398276869E+00 -0.19057779440E+02  0.25559878995E+02  0.31886073001E+02  0.00000000000E+00 0. -1.
         11    1    3    3    0    0 -0.30731776889E+01  0.43709235503E+01 -0.85451518344E+01  0.10078145361E+02  0.51100000000E-03 0. -1.
        -11    1    3    3    0    0 -0.30699836373E+01  0.25606714229E+02 -0.23864741856E+02  0.35137650992E+02  0.51100000000E-03 0.  1.
         12    1    3    3    0    0  0.56791785575E+01 -0.10919858339E+02  0.68500146947E+01  0.14086130645E+02  0.00000000000E+00 0. -1.
</event>
<event>
 7    1  0.6963701E-013  0.5930193E+02  0.7816164E-02  0.1266605E+00
        -11   -1    0    0    0    0  0.00000000000E+00  0.00000000000E+00  0.45593999997E+02  0.45594000000E+02  0.51100000000E-03 0. -1.
         11   -1    0    0    0    0 -0.00000000000E+00 -0.00000000000E+00 -0.45593999997E+02  0.45594000000E+02  0.51100000000E-03 0.  1.
    9900012    2    1    2    0    0 -0.22467180004E+02 -0.23491318271E+01 -0.22503972284E+02  0.59301931472E+02  0.49999977101E+02 0.  0.
         12    1    1    2    0    0  0.22467180004E+02  0.23491318271E+01  0.22503972284E+02  0.31886068528E+02  0.00000000000E+00 0. -1.
         11    1    3    3    0    0 -0.22993067330E+01  0.27896979529E+01  0.10237760307E+01  0.37573053833E+01  0.51100000000E-03 0. -1.
        -11    1    3    3    0    0 -0.25063606718E+02 -0.17675268295E+02 -0.27544351769E+01  0.30792635555E+02  0.51100000000E-03 0.  1.
         12    1    3    3    0    0  0.48957334474E+01  0.12536438516E+02 -0.20773313138E+02  0.24751990533E+02  0.00000000000E+00 0. -1.
</event>
<event>
 7    1  0.6963701E-013  0.5930193E+02  0.7816164E-02  0.1266605E+00
        -11   -1    0    0    0    0  0.00000000000E+00  0.00000000000E+00  0.45593999997E+02  0.45594000000E+02  0.51100000000E-03 0.  1.
         11   -1    0    0    0    0 -0.00000000000E+00 -0.00000000000E+00 -0.45593999997E+02  0.45594000000E+02  0.51100000000E-03 0. -1.
    9900012    2    1    2    0    0  0.28508495424E+02 -0.52267898107E+01  0.13291636649E+02  0.59301933327E+02  0.49999980484E+02 0.  0.
         12    1    1    2    0    0 -0.28508495424E+02  0.52267898107E+01 -0.13291636649E+02  0.31886066673E+02  0.00000000000E+00 0. -1.
         11    1    3    3    0    0  0.91062442487E-01  0.35389833034E+01  0.36270684254E+00  0.35586867950E+01  0.51100000000E-03 0. -1.
        -11    1    3    3    0    0  0.28349899393E+02 -0.79784837437E+01  0.28008524511E+02  0.40642963031E+02  0.51100000000E-03 0.  1.
         12    1    3    3    0    0  0.67533589009E-01 -0.78728937044E+00 -0.15079594705E+02  0.15100283500E+02  0.00000000000E+00 0. -1.
</event>
<event>
 7    1  0.6963701E-013  0.5930196E+02  0.7816164E-02  0.1266605E+00
        -11   -1    0    0    0    0  0.00000000000E+00  0.00000000000E+00  0.45593999997E+02  0.45594000000E+02  0.51100000000E-03 0.  1.
         11   -1    0    0    0    0 -0.00000000000E+00 -0.00000000000E+00 -0.45593999997E+02  0.45594000000E+02  0.51100000000E-03 0. -1.
    9900012    2    1    2    0    0  0.29556128917E+02  0.11703164656E+02  0.24880804957E+01  0.59301962867E+02  0.50000034358E+02 0.  0.
         12    1    1    2    0    0 -0.29556128917E+02 -0.11703164656E+02 -0.24880804957E+01  0.31886037133E+02  0.00000000000E+00 0. -1.
         11    1    3    3    0    0  0.97363413022E+00 -0.44860221365E+01 -0.52275237000E+01  0.69569650224E+01  0.51100000000E-03 0. -1.
        -11    1    3    3    0    0  0.30651507494E+02  0.88028954046E+01 -0.96849740705E+01  0.33328735382E+02  0.51100000000E-03 0.  1.
        -12    1    3    3    0    0 -0.20690127071E+01  0.73862913878E+01  0.17400578266E+02  0.19016262463E+02  0.00000000000E+00 0.  1.
</event>
<event>
 7    1  0.6963701E-013  0.5930212E+02  0.7816164E-02  0.1266604E+00
        -11   -1    0    0    0    0  0.00000000000E+00  0.00000000000E+00  0.45593999997E+02  0.45594000000E+02  0.51100000000E-03 0.  1.
         11   -1    0    0    0    0 -0.00000000000E+00 -0.00000000000E+00 -0.45593999997E+02  0.45594000000E+02  0.51100000000E-03 0. -1.
    9900012    2    1    2    0    0  0.73864695196E+01 -0.30954391373E+02  0.19937298954E+01  0.59302121682E+02  0.50000323997E+02 0.  0.
         12    1    1    2    0    0 -0.73864695196E+01  0.30954391373E+02 -0.19937298954E+01  0.31885878318E+02  0.00000000000E+00 0. -1.
         11    1    3    3    0    0 -0.21102496119E+01  0.15823539459E+01  0.70737246147E+01  0.75494753209E+01  0.51100000000E-03 0. -1.
        -11    1    3    3    0    0 -0.48014796495E+01 -0.96369993243E+01  0.14745522334E+02  0.18258050059E+02  0.51100000000E-03 0.  1.
        -12    1    3    3    0    0  0.14298198781E+02 -0.22899745995E+02 -0.19825517053E+02  0.33494596302E+02  0.00000000000E+00 0.  1.
</event>
<event>
 7    1  0.6963701E-013  0.5930197E+02  0.7816164E-02  0.1266605E+00
        -11   -1    0    0    0    0  0.00000000000E+00  0.00000000000E+00  0.45593999997E+02  0.45594000000E+02  0.51100000000E-03 0.  1.
         11   -1    0    0    0    0 -0.00000000000E+00 -0.00000000000E+00 -0.45593999997E+02  0.45594000000E+02  0.51100000000E-03 0. -1.
    9900012    2    1    2    0    0 -0.12115201623E+02  0.18263417328E+02 -0.23160054262E+02  0.59301974279E+02  0.50000055171E+02 0.  0.
         12    1    1    2    0    0  0.12115201623E+02 -0.18263417328E+02  0.23160054262E+02  0.31886025721E+02  0.00000000000E+00 0. -1.
         11    1    3    3    0    0 -0.12490040330E+02 -0.36358102217E+01 -0.17280250404E+02  0.21629315239E+02  0.51100000000E-03 0. -1.
        -11    1    3    3    0    0 -0.87568536251E+01 -0.39958400307E+01 -0.29033899150E+01  0.10053800089E+02  0.51100000000E-03 0.  1.
         12    1    3    3    0    0  0.91316923321E+01  0.25895067580E+02 -0.29764139434E+01  0.27618858951E+02  0.00000000000E+00 0. -1.
</event>
<event>
 7    1  0.6963701E-013  0.5930195E+02  0.7816164E-02  0.1266605E+00
        -11   -1    0    0    0    0  0.00000000000E+00  0.00000000000E+00  0.45593999997E+02  0.45594000000E+02  0.51100000000E-03 0. -1.
         11   -1    0    0    0    0 -0.00000000000E+00 -0.00000000000E+00 -0.45593999997E+02  0.45594000000E+02  0.51100000000E-03 0.  1.
    9900012    2    1    2    0    0  0.27153401537E+02  0.14853608738E+02 -0.76670180037E+01  0.59301951755E+02  0.50000014093E+02 0.  0.
         12    1    1    2    0    0 -0.27153401537E+02 -0.14853608738E+02  0.76670180037E+01  0.31886048245E+02  0.00000000000E+00 0. -1.
         11    1    3    3    0    0  0.22509436195E+02  0.41412691839E+01 -0.20134787223E+02  0.30483347668E+02  0.51100000000E-03 0. -1.
        -11    1    3    3    0    0  0.78446095240E+01  0.21953453740E+01 -0.46885690640E+01  0.93989424950E+01  0.51100000000E-03 0.  1.
         12    1    3    3    0    0 -0.32006441820E+01  0.85169941804E+01  0.17156338284E+02  0.19419661592E+02  0.00000000000E+00 0. -1.
</event>
<event>
 7    1  0.6963701E-013  0.5930192E+02  0.7816164E-02  0.1266605E+00
        -11   -1    0    0    0    0  0.00000000000E+00  0.00000000000E+00  0.45593999997E+02  0.45594000000E+02  0.51100000000E-03 0.  1.
         11   -1    0    0    0    0 -0.00000000000E+00 -0.00000000000E+00 -0.45593999997E+02  0.45594000000E+02  0.51100000000E-03 0. -1.
    9900012    2    1    2    0    0 -0.65159475230E+01 -0.30838951658E+02  0.48190799709E+01  0.59301920854E+02  0.49999957738E+02 0.  0.
         12    1    1    2    0    0  0.65159475230E+01  0.30838951658E+02 -0.48190799709E+01  0.31886079146E+02  0.00000000000E+00 0. -1.
         11    1    3    3    0    0 -0.10980779638E+02 -0.36907822589E+01  0.75649943148E+01  0.13835770104E+02  0.51100000000E-03 0. -1.
        -11    1    3    3    0    0 -0.38770716618E+01  0.47172288166E+01  0.86703649583E+01  0.10604676381E+02  0.51100000000E-03 0.  1.
         12    1    3    3    0    0  0.83419037765E+01 -0.31865398216E+02 -0.11416279302E+02  0.34861474369E+02  0.00000000000E+00 0. -1.
</event>
<event>
 7    1  0.6963701E-013  0.5930189E+02  0.7816164E-02  0.1266605E+00
        -11   -1    0    0    0    0  0.00000000000E+00  0.00000000000E+00  0.45593999997E+02  0.45594000000E+02  0.51100000000E-03 0. -1.
         11   -1    0    0    0    0 -0.00000000000E+00 -0.00000000000E+00 -0.45593999997E+02  0.45594000000E+02  0.51100000000E-03 0.  1.
    9900012    2    1    2    0    0 -0.23297295355E+02 -0.16536558307E+02 -0.14159879033E+02  0.59301891649E+02  0.49999904474E+02 0.  0.
         12    1    1    2    0    0  0.23297295355E+02  0.16536558307E+02  0.14159879033E+02  0.31886108351E+02  0.00000000000E+00 0. -1.
         11    1    3    3    0    0 -0.48063982074E+01 -0.58146797758E+01  0.56030157735E+01  0.93971139529E+01  0.51100000000E-03 0. -1.
        -11    1    3    3    0    0 -0.15027127735E+02 -0.18143398999E+02 -0.29128755152E+02  0.37463073448E+02  0.51100000000E-03 0.  1.
         12    1    3    3    0    0 -0.34637694131E+01  0.74215204680E+01  0.93658603448E+01  0.12441704248E+02  0.00000000000E+00 0. -1.
</event>
<event>
 7    1  0.6963701E-013  0.5930195E+02  0.7816164E-02  0.1266605E+00
        -11   -1    0    0    0    0  0.00000000000E+00  0.00000000000E+00  0.45593999997E+02  0.45594000000E+02  0.51100000000E-03 0.  1.
         11   -1    0    0    0    0 -0.00000000000E+00 -0.00000000000E+00 -0.45593999997E+02  0.45594000000E+02  0.51100000000E-03 0. -1.
    9900012    2    1    2    0    0 -0.15816249647E+02 -0.25414954881E+02  0.10983924494E+02  0.59301948476E+02  0.50000008113E+02 0.  0.
         12    1    1    2    0    0  0.15816249647E+02  0.25414954881E+02 -0.10983924494E+02  0.31886051524E+02  0.00000000000E+00 0. -1.
         11    1    3    3    0    0  0.23129780047E+00 -0.44659597663E+01  0.33322616154E+01  0.55769402939E+01  0.51100000000E-03 0. -1.
        -11    1    3    3    0    0 -0.72126343972E+00 -0.17991137857E+02  0.24728538210E+02  0.30589244263E+02  0.51100000000E-03 0.  1.
        -12    1    3    3    0    0 -0.15326284008E+02 -0.29578572576E+01 -0.17076875332E+02  0.23135763920E+02  0.00000000000E+00 0.  1.
</event>
<event>
 7    1  0.6963701E-013  0.5930195E+02  0.7816164E-02  0.1266605E+00
        -11   -1    0    0    0    0  0.00000000000E+00  0.00000000000E+00  0.45593999997E+02  0.45594000000E+02  0.51100000000E-03 0.  1.
         11   -1    0    0    0    0 -0.00000000000E+00 -0.00000000000E+00 -0.45593999997E+02  0.45594000000E+02  0.51100000000E-03 0. -1.
    9900012    2    1    2    0    0  0.23849896342E+02  0.96914141104E+01  0.18814325142E+02  0.59301954564E+02  0.50000019215E+02 0.  0.
         12    1    1    2    0    0 -0.23849896342E+02 -0.96914141104E+01 -0.18814325142E+02  0.31886045436E+02  0.00000000000E+00 0. -1.
         11    1    3    3    0    0 -0.12066512174E+02  0.46992525903E+00  0.14201736530E+02  0.18641643343E+02  0.51100000000E-03 0. -1.
        -11    1    3    3    0    0  0.38309673113E+01  0.25701843263E+01  0.63474737914E+01  0.78468198529E+01  0.51100000000E-03 0.  1.
        -12    1    3    3    0    0  0.32085441205E+02  0.66513045251E+01 -0.17348851794E+01  0.32813491368E+02  0.00000000000E+00 0.  1.
</event>
<event>
 7    1  0.6963701E-013  0.5930193E+02  0.7816164E-02  0.1266605E+00
        -11   -1    0    0    0    0  0.00000000000E+00  0.00000000000E+00  0.45593999997E+02  0.45594000000E+02  0.51100000000E-03 0. -1.
         11   -1    0    0    0    0 -0.00000000000E+00 -0.00000000000E+00 -0.45593999997E+02  0.45594000000E+02  0.51100000000E-03 0.  1.
    9900012    2    1    2    0    0  0.13487259401E+02 -0.26412697181E+02 -0.11712592217E+02  0.59301928512E+02  0.49999971703E+02 0.  0.
         12    1    1    2    0    0 -0.13487259401E+02  0.26412697181E+02  0.11712592217E+02  0.31886071488E+02  0.00000000000E+00 0. -1.
         11    1    3    3    0    0  0.11344662402E+01  0.72196076088E+00 -0.93673957416E+00  0.16388173423E+01  0.51100000000E-03 0. -1.
        -11    1    3    3    0    0  0.10587112989E+02  0.67170763999E+01 -0.19016649794E+02  0.22778038687E+02  0.51100000000E-03 0.  1.
         12    1    3    3    0    0  0.17656801719E+01 -0.33851734341E+02  0.82407971509E+01  0.34885072482E+02  0.00000000000E+00 0. -1.
</event>
<event>
 7    1  0.6963701E-013  0.5930194E+02  0.7816164E-02  0.1266605E+00
        -11   -1    0    0    0    0  0.00000000000E+00  0.00000000000E+00  0.45593999997E+02  0.45594000000E+02  0.51100000000E-03 0. -1.
         11   -1    0    0    0    0 -0.00000000000E+00 -0.00000000000E+00 -0.45593999997E+02  0.45594000000E+02  0.51100000000E-03 0.  1.
    9900012    2    1    2    0    0 -0.28337678044E+02  0.90387258561E+01 -0.11489050390E+02  0.59301939709E+02  0.49999992123E+02 0.  0.
         12    1    1    2    0    0  0.28337678044E+02 -0.90387258561E+01  0.11489050390E+02  0.31886060291E+02  0.00000000000E+00 0. -1.
         11    1    3    3    0    0 -0.22793824400E+02  0.13034826889E+02 -0.11900234374E+02  0.28828470671E+02  0.51100000000E-03 0. -1.
        -11    1    3    3    0    0 -0.12094550710E+02  0.28409467433E+01 -0.10328066680E+02  0.16156054496E+02  0.51100000000E-03 0.  1.
         12    1    3    3    0    0  0.65506970658E+01 -0.68370477761E+01  0.10739250664E+02  0.14317414542E+02  0.00000000000E+00 0. -1.
</event>
<event>
 7    1  0.6963701E-013  0.5930196E+02  0.7816164E-02  0.1266605E+00
        -11   -1    0    0    0    0  0.00000000000E+00  0.00000000000E+00  0.45593999997E+02  0.45594000000E+02  0.51100000000E-03 0.  1.
         11   -1    0    0    0    0 -0.00000000000E+00 -0.00000000000E+00 -0.45593999997E+02  0.45594000000E+02  0.51100000000E-03 0. -1.
    9900012    2    1    2    0    0 -0.15352211532E+02 -0.18415061097E+02  0.21021767411E+02  0.59301959493E+02  0.50000028205E+02 0.  0.
         12    1    1    2    0    0  0.15352211532E+02  0.18415061097E+02 -0.21021767411E+02  0.31886040507E+02  0.00000000000E+00 0. -1.
         11    1    3    3    0    0  0.45599568936E+01  0.94086590815E+01  0.11001286596E+02  0.15177100501E+02  0.51100000000E-03 0. -1.
        -11    1    3    3    0    0 -0.15083932277E+02 -0.85947838906E+01  0.15799629863E+02  0.23473892458E+02  0.51100000000E-03 0.  1.
        -12    1    3    3    0    0 -0.48282361489E+01 -0.19228936288E+02 -0.57791490479E+01  0.20650966534E+02  0.00000000000E+00 0.  1.
</event>
<event>
 7    1  0.6963701E-013  0.5930195E+02  0.7816164E-02  0.1266605E+00
        -11   -1    0    0    0    0  0.00000000000E+00  0.00000000000E+00  0.45593999997E+02  0.45594000000E+02  0.51100000000E-03 0.  1.
         11   -1    0    0    0    0 -0.00000000000E+00 -0.00000000000E+00 -0.45593999997E+02  0.45594000000E+02  0.51100000000E-03 0. -1.
    9900012    2    1    2    0    0 -0.29102326145E+01  0.68001052896E+01  0.31016273345E+02  0.59301951358E+02  0.50000013368E+02 0.  0.
         12    1    1    2    0    0  0.29102326145E+01 -0.68001052896E+01 -0.31016273345E+02  0.31886048642E+02  0.00000000000E+00 0. -1.
         11    1    3    3    0    0  0.27865747979E+01  0.74781086223E+01  0.13518436663E+00  0.79815651814E+01  0.51100000000E-03 0. -1.
        -11    1    3    3    0    0 -0.13027915943E+02  0.16327053151E+02  0.23350761309E+02  0.31329815071E+02  0.51100000000E-03 0.  1.
        -12    1    3    3    0    0  0.73311085307E+01 -0.17005056484E+02  0.75303276693E+01  0.19990571105E+02  0.00000000000E+00 0.  1.
</event>
<event>
 7    1  0.6963701E-013  0.5930195E+02  0.7816164E-02  0.1266605E+00
        -11   -1    0    0    0    0  0.00000000000E+00  0.00000000000E+00  0.45593999997E+02  0.45594000000E+02  0.51100000000E-03 0. -1.
         11   -1    0    0    0    0 -0.00000000000E+00 -0.00000000000E+00 -0.45593999997E+02  0.45594000000E+02  0.51100000000E-03 0.  1.
    9900012    2    1    2    0    0 -0.74408290916E+01  0.30471427781E+02  0.57311885690E+01  0.59301947077E+02  0.50000005561E+02 0.  0.
         12    1    1    2    0    0  0.74408290916E+01 -0.30471427781E+02 -0.57311885690E+01  0.31886052923E+02  0.00000000000E+00 0. -1.
         11    1    3    3    0    0 -0.72882123023E+01 -0.20429062657E+01  0.32769862179E+01  0.82480387674E+01  0.51100000000E-03 0.  1.
        -11    1    3    3    0    0  0.19470478698E+02  0.13911852216E+02  0.19628476543E+01  0.24010246645E+02  0.51100000000E-03 0. -1.
         12    1    3    3    0    0 -0.19623095487E+02  0.18602481831E+02  0.49135469671E+00  0.27043661664E+02  0.00000000000E+00 0. -1.
</event>
<event>
 7    1  0.6963701E-013  0.5930192E+02  0.7816164E-02  0.1266605E+00
        -11   -1    0    0    0    0  0.00000000000E+00  0.00000000000E+00  0.45593999997E+02  0.45594000000E+02  0.51100000000E-03 0.  1.
         11   -1    0    0    0    0 -0.00000000000E+00 -0.00000000000E+00 -0.45593999997E+02  0.45594000000E+02  0.51100000000E-03 0. -1.
    9900012    2    1    2    0    0 -0.83346838611E+01  0.65866825547E+01  0.30064446225E+02  0.59301917316E+02  0.49999951283E+02 0.  0.
         12    1    1    2    0    0  0.83346838611E+01 -0.65866825547E+01 -0.30064446225E+02  0.31886082684E+02  0.00000000000E+00 0. -1.
         11    1    3    3    0    0 -0.21555824200E+01  0.54025929859E+01 -0.22720641050E+01  0.62447435575E+01  0.51100000000E-03 0. -1.
        -11    1    3    3    0    0  0.44590891839E+01  0.19541335501E+02  0.20885202540E+02  0.28947175249E+02  0.51100000000E-03 0.  1.
         12    1    3    3    0    0 -0.10638190625E+02 -0.18357245932E+02  0.11451307790E+02  0.24109998509E+02  0.00000000000E+00 0. -1.
</event>
<event>
 7    1  0.6963701E-013  0.5930192E+02  0.7816164E-02  0.1266605E+00
        -11   -1    0    0    0    0  0.00000000000E+00  0.00000000000E+00  0.45593999997E+02  0.45594000000E+02  0.51100000000E-03 0.  1.
         11   -1    0    0    0    0 -0.00000000000E+00 -0.00000000000E+00 -0.45593999997E+02  0.45594000000E+02  0.51100000000E-03 0. -1.
    9900012    2    1    2    0    0  0.49211701791E+01  0.31054027070E+02 -0.53057871696E+01  0.59301923247E+02  0.49999962101E+02 0.  0.
         12    1    1    2    0    0 -0.49211701791E+01 -0.31054027070E+02  0.53057871696E+01  0.31886076753E+02  0.00000000000E+00 0. -1.
         11    1    3    3    0    0  0.10587407593E+02  0.83106988261E+01  0.11148199527E+02  0.17476935300E+02  0.51100000000E-03 0. -1.
        -11    1    3    3    0    0 -0.64011589459E-01  0.18489232445E+02  0.50772550880E+01  0.19173792879E+02  0.51100000000E-03 0.  1.
         12    1    3    3    0    0 -0.56022258245E+01  0.42540957995E+01 -0.21531241784E+02  0.22651195068E+02  0.00000000000E+00 0. -1.
</event>
<event>
 7    1  0.6963701E-013  0.5930196E+02  0.7816164E-02  0.1266605E+00
        -11   -1    0    0    0    0  0.00000000000E+00  0.00000000000E+00  0.45593999997E+02  0.45594000000E+02  0.51100000000E-03 0.  1.
         11   -1    0    0    0    0 -0.00000000000E+00 -0.00000000000E+00 -0.45593999997E+02  0.45594000000E+02  0.51100000000E-03 0. -1.
    9900012    2    1    2    0    0  0.13814117305E+02  0.14412896578E+02  0.24862791668E+02  0.59301955494E+02  0.50000020912E+02 0.  0.
         12    1    1    2    0    0 -0.13814117305E+02 -0.14412896578E+02 -0.24862791668E+02  0.31886044506E+02  0.00000000000E+00 0. -1.
         11    1    3    3    0    0  0.15358863507E+02 -0.26315204294E+01  0.11411917162E+02  0.19314539642E+02  0.51100000000E-03 0. -1.
        -11    1    3    3    0    0  0.96371658162E+01  0.13207876981E+02 -0.58405769898E+01  0.17361892729E+02  0.51100000000E-03 0.  1.
        -12    1    3    3    0    0 -0.11181912018E+02  0.38365400261E+01  0.19291451497E+02  0.22625523123E+02  0.00000000000E+00 0.  1.
</event>
<event>
 7    1  0.6963701E-013  0.5930192E+02  0.7816164E-02  0.1266605E+00
        -11   -1    0    0    0    0  0.00000000000E+00  0.00000000000E+00  0.45593999997E+02  0.45594000000E+02  0.51100000000E-03 0.  1.
         11   -1    0    0    0    0 -0.00000000000E+00 -0.00000000000E+00 -0.45593999997E+02  0.45594000000E+02  0.51100000000E-03 0. -1.
    9900012    2    1    2    0    0  0.47153988339E+01  0.46020878039E+01  0.31197883650E+02  0.59301919298E+02  0.49999954899E+02 0.  0.
         12    1    1    2    0    0 -0.47153988339E+01 -0.46020878039E+01 -0.31197883650E+02  0.31886080702E+02  0.00000000000E+00 0. -1.
         11    1    3    3    0    0  0.33590771784E+00  0.97200386902E+01 -0.90056113514E+01  0.13254924451E+02  0.51100000000E-03 0. -1.
        -11    1    3    3    0    0 -0.29373318378E+01  0.15378400444E+01 -0.11636010639E+01  0.35138067711E+01  0.51100000000E-03 0.  1.
        -12    1    3    3    0    0  0.73168229539E+01 -0.66557909307E+01  0.41367096065E+02  0.42533188076E+02  0.00000000000E+00 0.  1.
</event>
<event>
 7    1  0.6963701E-013  0.5930201E+02  0.7816164E-02  0.1266605E+00
        -11   -1    0    0    0    0  0.00000000000E+00  0.00000000000E+00  0.45593999997E+02  0.45594000000E+02  0.51100000000E-03 0.  1.
         11   -1    0    0    0    0 -0.00000000000E+00 -0.00000000000E+00 -0.45593999997E+02  0.45594000000E+02  0.51100000000E-03 0. -1.
    9900012    2    1    2    0    0  0.16127385022E+02  0.25721317226E+02 -0.97487395564E+01  0.59302005732E+02  0.50000112534E+02 0.  0.
         12    1    1    2    0    0 -0.16127385022E+02 -0.25721317226E+02  0.97487395564E+01  0.31885994268E+02  0.00000000000E+00 0. -1.
         11    1    3    3    0    0  0.69882388080E+00  0.69585347960E+01 -0.75727271500E+01  0.10308043368E+02  0.51100000000E-03 0. -1.
        -11    1    3    3    0    0  0.58023303284E+01  0.19303395136E+02 -0.20210608060E+02  0.28543944707E+02  0.51100000000E-03 0.  1.
        -12    1    3    3    0    0  0.96262308131E+01 -0.54061270605E+00  0.18034595654E+02  0.20450017657E+02  0.00000000000E+00 0.  1.
</event>
<event>
 7    1  0.6963701E-013  0.5930192E+02  0.7816164E-02  0.1266605E+00
        -11   -1    0    0    0    0  0.00000000000E+00  0.00000000000E+00  0.45593999997E+02  0.45594000000E+02  0.51100000000E-03 0. -1.
         11   -1    0    0    0    0 -0.00000000000E+00 -0.00000000000E+00 -0.45593999997E+02  0.45594000000E+02  0.51100000000E-03 0.  1.
    9900012    2    1    2    0    0  0.13939162227E+02  0.20607459874E+02 -0.19943774907E+02  0.59301924613E+02  0.49999964593E+02 0.  0.
         12    1    1    2    0    0 -0.13939162227E+02 -0.20607459874E+02  0.19943774907E+02  0.31886075387E+02  0.00000000000E+00 0. -1.
         11    1    3    3    0    0  0.27355342175E+02 -0.34424595434E+01 -0.66421067586E+01  0.28359881094E+02  0.51100000000E-03 0. -1.
        -11    1    3    3    0    0 -0.41909848397E+01  0.91540224576E+01 -0.72446724773E+01  0.12403457608E+02  0.51100000000E-03 0.  1.
        -12    1    3    3    0    0 -0.92251951086E+01  0.14895896959E+02 -0.60569956709E+01  0.18538585911E+02  0.00000000000E+00 0.  1.
</event>
<event>
 7    1  0.6963701E-013  0.5930195E+02  0.7816164E-02  0.1266605E+00
        -11   -1    0    0    0    0  0.00000000000E+00  0.00000000000E+00  0.45593999997E+02  0.45594000000E+02  0.51100000000E-03 0. -1.
         11   -1    0    0    0    0 -0.00000000000E+00 -0.00000000000E+00 -0.45593999997E+02  0.45594000000E+02  0.51100000000E-03 0.  1.
    9900012    2    1    2    0    0  0.30011288254E+02  0.30538482667E+01 -0.10330394442E+02  0.59301945662E+02  0.50000002981E+02 0.  0.
         12    1    1    2    0    0 -0.30011288254E+02 -0.30538482667E+01  0.10330394442E+02  0.31886054338E+02  0.00000000000E+00 0. -1.
         11    1    3    3    0    0  0.58360744040E+01  0.10955452064E+02 -0.32288460029E+01  0.12826033726E+02  0.51100000000E-03 0. -1.
        -11    1    3    3    0    0 -0.50046810932E+01 -0.28385053025E+01 -0.14797254152E+02  0.15876481848E+02  0.51100000000E-03 0.  1.
         12    1    3    3    0    0  0.29179894943E+02 -0.50630984946E+01  0.76957057123E+01  0.30599430088E+02  0.00000000000E+00 0. -1.
</event>
<event>
 7    1  0.7443284E-013  0.5930193E+02  0.7816164E-02  0.1266605E+00
        -11   -1    0    0    0    0  0.00000000000E+00  0.00000000000E+00  0.45593999997E+02  0.45594000000E+02  0.51100000000E-03 0. -1.
         11   -1    0    0    0    0 -0.00000000000E+00 -0.00000000000E+00 -0.45593999997E+02  0.45594000000E+02  0.51100000000E-03 0.  1.
    9900012    2    1    2    0    0  0.13608495757E+02 -0.27713555368E+02 -0.79680147684E+01  0.59301928319E+02  0.49999971350E+02 0.  0.
         12    1    1    2    0    0 -0.13608495757E+02  0.27713555368E+02  0.79680147684E+01  0.31886071681E+02  0.00000000000E+00 0. -1.
         11    1    3    3    0    0 -0.11101761994E+02 -0.58363532416E+01 -0.12691584735E+02  0.17843443106E+02  0.51100000000E-03 0.  1.
        -11    1    3    3    0    0  0.16694622040E+02 -0.23795144065E+01 -0.58823340926E+01  0.17859852981E+02  0.51100000000E-03 0. -1.
        -12    1    3    3    0    0  0.80156357116E+01 -0.19497687720E+02  0.10605904059E+02  0.23598632232E+02  0.00000000000E+00 0.  1.
</event>
<event>
 7    1  0.6963701E-013  0.5930196E+02  0.7816164E-02  0.1266605E+00
        -11   -1    0    0    0    0  0.00000000000E+00  0.00000000000E+00  0.45593999997E+02  0.45594000000E+02  0.51100000000E-03 0.  1.
         11   -1    0    0    0    0 -0.00000000000E+00 -0.00000000000E+00 -0.45593999997E+02  0.45594000000E+02  0.51100000000E-03 0. -1.
    9900012    2    1    2    0    0 -0.22462699752E+02  0.97459084652E+01  0.20424588711E+02  0.59301961739E+02  0.50000032302E+02 0.  0.
         12    1    1    2    0    0  0.22462699752E+02 -0.97459084652E+01 -0.20424588711E+02  0.31886038261E+02  0.00000000000E+00 0. -1.
         11    1    3    3    0    0 -0.10976707318E+02  0.17162032792E+02  0.80240023589E+01  0.21895389633E+02  0.51100000000E-03 0. -1.
        -11    1    3    3    0    0 -0.18808965358E+01  0.12732006602E+02  0.31849053828E+01  0.13258408142E+02  0.51100000000E-03 0.  1.
        -12    1    3    3    0    0 -0.96050958983E+01 -0.20148130928E+02  0.92156809690E+01  0.24148163964E+02  0.00000000000E+00 0.  1.
</event>
<event>
 7    1  0.6963701E-013  0.5930192E+02  0.7816164E-02  0.1266605E+00
        -11   -1    0    0    0    0  0.00000000000E+00  0.00000000000E+00  0.45593999997E+02  0.45594000000E+02  0.51100000000E-03 0.  1.
         11   -1    0    0    0    0 -0.00000000000E+00 -0.00000000000E+00 -0.45593999997E+02  0.45594000000E+02  0.51100000000E-03 0. -1.
    9900012    2    1    2    0    0 -0.22413505951E+02  0.21475062047E+02 -0.72923592450E+01  0.59301920870E+02  0.49999957766E+02 0.  0.
         12    1    1    2    0    0  0.22413505951E+02 -0.21475062047E+02  0.72923592450E+01  0.31886079130E+02  0.00000000000E+00 0. -1.
         11    1    3    3    0    0  0.12681047202E+01  0.32257021091E+01 -0.96144886040E+00  0.35968914149E+01  0.51100000000E-03 0. -1.
        -11    1    3    3    0    0  0.57809242328E+00  0.28493682217E+02 -0.70598247796E+01  0.29360947589E+02  0.51100000000E-03 0.  1.
        -12    1    3    3    0    0 -0.24259703095E+02 -0.10244322279E+02  0.72891439500E+00  0.26344081867E+02  0.00000000000E+00 0.  1.
</event>
<event>
 7    1  0.6963701E-013  0.5930194E+02  0.7816164E-02  0.1266605E+00
        -11   -1    0    0    0    0  0.00000000000E+00  0.00000000000E+00  0.45593999997E+02  0.45594000000E+02  0.51100000000E-03 0.  1.
         11   -1    0    0    0    0 -0.00000000000E+00 -0.00000000000E+00 -0.45593999997E+02  0.45594000000E+02  0.51100000000E-03 0. -1.
    9900012    2    1    2    0    0  0.73073304758E+01  0.30997796829E+02  0.15686265281E+01  0.59301936020E+02  0.49999985396E+02 0.  0.
         12    1    1    2    0    0 -0.73073304758E+01 -0.30997796829E+02 -0.15686265281E+01  0.31886063980E+02  0.00000000000E+00 0. -1.
         11    1    3    3    0    0  0.48089461173E+01  0.29931347031E+01 -0.13936068872E+02  0.15043232166E+02  0.51100000000E-03 0. -1.
        -11    1    3    3    0    0 -0.35016496454E+01  0.12428156584E+02 -0.81784609207E+01  0.15284235330E+02  0.51100000000E-03 0.  1.
         12    1    3    3    0    0  0.60000340040E+01  0.15576505542E+02  0.23683156321E+02  0.28974468525E+02  0.00000000000E+00 0. -1.
</event>
<event>
 7    1  0.6963701E-013  0.5930204E+02  0.7816164E-02  0.1266604E+00
        -11   -1    0    0    0    0  0.00000000000E+00  0.00000000000E+00  0.45593999997E+02  0.45594000000E+02  0.51100000000E-03 0. -1.
         11   -1    0    0    0    0 -0.00000000000E+00 -0.00000000000E+00 -0.45593999997E+02  0.45594000000E+02  0.51100000000E-03 0.  1.
    9900012    2    1    2    0    0 -0.22035917885E+02  0.22899186407E+02  0.25999558493E+01  0.59302044070E+02  0.50000182453E+02 0.  0.
         12    1    1    2    0    0  0.22035917885E+02 -0.22899186407E+02 -0.25999558493E+01  0.31885955930E+02  0.00000000000E+00 0. -1.
         11    1    3    3    0    0 -0.41721655431E+00 -0.12855223132E+02  0.19433529575E+01  0.13007976492E+02  0.51100000000E-03 0. -1.
        -11    1    3    3    0    0  0.54944191429E+00 -0.80809349991E+00  0.33125700145E+01  0.34536968430E+01  0.51100000000E-03 0.  1.
        -12    1    3    3    0    0 -0.22168143245E+02  0.36562503039E+02 -0.26559671227E+01  0.42840370736E+02  0.00000000000E+00 0.  1.
</event>
<event>
 7    1  0.6963701E-013  0.5930201E+02  0.7816164E-02  0.1266605E+00
        -11   -1    0    0    0    0  0.00000000000E+00  0.00000000000E+00  0.45593999997E+02  0.45594000000E+02  0.51100000000E-03 0.  1.
         11   -1    0    0    0    0 -0.00000000000E+00 -0.00000000000E+00 -0.45593999997E+02  0.45594000000E+02  0.51100000000E-03 0. -1.
    9900012    2    1    2    0    0  0.97133063460E+00  0.26660830568E+02  0.17463475962E+02  0.59302009934E+02  0.50000120198E+02 0.  0.
         12    1    1    2    0    0 -0.97133063460E+00 -0.26660830568E+02 -0.17463475962E+02  0.31885990066E+02  0.00000000000E+00 0. -1.
         11    1    3    3    0    0 -0.12636702741E+02 -0.16581330563E+01  0.12917125625E+02  0.18146288769E+02  0.51100000000E-03 0. -1.
        -11    1    3    3    0    0  0.63502039582E+00  0.12896363890E+02  0.13870296449E+02  0.18950054784E+02  0.51100000000E-03 0.  1.
        -12    1    3    3    0    0  0.12973012980E+02  0.15422599735E+02 -0.93239461123E+01  0.22205666382E+02  0.00000000000E+00 0.  1.
</event>
<event>
 7    1  0.6963701E-013  0.5930200E+02  0.7816164E-02  0.1266605E+00
        -11   -1    0    0    0    0  0.00000000000E+00  0.00000000000E+00  0.45593999997E+02  0.45594000000E+02  0.51100000000E-03 0.  1.
         11   -1    0    0    0    0 -0.00000000000E+00 -0.00000000000E+00 -0.45593999997E+02  0.45594000000E+02  0.51100000000E-03 0. -1.
    9900012    2    1    2    0    0 -0.96762959090E+01 -0.16720948129E+02  0.25367227979E+02  0.59301998931E+02  0.50000100130E+02 0.  0.
         12    1    1    2    0    0  0.96762959090E+01  0.16720948129E+02 -0.25367227979E+02  0.31886001069E+02  0.00000000000E+00 0. -1.
         11    1    3    3    0    0  0.39011973651E+01 -0.19241036566E+02  0.12382707655E+02  0.23211382513E+02  0.51100000000E-03 0. -1.
        -11    1    3    3    0    0 -0.11275093542E+02 -0.13313665027E+02  0.46787229978E+01  0.18062996982E+02  0.51100000000E-03 0.  1.
         12    1    3    3    0    0 -0.23023997323E+01  0.15833753465E+02  0.83057973256E+01  0.18027619436E+02  0.00000000000E+00 0. -1.
</event>
<event>
 7    1  0.7647738E-013  0.5930179E+02  0.7816164E-02  0.1266605E+00
        -11   -1    0    0    0    0  0.00000000000E+00  0.00000000000E+00  0.45593999997E+02  0.45594000000E+02  0.51100000000E-03 0. -1.
         11   -1    0    0    0    0 -0.00000000000E+00 -0.00000000000E+00 -0.45593999997E+02  0.45594000000E+02  0.51100000000E-03 0.  1.
    9900012    2    1    2    0    0 -0.24594150194E+02  0.19941741815E+02 -0.37663379366E+01  0.59301786806E+02  0.49999713264E+02 0.  0.
         12    1    1    2    0    0  0.24594150194E+02 -0.19941741815E+02  0.37663379366E+01  0.31886213194E+02  0.00000000000E+00 0. -1.
         11    1    3    3    0    0  0.69163371265E+01  0.11571647726E+01 -0.11271276105E+00  0.70133767891E+01  0.51100000000E-03 0. -1.
        -11    1    3    3    0    0 -0.44699016828E+01  0.23085549585E+02  0.40142381701E+01  0.23854490752E+02  0.51100000000E-03 0.  1.
        -12    1    3    3    0    0 -0.27040585638E+02 -0.43009725423E+01 -0.76678633457E+01  0.28433919265E+02  0.00000000000E+00 0.  1.
</event>
<event>
 7    1  0.6963701E-013  0.5930195E+02  0.7816164E-02  0.1266605E+00
        -11   -1    0    0    0    0  0.00000000000E+00  0.00000000000E+00  0.45593999997E+02  0.45594000000E+02  0.51100000000E-03 0.  1.
         11   -1    0    0    0    0 -0.00000000000E+00 -0.00000000000E+00 -0.45593999997E+02  0.45594000000E+02  0.51100000000E-03 0. -1.
    9900012    2    1    2    0    0  0.31122886632E+02 -0.25903237317E+01  0.64324442435E+01  0.59301949942E+02  0.50000010786E+02 0.  0.
         12    1    1    2    0    0 -0.31122886632E+02  0.25903237317E+01 -0.64324442435E+01  0.31886050058E+02  0.00000000000E+00 0. -1.
         11    1    3    3    0    0  0.79457620048E+01  0.11023822109E+02 -0.37451759623E+00  0.13594118266E+02  0.51100000000E-03 0. -1.
        -11    1    3    3    0    0  0.90801673640E+01  0.81730448602E+01 -0.91329555510E+01  0.15253162918E+02  0.51100000000E-03 0.  1.
        -12    1    3    3    0    0  0.14096957263E+02 -0.21787190701E+02  0.15939917391E+02  0.30454668758E+02  0.00000000000E+00 0.  1.
</event>
<event>
 7    1  0.6963701E-013  0.5930194E+02  0.7816164E-02  0.1266605E+00
        -11   -1    0    0    0    0  0.00000000000E+00  0.00000000000E+00  0.45593999997E+02  0.45594000000E+02  0.51100000000E-03 0.  1.
         11   -1    0    0    0    0 -0.00000000000E+00 -0.00000000000E+00 -0.45593999997E+02  0.45594000000E+02  0.51100000000E-03 0. -1.
    9900012    2    1    2    0    0  0.16470951750E+02 -0.20538062476E+02  0.17989344926E+02  0.59301940465E+02  0.49999993503E+02 0.  0.
         12    1    1    2    0    0 -0.16470951750E+02  0.20538062476E+02 -0.17989344926E+02  0.31886059535E+02  0.00000000000E+00 0. -1.
         11    1    3    3    0    0 -0.90106440880E+01 -0.67028349545E+01 -0.47910289297E+01  0.12209572547E+02  0.51100000000E-03 0. -1.
        -11    1    3    3    0    0  0.13755927039E+01  0.77945489302E+01  0.81042464157E+00  0.79563833915E+01  0.51100000000E-03 0.  1.
         12    1    3    3    0    0  0.24106003134E+02 -0.21629776451E+02  0.21969949214E+02  0.39135984527E+02  0.00000000000E+00 0. -1.
</event>
<event>
 7    1  0.6963701E-013  0.5930198E+02  0.7816164E-02  0.1266605E+00
        -11   -1    0    0    0    0  0.00000000000E+00  0.00000000000E+00  0.45593999997E+02  0.45594000000E+02  0.51100000000E-03 0.  1.
         11   -1    0    0    0    0 -0.00000000000E+00 -0.00000000000E+00 -0.45593999997E+02  0.45594000000E+02  0.51100000000E-03 0. -1.
    9900012    2    1    2    0    0  0.19551217124E+02 -0.93493720294E+01  0.23389260353E+02  0.59301978795E+02  0.50000063408E+02 0.  0.
         12    1    1    2    0    0 -0.19551217124E+02  0.93493720294E+01 -0.23389260353E+02  0.31886021205E+02  0.00000000000E+00 0. -1.
         11    1    3    3    0    0 -0.77946828177E+01 -0.16498138194E+02  0.15222617595E+02  0.23762864533E+02  0.51100000000E-03 0. -1.
        -11    1    3    3    0    0  0.20123388724E+02 -0.37686441611E+01  0.91231831947E+01  0.22413967172E+02  0.51100000000E-03 0.  1.
        -12    1    3    3    0    0  0.72225112183E+01  0.10917410326E+02 -0.95654043640E+00  0.13125147090E+02  0.00000000000E+00 0.  1.
</event>
<event>
 7    1  0.6963701E-013  0.5930195E+02  0.7816164E-02  0.1266605E+00
        -11   -1    0    0    0    0  0.00000000000E+00  0.00000000000E+00  0.45593999997E+02  0.45594000000E+02  0.51100000000E-03 0.  1.
         11   -1    0    0    0    0 -0.00000000000E+00 -0.00000000000E+00 -0.45593999997E+02  0.45594000000E+02  0.51100000000E-03 0. -1.
    9900012    2    1    2    0    0  0.70171073035E+01 -0.17357596998E+02  0.25810737642E+02  0.59301950604E+02  0.50000011994E+02 0.  0.
         12    1    1    2    0    0 -0.70171073035E+01  0.17357596998E+02 -0.25810737642E+02  0.31886049396E+02  0.00000000000E+00 0. -1.
         11    1    3    3    0    0  0.38997847734E+01 -0.39180159903E+01  0.77417795061E+01  0.95128502964E+01  0.51100000000E-03 0. -1.
        -11    1    3    3    0    0  0.20258080016E+02  0.62146292965E+00  0.18747107029E+02  0.27608513983E+02  0.51100000000E-03 0.  1.
         12    1    3    3    0    0 -0.17140757486E+02 -0.14061043937E+02 -0.67814889386E+00  0.22180586325E+02  0.00000000000E+00 0. -1.
</event>
<event>
 7    1  0.6963701E-013  0.5930194E+02  0.7816164E-02  0.1266605E+00
        -11   -1    0    0    0    0  0.00000000000E+00  0.00000000000E+00  0.45593999997E+02  0.45594000000E+02  0.51100000000E-03 0.  1.
         11   -1    0    0    0    0 -0.00000000000E+00 -0.00000000000E+00 -0.45593999997E+02  0.45594000000E+02  0.51100000000E-03 0. -1.
    9900012    2    1    2    0    0  0.57789719312E+01 -0.20597710517E+02  0.23644418327E+02  0.59301941712E+02  0.49999995777E+02 0.  0.
         12    1    1    2    0    0 -0.57789719312E+01  0.20597710517E+02 -0.23644418327E+02  0.31886058288E+02  0.00000000000E+00 0. -1.
         11    1    3    3    0    0  0.33702013178E+01  0.14918189348E+02  0.92195142160E+01  0.17858053449E+02  0.51100000000E-03 0. -1.
        -11    1    3    3    0    0  0.62559557152E+01 -0.53223898640E+01  0.13806981520E+01  0.83289341109E+01  0.51100000000E-03 0.  1.
        -12    1    3    3    0    0 -0.38471851018E+01 -0.30193510001E+02  0.13044205959E+02  0.33114954152E+02  0.00000000000E+00 0.  1.
</event>
<event>
 7    1  0.6963701E-013  0.5930193E+02  0.7816164E-02  0.1266605E+00
        -11   -1    0    0    0    0  0.00000000000E+00  0.00000000000E+00  0.45593999997E+02  0.45594000000E+02  0.51100000000E-03 0.  1.
         11   -1    0    0    0    0 -0.00000000000E+00 -0.00000000000E+00 -0.45593999997E+02  0.45594000000E+02  0.51100000000E-03 0. -1.
    9900012    2    1    2    0    0 -0.16363394340E+02  0.15925558000E+02  0.22256181945E+02  0.59301926132E+02  0.49999967363E+02 0.  0.
         12    1    1    2    0    0  0.16363394340E+02 -0.15925558000E+02 -0.22256181945E+02  0.31886073868E+02  0.00000000000E+00 0. -1.
         11    1    3    3    0    0  0.80387468663E+01  0.30849986025E+01  0.60345459054E+01  0.10514485822E+02  0.51100000000E-03 0. -1.
        -11    1    3    3    0    0 -0.12996511356E+02  0.52117965615E+01  0.27608451564E+02  0.30956400450E+02  0.51100000000E-03 0.  1.
         12    1    3    3    0    0 -0.11405629851E+02  0.76287628360E+01 -0.11386815525E+02  0.17831039860E+02  0.00000000000E+00 0. -1.
</event>
<event>
 7    1  0.6963701E-013  0.5930194E+02  0.7816164E-02  0.1266605E+00
        -11   -1    0    0    0    0  0.00000000000E+00  0.00000000000E+00  0.45593999997E+02  0.45594000000E+02  0.51100000000E-03 0.  1.
         11   -1    0    0    0    0 -0.00000000000E+00 -0.00000000000E+00 -0.45593999997E+02  0.45594000000E+02  0.51100000000E-03 0. -1.
    9900012    2    1    2    0    0  0.86251760198E+01  0.19192029508E+02  0.23958150152E+02  0.59301943224E+02  0.49999998535E+02 0.  0.
         12    1    1    2    0    0 -0.86251760198E+01 -0.19192029508E+02 -0.23958150152E+02  0.31886056776E+02  0.00000000000E+00 0. -1.
         11    1    3    3    0    0 -0.21950011527E+01  0.45834877545E+01 -0.44737058556E+01  0.67705564321E+01  0.51100000000E-03 0. -1.
        -11    1    3    3    0    0 -0.40714355732E+01  0.25275441148E+02  0.13777626713E+02  0.29073140714E+02  0.51100000000E-03 0.  1.
         12    1    3    3    0    0  0.14891612746E+02 -0.10666899395E+02  0.14654229294E+02  0.23458246078E+02  0.00000000000E+00 0. -1.
</event>
<event>
 7    1  0.6963701E-013  0.5930195E+02  0.7816164E-02  0.1266605E+00
        -11   -1    0    0    0    0  0.00000000000E+00  0.00000000000E+00  0.45593999997E+02  0.45594000000E+02  0.51100000000E-03 0. -1.
         11   -1    0    0    0    0 -0.00000000000E+00 -0.00000000000E+00 -0.45593999997E+02  0.45594000000E+02  0.51100000000E-03 0.  1.
    9900012    2    1    2    0    0  0.22805475674E+02  0.20011867173E+02  0.98059123108E+01  0.59301945607E+02  0.50000002881E+02 0.  0.
         12    1    1    2    0    0 -0.22805475674E+02 -0.20011867173E+02 -0.98059123108E+01  0.31886054393E+02  0.00000000000E+00 0. -1.
         11    1    3    3    0    0  0.16177984496E+02 -0.45986009518E+01  0.85938251646E+01  0.18887248193E+02  0.51100000000E-03 0. -1.
        -11    1    3    3    0    0  0.28569640254E+01 -0.33691081278E+01 -0.92943194936E+01  0.10290651492E+02  0.51100000000E-03 0.  1.
        -12    1    3    3    0    0  0.37705271528E+01  0.27979576253E+02  0.10506406640E+02  0.30124045923E+02  0.00000000000E+00 0.  1.
</event>
<event>
 7    1  0.6963701E-013  0.5930189E+02  0.7816164E-02  0.1266605E+00
        -11   -1    0    0    0    0  0.00000000000E+00  0.00000000000E+00  0.45593999997E+02  0.45594000000E+02  0.51100000000E-03 0.  1.
         11   -1    0    0    0    0 -0.00000000000E+00 -0.00000000000E+00 -0.45593999997E+02  0.45594000000E+02  0.51100000000E-03 0. -1.
    9900012    2    1    2    0    0 -0.18707298877E+02  0.76777340094E+01  0.24653866275E+02  0.59301894043E+02  0.49999908840E+02 0.  0.
         12    1    1    2    0    0  0.18707298877E+02 -0.76777340094E+01 -0.24653866275E+02  0.31886105957E+02  0.00000000000E+00 0. -1.
         11    1    3    3    0    0  0.44797093810E+01  0.58695834285E+01 -0.76790785788E+01  0.10653077201E+02  0.51100000000E-03 0. -1.
        -11    1    3    3    0    0  0.47580124024E+01  0.21659365136E+01  0.14704603641E+02  0.15606259369E+02  0.51100000000E-03 0.  1.
         12    1    3    3    0    0 -0.27945020660E+02 -0.35778593270E+00  0.17628341213E+02  0.33042557473E+02  0.00000000000E+00 0. -1.
</event>
<event>
 7    1  0.6963701E-013  0.5930195E+02  0.7816164E-02  0.1266605E+00
        -11   -1    0    0    0    0  0.00000000000E+00  0.00000000000E+00  0.45593999997E+02  0.45594000000E+02  0.51100000000E-03 0. -1.
         11   -1    0    0    0    0 -0.00000000000E+00 -0.00000000000E+00 -0.45593999997E+02  0.45594000000E+02  0.51100000000E-03 0.  1.
    9900012    2    1    2    0    0  0.27048473066E+02 -0.69308942607E+01  0.15396846282E+02  0.59301951861E+02  0.50000014287E+02 0.  0.
         12    1    1    2    0    0 -0.27048473066E+02  0.69308942607E+01 -0.15396846282E+02  0.31886048139E+02  0.00000000000E+00 0. -1.
         11    1    3    3    0    0 -0.24372865517E+01  0.34806612954E+01  0.43008793482E+01  0.60459021012E+01  0.51100000000E-03 0. -1.
        -11    1    3    3    0    0  0.11099258876E+02 -0.11731357193E+02  0.25278991552E+02  0.29997428279E+02  0.51100000000E-03 0.  1.
        -12    1    3    3    0    0  0.18386500742E+02  0.13198016366E+01 -0.14183024618E+02  0.23258621481E+02  0.00000000000E+00 0.  1.
</event>
<event>
 7    1  0.6963701E-013  0.5930192E+02  0.7816164E-02  0.1266605E+00
        -11   -1    0    0    0    0  0.00000000000E+00  0.00000000000E+00  0.45593999997E+02  0.45594000000E+02  0.51100000000E-03 0. -1.
         11   -1    0    0    0    0 -0.00000000000E+00 -0.00000000000E+00 -0.45593999997E+02  0.45594000000E+02  0.51100000000E-03 0.  1.
    9900012    2    1    2    0    0 -0.12888827355E+02 -0.33862477631E+01 -0.28967799348E+02  0.59301922418E+02  0.49999960590E+02 0.  0.
         12    1    1    2    0    0  0.12888827355E+02  0.33862477631E+01  0.28967799348E+02  0.31886077582E+02  0.00000000000E+00 0. -1.
         11    1    3    3    0    0 -0.50873916316E+01 -0.16489214212E+02  0.58833411755E+01  0.18231550746E+02  0.51100000000E-03 0. -1.
        -11    1    3    3    0    0 -0.35387720063E+01  0.22329374554E+01  0.13581478320E+00  0.41865693484E+01  0.51100000000E-03 0.  1.
         12    1    3    3    0    0 -0.42626637168E+01  0.10870028994E+02 -0.34986955306E+02  0.36883802324E+02  0.00000000000E+00 0. -1.
</event>
<event>
 7    1  0.6963701E-013  0.5930196E+02  0.7816164E-02  0.1266605E+00
        -11   -1    0    0    0    0  0.00000000000E+00  0.00000000000E+00  0.45593999997E+02  0.45594000000E+02  0.51100000000E-03 0.  1.
         11   -1    0    0    0    0 -0.00000000000E+00 -0.00000000000E+00 -0.45593999997E+02  0.45594000000E+02  0.51100000000E-03 0. -1.
    9900012    2    1    2    0    0 -0.94428352778E+01  0.27592109849E+02  0.12892935363E+02  0.59301961578E+02  0.50000032007E+02 0.  0.
         12    1    1    2    0    0  0.94428352778E+01 -0.27592109849E+02 -0.12892935363E+02  0.31886038422E+02  0.00000000000E+00 0. -1.
         11    1    3    3    0    0 -0.46902524950E+01  0.11917297958E+02 -0.17529077273E+02  0.21709191818E+02  0.51100000000E-03 0. -1.
        -11    1    3    3    0    0 -0.16324244548E+01  0.13489854967E+01 -0.14116035166E+01  0.25450336384E+01  0.51100000000E-03 0.  1.
        -12    1    3    3    0    0 -0.31201583280E+01  0.14325826394E+02  0.31833616153E+02  0.35047736122E+02  0.00000000000E+00 0.  1.
</event>
<event>
 7    1  0.9033411E-013  0.5930194E+02  0.7816164E-02  0.1266605E+00
        -11   -1    0    0    0    0  0.00000000000E+00  0.00000000000E+00  0.45593999997E+02  0.45594000000E+02  0.51100000000E-03 0. -1.
         11   -1    0    0    0    0 -0.00000000000E+00 -0.00000000000E+00 -0.45593999997E+02  0.45594000000E+02  0.51100000000E-03 0.  1.
    9900012    2    1    2    0    0 -0.30272241516E+02  0.71616122838E+01 -0.70016846862E+01  0.59301939011E+02  0.49999990851E+02 0.  0.
         12    1    1    2    0    0  0.30272241516E+02 -0.71616122838E+01  0.70016846862E+01  0.31886060989E+02  0.00000000000E+00 0. -1.
         11    1    3    3    0    0  0.66561197810E+01  0.79535904948E+01  0.13654715329E+01  0.10460786063E+02  0.51100000000E-03 0. -1.
        -11    1    3    3    0    0 -0.66796025644E+01 -0.85633015500E+01  0.80871553289E+01  0.13540653804E+02  0.51100000000E-03 0.  1.
        -12    1    3    3    0    0 -0.30248758733E+02  0.77713233390E+01 -0.16454311548E+02  0.35300499144E+02  0.00000000000E+00 0.  1.
</event>
<event>
 7    1  0.6963701E-013  0.5930195E+02  0.7816164E-02  0.1266605E+00
        -11   -1    0    0    0    0  0.00000000000E+00  0.00000000000E+00  0.45593999997E+02  0.45594000000E+02  0.51100000000E-03 0. -1.
         11   -1    0    0    0    0 -0.00000000000E+00 -0.00000000000E+00 -0.45593999997E+02  0.45594000000E+02  0.51100000000E-03 0.  1.
    9900012    2    1    2    0    0  0.99598017315E+01 -0.28436441145E+02  0.10435095820E+02  0.59301951949E+02  0.50000014447E+02 0.  0.
         12    1    1    2    0    0 -0.99598017315E+01  0.28436441145E+02 -0.10435095820E+02  0.31886048051E+02  0.00000000000E+00 0. -1.
         11    1    3    3    0    0  0.10754451931E+02 -0.24642374489E+02  0.19952667170E+02  0.33481543935E+02  0.51100000000E-03 0. -1.
        -11    1    3    3    0    0 -0.13340381354E+01 -0.12422840814E+02  0.60421181065E+00  0.12508865009E+02  0.51100000000E-03 0.  1.
        -12    1    3    3    0    0  0.53938793552E+00  0.86287741581E+01 -0.10121783161E+02  0.13311543005E+02  0.00000000000E+00 0.  1.
</event>
<event>
 7    1  0.6963701E-013  0.5930194E+02  0.7816164E-02  0.1266605E+00
        -11   -1    0    0    0    0  0.00000000000E+00  0.00000000000E+00  0.45593999997E+02  0.45594000000E+02  0.51100000000E-03 0. -1.
         11   -1    0    0    0    0 -0.00000000000E+00 -0.00000000000E+00 -0.45593999997E+02  0.45594000000E+02  0.51100000000E-03 0.  1.
    9900012    2    1    2    0    0  0.18985478895E+02  0.23503577780E+02 -0.10190876840E+02  0.59301944299E+02  0.50000000495E+02 0.  0.
         12    1    1    2    0    0 -0.18985478895E+02 -0.23503577780E+02  0.10190876840E+02  0.31886055701E+02  0.00000000000E+00 0. -1.
         11    1    3    3    0    0  0.10551469611E+01 -0.20622457562E+01  0.82761168034E+01  0.85942016659E+01  0.51100000000E-03 0. -1.
        -11    1    3    3    0    0  0.25185208157E+02  0.19459849052E+02 -0.23879283544E+02  0.39789453602E+02  0.51100000000E-03 0.  1.
         12    1    3    3    0    0 -0.72548762228E+01  0.61059744845E+01  0.54122899008E+01  0.10918289032E+02  0.00000000000E+00 0. -1.
</event>
<event>
 7    1  0.6963701E-013  0.5930193E+02  0.7816164E-02  0.1266605E+00
        -11   -1    0    0    0    0  0.00000000000E+00  0.00000000000E+00  0.45593999997E+02  0.45594000000E+02  0.51100000000E-03 0.  1.
         11   -1    0    0    0    0 -0.00000000000E+00 -0.00000000000E+00 -0.45593999997E+02  0.45594000000E+02  0.51100000000E-03 0. -1.
    9900012    2    1    2    0    0 -0.97889062907E+01 -0.10592820250E+02  0.28437488044E+02  0.59301933240E+02  0.49999980325E+02 0.  0.
         12    1    1    2    0    0  0.97889062907E+01  0.10592820250E+02 -0.28437488044E+02  0.31886066760E+02  0.00000000000E+00 0. -1.
         11    1    3    3    0    0 -0.12563716792E+02 -0.34940261735E+01  0.10160983259E+02  0.16531811141E+02  0.51100000000E-03 0.  1.
        -11    1    3    3    0    0 -0.53928139788E+01 -0.18742848059E+01 -0.10747330448E+02  0.12169654809E+02  0.51100000000E-03 0. -1.
         12    1    3    3    0    0  0.81676244800E+01 -0.52245092709E+01  0.29023835232E+02  0.30600467290E+02  0.00000000000E+00 0. -1.
</event>
<event>
 7    1  0.6963701E-013  0.5930193E+02  0.7816164E-02  0.1266605E+00
        -11   -1    0    0    0    0  0.00000000000E+00  0.00000000000E+00  0.45593999997E+02  0.45594000000E+02  0.51100000000E-03 0. -1.
         11   -1    0    0    0    0 -0.00000000000E+00 -0.00000000000E+00 -0.45593999997E+02  0.45594000000E+02  0.51100000000E-03 0.  1.
    9900012    2    1    2    0    0  0.22959893358E+02  0.28039263400E+01 -0.21947724086E+02  0.59301932534E+02  0.49999979038E+02 0.  0.
         12    1    1    2    0    0 -0.22959893358E+02 -0.28039263400E+01  0.21947724086E+02  0.31886067466E+02  0.00000000000E+00 0. -1.
         11    1    3    3    0    0 -0.10045838998E+02  0.47418413842E+00 -0.12097866156E+01  0.10129526923E+02  0.51100000000E-03 0. -1.
        -11    1    3    3    0    0 -0.56891749630E+01 -0.63515265878E+00 -0.34844021061E+01  0.67015810789E+01  0.51100000000E-03 0.  1.
        -12    1    3    3    0    0  0.38694907318E+02  0.29648948603E+01 -0.17253535364E+02  0.42470824532E+02  0.00000000000E+00 0.  1.
</event>
<event>
 7    1  0.6963701E-013  0.5930195E+02  0.7816164E-02  0.1266605E+00
        -11   -1    0    0    0    0  0.00000000000E+00  0.00000000000E+00  0.45593999997E+02  0.45594000000E+02  0.51100000000E-03 0.  1.
         11   -1    0    0    0    0 -0.00000000000E+00 -0.00000000000E+00 -0.45593999997E+02  0.45594000000E+02  0.51100000000E-03 0. -1.
    9900012    2    1    2    0    0  0.77634509900E+01  0.25473758958E+02  0.17536714951E+02  0.59301953867E+02  0.50000017945E+02 0.  0.
         12    1    1    2    0    0 -0.77634509900E+01 -0.25473758958E+02 -0.17536714951E+02  0.31886046133E+02  0.00000000000E+00 0. -1.
         11    1    3    3    0    0  0.55420445646E+01  0.63697836284E+01 -0.50833288865E+01  0.98553860532E+01  0.51100000000E-03 0. -1.
        -11    1    3    3    0    0  0.36941621533E+00 -0.80049126595E+01 -0.59785073785E+01  0.99978820638E+01  0.51100000000E-03 0.  1.
        -12    1    3    3    0    0  0.18519902100E+01  0.27108887989E+02  0.28598551216E+02  0.39448685750E+02  0.00000000000E+00 0.  1.
</event>
<event>
 7    1  0.6963701E-013  0.5930195E+02  0.7816164E-02  0.1266605E+00
        -11   -1    0    0    0    0  0.00000000000E+00  0.00000000000E+00  0.45593999997E+02  0.45594000000E+02  0.51100000000E-03 0.  1.
         11   -1    0    0    0    0 -0.00000000000E+00 -0.00000000000E+00 -0.45593999997E+02  0.45594000000E+02  0.51100000000E-03 0. -1.
    9900012    2    1    2    0    0 -0.28694774054E+02  0.36587165456E+01  0.13414326858E+02  0.59301946154E+02  0.50000003878E+02 0.  0.
         12    1    1    2    0    0  0.28694774054E+02 -0.36587165456E+01 -0.13414326858E+02  0.31886053846E+02  0.00000000000E+00 0. -1.
         11    1    3    3    0    0 -0.11858158038E+02 -0.55092645459E+01  0.36989456301E+01  0.13588602096E+02  0.51100000000E-03 0. -1.
        -11    1    3    3    0    0 -0.22591796855E+02  0.18534952997E+02 -0.24400150419E+01  0.29323837426E+02  0.51100000000E-03 0.  1.
         12    1    3    3    0    0  0.57551808386E+01 -0.93669719053E+01  0.12155396270E+02  0.16389506632E+02  0.00000000000E+00 0. -1.
</event>
<event>
 7    1  0.6963701E-013  0.5930194E+02  0.7816164E-02  0.1266605E+00
        -11   -1    0    0    0    0  0.00000000000E+00  0.00000000000E+00  0.45593999997E+02  0.45594000000E+02  0.51100000000E-03 0. -1.
         11   -1    0    0    0    0 -0.00000000000E+00 -0.00000000000E+00 -0.45593999997E+02  0.45594000000E+02  0.51100000000E-03 0.  1.
    9900012    2    1    2    0    0  0.60281295081E+01 -0.21885523195E+02 -0.22392110923E+02  0.59301935607E+02  0.49999984643E+02 0.  0.
         12    1    1    2    0    0 -0.60281295081E+01  0.21885523195E+02  0.22392110923E+02  0.31886064393E+02  0.00000000000E+00 0. -1.
         11    1    3    3    0    0 -0.46802627403E+01 -0.28609205256E+01 -0.50710319525E+01  0.74702805099E+01  0.51100000000E-03 0. -1.
        -11    1    3    3    0    0 -0.16048878515E+02 -0.82158759940E-01 -0.63754788889E+01  0.17269046962E+02  0.51100000000E-03 0.  1.
         12    1    3    3    0    0  0.26757270763E+02 -0.18942443909E+02 -0.10945600082E+02  0.34562608135E+02  0.00000000000E+00 0. -1.
</event>
<event>
 7    1  0.7099089E-013  0.5930201E+02  0.7816164E-02  0.1266605E+00
        -11   -1    0    0    0    0  0.00000000000E+00  0.00000000000E+00  0.45593999997E+02  0.45594000000E+02  0.51100000000E-03 0.  1.
         11   -1    0    0    0    0 -0.00000000000E+00 -0.00000000000E+00 -0.45593999997E+02  0.45594000000E+02  0.51100000000E-03 0. -1.
    9900012    2    1    2    0    0  0.27014330386E+02  0.13969432441E+02 -0.95810747853E+01  0.59302014317E+02  0.50000128191E+02 0.  0.
         12    1    1    2    0    0 -0.27014330386E+02 -0.13969432441E+02  0.95810747853E+01  0.31885985683E+02  0.00000000000E+00 0. -1.
         11    1    3    3    0    0 -0.18450704001E+01 -0.65074071811E+00 -0.12504123381E+02  0.12656257347E+02  0.51100000000E-03 0. -1.
        -11    1    3    3    0    0  0.66996744047E+01 -0.55139749437E+01 -0.10679468071E+02  0.13760108842E+02  0.51100000000E-03 0.  1.
        -12    1    3    3    0    0  0.22159726381E+02  0.20134148102E+02  0.13602516667E+02  0.32885648128E+02  0.00000000000E+00 0.  1.
</event>
<event>
 7    1  0.6963701E-013  0.5930194E+02  0.7816164E-02  0.1266605E+00
        -11   -1    0    0    0    0  0.00000000000E+00  0.00000000000E+00  0.45593999997E+02  0.45594000000E+02  0.51100000000E-03 0.  1.
         11   -1    0    0    0    0 -0.00000000000E+00 -0.00000000000E+00 -0.45593999997E+02  0.45594000000E+02  0.51100000000E-03 0. -1.
    9900012    2    1    2    0    0 -0.18694634270E+01  0.81233495526E+01  0.30777214660E+02  0.59301942801E+02  0.49999997762E+02 0.  0.
         12    1    1    2    0    0  0.18694634270E+01 -0.81233495526E+01 -0.30777214660E+02  0.31886057199E+02  0.00000000000E+00 0. -1.
         11    1    3    3    0    0 -0.28074973818E+01 -0.24982888080E+01  0.29188943168E+02  0.29429880938E+02  0.51100000000E-03 0. -1.
        -11    1    3    3    0    0  0.21311059504E+01  0.35840167798E+01  0.14516867520E+02  0.15103848242E+02  0.51100000000E-03 0.  1.
         12    1    3    3    0    0 -0.11930719956E+01  0.70376215808E+01 -0.12928596028E+02  0.14768213621E+02  0.00000000000E+00 0. -1.
</event>
<event>
 7    1  0.6963701E-013  0.5930198E+02  0.7816164E-02  0.1266605E+00
        -11   -1    0    0    0    0  0.00000000000E+00  0.00000000000E+00  0.45593999997E+02  0.45594000000E+02  0.51100000000E-03 0.  1.
         11   -1    0    0    0    0 -0.00000000000E+00 -0.00000000000E+00 -0.45593999997E+02  0.45594000000E+02  0.51100000000E-03 0. -1.
    9900012    2    1    2    0    0  0.12004896439E+02 -0.15033800003E+02  0.25428050876E+02  0.59301977162E+02  0.50000060429E+02 0.  0.
         12    1    1    2    0    0 -0.12004896439E+02  0.15033800003E+02 -0.25428050876E+02  0.31886022838E+02  0.00000000000E+00 0. -1.
         11    1    3    3    0    0  0.60855042035E+01  0.71660946672E+01 -0.11594376447E+01  0.94726221345E+01  0.51100000000E-03 0. -1.
        -11    1    3    3    0    0  0.68760988714E+01  0.26971090473E+01 -0.54967400725E+01  0.92070236553E+01  0.51100000000E-03 0.  1.
        -12    1    3    3    0    0 -0.95670663575E+00 -0.24897003717E+02  0.32084228594E+02  0.40622331372E+02  0.00000000000E+00 0.  1.
</event>
<event>
 7    1  0.6963701E-013  0.5930191E+02  0.7816164E-02  0.1266605E+00
        -11   -1    0    0    0    0  0.00000000000E+00  0.00000000000E+00  0.45593999997E+02  0.45594000000E+02  0.51100000000E-03 0.  1.
         11   -1    0    0    0    0 -0.00000000000E+00 -0.00000000000E+00 -0.45593999997E+02  0.45594000000E+02  0.51100000000E-03 0. -1.
    9900012    2    1    2    0    0 -0.14321465998E+02  0.14139038829E+02  0.24732693353E+02  0.59301906984E+02  0.49999932440E+02 0.  0.
         12    1    1    2    0    0  0.14321465998E+02 -0.14139038829E+02 -0.24732693353E+02  0.31886093016E+02  0.00000000000E+00 0. -1.
         11    1    3    3    0    0 -0.22269366360E+02  0.46035148854E+01  0.88060984522E+01  0.24385741686E+02  0.51100000000E-03 0.  1.
        -11    1    3    3    0    0  0.79361632656E+01 -0.89629760096E+01  0.96670024649E+01  0.15387285766E+02  0.51100000000E-03 0. -1.
         12    1    3    3    0    0  0.11737096338E-01  0.18498499954E+02  0.62595924363E+01  0.19528879532E+02  0.00000000000E+00 0. -1.
</event>
<event>
 7    1  0.6963701E-013  0.5930204E+02  0.7816164E-02  0.1266604E+00
        -11   -1    0    0    0    0  0.00000000000E+00  0.00000000000E+00  0.45593999997E+02  0.45594000000E+02  0.51100000000E-03 0.  1.
         11   -1    0    0    0    0 -0.00000000000E+00 -0.00000000000E+00 -0.45593999997E+02  0.45594000000E+02  0.51100000000E-03 0. -1.
    9900012    2    1    2    0    0  0.36166711108E+00  0.19660648523E+02  0.25100641931E+02  0.59302044960E+02  0.50000184076E+02 0.  0.
         12    1    1    2    0    0 -0.36166711108E+00 -0.19660648523E+02 -0.25100641931E+02  0.31885955040E+02  0.00000000000E+00 0. -1.
         11    1    3    3    0    0 -0.31288221347E+01  0.12242162560E+01 -0.12720959765E+02  0.13157167286E+02  0.51100000000E-03 0. -1.
        -11    1    3    3    0    0  0.46494095992E+01  0.43528310750E+00  0.20887889718E+02  0.21403514154E+02  0.51100000000E-03 0.  1.
        -12    1    3    3    0    0 -0.11589203534E+01  0.18001149160E+02  0.16933711978E+02  0.24741363520E+02  0.00000000000E+00 0.  1.
</event>
<event>
 7    1  0.6963701E-013  0.5930175E+02  0.7816164E-02  0.1266605E+00
        -11   -1    0    0    0    0  0.00000000000E+00  0.00000000000E+00  0.45593999997E+02  0.45594000000E+02  0.51100000000E-03 0.  1.
         11   -1    0    0    0    0 -0.00000000000E+00 -0.00000000000E+00 -0.45593999997E+02  0.45594000000E+02  0.51100000000E-03 0. -1.
    9900012    2    1    2    0    0  0.51166783410E+01 -0.16903942474E+02  0.26548249980E+02  0.59301745196E+02  0.49999637378E+02 0.  0.
         12    1    1    2    0    0 -0.51166783410E+01  0.16903942474E+02 -0.26548249980E+02  0.31886254804E+02  0.00000000000E+00 0. -1.
         11    1    3    3    0    0  0.50479493002E+01  0.65232684802E+00  0.10714759340E+02  0.11862267508E+02  0.51100000000E-03 0. -1.
        -11    1    3    3    0    0 -0.71531265041E+01 -0.21241318427E+02  0.26070520078E+02  0.34380704541E+02  0.51100000000E-03 0.  1.
         12    1    3    3    0    0  0.72218555450E+01  0.36850491046E+01 -0.10237029438E+02  0.13058773148E+02  0.00000000000E+00 0. -1.
</event>
<event>
 7    1  0.6963701E-013  0.5930194E+02  0.7816164E-02  0.1266605E+00
        -11   -1    0    0    0    0  0.00000000000E+00  0.00000000000E+00  0.45593999997E+02  0.45594000000E+02  0.51100000000E-03 0.  1.
         11   -1    0    0    0    0 -0.00000000000E+00 -0.00000000000E+00 -0.45593999997E+02  0.45594000000E+02  0.51100000000E-03 0. -1.
    9900012    2    1    2    0    0 -0.89550506802E+01 -0.18636614642E+02  0.24273537299E+02  0.59301937983E+02  0.49999988975E+02 0.  0.
         12    1    1    2    0    0  0.89550506802E+01  0.18636614642E+02 -0.24273537299E+02  0.31886062017E+02  0.00000000000E+00 0. -1.
         11    1    3    3    0    0 -0.11331917272E+02 -0.12070199053E+02 -0.37489997974E+01  0.16975189364E+02  0.51100000000E-03 0. -1.
        -11    1    3    3    0    0  0.47297583483E+01 -0.11566327959E+02 -0.12304173690E+01  0.12556451874E+02  0.51100000000E-03 0.  1.
        -12    1    3    3    0    0 -0.23528917570E+01  0.49999123698E+01  0.29252954465E+02  0.29770296745E+02  0.00000000000E+00 0.  1.
</event>
<event>
 7    1  0.6963701E-013  0.5930194E+02  0.7816164E-02  0.1266605E+00
        -11   -1    0    0    0    0  0.00000000000E+00  0.00000000000E+00  0.45593999997E+02  0.45594000000E+02  0.51100000000E-03 0. -1.
         11   -1    0    0    0    0 -0.00000000000E+00 -0.00000000000E+00 -0.45593999997E+02  0.45594000000E+02  0.51100000000E-03 0.  1.
    9900012    2    1    2    0    0  0.33438049639E+01  0.21355070432E+02 -0.23441439073E+02  0.59301935166E+02  0.49999983838E+02 0.  0.
         12    1    1    2    0    0 -0.33438049639E+01 -0.21355070432E+02  0.23441439073E+02  0.31886064834E+02  0.00000000000E+00 0. -1.
         11    1    3    3    0    0 -0.22804792559E+01  0.17892190300E+02  0.48166615421E+00  0.18043366147E+02  0.51100000000E-03 0. -1.
        -11    1    3    3    0    0 -0.37383387744E+01  0.12809794162E+02  0.63980177404E+00  0.13359466675E+02  0.51100000000E-03 0.  1.
        -12    1    3    3    0    0  0.93626229942E+01 -0.93469140305E+01 -0.24562907002E+02  0.27899102344E+02  0.00000000000E+00 0.  1.
</event>
<event>
 7    1  0.6963701E-013  0.5930193E+02  0.7816164E-02  0.1266605E+00
        -11   -1    0    0    0    0  0.00000000000E+00  0.00000000000E+00  0.45593999997E+02  0.45594000000E+02  0.51100000000E-03 0. -1.
         11   -1    0    0    0    0 -0.00000000000E+00 -0.00000000000E+00 -0.45593999997E+02  0.45594000000E+02  0.51100000000E-03 0.  1.
    9900012    2    1    2    0    0 -0.29683677000E+02  0.10685431557E+02  0.46283939367E+01  0.59301934733E+02  0.49999983048E+02 0.  0.
         12    1    1    2    0    0  0.29683677000E+02 -0.10685431557E+02 -0.46283939367E+01  0.31886065267E+02  0.00000000000E+00 0. -1.
         11    1    3    3    0    0 -0.29420523767E+01 -0.49018552435E+01 -0.70368812113E+01  0.90665072910E+01  0.51100000000E-03 0. -1.
        -11    1    3    3    0    0 -0.57711045228E+01 -0.91419590946E+01 -0.69456955609E+01  0.12850048661E+02  0.51100000000E-03 0.  1.
         12    1    3    3    0    0 -0.20970520100E+02  0.24729245896E+02  0.18610970709E+02  0.37385378781E+02  0.00000000000E+00 0. -1.
</event>
<event>
 7    1  0.6963701E-013  0.5930188E+02  0.7816164E-02  0.1266605E+00
        -11   -1    0    0    0    0  0.00000000000E+00  0.00000000000E+00  0.45593999997E+02  0.45594000000E+02  0.51100000000E-03 0.  1.
         11   -1    0    0    0    0 -0.00000000000E+00 -0.00000000000E+00 -0.45593999997E+02  0.45594000000E+02  0.51100000000E-03 0. -1.
    9900012    2    1    2    0    0 -0.29451024862E+02  0.54298151539E+01  0.10948922202E+02  0.59301879894E+02  0.49999883035E+02 0.  0.
         12    1    1    2    0    0  0.29451024862E+02 -0.54298151539E+01 -0.10948922202E+02  0.31886120106E+02  0.00000000000E+00 0. -1.
         11    1    3    3    0    0 -0.29396983712E+02  0.36335123651E+01 -0.10573777914E+02  0.31451388572E+02  0.51100000000E-03 0. -1.
        -11    1    3    3    0    0 -0.61258804735E+01  0.39132171637E+00  0.20667518270E+02  0.21559820407E+02  0.51100000000E-03 0.  1.
        -12    1    3    3    0    0  0.60718393230E+01  0.14049810724E+01  0.85518184491E+00  0.62906709154E+01  0.00000000000E+00 0.  1.
</event>
<event>
 7    1  0.6963701E-013  0.5930197E+02  0.7816164E-02  0.1266605E+00
        -11   -1    0    0    0    0  0.00000000000E+00  0.00000000000E+00  0.45593999997E+02  0.45594000000E+02  0.51100000000E-03 0.  1.
         11   -1    0    0    0    0 -0.00000000000E+00 -0.00000000000E+00 -0.45593999997E+02  0.45594000000E+02  0.51100000000E-03 0. -1.
    9900012    2    1    2    0    0  0.26487471467E+02  0.65087771136E+01  0.16515712583E+02  0.59301967221E+02  0.50000042299E+02 0.  0.
         12    1    1    2    0    0 -0.26487471467E+02 -0.65087771136E+01 -0.16515712583E+02  0.31886032779E+02  0.00000000000E+00 0. -1.
         11    1    3    3    0    0  0.19029051873E+02  0.52173823169E+01  0.21020712104E+02  0.28830474000E+02  0.51100000000E-03 0. -1.
        -11    1    3    3    0    0  0.11940040219E+01 -0.96724963702E+01  0.80680187430E+01  0.12652104897E+02  0.51100000000E-03 0.  1.
         12    1    3    3    0    0  0.62644155720E+01  0.10963891167E+02 -0.12573018264E+02  0.17819388324E+02  0.00000000000E+00 0. -1.
</event>
<event>
 7    1  0.6963701E-013  0.5930195E+02  0.7816164E-02  0.1266605E+00
        -11   -1    0    0    0    0  0.00000000000E+00  0.00000000000E+00  0.45593999997E+02  0.45594000000E+02  0.51100000000E-03 0.  1.
         11   -1    0    0    0    0 -0.00000000000E+00 -0.00000000000E+00 -0.45593999997E+02  0.45594000000E+02  0.51100000000E-03 0. -1.
    9900012    2    1    2    0    0  0.13887212844E+02 -0.25250685341E+02 -0.13648013783E+02  0.59301951782E+02  0.50000014141E+02 0.  0.
         12    1    1    2    0    0 -0.13887212844E+02  0.25250685341E+02  0.13648013783E+02  0.31886048218E+02  0.00000000000E+00 0. -1.
         11    1    3    3    0    0 -0.28427814049E+00 -0.82200503194E+01  0.14054108658E+02  0.16283980218E+02  0.51100000000E-03 0. -1.
        -11    1    3    3    0    0  0.56739480090E+01 -0.18406355274E+02 -0.68227982296E+01  0.20433750914E+02  0.51100000000E-03 0.  1.
         12    1    3    3    0    0  0.84975429754E+01  0.13757202522E+01 -0.20879324211E+02  0.22584220649E+02  0.00000000000E+00 0. -1.
</event>
<event>
 7    1  0.6963701E-013  0.5930195E+02  0.7816164E-02  0.1266605E+00
        -11   -1    0    0    0    0  0.00000000000E+00  0.00000000000E+00  0.45593999997E+02  0.45594000000E+02  0.51100000000E-03 0.  1.
         11   -1    0    0    0    0 -0.00000000000E+00 -0.00000000000E+00 -0.45593999997E+02  0.45594000000E+02  0.51100000000E-03 0. -1.
    9900012    2    1    2    0    0 -0.90447663567E+01  0.24508457927E+02  0.18282454239E+02  0.59301945973E+02  0.50000003547E+02 0.  0.
         12    1    1    2    0    0  0.90447663567E+01 -0.24508457927E+02 -0.18282454239E+02  0.31886054027E+02  0.00000000000E+00 0. -1.
         11    1    3    3    0    0 -0.19509512544E+02  0.13310632463E+02 -0.35183157299E+00  0.23620283699E+02  0.51100000000E-03 0. -1.
        -11    1    3    3    0    0 -0.48279031146E+01 -0.48747147423E+01  0.94322347859E+01  0.11663556302E+02  0.51100000000E-03 0.  1.
         12    1    3    3    0    0  0.15292649302E+02  0.16072540206E+02  0.92020510265E+01  0.24018105972E+02  0.00000000000E+00 0. -1.
</event>
<event>
 7    1  0.6963701E-013  0.5930195E+02  0.7816164E-02  0.1266605E+00
        -11   -1    0    0    0    0  0.00000000000E+00  0.00000000000E+00  0.45593999997E+02  0.45594000000E+02  0.51100000000E-03 0. -1.
         11   -1    0    0    0    0 -0.00000000000E+00 -0.00000000000E+00 -0.45593999997E+02  0.45594000000E+02  0.51100000000E-03 0.  1.
    9900012    2    1    2    0    0 -0.18246387279E+02 -0.24279377113E+02 -0.97108813095E+01  0.59301952620E+02  0.50000015670E+02 0.  0.
         12    1    1    2    0    0  0.18246387279E+02  0.24279377113E+02  0.97108813095E+01  0.31886047380E+02  0.00000000000E+00 0. -1.
         11    1    3    3    0    0 -0.40512863687E+01  0.14791714981E+01  0.64096332690E+01  0.77255594274E+01  0.51100000000E-03 0. -1.
        -11    1    3    3    0    0 -0.15372269048E+02 -0.83351797552E+00  0.75818824977E+01  0.17160604604E+02  0.51100000000E-03 0.  1.
        -12    1    3    3    0    0  0.11771681376E+01 -0.24925030635E+02 -0.23702397076E+02  0.34415788588E+02  0.00000000000E+00 0.  1.
</event>
<event>
 7    1  0.6963701E-013  0.5930191E+02  0.7816164E-02  0.1266605E+00
        -11   -1    0    0    0    0  0.00000000000E+00  0.00000000000E+00  0.45593999997E+02  0.45594000000E+02  0.51100000000E-03 0. -1.
         11   -1    0    0    0    0 -0.00000000000E+00 -0.00000000000E+00 -0.45593999997E+02  0.45594000000E+02  0.51100000000E-03 0.  1.
    9900012    2    1    2    0    0 -0.14268295710E+02 -0.28542612151E+01 -0.28372372985E+02  0.59301911837E+02  0.49999941291E+02 0.  0.
         12    1    1    2    0    0  0.14268295710E+02  0.28542612151E+01  0.28372372985E+02  0.31886088163E+02  0.00000000000E+00 0. -1.
         11    1    3    3    0    0  0.18862344721E+01 -0.32963602241E+01 -0.93061518675E+00  0.39102322306E+01  0.51100000000E-03 0. -1.
        -11    1    3    3    0    0  0.12305090749E+02 -0.10350098708E+02 -0.30025197174E+01  0.16357106301E+02  0.51100000000E-03 0.  1.
         12    1    3    3    0    0 -0.28459620931E+02  0.10792197717E+02 -0.24439238081E+02  0.39034573305E+02  0.00000000000E+00 0. -1.
</event>
<event>
 7    1  0.6963701E-013  0.5930189E+02  0.7816164E-02  0.1266605E+00
        -11   -1    0    0    0    0  0.00000000000E+00  0.00000000000E+00  0.45593999997E+02  0.45594000000E+02  0.51100000000E-03 0.  1.
         11   -1    0    0    0    0 -0.00000000000E+00 -0.00000000000E+00 -0.45593999997E+02  0.45594000000E+02  0.51100000000E-03 0. -1.
    9900012    2    1    2    0    0 -0.14156887085E+02  0.20718909012E+01  0.28495858633E+02  0.59301887928E+02  0.49999897688E+02 0.  0.
         12    1    1    2    0    0  0.14156887085E+02 -0.20718909012E+01 -0.28495858633E+02  0.31886112072E+02  0.00000000000E+00 0. -1.
         11    1    3    3    0    0 -0.32144118883E+01 -0.34537239249E+01  0.43639384415E+01  0.64268663996E+01  0.51100000000E-03 0. -1.
        -11    1    3    3    0    0 -0.54850709956E+00 -0.19513694415E+02  0.13593141646E+02  0.23787783205E+02  0.51100000000E-03 0.  1.
         12    1    3    3    0    0 -0.10393968097E+02  0.25039309241E+02  0.10538778545E+02  0.29087238323E+02  0.00000000000E+00 0. -1.
</event>
<event>
 7    1  0.6963701E-013  0.5930183E+02  0.7816164E-02  0.1266605E+00
        -11   -1    0    0    0    0  0.00000000000E+00  0.00000000000E+00  0.45593999997E+02  0.45594000000E+02  0.51100000000E-03 0. -1.
         11   -1    0    0    0    0 -0.00000000000E+00 -0.00000000000E+00 -0.45593999997E+02  0.45594000000E+02  0.51100000000E-03 0.  1.
    9900012    2    1    2    0    0  0.18443422839E+02 -0.24935522837E+02 -0.74018722126E+01  0.59301829684E+02  0.49999791464E+02 0.  0.
         12    1    1    2    0    0 -0.18443422839E+02  0.24935522837E+02  0.74018722126E+01  0.31886170316E+02  0.00000000000E+00 0. -1.
         11    1    3    3    0    0  0.15541382678E+02 -0.11584372124E+02  0.11032071100E+02  0.22303337107E+02  0.51100000000E-03 0. -1.
        -11    1    3    3    0    0 -0.12840223115E+02 -0.81019098669E+01 -0.62842046939E+01  0.16431783288E+02  0.51100000000E-03 0.  1.
         12    1    3    3    0    0  0.15742263275E+02 -0.52492408457E+01 -0.12149738619E+02  0.20566709290E+02  0.00000000000E+00 0. -1.
</event>
<event>
 7    1  0.6963701E-013  0.5930194E+02  0.7816164E-02  0.1266605E+00
        -11   -1    0    0    0    0  0.00000000000E+00  0.00000000000E+00  0.45593999997E+02  0.45594000000E+02  0.51100000000E-03 0. -1.
         11   -1    0    0    0    0 -0.00000000000E+00 -0.00000000000E+00 -0.45593999997E+02  0.45594000000E+02  0.51100000000E-03 0.  1.
    9900012    2    1    2    0    0  0.20001703567E+02 -0.11659628699E+02 -0.21924995633E+02  0.59301944733E+02  0.50000001286E+02 0.  0.
         12    1    1    2    0    0 -0.20001703567E+02  0.11659628699E+02  0.21924995633E+02  0.31886055267E+02  0.00000000000E+00 0. -1.
         11    1    3    3    0    0 -0.80127894350E+01 -0.58837303517E+01 -0.94387765923E+01  0.13708157469E+02  0.51100000000E-03 0. -1.
        -11    1    3    3    0    0  0.12153025302E+02  0.13974298888E+02 -0.52114083630E+01  0.19238914491E+02  0.51100000000E-03 0.  1.
        -12    1    3    3    0    0  0.15861467700E+02 -0.19750197236E+02 -0.72748106776E+01  0.26354872772E+02  0.00000000000E+00 0.  1.
</event>
<event>
 7    1  0.6963701E-013  0.5930190E+02  0.7816164E-02  0.1266605E+00
        -11   -1    0    0    0    0  0.00000000000E+00  0.00000000000E+00  0.45593999997E+02  0.45594000000E+02  0.51100000000E-03 0.  1.
         11   -1    0    0    0    0 -0.00000000000E+00 -0.00000000000E+00 -0.45593999997E+02  0.45594000000E+02  0.51100000000E-03 0. -1.
    9900012    2    1    2    0    0  0.29506494541E+02  0.11671153994E+02 -0.31423768010E+01  0.59301896638E+02  0.49999913573E+02 0.  0.
         12    1    1    2    0    0 -0.29506494541E+02 -0.11671153994E+02  0.31423768010E+01  0.31886103362E+02  0.00000000000E+00 0. -1.
         11    1    3    3    0    0  0.14450126974E+02  0.17504599182E+02  0.30504012542E+01  0.22902447689E+02  0.51100000000E-03 0. -1.
        -11    1    3    3    0    0  0.28558166280E+01  0.12929226305E+02 -0.24975630165E+00  0.13243223170E+02  0.51100000000E-03 0.  1.
        -12    1    3    3    0    0  0.12200550939E+02 -0.18762671493E+02 -0.59430217536E+01  0.23156225779E+02  0.00000000000E+00 0.  1.
</event>
<event>
 7    1  0.6963701E-013  0.5930196E+02  0.7816164E-02  0.1266605E+00
        -11   -1    0    0    0    0  0.00000000000E+00  0.00000000000E+00  0.45593999997E+02  0.45594000000E+02  0.51100000000E-03 0.  1.
         11   -1    0    0    0    0 -0.00000000000E+00 -0.00000000000E+00 -0.45593999997E+02  0.45594000000E+02  0.51100000000E-03 0. -1.
    9900012    2    1    2    0    0 -0.26142806673E+02  0.61632979028E+00  0.18245364294E+02  0.59301960400E+02  0.50000029860E+02 0.  0.
         12    1    1    2    0    0  0.26142806673E+02 -0.61632979028E+00 -0.18245364294E+02  0.31886039600E+02  0.00000000000E+00 0. -1.
         11    1    3    3    0    0  0.14585700343E+01 -0.39694660848E+00 -0.37383234897E+01  0.40323759658E+01  0.51100000000E-03 0. -1.
        -11    1    3    3    0    0 -0.19245059749E+02 -0.18234744719E+02  0.24902356172E+01  0.26628546964E+02  0.51100000000E-03 0.  1.
        -12    1    3    3    0    0 -0.83563169586E+01  0.19248021118E+02  0.19493452166E+02  0.28641037471E+02  0.00000000000E+00 0.  1.
</event>
<event>
 7    1  0.6963701E-013  0.5930195E+02  0.7816164E-02  0.1266605E+00
        -11   -1    0    0    0    0  0.00000000000E+00  0.00000000000E+00  0.45593999997E+02  0.45594000000E+02  0.51100000000E-03 0. -1.
         11   -1    0    0    0    0 -0.00000000000E+00 -0.00000000000E+00 -0.45593999997E+02  0.45594000000E+02  0.51100000000E-03 0.  1.
    9900012    2    1    2    0    0  0.20849317482E+01  0.22657846964E+02 -0.22338207905E+02  0.59301945025E+02  0.50000001819E+02 0.  0.
         12    1    1    2    0    0 -0.20849317482E+01 -0.22657846964E+02  0.22338207905E+02  0.31886054975E+02  0.00000000000E+00 0. -1.
         11    1    3    3    0    0  0.45940386575E+01  0.33799542646E+01 -0.12519018726E+02  0.13757002295E+02  0.51100000000E-03 0. -1.
        -11    1    3    3    0    0 -0.22488104064E+01  0.20110733869E+01 -0.23388810566E+02  0.23582578831E+02  0.51100000000E-03 0.  1.
         12    1    3    3    0    0 -0.26029650286E+00  0.17266819313E+02  0.13569621386E+02  0.21962363899E+02  0.00000000000E+00 0. -1.
</event>
<event>
 7    1  0.6963701E-013  0.5930198E+02  0.7816164E-02  0.1266605E+00
        -11   -1    0    0    0    0  0.00000000000E+00  0.00000000000E+00  0.45593999997E+02  0.45594000000E+02  0.51100000000E-03 0.  1.
         11   -1    0    0    0    0 -0.00000000000E+00 -0.00000000000E+00 -0.45593999997E+02  0.45594000000E+02  0.51100000000E-03 0. -1.
    9900012    2    1    2    0    0  0.84601396832E+01  0.40477355806E+01  0.30475561291E+02  0.59301984840E+02  0.50000074431E+02 0.  0.
         12    1    1    2    0    0 -0.84601396832E+01 -0.40477355806E+01 -0.30475561291E+02  0.31886015160E+02  0.00000000000E+00 0. -1.
         11    1    3    3    0    0  0.23291792530E+01 -0.44002397251E+01 -0.32795966110E+01  0.59617899848E+01  0.51100000000E-03 0. -1.
        -11    1    3    3    0    0 -0.13836991877E+02 -0.72903409725E+01  0.10134864128E+02  0.18636708048E+02  0.51100000000E-03 0.  1.
        -12    1    3    3    0    0  0.19967952307E+02  0.15738316278E+02  0.23620293774E+02  0.34703486807E+02  0.00000000000E+00 0.  1.
</event>
<event>
 7    1  0.6963701E-013  0.5930194E+02  0.7816164E-02  0.1266605E+00
        -11   -1    0    0    0    0  0.00000000000E+00  0.00000000000E+00  0.45593999997E+02  0.45594000000E+02  0.51100000000E-03 0.  1.
         11   -1    0    0    0    0 -0.00000000000E+00 -0.00000000000E+00 -0.45593999997E+02  0.45594000000E+02  0.51100000000E-03 0. -1.
    9900012    2    1    2    0    0  0.28610028531E+02 -0.13710135866E+02 -0.31967367437E+01  0.59301942172E+02  0.49999996616E+02 0.  0.
         12    1    1    2    0    0 -0.28610028531E+02  0.13710135866E+02  0.31967367437E+01  0.31886057828E+02  0.00000000000E+00 0. -1.
         11    1    3    3    0    0  0.62882657531E+00 -0.14621531062E+02  0.48377361528E+00  0.14643040348E+02  0.51100000000E-03 0. -1.
        -11    1    3    3    0    0  0.16730643228E+02 -0.59305168741E+01  0.14004631748E+02  0.22610067755E+02  0.51100000000E-03 0.  1.
        -12    1    3    3    0    0  0.11250558727E+02  0.68419120703E+01 -0.17685142107E+02  0.22048834069E+02  0.00000000000E+00 0.  1.
</event>
<event>
 7    1  0.6963701E-013  0.5930209E+02  0.7816164E-02  0.1266604E+00
        -11   -1    0    0    0    0  0.00000000000E+00  0.00000000000E+00  0.45593999997E+02  0.45594000000E+02  0.51100000000E-03 0. -1.
         11   -1    0    0    0    0 -0.00000000000E+00 -0.00000000000E+00 -0.45593999997E+02  0.45594000000E+02  0.51100000000E-03 0.  1.
    9900012    2    1    2    0    0 -0.26467781977E+02  0.12028219288E+02 -0.13095404581E+02  0.59302091464E+02  0.50000268888E+02 0.  0.
         12    1    1    2    0    0  0.26467781977E+02 -0.12028219288E+02  0.13095404581E+02  0.31885908536E+02  0.00000000000E+00 0. -1.
         11    1    3    3    0    0  0.41381385523E+01  0.99085031122E+01 -0.37884108112E+01  0.11386600956E+02  0.51100000000E-03 0. -1.
        -11    1    3    3    0    0 -0.23334533245E+02  0.84422465567E+01 -0.21179900581E+02  0.32624533063E+02  0.51100000000E-03 0.  1.
         12    1    3    3    0    0 -0.72713872842E+01 -0.63225303813E+01  0.11872906811E+02  0.15290957445E+02  0.00000000000E+00 0. -1.
</event>
<event>
 7    1  0.6963701E-013  0.5930229E+02  0.7816164E-02  0.1266604E+00
        -11   -1    0    0    0    0  0.00000000000E+00  0.00000000000E+00  0.45593999997E+02  0.45594000000E+02  0.51100000000E-03 0.  1.
         11   -1    0    0    0    0 -0.00000000000E+00 -0.00000000000E+00 -0.45593999997E+02  0.45594000000E+02  0.51100000000E-03 0. -1.
    9900012    2    1    2    0    0 -0.19887467517E+01 -0.31822088275E+02  0.31326840191E+00  0.59302289205E+02  0.50000629516E+02 0.  0.
         12    1    1    2    0    0  0.19887467517E+01  0.31822088275E+02 -0.31326840191E+00  0.31885710795E+02  0.00000000000E+00 0. -1.
         11    1    3    3    0    0 -0.36117813608E+01 -0.29812330792E+01  0.50399524603E+01  0.68799590358E+01  0.51100000000E-03 0. -1.
        -11    1    3    3    0    0 -0.97059317311E+01 -0.94463319989E+01  0.16617207040E+02  0.21437580766E+02  0.51100000000E-03 0.  1.
         12    1    3    3    0    0  0.11328966340E+02 -0.19394523197E+02 -0.21343891099E+02  0.30984749404E+02  0.00000000000E+00 0. -1.
</event>
<event>
 7    1  0.6963701E-013  0.5930192E+02  0.7816164E-02  0.1266605E+00
        -11   -1    0    0    0    0  0.00000000000E+00  0.00000000000E+00  0.45593999997E+02  0.45594000000E+02  0.51100000000E-03 0.  1.
         11   -1    0    0    0    0 -0.00000000000E+00 -0.00000000000E+00 -0.45593999997E+02  0.45594000000E+02  0.51100000000E-03 0. -1.
    9900012    2    1    2    0    0  0.12475609502E+02  0.15438413714E+02  0.24954688082E+02  0.59301922980E+02  0.49999961614E+02 0.  0.
         12    1    1    2    0    0 -0.12475609502E+02 -0.15438413714E+02 -0.24954688082E+02  0.31886077020E+02  0.00000000000E+00 0. -1.
         11    1    3    3    0    0 -0.10340948377E+02  0.88274662502E+01  0.29641749502E+01  0.13915664092E+02  0.51100000000E-03 0. -1.
        -11    1    3    3    0    0 -0.43471491003E+01  0.10506203959E+02  0.11016794405E+02  0.15831859845E+02  0.51100000000E-03 0.  1.
        -12    1    3    3    0    0  0.27163706980E+02 -0.38952564952E+01  0.10973718727E+02  0.29554399042E+02  0.00000000000E+00 0.  1.
</event>
<event>
 7    1  0.6963701E-013  0.5930192E+02  0.7816164E-02  0.1266605E+00
        -11   -1    0    0    0    0  0.00000000000E+00  0.00000000000E+00  0.45593999997E+02  0.45594000000E+02  0.51100000000E-03 0. -1.
         11   -1    0    0    0    0 -0.00000000000E+00 -0.00000000000E+00 -0.45593999997E+02  0.45594000000E+02  0.51100000000E-03 0.  1.
    9900012    2    1    2    0    0  0.14924381901E+02  0.71634204001E+01 -0.27251977997E+02  0.59301920408E+02  0.49999956924E+02 0.  0.
         12    1    1    2    0    0 -0.14924381901E+02 -0.71634204001E+01  0.27251977997E+02  0.31886079592E+02  0.00000000000E+00 0. -1.
         11    1    3    3    0    0  0.97369543130E+01  0.38311253511E+00 -0.49277327966E+01  0.10919597304E+02  0.51100000000E-03 0. -1.
        -11    1    3    3    0    0  0.20853083282E+02  0.14523860146E+02 -0.12242558041E+02  0.28207690859E+02  0.51100000000E-03 0.  1.
        -12    1    3    3    0    0 -0.15665655694E+02 -0.77435522814E+01 -0.10081687159E+02  0.20174632246E+02  0.00000000000E+00 0.  1.
</event>
<event>
 7    1  0.6963701E-013  0.5930196E+02  0.7816164E-02  0.1266605E+00
        -11   -1    0    0    0    0  0.00000000000E+00  0.00000000000E+00  0.45593999997E+02  0.45594000000E+02  0.51100000000E-03 0.  1.
         11   -1    0    0    0    0 -0.00000000000E+00 -0.00000000000E+00 -0.45593999997E+02  0.45594000000E+02  0.51100000000E-03 0. -1.
    9900012    2    1    2    0    0 -0.26543523196E+02  0.13381498455E+02 -0.11536744723E+02  0.59301959114E+02  0.50000027514E+02 0.  0.
         12    1    1    2    0    0  0.26543523196E+02 -0.13381498455E+02  0.11536744723E+02  0.31886040886E+02  0.00000000000E+00 0. -1.
         11    1    3    3    0    0  0.37672496955E+01  0.76851336368E+01 -0.35233501297E+01  0.92556710012E+01  0.51100000000E-03 0. -1.
        -11    1    3    3    0    0 -0.72008885152E+01  0.92224871528E+01  0.13785978749E+02  0.18082042889E+02  0.51100000000E-03 0.  1.
         12    1    3    3    0    0 -0.23109884376E+02 -0.35261223343E+01 -0.21799373343E+02  0.31964245224E+02  0.00000000000E+00 0. -1.
</event>
<event>
 7    1  0.6963701E-013  0.5930192E+02  0.7816164E-02  0.1266605E+00
        -11   -1    0    0    0    0  0.00000000000E+00  0.00000000000E+00  0.45593999997E+02  0.45594000000E+02  0.51100000000E-03 0. -1.
         11   -1    0    0    0    0 -0.00000000000E+00 -0.00000000000E+00 -0.45593999997E+02  0.45594000000E+02  0.51100000000E-03 0.  1.
    9900012    2    1    2    0    0 -0.29899107339E+02 -0.10778619650E+02  0.25664434288E+01  0.59301923209E+02  0.49999962032E+02 0.  0.
         12    1    1    2    0    0  0.29899107339E+02  0.10778619650E+02 -0.25664434288E+01  0.31886076791E+02  0.00000000000E+00 0. -1.
         11    1    3    3    0    0 -0.15381745238E+02 -0.83803486693E+01 -0.10478822277E+02  0.20411615491E+02  0.51100000000E-03 0. -1.
        -11    1    3    3    0    0 -0.22235833120E+02  0.66032784994E+01  0.13831956330E+02  0.27006639511E+02  0.51100000000E-03 0.  1.
         12    1    3    3    0    0  0.77184710191E+01 -0.90015494798E+01 -0.78669062413E+00  0.11883668207E+02  0.00000000000E+00 0. -1.
</event>
<event>
 7    1  0.6963701E-013  0.5930197E+02  0.7816164E-02  0.1266605E+00
        -11   -1    0    0    0    0  0.00000000000E+00  0.00000000000E+00  0.45593999997E+02  0.45594000000E+02  0.51100000000E-03 0. -1.
         11   -1    0    0    0    0 -0.00000000000E+00 -0.00000000000E+00 -0.45593999997E+02  0.45594000000E+02  0.51100000000E-03 0.  1.
    9900012    2    1    2    0    0 -0.70429705388E+01  0.30756062108E+02 -0.46021712098E+01  0.59301972178E+02  0.50000051340E+02 0.  0.
         12    1    1    2    0    0  0.70429705388E+01 -0.30756062108E+02  0.46021712098E+01  0.31886027822E+02  0.00000000000E+00 0. -1.
         11    1    3    3    0    0  0.13093210307E+02  0.11983406851E+02  0.20945624599E+01  0.17872363808E+02  0.51100000000E-03 0. -1.
        -11    1    3    3    0    0  0.84777694174E-01  0.15894783945E+02 -0.12472076912E+02  0.20204060153E+02  0.51100000000E-03 0.  1.
        -12    1    3    3    0    0 -0.20220958540E+02  0.28778713117E+01  0.57753432422E+01  0.21225548218E+02  0.00000000000E+00 0.  1.
</event>
<event>
 7    1  0.6963701E-013  0.5930195E+02  0.7816164E-02  0.1266605E+00
        -11   -1    0    0    0    0  0.00000000000E+00  0.00000000000E+00  0.45593999997E+02  0.45594000000E+02  0.51100000000E-03 0. -1.
         11   -1    0    0    0    0 -0.00000000000E+00 -0.00000000000E+00 -0.45593999997E+02  0.45594000000E+02  0.51100000000E-03 0.  1.
    9900012    2    1    2    0    0  0.21117219461E+02 -0.15089946723E+02 -0.18522335735E+02  0.59301947078E+02  0.50000005562E+02 0.  0.
         12    1    1    2    0    0 -0.21117219461E+02  0.15089946723E+02  0.18522335735E+02  0.31886052922E+02  0.00000000000E+00 0. -1.
         11    1    3    3    0    0 -0.14900924966E+01 -0.85256045097E+01  0.86096232973E+01  0.12207863101E+02  0.51100000000E-03 0. -1.
        -11    1    3    3    0    0  0.24017874448E+02  0.65830082886E+01 -0.14554790707E+02  0.28845038116E+02  0.51100000000E-03 0.  1.
         12    1    3    3    0    0 -0.14105624897E+01 -0.13147350502E+02 -0.12577168325E+02  0.18249045861E+02  0.00000000000E+00 0. -1.
</event>
<event>
 7    1  0.6963701E-013  0.5930195E+02  0.7816164E-02  0.1266605E+00
        -11   -1    0    0    0    0  0.00000000000E+00  0.00000000000E+00  0.45593999997E+02  0.45594000000E+02  0.51100000000E-03 0. -1.
         11   -1    0    0    0    0 -0.00000000000E+00 -0.00000000000E+00 -0.45593999997E+02  0.45594000000E+02  0.51100000000E-03 0.  1.
    9900012    2    1    2    0    0 -0.87860252576E+01 -0.26912006400E+02 -0.14672078982E+02  0.59301949289E+02  0.50000009595E+02 0.  0.
         12    1    1    2    0    0  0.87860252576E+01  0.26912006400E+02  0.14672078982E+02  0.31886050711E+02  0.00000000000E+00 0. -1.
         11    1    3    3    0    0  0.44181832070E+01 -0.36357191884E+01 -0.16916776780E+02  0.17858223141E+02  0.51100000000E-03 0. -1.
        -11    1    3    3    0    0  0.19017145695E+01  0.31148311563E+01 -0.84539312816E+01  0.92080207326E+01  0.51100000000E-03 0.  1.
         12    1    3    3    0    0 -0.15105923034E+02 -0.26391118368E+02  0.10698629080E+02  0.32235705415E+02  0.00000000000E+00 0. -1.
</event>
<event>
 7    1  0.6963701E-013  0.5930196E+02  0.7816164E-02  0.1266605E+00
        -11   -1    0    0    0    0  0.00000000000E+00  0.00000000000E+00  0.45593999997E+02  0.45594000000E+02  0.51100000000E-03 0.  1.
         11   -1    0    0    0    0 -0.00000000000E+00 -0.00000000000E+00 -0.45593999997E+02  0.45594000000E+02  0.51100000000E-03 0. -1.
    9900012    2    1    2    0    0 -0.15985740101E+02 -0.15970287630E+02  0.22497240266E+02  0.59301956138E+02  0.50000022087E+02 0.  0.
         12    1    1    2    0    0  0.15985740101E+02  0.15970287630E+02 -0.22497240266E+02  0.31886043862E+02  0.00000000000E+00 0. -1.
         11    1    3    3    0    0 -0.42601905931E+01  0.68324172534E+01 -0.21339018846E+01  0.83297471107E+01  0.51100000000E-03 0. -1.
        -11    1    3    3    0    0 -0.10484808961E+02 -0.43801475855E+01  0.29721111004E+02  0.31819197844E+02  0.51100000000E-03 0.  1.
         12    1    3    3    0    0 -0.12407405475E+01 -0.18422557298E+02 -0.50899688539E+01  0.19153011184E+02  0.00000000000E+00 0. -1.
</event>
<event>
 7    1  0.6963701E-013  0.5930194E+02  0.7816164E-02  0.1266605E+00
        -11   -1    0    0    0    0  0.00000000000E+00  0.00000000000E+00  0.45593999997E+02  0.45594000000E+02  0.51100000000E-03 0.  1.
         11   -1    0    0    0    0 -0.00000000000E+00 -0.00000000000E+00 -0.45593999997E+02  0.45594000000E+02  0.51100000000E-03 0. -1.
    9900012    2    1    2    0    0  0.14445200079E+02 -0.14762360354E+02 -0.24292583373E+02  0.59301941989E+02  0.49999996283E+02 0.  0.
         12    1    1    2    0    0 -0.14445200079E+02  0.14762360354E+02  0.24292583373E+02  0.31886058011E+02  0.00000000000E+00 0. -1.
         11    1    3    3    0    0 -0.23175340879E+01 -0.91071480897E+01  0.44596976458E+01  0.10401923569E+02  0.51100000000E-03 0. -1.
        -11    1    3    3    0    0  0.75842063948E+01 -0.92339272870E+01  0.55758917405E+01  0.13186211311E+02  0.51100000000E-03 0.  1.
         12    1    3    3    0    0  0.91785277718E+01  0.35787150230E+01 -0.34328172759E+02  0.35713807110E+02  0.00000000000E+00 0. -1.
</event>
<event>
 7    1  0.6963701E-013  0.5930195E+02  0.7816164E-02  0.1266605E+00
        -11   -1    0    0    0    0  0.00000000000E+00  0.00000000000E+00  0.45593999997E+02  0.45594000000E+02  0.51100000000E-03 0.  1.
         11   -1    0    0    0    0 -0.00000000000E+00 -0.00000000000E+00 -0.45593999997E+02  0.45594000000E+02  0.51100000000E-03 0. -1.
    9900012    2    1    2    0    0  0.17197257276E+02 -0.11532599060E+02  0.24248175182E+02  0.59301945077E+02  0.50000001914E+02 0.  0.
         12    1    1    2    0    0 -0.17197257276E+02  0.11532599060E+02 -0.24248175182E+02  0.31886054923E+02  0.00000000000E+00 0. -1.
         11    1    3    3    0    0 -0.20654984012E+01 -0.60436752760E+01  0.86618659345E+01  0.10761980125E+02  0.51100000000E-03 0. -1.
        -11    1    3    3    0    0  0.20761611840E+02 -0.19975617032E+02  0.17714607070E+02  0.33821252282E+02  0.51100000000E-03 0.  1.
         12    1    3    3    0    0 -0.14988561626E+01  0.14486693248E+02 -0.21282978230E+01  0.14718712670E+02  0.00000000000E+00 0. -1.
</event>
<event>
 7    1  0.6963701E-013  0.5930195E+02  0.7816164E-02  0.1266605E+00
        -11   -1    0    0    0    0  0.00000000000E+00  0.00000000000E+00  0.45593999997E+02  0.45594000000E+02  0.51100000000E-03 0.  1.
         11   -1    0    0    0    0 -0.00000000000E+00 -0.00000000000E+00 -0.45593999997E+02  0.45594000000E+02  0.51100000000E-03 0. -1.
    9900012    2    1    2    0    0 -0.39852699036E+01  0.27250986976E+02  0.16069265109E+02  0.59301953703E+02  0.50000017645E+02 0.  0.
         12    1    1    2    0    0  0.39852699036E+01 -0.27250986976E+02 -0.16069265109E+02  0.31886046297E+02  0.00000000000E+00 0. -1.
         11    1    3    3    0    0  0.14552488620E+02  0.12267504675E+02 -0.82085203769E+01  0.20727913620E+02  0.51100000000E-03 0. -1.
        -11    1    3    3    0    0  0.43711615786E+00  0.90589472421E+01  0.32411471694E+01  0.96312320554E+01  0.51100000000E-03 0.  1.
        -12    1    3    3    0    0 -0.18974874682E+02  0.59245350587E+01  0.21036638316E+02  0.28942808027E+02  0.00000000000E+00 0.  1.
</event>
<event>
 7    1  0.6963701E-013  0.5930193E+02  0.7816164E-02  0.1266605E+00
        -11   -1    0    0    0    0  0.00000000000E+00  0.00000000000E+00  0.45593999997E+02  0.45594000000E+02  0.51100000000E-03 0. -1.
         11   -1    0    0    0    0 -0.00000000000E+00 -0.00000000000E+00 -0.45593999997E+02  0.45594000000E+02  0.51100000000E-03 0.  1.
    9900012    2    1    2    0    0 -0.24550629473E+02  0.19375788025E+02  0.62102466761E+01  0.59301925722E+02  0.49999966614E+02 0.  0.
         12    1    1    2    0    0  0.24550629473E+02 -0.19375788025E+02 -0.62102466761E+01  0.31886074278E+02  0.00000000000E+00 0. -1.
         11    1    3    3    0    0 -0.13280746662E+02  0.96735528350E+00 -0.45566628721E+01  0.14073989659E+02  0.51100000000E-03 0. -1.
        -11    1    3    3    0    0 -0.12783947741E+02 -0.73053146899E+01 -0.43604309352E+01  0.15356116070E+02  0.51100000000E-03 0.  1.
         12    1    3    3    0    0  0.15140649298E+01  0.25713747431E+02  0.15127340483E+02  0.29871819992E+02  0.00000000000E+00 0. -1.
</event>
<event>
 7    1  0.6963701E-013  0.5930201E+02  0.7816164E-02  0.1266605E+00
        -11   -1    0    0    0    0  0.00000000000E+00  0.00000000000E+00  0.45593999997E+02  0.45594000000E+02  0.51100000000E-03 0.  1.
         11   -1    0    0    0    0 -0.00000000000E+00 -0.00000000000E+00 -0.45593999997E+02  0.45594000000E+02  0.51100000000E-03 0. -1.
    9900012    2    1    2    0    0 -0.28468758115E+02  0.11247148383E+02  0.89301544784E+01  0.59302012570E+02  0.50000125004E+02 0.  0.
         12    1    1    2    0    0  0.28468758115E+02 -0.11247148383E+02 -0.89301544784E+01  0.31885987430E+02  0.00000000000E+00 0. -1.
         11    1    3    3    0    0 -0.10656526559E+02  0.25177850529E+02 -0.81402420523E+01  0.28526290619E+02  0.51100000000E-03 0. -1.
        -11    1    3    3    0    0 -0.18314870344E+00 -0.56401068257E+01  0.65133198390E+01  0.86178700408E+01  0.51100000000E-03 0.  1.
        -12    1    3    3    0    0 -0.17629082853E+02 -0.82905953199E+01  0.10557076692E+02  0.22157851910E+02  0.00000000000E+00 0.  1.
</event>
<event>
 7    1  0.6963701E-013  0.5930200E+02  0.7816164E-02  0.1266605E+00
        -11   -1    0    0    0    0  0.00000000000E+00  0.00000000000E+00  0.45593999997E+02  0.45594000000E+02  0.51100000000E-03 0.  1.
         11   -1    0    0    0    0 -0.00000000000E+00 -0.00000000000E+00 -0.45593999997E+02  0.45594000000E+02  0.51100000000E-03 0. -1.
    9900012    2    1    2    0    0 -0.18492310008E+02  0.13590317058E+02  0.22137179955E+02  0.59302000195E+02  0.50000102436E+02 0.  0.
         12    1    1    2    0    0  0.18492310008E+02 -0.13590317058E+02 -0.22137179955E+02  0.31885999805E+02  0.00000000000E+00 0. -1.
         11    1    3    3    0    0 -0.89348133331E+01  0.13866370109E+02  0.25676113872E+02  0.30518354036E+02  0.51100000000E-03 0. -1.
        -11    1    3    3    0    0  0.13391678410E+01  0.50442328268E+01  0.95859178782E+01  0.10914553456E+02  0.51100000000E-03 0.  1.
         12    1    3    3    0    0 -0.10896664516E+02 -0.53202858771E+01 -0.13124851795E+02  0.17869092703E+02  0.00000000000E+00 0. -1.
</event>
<event>
 7    1  0.6963701E-013  0.5930189E+02  0.7816164E-02  0.1266605E+00
        -11   -1    0    0    0    0  0.00000000000E+00  0.00000000000E+00  0.45593999997E+02  0.45594000000E+02  0.51100000000E-03 0.  1.
         11   -1    0    0    0    0 -0.00000000000E+00 -0.00000000000E+00 -0.45593999997E+02  0.45594000000E+02  0.51100000000E-03 0. -1.
    9900012    2    1    2    0    0 -0.23296702373E+02 -0.72852778433E+01  0.20516149359E+02  0.59301890184E+02  0.49999901801E+02 0.  0.
         12    1    1    2    0    0  0.23296702373E+02  0.72852778433E+01 -0.20516149359E+02  0.31886109816E+02  0.00000000000E+00 0. -1.
         11    1    3    3    0    0 -0.69539707772E+01 -0.18387888315E+02  0.23913492175E+01  0.19803805129E+02  0.51100000000E-03 0. -1.
        -11    1    3    3    0    0 -0.62284268374E+01  0.76515843458E+01  0.24941703416E+02  0.26822166457E+02  0.51100000000E-03 0.  1.
         12    1    3    3    0    0 -0.10114304758E+02  0.34510261254E+01 -0.68169032743E+01  0.12675918598E+02  0.00000000000E+00 0. -1.
</event>
<event>
 7    1  0.6963701E-013  0.5930196E+02  0.7816164E-02  0.1266605E+00
        -11   -1    0    0    0    0  0.00000000000E+00  0.00000000000E+00  0.45593999997E+02  0.45594000000E+02  0.51100000000E-03 0.  1.
         11   -1    0    0    0    0 -0.00000000000E+00 -0.00000000000E+00 -0.45593999997E+02  0.45594000000E+02  0.51100000000E-03 0. -1.
    9900012    2    1    2    0    0  0.59069031954E-01 -0.20020436619E+02 -0.24817301001E+02  0.59301956022E+02  0.50000021875E+02 0.  0.
         12    1    1    2    0    0 -0.59069031954E-01  0.20020436619E+02  0.24817301001E+02  0.31886043978E+02  0.00000000000E+00 0. -1.
         11    1    3    3    0    0 -0.43493056094E+01 -0.94128195611E+00 -0.17698754768E+02  0.18249613465E+02  0.51100000000E-03 0. -1.
        -11    1    3    3    0    0 -0.15402824244E+02 -0.53692610519E+01 -0.21498489803E+01  0.16452896700E+02  0.51100000000E-03 0.  1.
        -12    1    3    3    0    0  0.19811198885E+02 -0.13709893611E+02 -0.49686972529E+01  0.24599445857E+02  0.00000000000E+00 0.  1.
</event>
<event>
 7    1  0.6963701E-013  0.5930197E+02  0.7816164E-02  0.1266605E+00
        -11   -1    0    0    0    0  0.00000000000E+00  0.00000000000E+00  0.45593999997E+02  0.45594000000E+02  0.51100000000E-03 0. -1.
         11   -1    0    0    0    0 -0.00000000000E+00 -0.00000000000E+00 -0.45593999997E+02  0.45594000000E+02  0.51100000000E-03 0.  1.
    9900012    2    1    2    0    0 -0.77474118031E+01 -0.27086561395E+02 -0.14933682909E+02  0.59301967273E+02  0.50000042393E+02 0.  0.
         12    1    1    2    0    0  0.77474118031E+01  0.27086561395E+02  0.14933682909E+02  0.31886032727E+02  0.00000000000E+00 0. -1.
         11    1    3    3    0    0 -0.67510070380E+01 -0.75309720868E+00 -0.19356807754E+01  0.70632932657E+01  0.51100000000E-03 0. -1.
        -11    1    3    3    0    0 -0.58132586778E+01 -0.36028489232E+02 -0.16155438920E+01  0.36530206612E+02  0.51100000000E-03 0.  1.
         12    1    3    3    0    0  0.48168539127E+01  0.96950250458E+01 -0.11382458242E+02  0.15708467394E+02  0.00000000000E+00 0. -1.
</event>
<event>
 7    1  0.6963701E-013  0.5930196E+02  0.7816164E-02  0.1266605E+00
        -11   -1    0    0    0    0  0.00000000000E+00  0.00000000000E+00  0.45593999997E+02  0.45594000000E+02  0.51100000000E-03 0.  1.
         11   -1    0    0    0    0 -0.00000000000E+00 -0.00000000000E+00 -0.45593999997E+02  0.45594000000E+02  0.51100000000E-03 0. -1.
    9900012    2    1    2    0    0  0.26939283266E+02 -0.12165997684E+02  0.11957559386E+02  0.59301957458E+02  0.50000024494E+02 0.  0.
         12    1    1    2    0    0 -0.26939283266E+02  0.12165997684E+02 -0.11957559386E+02  0.31886042542E+02  0.00000000000E+00 0. -1.
         11    1    3    3    0    0 -0.51382583783E+01  0.18878420409E+01 -0.28261092293E+01  0.61605633160E+01  0.51100000000E-03 0. -1.
        -11    1    3    3    0    0 -0.84044761915E+01 -0.41154226860E+01  0.28688658138E+01  0.97878657150E+01  0.51100000000E-03 0.  1.
         12    1    3    3    0    0  0.40482017836E+02 -0.99384170384E+01  0.11914802802E+02  0.43353528427E+02  0.00000000000E+00 0. -1.
</event>
<event>
 7    1  0.6963701E-013  0.5930194E+02  0.7816164E-02  0.1266605E+00
        -11   -1    0    0    0    0  0.00000000000E+00  0.00000000000E+00  0.45593999997E+02  0.45594000000E+02  0.51100000000E-03 0.  1.
         11   -1    0    0    0    0 -0.00000000000E+00 -0.00000000000E+00 -0.45593999997E+02  0.45594000000E+02  0.51100000000E-03 0. -1.
    9900012    2    1    2    0    0  0.28339936035E+02  0.11692527417E+02  0.87666136461E+01  0.59301942127E+02  0.49999996533E+02 0.  0.
         12    1    1    2    0    0 -0.28339936035E+02 -0.11692527417E+02 -0.87666136461E+01  0.31886057873E+02  0.00000000000E+00 0. -1.
         11    1    3    3    0    0  0.22902244211E+02  0.15131654973E+02  0.92470942954E+01  0.28965298639E+02  0.51100000000E-03 0. -1.
        -11    1    3    3    0    0  0.10267393230E+02 -0.65803091409E+01  0.11676396301E+02  0.16883662606E+02  0.51100000000E-03 0.  1.
         12    1    3    3    0    0 -0.48297014060E+01  0.31411815850E+01 -0.12156876950E+02  0.13452980882E+02  0.00000000000E+00 0. -1.
</event>
<event>
 7    1  0.6963701E-013  0.5930194E+02  0.7816164E-02  0.1266605E+00
        -11   -1    0    0    0    0  0.00000000000E+00  0.00000000000E+00  0.45593999997E+02  0.45594000000E+02  0.51100000000E-03 0. -1.
         11   -1    0    0    0    0 -0.00000000000E+00 -0.00000000000E+00 -0.45593999997E+02  0.45594000000E+02  0.51100000000E-03 0.  1.
    9900012    2    1    2    0    0 -0.15843781788E+02  0.45321892513E+01 -0.27297519197E+02  0.59301941682E+02  0.49999995722E+02 0.  0.
         12    1    1    2    0    0  0.15843781788E+02 -0.45321892513E+01  0.27297519197E+02  0.31886058318E+02  0.00000000000E+00 0. -1.
         11    1    3    3    0    0  0.62245837541E+01  0.39811183068E+01  0.41466159107E+01  0.84728489693E+01  0.51100000000E-03 0. -1.
        -11    1    3    3    0    0 -0.31327762290E+01  0.13788161206E+02 -0.34912471872E+01  0.14564219290E+02  0.51100000000E-03 0.  1.
        -12    1    3    3    0    0 -0.18935589313E+02 -0.13237090262E+02 -0.27952887920E+02  0.36264873422E+02  0.00000000000E+00 0.  1.
</event>
<event>
 7    1  0.6963701E-013  0.5930191E+02  0.7816164E-02  0.1266605E+00
        -11   -1    0    0    0    0  0.00000000000E+00  0.00000000000E+00  0.45593999997E+02  0.45594000000E+02  0.51100000000E-03 0. -1.
         11   -1    0    0    0    0 -0.00000000000E+00 -0.00000000000E+00 -0.45593999997E+02  0.45594000000E+02  0.51100000000E-03 0.  1.
    9900012    2    1    2    0    0  0.23105255692E+02 -0.19007002523E+02 -0.11027397391E+02  0.59301914026E+02  0.49999945284E+02 0.  0.
         12    1    1    2    0    0 -0.23105255692E+02  0.19007002523E+02  0.11027397391E+02  0.31886085974E+02  0.00000000000E+00 0. -1.
         11    1    3    3    0    0 -0.25576355372E+01 -0.26934648007E+00 -0.96973406425E+01  0.10032570103E+02  0.51100000000E-03 0. -1.
        -11    1    3    3    0    0  0.56501298230E+01  0.52950589510E+01 -0.13619625755E+02  0.15667029785E+02  0.51100000000E-03 0.  1.
         12    1    3    3    0    0  0.20012761406E+02 -0.24032714994E+02  0.12289569007E+02  0.33602314138E+02  0.00000000000E+00 0. -1.
</event>
<event>
 7    1  0.6963701E-013  0.5930190E+02  0.7816164E-02  0.1266605E+00
        -11   -1    0    0    0    0  0.00000000000E+00  0.00000000000E+00  0.45593999997E+02  0.45594000000E+02  0.51100000000E-03 0. -1.
         11   -1    0    0    0    0 -0.00000000000E+00 -0.00000000000E+00 -0.45593999997E+02  0.45594000000E+02  0.51100000000E-03 0.  1.
    9900012    2    1    2    0    0  0.42152443773E+01 -0.27061911827E+02 -0.16328144210E+02  0.59301895656E+02  0.49999911782E+02 0.  0.
         12    1    1    2    0    0 -0.42152443773E+01  0.27061911827E+02  0.16328144210E+02  0.31886104344E+02  0.00000000000E+00 0. -1.
         11    1    3    3    0    0  0.42982253535E+01  0.68042416936E+01 -0.60103965205E+01  0.10044765443E+02  0.51100000000E-03 0.  1.
        -11    1    3    3    0    0  0.89991527759E+01  0.34604557738E+00  0.54287736247E+01  0.10515516229E+02  0.51100000000E-03 0. -1.
        -12    1    3    3    0    0 -0.90821337521E+01 -0.34212199098E+02 -0.15746521314E+02  0.38741613984E+02  0.00000000000E+00 0.  1.
</event>
<event>
 7    1  0.6963701E-013  0.5930188E+02  0.7816164E-02  0.1266605E+00
        -11   -1    0    0    0    0  0.00000000000E+00  0.00000000000E+00  0.45593999997E+02  0.45594000000E+02  0.51100000000E-03 0. -1.
         11   -1    0    0    0    0 -0.00000000000E+00 -0.00000000000E+00 -0.45593999997E+02  0.45594000000E+02  0.51100000000E-03 0.  1.
    9900012    2    1    2    0    0  0.31838800392E+02 -0.83920426615E+00 -0.15203150236E+01  0.59301877126E+02  0.49999877987E+02 0.  0.
         12    1    1    2    0    0 -0.31838800392E+02  0.83920426615E+00  0.15203150236E+01  0.31886122874E+02  0.00000000000E+00 0. -1.
         11    1    3    3    0    0  0.66709336227E+01  0.16760217308E+02  0.87956501154E+01  0.20069123071E+02  0.51100000000E-03 0. -1.
        -11    1    3    3    0    0  0.17318319585E+01  0.14598491456E+01  0.49081524560E+01  0.54055862081E+01  0.51100000000E-03 0.  1.
        -12    1    3    3    0    0  0.23436034810E+02 -0.19059270720E+02 -0.15224117595E+02  0.33827167847E+02  0.00000000000E+00 0.  1.
</event>
<event>
 7    1  0.6963701E-013  0.5930210E+02  0.7816164E-02  0.1266604E+00
        -11   -1    0    0    0    0  0.00000000000E+00  0.00000000000E+00  0.45593999997E+02  0.45594000000E+02  0.51100000000E-03 0.  1.
         11   -1    0    0    0    0 -0.00000000000E+00 -0.00000000000E+00 -0.45593999997E+02  0.45594000000E+02  0.51100000000E-03 0. -1.
    9900012    2    1    2    0    0  0.20604232143E+02 -0.23965283846E+02 -0.42239324221E+01  0.59302096890E+02  0.50000278784E+02 0.  0.
         12    1    1    2    0    0 -0.20604232143E+02  0.23965283846E+02  0.42239324221E+01  0.31885903110E+02  0.00000000000E+00 0. -1.
         11    1    3    3    0    0 -0.92706192967E+01 -0.10624655132E+02 -0.50562855567E+01  0.14979776457E+02  0.51100000000E-03 0. -1.
        -11    1    3    3    0    0  0.34301840045E+01 -0.17221377774E+02  0.10859454389E+01  0.17593217230E+02  0.51100000000E-03 0.  1.
         12    1    3    3    0    0  0.26444667435E+02  0.38807490599E+01 -0.25359230429E+00  0.26729103203E+02  0.00000000000E+00 0. -1.
</event>
<event>
 7    1  0.6963701E-013  0.5930193E+02  0.7816164E-02  0.1266605E+00
        -11   -1    0    0    0    0  0.00000000000E+00  0.00000000000E+00  0.45593999997E+02  0.45594000000E+02  0.51100000000E-03 0. -1.
         11   -1    0    0    0    0 -0.00000000000E+00 -0.00000000000E+00 -0.45593999997E+02  0.45594000000E+02  0.51100000000E-03 0.  1.
    9900012    2    1    2    0    0  0.31275278672E+02 -0.10904469687E+00 -0.62101909839E+01  0.59301930646E+02  0.49999975595E+02 0.  0.
         12    1    1    2    0    0 -0.31275278672E+02  0.10904469687E+00  0.62101909839E+01  0.31886069354E+02  0.00000000000E+00 0. -1.
         11    1    3    3    0    0  0.30777033226E+02  0.26577649577E+01  0.10559662746E+02  0.32646530694E+02  0.51100000000E-03 0.  1.
        -11    1    3    3    0    0 -0.22863910197E+01 -0.35549878147E+01  0.39196461559E+01  0.57644729600E+01  0.51100000000E-03 0. -1.
         12    1    3    3    0    0  0.27846364662E+01  0.78817816010E+00 -0.20689499886E+02  0.20890926992E+02  0.00000000000E+00 0. -1.
</event>
<event>
 7    1  0.6963701E-013  0.5930193E+02  0.7816164E-02  0.1266605E+00
        -11   -1    0    0    0    0  0.00000000000E+00  0.00000000000E+00  0.45593999997E+02  0.45594000000E+02  0.51100000000E-03 0.  1.
         11   -1    0    0    0    0 -0.00000000000E+00 -0.00000000000E+00 -0.45593999997E+02  0.45594000000E+02  0.51100000000E-03 0. -1.
    9900012    2    1    2    0    0 -0.12305514745E+02 -0.81633604150E+01  0.28260486824E+02  0.59301933107E+02  0.49999980083E+02 0.  0.
         12    1    1    2    0    0  0.12305514745E+02  0.81633604150E+01 -0.28260486824E+02  0.31886066893E+02  0.00000000000E+00 0. -1.
         11    1    3    3    0    0 -0.83473889348E+01  0.70138898445E+00 -0.30314306208E+01  0.89084465765E+01  0.51100000000E-03 0. -1.
        -11    1    3    3    0    0 -0.74063759997E+00  0.14868246822E+02  0.16594474037E+02  0.22293269756E+02  0.51100000000E-03 0.  1.
         12    1    3    3    0    0 -0.32174882107E+01 -0.23732996221E+02  0.14697443407E+02  0.28100216774E+02  0.00000000000E+00 0. -1.
</event>
<event>
 7    1  0.6963701E-013  0.5930186E+02  0.7816164E-02  0.1266605E+00
        -11   -1    0    0    0    0  0.00000000000E+00  0.00000000000E+00  0.45593999997E+02  0.45594000000E+02  0.51100000000E-03 0.  1.
         11   -1    0    0    0    0 -0.00000000000E+00 -0.00000000000E+00 -0.45593999997E+02  0.45594000000E+02  0.51100000000E-03 0. -1.
    9900012    2    1    2    0    0 -0.26330238703E+02  0.92746538617E+01  0.15408602809E+02  0.59301863280E+02  0.49999852735E+02 0.  0.
         12    1    1    2    0    0  0.26330238703E+02 -0.92746538617E+01 -0.15408602809E+02  0.31886136720E+02  0.00000000000E+00 0. -1.
         11    1    3    3    0    0  0.21664177295E+01  0.33013419581E+01 -0.69819612615E+01  0.80212223396E+01  0.51100000000E-03 0. -1.
        -11    1    3    3    0    0 -0.62211883783E+01  0.90428683850E+01 -0.79234867372E+01  0.13537292780E+02  0.51100000000E-03 0.  1.
        -12    1    3    3    0    0 -0.22275468054E+02 -0.30695564814E+01  0.30314050808E+02  0.37743348161E+02  0.00000000000E+00 0.  1.
</event>
<event>
 7    1  0.6963701E-013  0.5930195E+02  0.7816164E-02  0.1266605E+00
        -11   -1    0    0    0    0  0.00000000000E+00  0.00000000000E+00  0.45593999997E+02  0.45594000000E+02  0.51100000000E-03 0.  1.
         11   -1    0    0    0    0 -0.00000000000E+00 -0.00000000000E+00 -0.45593999997E+02  0.45594000000E+02  0.51100000000E-03 0. -1.
    9900012    2    1    2    0    0 -0.27942651556E+01 -0.16269313827E+02  0.27280425944E+02  0.59301950858E+02  0.50000012458E+02 0.  0.
         12    1    1    2    0    0  0.27942651556E+01  0.16269313827E+02 -0.27280425944E+02  0.31886049142E+02  0.00000000000E+00 0. -1.
         11    1    3    3    0    0 -0.14439296826E+01  0.31210530217E+01  0.10103333232E+01  0.35842263569E+01  0.51100000000E-03 0. -1.
        -11    1    3    3    0    0 -0.22613772403E+02 -0.14575504169E+02  0.18145563423E+02  0.32451340439E+02  0.51100000000E-03 0.  1.
         12    1    3    3    0    0  0.21263436930E+02 -0.48148626794E+01  0.81245291981E+01  0.23266384063E+02  0.00000000000E+00 0. -1.
</event>
<event>
 7    1  0.6963701E-013  0.5930193E+02  0.7816164E-02  0.1266605E+00
        -11   -1    0    0    0    0  0.00000000000E+00  0.00000000000E+00  0.45593999997E+02  0.45594000000E+02  0.51100000000E-03 0.  1.
         11   -1    0    0    0    0 -0.00000000000E+00 -0.00000000000E+00 -0.45593999997E+02  0.45594000000E+02  0.51100000000E-03 0. -1.
    9900012    2    1    2    0    0  0.27028462014E+02 -0.10116650835E+02  0.13558642180E+02  0.59301934693E+02  0.49999982977E+02 0.  0.
         12    1    1    2    0    0 -0.27028462014E+02  0.10116650835E+02 -0.13558642180E+02  0.31886065307E+02  0.00000000000E+00 0. -1.
         11    1    3    3    0    0  0.22192787044E+02  0.86050997813E+01  0.49762688787E+01  0.24317294077E+02  0.51100000000E-03 0. -1.
        -11    1    3    3    0    0  0.40590186259E+01  0.32276952176E+01  0.11703311576E+02  0.12800826174E+02  0.51100000000E-03 0.  1.
         12    1    3    3    0    0  0.77665634412E+00 -0.21949445834E+02 -0.31209382747E+01  0.22183814442E+02  0.00000000000E+00 0. -1.
</event>
<event>
 7    1  0.6963701E-013  0.5930194E+02  0.7816164E-02  0.1266605E+00
        -11   -1    0    0    0    0  0.00000000000E+00  0.00000000000E+00  0.45593999997E+02  0.45594000000E+02  0.51100000000E-03 0.  1.
         11   -1    0    0    0    0 -0.00000000000E+00 -0.00000000000E+00 -0.45593999997E+02  0.45594000000E+02  0.51100000000E-03 0. -1.
    9900012    2    1    2    0    0 -0.72308487216E+01 -0.14736641237E+02  0.27336186528E+02  0.59301939377E+02  0.49999991518E+02 0.  0.
         12    1    1    2    0    0  0.72308487216E+01  0.14736641237E+02 -0.27336186528E+02  0.31886060623E+02  0.00000000000E+00 0. -1.
         11    1    3    3    0    0 -0.25886643381E+02 -0.70888393254E+01  0.17708005303E+02  0.32154990290E+02  0.51100000000E-03 0. -1.
        -11    1    3    3    0    0  0.28359752574E+01  0.21886084330E+01 -0.29741946474E+01  0.46560279848E+01  0.51100000000E-03 0.  1.
        -12    1    3    3    0    0  0.15819819402E+02 -0.98364103447E+01  0.12602375872E+02  0.22490921102E+02  0.00000000000E+00 0.  1.
</event>
<event>
 7    1  0.6963701E-013  0.5930196E+02  0.7816164E-02  0.1266605E+00
        -11   -1    0    0    0    0  0.00000000000E+00  0.00000000000E+00  0.45593999997E+02  0.45594000000E+02  0.51100000000E-03 0.  1.
         11   -1    0    0    0    0 -0.00000000000E+00 -0.00000000000E+00 -0.45593999997E+02  0.45594000000E+02  0.51100000000E-03 0. -1.
    9900012    2    1    2    0    0 -0.61019316874E+01 -0.13768868141E+02  0.28105235794E+02  0.59301959492E+02  0.50000028204E+02 0.  0.
         12    1    1    2    0    0  0.61019316874E+01  0.13768868141E+02 -0.28105235794E+02  0.31886040508E+02  0.00000000000E+00 0. -1.
         11    1    3    3    0    0 -0.19872950275E+01 -0.21290137654E+02 -0.60495481805E+01  0.22221978676E+02  0.51100000000E-03 0. -1.
        -11    1    3    3    0    0  0.35364021385E+01  0.54199921124E+01  0.14177545282E+02  0.15584776067E+02  0.51100000000E-03 0.  1.
        -12    1    3    3    0    0 -0.76510387985E+01  0.21012773998E+01  0.19977238693E+02  0.21495204749E+02  0.00000000000E+00 0.  1.
</event>
<event>
 7    1  0.6963701E-013  0.5930191E+02  0.7816164E-02  0.1266605E+00
        -11   -1    0    0    0    0  0.00000000000E+00  0.00000000000E+00  0.45593999997E+02  0.45594000000E+02  0.51100000000E-03 0. -1.
         11   -1    0    0    0    0 -0.00000000000E+00 -0.00000000000E+00 -0.45593999997E+02  0.45594000000E+02  0.51100000000E-03 0.  1.
    9900012    2    1    2    0    0  0.23843644070E+02  0.20568539972E+02 -0.50138389376E+01  0.59301909302E+02  0.49999936668E+02 0.  0.
         12    1    1    2    0    0 -0.23843644070E+02 -0.20568539972E+02  0.50138389376E+01  0.31886090698E+02  0.00000000000E+00 0. -1.
         11    1    3    3    0    0 -0.79335077421E+00  0.43786311471E+01  0.81352167916E+01  0.92727325358E+01  0.51100000000E-03 0. -1.
        -11    1    3    3    0    0  0.91208096203E+01  0.27492121139E+02 -0.95440634875E+01  0.30497459582E+02  0.51100000000E-03 0.  1.
        -12    1    3    3    0    0  0.15516185224E+02 -0.11302212314E+02 -0.36049922416E+01  0.19531717184E+02  0.00000000000E+00 0.  1.
</event>
<event>
 7    1  0.6963701E-013  0.5930203E+02  0.7816164E-02  0.1266604E+00
        -11   -1    0    0    0    0  0.00000000000E+00  0.00000000000E+00  0.45593999997E+02  0.45594000000E+02  0.51100000000E-03 0.  1.
         11   -1    0    0    0    0 -0.00000000000E+00 -0.00000000000E+00 -0.45593999997E+02  0.45594000000E+02  0.51100000000E-03 0. -1.
    9900012    2    1    2    0    0 -0.23743937150E+01  0.74685150355E+01  0.30907900924E+02  0.59302034406E+02  0.50000164828E+02 0.  0.
         12    1    1    2    0    0  0.23743937150E+01 -0.74685150355E+01 -0.30907900924E+02  0.31885965594E+02  0.00000000000E+00 0. -1.
         11    1    3    3    0    0 -0.16102904340E+02 -0.30825670185E+01  0.81799988672E+01  0.18322612514E+02  0.51100000000E-03 0. -1.
        -11    1    3    3    0    0 -0.52982631355E+01 -0.59883323727E+00  0.17528727502E+02  0.18321748869E+02  0.51100000000E-03 0.  1.
         12    1    3    3    0    0  0.19026773761E+02  0.11149915291E+02  0.51991745543E+01  0.22657673023E+02  0.00000000000E+00 0. -1.
</event>
<event>
 7    1  0.6963701E-013  0.5930192E+02  0.7816164E-02  0.1266605E+00
        -11   -1    0    0    0    0  0.00000000000E+00  0.00000000000E+00  0.45593999997E+02  0.45594000000E+02  0.51100000000E-03 0.  1.
         11   -1    0    0    0    0 -0.00000000000E+00 -0.00000000000E+00 -0.45593999997E+02  0.45594000000E+02  0.51100000000E-03 0. -1.
    9900012    2    1    2    0    0  0.15149548001E+02  0.27733023914E+02  0.42535234391E+01  0.59301923388E+02  0.49999962359E+02 0.  0.
         12    1    1    2    0    0 -0.15149548001E+02 -0.27733023914E+02 -0.42535234391E+01  0.31886076612E+02  0.00000000000E+00 0. -1.
         11    1    3    3    0    0  0.68824484523E+01  0.42357653337E+01 -0.63708640298E+01  0.10290661466E+02  0.51100000000E-03 0. -1.
        -11    1    3    3    0    0  0.15692002471E+02  0.15424205808E+02 -0.11122664946E+02  0.24654791464E+02  0.51100000000E-03 0.  1.
         12    1    3    3    0    0 -0.74249029229E+01  0.80730527719E+01  0.21747052415E+02  0.24356470459E+02  0.00000000000E+00 0. -1.
</event>
<event>
 7    1  0.6963701E-013  0.5930196E+02  0.7816164E-02  0.1266605E+00
        -11   -1    0    0    0    0  0.00000000000E+00  0.00000000000E+00  0.45593999997E+02  0.45594000000E+02  0.51100000000E-03 0.  1.
         11   -1    0    0    0    0 -0.00000000000E+00 -0.00000000000E+00 -0.45593999997E+02  0.45594000000E+02  0.51100000000E-03 0. -1.
    9900012    2    1    2    0    0  0.11233116359E+02  0.13693369112E+01  0.29810427953E+02  0.59301959144E+02  0.50000027568E+02 0.  0.
         12    1    1    2    0    0 -0.11233116359E+02 -0.13693369112E+01 -0.29810427953E+02  0.31886040856E+02  0.00000000000E+00 0. -1.
         11    1    3    3    0    0  0.20690009528E+00 -0.12570366371E+02  0.17203506675E+02  0.21307687827E+02  0.51100000000E-03 0. -1.
        -11    1    3    3    0    0 -0.23239333437E+01  0.14079779366E+02  0.18530348091E+02  0.23388344401E+02  0.51100000000E-03 0.  1.
         12    1    3    3    0    0  0.13350149608E+02 -0.14007608355E+00 -0.59234268130E+01  0.14605926916E+02  0.00000000000E+00 0. -1.
</event>
<event>
 7    1  0.6963701E-013  0.5930195E+02  0.7816164E-02  0.1266605E+00
        -11   -1    0    0    0    0  0.00000000000E+00  0.00000000000E+00  0.45593999997E+02  0.45594000000E+02  0.51100000000E-03 0.  1.
         11   -1    0    0    0    0 -0.00000000000E+00 -0.00000000000E+00 -0.45593999997E+02  0.45594000000E+02  0.51100000000E-03 0. -1.
    9900012    2    1    2    0    0  0.29982692937E+02 -0.98190978683E+01 -0.46199465499E+01  0.59301945606E+02  0.50000002878E+02 0.  0.
         12    1    1    2    0    0 -0.29982692937E+02  0.98190978683E+01  0.46199465499E+01  0.31886054394E+02  0.00000000000E+00 0. -1.
         11    1    3    3    0    0 -0.30666200051E+01  0.71493128571E+01  0.12794003568E+02  0.14973421791E+02  0.51100000000E-03 0. -1.
        -11    1    3    3    0    0  0.13328783044E+02 -0.38751033242E+01 -0.15152707177E+02  0.20549389730E+02  0.51100000000E-03 0.  1.
        -12    1    3    3    0    0  0.19720529898E+02 -0.13093307401E+02 -0.22612429407E+01  0.23779134084E+02  0.00000000000E+00 0.  1.
</event>
<event>
 7    1  0.6963701E-013  0.5930198E+02  0.7816164E-02  0.1266605E+00
        -11   -1    0    0    0    0  0.00000000000E+00  0.00000000000E+00  0.45593999997E+02  0.45594000000E+02  0.51100000000E-03 0. -1.
         11   -1    0    0    0    0 -0.00000000000E+00 -0.00000000000E+00 -0.45593999997E+02  0.45594000000E+02  0.51100000000E-03 0.  1.
    9900012    2    1    2    0    0  0.14848191715E+02 -0.18172730392E+02 -0.21587058649E+02  0.59301983814E+02  0.50000072561E+02 0.  0.
         12    1    1    2    0    0 -0.14848191715E+02  0.18172730392E+02  0.21587058649E+02  0.31886016186E+02  0.00000000000E+00 0. -1.
         11    1    3    3    0    0  0.84703243902E+01  0.86281732857E+01 -0.11477581850E+02  0.16671132382E+02  0.51100000000E-03 0. -1.
        -11    1    3    3    0    0  0.16187094649E+02 -0.22211980313E+02  0.47404775493E+00  0.27488521679E+02  0.51100000000E-03 0.  1.
         12    1    3    3    0    0 -0.98092273243E+01 -0.45889233653E+01 -0.10583524553E+02  0.15142329752E+02  0.00000000000E+00 0. -1.
</event>
<event>
 7    1  0.6963701E-013  0.5930194E+02  0.7816164E-02  0.1266605E+00
        -11   -1    0    0    0    0  0.00000000000E+00  0.00000000000E+00  0.45593999997E+02  0.45594000000E+02  0.51100000000E-03 0.  1.
         11   -1    0    0    0    0 -0.00000000000E+00 -0.00000000000E+00 -0.45593999997E+02  0.45594000000E+02  0.51100000000E-03 0. -1.
    9900012    2    1    2    0    0 -0.25637384567E+02 -0.14738389159E+02  0.11925823624E+02  0.59301939229E+02  0.49999991247E+02 0.  0.
         12    1    1    2    0    0  0.25637384567E+02  0.14738389159E+02 -0.11925823624E+02  0.31886060771E+02  0.00000000000E+00 0. -1.
         11    1    3    3    0    0 -0.94098762856E+01 -0.16961461162E+02  0.54844618055E+01  0.20157287963E+02  0.51100000000E-03 0. -1.
        -11    1    3    3    0    0 -0.66426960640E+01 -0.16349086365E+02  0.40756993187E+01  0.18111580858E+02  0.51100000000E-03 0.  1.
         12    1    3    3    0    0 -0.95848122173E+01  0.18572158369E+02  0.23656624994E+01  0.21033070408E+02  0.00000000000E+00 0. -1.
</event>
<event>
 7    1  0.6963701E-013  0.5930194E+02  0.7816164E-02  0.1266605E+00
        -11   -1    0    0    0    0  0.00000000000E+00  0.00000000000E+00  0.45593999997E+02  0.45594000000E+02  0.51100000000E-03 0.  1.
         11   -1    0    0    0    0 -0.00000000000E+00 -0.00000000000E+00 -0.45593999997E+02  0.45594000000E+02  0.51100000000E-03 0. -1.
    9900012    2    1    2    0    0 -0.25579448545E+01 -0.12394018096E+02  0.29267151548E+02  0.59301938371E+02  0.49999989684E+02 0.  0.
         12    1    1    2    0    0  0.25579448545E+01  0.12394018096E+02 -0.29267151548E+02  0.31886061629E+02  0.00000000000E+00 0. -1.
         11    1    3    3    0    0 -0.23317519499E+02 -0.14096510719E+02  0.19959775807E+02  0.33775893483E+02  0.51100000000E-03 0. -1.
        -11    1    3    3    0    0  0.22368826008E+00 -0.13947591230E+01  0.37794477464E+01  0.40348004879E+01  0.51100000000E-03 0.  1.
         12    1    3    3    0    0  0.20535886384E+02  0.30972517461E+01  0.55279279947E+01  0.21491244401E+02  0.00000000000E+00 0. -1.
</event>
<event>
 7    1  0.6963701E-013  0.5930198E+02  0.7816164E-02  0.1266605E+00
        -11   -1    0    0    0    0  0.00000000000E+00  0.00000000000E+00  0.45593999997E+02  0.45594000000E+02  0.51100000000E-03 0. -1.
         11   -1    0    0    0    0 -0.00000000000E+00 -0.00000000000E+00 -0.45593999997E+02  0.45594000000E+02  0.51100000000E-03 0.  1.
    9900012    2    1    2    0    0 -0.21856669820E+02 -0.58834430235E+01 -0.22458615900E+02  0.59301978838E+02  0.50000063485E+02 0.  0.
         12    1    1    2    0    0  0.21856669820E+02  0.58834430235E+01  0.22458615900E+02  0.31886021162E+02  0.00000000000E+00 0. -1.
         11    1    3    3    0    0 -0.35305725307E+01 -0.32639279051E+01  0.74599158270E+01  0.88751626560E+01  0.51100000000E-03 0. -1.
        -11    1    3    3    0    0 -0.37244621539E+01  0.47719502507E+01  0.74691196421E+01  0.96140977746E+01  0.51100000000E-03 0.  1.
        -12    1    3    3    0    0 -0.14601635135E+02 -0.73914653690E+01 -0.37387651369E+02  0.40812718407E+02  0.00000000000E+00 0.  1.
</event>
<event>
 7    1  0.6963701E-013  0.5930194E+02  0.7816164E-02  0.1266605E+00
        -11   -1    0    0    0    0  0.00000000000E+00  0.00000000000E+00  0.45593999997E+02  0.45594000000E+02  0.51100000000E-03 0. -1.
         11   -1    0    0    0    0 -0.00000000000E+00 -0.00000000000E+00 -0.45593999997E+02  0.45594000000E+02  0.51100000000E-03 0.  1.
    9900012    2    1    2    0    0  0.48177959379E+01 -0.27373830075E+02 -0.15626353991E+02  0.59301942393E+02  0.49999997018E+02 0.  0.
         12    1    1    2    0    0 -0.48177959379E+01  0.27373830075E+02  0.15626353991E+02  0.31886057607E+02  0.00000000000E+00 0. -1.
         11    1    3    3    0    0  0.92522634210E+00 -0.11965400693E+02  0.81833606904E+01  0.14525641121E+02  0.51100000000E-03 0. -1.
        -11    1    3    3    0    0  0.94988978887E+01 -0.24305855232E+02 -0.11311059353E+02  0.28441936004E+02  0.51100000000E-03 0.  1.
        -12    1    3    3    0    0 -0.56063282928E+01  0.88974258504E+01 -0.12498655328E+02  0.16334365268E+02  0.00000000000E+00 0.  1.
</event>
<event>
 7    1  0.6963701E-013  0.5930193E+02  0.7816164E-02  0.1266605E+00
        -11   -1    0    0    0    0  0.00000000000E+00  0.00000000000E+00  0.45593999997E+02  0.45594000000E+02  0.51100000000E-03 0.  1.
         11   -1    0    0    0    0 -0.00000000000E+00 -0.00000000000E+00 -0.45593999997E+02  0.45594000000E+02  0.51100000000E-03 0. -1.
    9900012    2    1    2    0    0  0.11261050346E+02 -0.29831103730E+02 -0.12332146243E+00  0.59301933877E+02  0.49999981488E+02 0.  0.
         12    1    1    2    0    0 -0.11261050346E+02  0.29831103730E+02  0.12332146243E+00  0.31886066123E+02  0.00000000000E+00 0. -1.
         11    1    3    3    0    0 -0.60832310548E+01 -0.23051183105E+02  0.13783675723E+02  0.27538200001E+02  0.51100000000E-03 0. -1.
        -11    1    3    3    0    0  0.98110752342E+01 -0.13687326481E+02 -0.35454695024E+01  0.17209603647E+02  0.51100000000E-03 0.  1.
         12    1    3    3    0    0  0.75332061665E+01  0.69074058560E+01 -0.10361527683E+02  0.14554130229E+02  0.00000000000E+00 0. -1.
</event>
<event>
 7    1  0.6963701E-013  0.5930191E+02  0.7816164E-02  0.1266605E+00
        -11   -1    0    0    0    0  0.00000000000E+00  0.00000000000E+00  0.45593999997E+02  0.45594000000E+02  0.51100000000E-03 0. -1.
         11   -1    0    0    0    0 -0.00000000000E+00 -0.00000000000E+00 -0.45593999997E+02  0.45594000000E+02  0.51100000000E-03 0.  1.
    9900012    2    1    2    0    0 -0.24778030463E+02 -0.12808113324E+02  0.15450707454E+02  0.59301907085E+02  0.49999932625E+02 0.  0.
         12    1    1    2    0    0  0.24778030463E+02  0.12808113324E+02 -0.15450707454E+02  0.31886092915E+02  0.00000000000E+00 0. -1.
         11    1    3    3    0    0  0.89803882608E+01 -0.13851299969E+02  0.12481862254E+02  0.20695477036E+02  0.51100000000E-03 0. -1.
        -11    1    3    3    0    0 -0.12688490780E+02 -0.22051946194E+01  0.98400243492E+01  0.16207614292E+02  0.51100000000E-03 0.  1.
        -12    1    3    3    0    0 -0.21069927944E+02  0.32483812646E+01 -0.68711791491E+01  0.22398815756E+02  0.00000000000E+00 0.  1.
</event>
<event>
 7    1  0.6963701E-013  0.5930194E+02  0.7816164E-02  0.1266605E+00
        -11   -1    0    0    0    0  0.00000000000E+00  0.00000000000E+00  0.45593999997E+02  0.45594000000E+02  0.51100000000E-03 0. -1.
         11   -1    0    0    0    0 -0.00000000000E+00 -0.00000000000E+00 -0.45593999997E+02  0.45594000000E+02  0.51100000000E-03 0.  1.
    9900012    2    1    2    0    0 -0.21748834624E+01  0.37696877536E+01 -0.31587656870E+02  0.59301941441E+02  0.49999995283E+02 0.  0.
         12    1    1    2    0    0  0.21748834624E+01 -0.37696877536E+01  0.31587656870E+02  0.31886058559E+02  0.00000000000E+00 0. -1.
         11    1    3    3    0    0  0.36644654951E+01  0.10659367624E+01  0.78139047455E+01  0.86960701572E+01  0.51100000000E-03 0.  1.
        -11    1    3    3    0    0  0.24831838548E+01  0.45101992185E+01  0.39099822585E+01  0.64649872831E+01  0.51100000000E-03 0. -1.
        -12    1    3    3    0    0 -0.83225328123E+01 -0.18064482273E+01 -0.43311543874E+02  0.44140884001E+02  0.00000000000E+00 0.  1.
</event>
<event>
 7    1  0.6963701E-013  0.5930197E+02  0.7816164E-02  0.1266605E+00
        -11   -1    0    0    0    0  0.00000000000E+00  0.00000000000E+00  0.45593999997E+02  0.45594000000E+02  0.51100000000E-03 0.  1.
         11   -1    0    0    0    0 -0.00000000000E+00 -0.00000000000E+00 -0.45593999997E+02  0.45594000000E+02  0.51100000000E-03 0. -1.
    9900012    2    1    2    0    0 -0.13427452914E+02 -0.63084175063E+01  0.28224564082E+02  0.59301974208E+02  0.50000055042E+02 0.  0.
         12    1    1    2    0    0  0.13427452914E+02  0.63084175063E+01 -0.28224564082E+02  0.31886025792E+02  0.00000000000E+00 0. -1.
         11    1    3    3    0    0 -0.98638382045E+01 -0.19801441820E+02  0.18239911017E+02  0.28672055323E+02  0.51100000000E-03 0. -1.
        -11    1    3    3    0    0 -0.69312447577E+01  0.15318087933E+01  0.15489767313E+02  0.17038822839E+02  0.51100000000E-03 0.  1.
         12    1    3    3    0    0  0.33676300485E+01  0.11961215520E+02 -0.55051142479E+01  0.13591096047E+02  0.00000000000E+00 0. -1.
</event>
<event>
 7    1  0.6963701E-013  0.5930193E+02  0.7816164E-02  0.1266605E+00
        -11   -1    0    0    0    0  0.00000000000E+00  0.00000000000E+00  0.45593999997E+02  0.45594000000E+02  0.51100000000E-03 0.  1.
         11   -1    0    0    0    0 -0.00000000000E+00 -0.00000000000E+00 -0.45593999997E+02  0.45594000000E+02  0.51100000000E-03 0. -1.
    9900012    2    1    2    0    0  0.11820136978E+02 -0.92624498520E+01  0.28128511031E+02  0.59301925480E+02  0.49999966174E+02 0.  0.
         12    1    1    2    0    0 -0.11820136978E+02  0.92624498520E+01 -0.28128511031E+02  0.31886074520E+02  0.00000000000E+00 0. -1.
         11    1    3    3    0    0  0.37318162474E+01  0.63798385592E+01  0.16626301365E+01  0.75758254849E+01  0.51100000000E-03 0. -1.
        -11    1    3    3    0    0 -0.11428664056E+01  0.42827171132E+01  0.29256132719E+02  0.29590017091E+02  0.51100000000E-03 0.  1.
         12    1    3    3    0    0  0.92311871364E+01 -0.19925005524E+02 -0.27902518245E+01  0.22136082904E+02  0.00000000000E+00 0. -1.
</event>
<event>
 7    1  0.6963701E-013  0.5930195E+02  0.7816164E-02  0.1266605E+00
        -11   -1    0    0    0    0  0.00000000000E+00  0.00000000000E+00  0.45593999997E+02  0.45594000000E+02  0.51100000000E-03 0.  1.
         11   -1    0    0    0    0 -0.00000000000E+00 -0.00000000000E+00 -0.45593999997E+02  0.45594000000E+02  0.51100000000E-03 0. -1.
    9900012    2    1    2    0    0  0.12249034129E+02 -0.29349482478E+02  0.22998145294E+01  0.59301951237E+02  0.50000013148E+02 0.  0.
         12    1    1    2    0    0 -0.12249034129E+02  0.29349482478E+02 -0.22998145294E+01  0.31886048763E+02  0.00000000000E+00 0. -1.
         11    1    3    3    0    0  0.13946752254E+02 -0.13305969855E+02 -0.10339244076E+02  0.21873744548E+02  0.51100000000E-03 0. -1.
        -11    1    3    3    0    0  0.99448344341E+01 -0.19316088860E+02  0.29363949717E+01  0.21923353677E+02  0.51100000000E-03 0.  1.
        -12    1    3    3    0    0 -0.11642552560E+02  0.32725762367E+01  0.97026636334E+01  0.15504853012E+02  0.00000000000E+00 0.  1.
</event>
<event>
 7    1  0.6963701E-013  0.5930197E+02  0.7816164E-02  0.1266605E+00
        -11   -1    0    0    0    0  0.00000000000E+00  0.00000000000E+00  0.45593999997E+02  0.45594000000E+02  0.51100000000E-03 0.  1.
         11   -1    0    0    0    0 -0.00000000000E+00 -0.00000000000E+00 -0.45593999997E+02  0.45594000000E+02  0.51100000000E-03 0. -1.
    9900012    2    1    2    0    0  0.88779607981E+01 -0.12916365624E+02  0.27768120585E+02  0.59301965287E+02  0.50000038772E+02 0.  0.
         12    1    1    2    0    0 -0.88779607981E+01  0.12916365624E+02 -0.27768120585E+02  0.31886034713E+02  0.00000000000E+00 0. -1.
         11    1    3    3    0    0 -0.76049839826E+01  0.35573391047E+01 -0.25882202037E+01  0.87857456693E+01  0.51100000000E-03 0. -1.
        -11    1    3    3    0    0  0.20630257476E+01  0.92856703700E+01  0.13522789416E+02  0.16533166161E+02  0.51100000000E-03 0.  1.
         12    1    3    3    0    0  0.14419919033E+02 -0.25759375099E+02  0.16833551373E+02  0.33983053457E+02  0.00000000000E+00 0. -1.
</event>
<event>
 7    1  0.6963701E-013  0.5930192E+02  0.7816164E-02  0.1266605E+00
        -11   -1    0    0    0    0  0.00000000000E+00  0.00000000000E+00  0.45593999997E+02  0.45594000000E+02  0.51100000000E-03 0. -1.
         11   -1    0    0    0    0 -0.00000000000E+00 -0.00000000000E+00 -0.45593999997E+02  0.45594000000E+02  0.51100000000E-03 0.  1.
    9900012    2    1    2    0    0  0.12125365406E+02 -0.29475464702E+02  0.94570065178E+00  0.59301923801E+02  0.49999963111E+02 0.  0.
         12    1    1    2    0    0 -0.12125365406E+02  0.29475464702E+02 -0.94570065178E+00  0.31886076199E+02  0.00000000000E+00 0. -1.
         11    1    3    3    0    0  0.50786512903E+01 -0.91377425783E+01 -0.83576959260E+01  0.13384398373E+02  0.51100000000E-03 0. -1.
        -11    1    3    3    0    0  0.12671656035E+02 -0.17853684193E+02 -0.11143323288E+02  0.24566207686E+02  0.51100000000E-03 0.  1.
         12    1    3    3    0    0 -0.56249419192E+01 -0.24840379311E+01  0.20446719865E+02  0.21351317741E+02  0.00000000000E+00 0. -1.
</event>
<event>
 7    1  0.6963701E-013  0.5930194E+02  0.7816164E-02  0.1266605E+00
        -11   -1    0    0    0    0  0.00000000000E+00  0.00000000000E+00  0.45593999997E+02  0.45594000000E+02  0.51100000000E-03 0. -1.
         11   -1    0    0    0    0 -0.00000000000E+00 -0.00000000000E+00 -0.45593999997E+02  0.45594000000E+02  0.51100000000E-03 0.  1.
    9900012    2    1    2    0    0 -0.25618430293E+02 -0.69630525777E+01 -0.17661614773E+02  0.59301941788E+02  0.49999995915E+02 0.  0.
         12    1    1    2    0    0  0.25618430293E+02  0.69630525777E+01  0.17661614773E+02  0.31886058212E+02  0.00000000000E+00 0. -1.
         11    1    3    3    0    0  0.14698812475E+01  0.56008342440E+00  0.29360693579E+00  0.16001404994E+01  0.51100000000E-03 0. -1.
        -11    1    3    3    0    0 -0.17139961337E+02  0.50044863062E+01  0.13518554702E+02  0.22395858530E+02  0.51100000000E-03 0.  1.
        -12    1    3    3    0    0 -0.99483502037E+01 -0.12527622308E+02 -0.31473776411E+02  0.35305942758E+02  0.00000000000E+00 0.  1.
</event>
<event>
 7    1  0.6963701E-013  0.5930196E+02  0.7816164E-02  0.1266605E+00
        -11   -1    0    0    0    0  0.00000000000E+00  0.00000000000E+00  0.45593999997E+02  0.45594000000E+02  0.51100000000E-03 0.  1.
         11   -1    0    0    0    0 -0.00000000000E+00 -0.00000000000E+00 -0.45593999997E+02  0.45594000000E+02  0.51100000000E-03 0. -1.
    9900012    2    1    2    0    0  0.37583063483E+01  0.42021945978E+01  0.31383692276E+02  0.59301961568E+02  0.50000031989E+02 0.  0.
         12    1    1    2    0    0 -0.37583063483E+01 -0.42021945978E+01 -0.31383692276E+02  0.31886038432E+02  0.00000000000E+00 0. -1.
         11    1    3    3    0    0 -0.58183171710E+01  0.29146517300E+00 -0.54090380249E+01  0.79495571742E+01  0.51100000000E-03 0. -1.
        -11    1    3    3    0    0 -0.59108549936E+01  0.15374634364E+02  0.15215163755E+02  0.22423621405E+02  0.51100000000E-03 0.  1.
        -12    1    3    3    0    0  0.15487478513E+02 -0.11463904939E+02  0.21577566546E+02  0.28928782988E+02  0.00000000000E+00 0.  1.
</event>
<event>
 7    1  0.6963701E-013  0.5930194E+02  0.7816164E-02  0.1266605E+00
        -11   -1    0    0    0    0  0.00000000000E+00  0.00000000000E+00  0.45593999997E+02  0.45594000000E+02  0.51100000000E-03 0.  1.
         11   -1    0    0    0    0 -0.00000000000E+00 -0.00000000000E+00 -0.45593999997E+02  0.45594000000E+02  0.51100000000E-03 0. -1.
    9900012    2    1    2    0    0  0.16740274578E+02  0.91298938149E+01 -0.25556393107E+02  0.59301937486E+02  0.49999988070E+02 0.  0.
         12    1    1    2    0    0 -0.16740274578E+02 -0.91298938149E+01  0.25556393107E+02  0.31886062514E+02  0.00000000000E+00 0. -1.
         11    1    3    3    0    0  0.70826952290E+01 -0.85971179848E+01  0.88410634851E+01  0.14221090435E+02  0.51100000000E-03 0. -1.
        -11    1    3    3    0    0 -0.14609284754E+01 -0.34647730002E+01 -0.82114018262E+00  0.38487966189E+01  0.51100000000E-03 0.  1.
         12    1    3    3    0    0  0.11118507824E+02  0.21191784800E+02 -0.33576316409E+02  0.41232050432E+02  0.00000000000E+00 0. -1.
</event>
<event>
 7    1  0.6963701E-013  0.5930167E+02  0.7816164E-02  0.1266606E+00
        -11   -1    0    0    0    0  0.00000000000E+00  0.00000000000E+00  0.45593999997E+02  0.45594000000E+02  0.51100000000E-03 0. -1.
         11   -1    0    0    0    0 -0.00000000000E+00 -0.00000000000E+00 -0.45593999997E+02  0.45594000000E+02  0.51100000000E-03 0.  1.
    9900012    2    1    2    0    0 -0.47463598165E+01 -0.27246424971E+02 -0.15869536579E+02  0.59301673833E+02  0.49999507227E+02 0.  0.
         12    1    1    2    0    0  0.47463598165E+01  0.27246424971E+02  0.15869536579E+02  0.31886326167E+02  0.00000000000E+00 0. -1.
         11    1    3    3    0    0  0.11801220463E+02  0.53334397804E+01 -0.42944861495E+01  0.13643936230E+02  0.51100000000E-03 0. -1.
        -11    1    3    3    0    0  0.19062687383E+01 -0.31749528203E+01 -0.10270041157E+02  0.10917322544E+02  0.51100000000E-03 0.  1.
         12    1    3    3    0    0 -0.18453849017E+02 -0.29404911931E+02 -0.13050092732E+01  0.34740415059E+02  0.00000000000E+00 0. -1.
</event>
<event>
 7    1  0.6963701E-013  0.5930198E+02  0.7816164E-02  0.1266605E+00
        -11   -1    0    0    0    0  0.00000000000E+00  0.00000000000E+00  0.45593999997E+02  0.45594000000E+02  0.51100000000E-03 0.  1.
         11   -1    0    0    0    0 -0.00000000000E+00 -0.00000000000E+00 -0.45593999997E+02  0.45594000000E+02  0.51100000000E-03 0. -1.
    9900012    2    1    2    0    0 -0.26092161830E+02 -0.62950117748E+01  0.17213087792E+02  0.59301976831E+02  0.50000059826E+02 0.  0.
         12    1    1    2    0    0  0.26092161830E+02  0.62950117748E+01 -0.17213087792E+02  0.31886023169E+02  0.00000000000E+00 0. -1.
         11    1    3    3    0    0  0.12478644485E+02 -0.36054659968E+01  0.15521020950E+01  0.13081474474E+02  0.51100000000E-03 0. -1.
        -11    1    3    3    0    0  0.18781745794E+01 -0.19655712329E+01  0.24580448969E+01  0.36651050460E+01  0.51100000000E-03 0.  1.
         12    1    3    3    0    0 -0.40448980894E+02 -0.72397454518E+00  0.13202940800E+02  0.42555397311E+02  0.00000000000E+00 0. -1.
</event>
<event>
 7    1  0.6963701E-013  0.5930195E+02  0.7816164E-02  0.1266605E+00
        -11   -1    0    0    0    0  0.00000000000E+00  0.00000000000E+00  0.45593999997E+02  0.45594000000E+02  0.51100000000E-03 0.  1.
         11   -1    0    0    0    0 -0.00000000000E+00 -0.00000000000E+00 -0.45593999997E+02  0.45594000000E+02  0.51100000000E-03 0. -1.
    9900012    2    1    2    0    0 -0.19884552102E+02  0.19434010585E+02  0.15609096473E+02  0.59301951759E+02  0.50000014101E+02 0.  0.
         12    1    1    2    0    0  0.19884552102E+02 -0.19434010585E+02 -0.15609096473E+02  0.31886048241E+02  0.00000000000E+00 0. -1.
         11    1    3    3    0    0 -0.12789948745E+02  0.21919834420E+02  0.16021262071E+02  0.30012376922E+02  0.51100000000E-03 0.  1.
        -11    1    3    3    0    0 -0.73614130319E+01  0.71285158835E+00  0.13293887905E+02  0.15212692566E+02  0.51100000000E-03 0. -1.
         12    1    3    3    0    0  0.26680967455E+00 -0.31986754240E+01 -0.13706053503E+02  0.14076882271E+02  0.00000000000E+00 0. -1.
</event>
<event>
 7    1  0.6963701E-013  0.5930190E+02  0.7816164E-02  0.1266605E+00
        -11   -1    0    0    0    0  0.00000000000E+00  0.00000000000E+00  0.45593999997E+02  0.45594000000E+02  0.51100000000E-03 0. -1.
         11   -1    0    0    0    0 -0.00000000000E+00 -0.00000000000E+00 -0.45593999997E+02  0.45594000000E+02  0.51100000000E-03 0.  1.
    9900012    2    1    2    0    0 -0.82848184373E+01  0.28853224842E+02 -0.10750650071E+02  0.59301901505E+02  0.49999922448E+02 0.  0.
         12    1    1    2    0    0  0.82848184373E+01 -0.28853224842E+02  0.10750650071E+02  0.31886098495E+02  0.00000000000E+00 0. -1.
         11    1    3    3    0    0 -0.53699352014E+01 -0.65514400159E+01 -0.34271844454E+01  0.91380065569E+01  0.51100000000E-03 0. -1.
        -11    1    3    3    0    0 -0.15320564133E+02  0.18730581482E+02 -0.14460528260E+02  0.28189736534E+02  0.51100000000E-03 0.  1.
        -12    1    3    3    0    0  0.12405680897E+02  0.16674083376E+02  0.71370626349E+01  0.21974158414E+02  0.00000000000E+00 0.  1.
</event>
<event>
 7    1  0.6963701E-013  0.5930195E+02  0.7816164E-02  0.1266605E+00
        -11   -1    0    0    0    0  0.00000000000E+00  0.00000000000E+00  0.45593999997E+02  0.45594000000E+02  0.51100000000E-03 0. -1.
         11   -1    0    0    0    0 -0.00000000000E+00 -0.00000000000E+00 -0.45593999997E+02  0.45594000000E+02  0.51100000000E-03 0.  1.
    9900012    2    1    2    0    0  0.14947392228E+02  0.20291844782E+02 -0.19532965162E+02  0.59301949334E+02  0.50000009677E+02 0.  0.
         12    1    1    2    0    0 -0.14947392228E+02 -0.20291844782E+02  0.19532965162E+02  0.31886050666E+02  0.00000000000E+00 0. -1.
         11    1    3    3    0    0  0.29263488936E+01 -0.96605960921E+01 -0.20273570239E+02  0.22647478562E+02  0.51100000000E-03 0. -1.
        -11    1    3    3    0    0 -0.74466451929E+00 -0.14344871461E+01 -0.21022703535E+01  0.26517578168E+01  0.51100000000E-03 0.  1.
        -12    1    3    3    0    0  0.12765707854E+02  0.31386928021E+02  0.28428754312E+01  0.34002712955E+02  0.00000000000E+00 0.  1.
</event>
<event>
 7    1  0.6963701E-013  0.5930196E+02  0.7816164E-02  0.1266605E+00
        -11   -1    0    0    0    0  0.00000000000E+00  0.00000000000E+00  0.45593999997E+02  0.45594000000E+02  0.51100000000E-03 0.  1.
         11   -1    0    0    0    0 -0.00000000000E+00 -0.00000000000E+00 -0.45593999997E+02  0.45594000000E+02  0.51100000000E-03 0. -1.
    9900012    2    1    2    0    0  0.28635813712E+01 -0.25736559869E+01  0.31652734736E+02  0.59301961995E+02  0.50000032767E+02 0.  0.
         12    1    1    2    0    0 -0.28635813712E+01  0.25736559869E+01 -0.31652734736E+02  0.31886038005E+02  0.00000000000E+00 0. -1.
         11    1    3    3    0    0  0.13464647065E+01  0.76885918176E+01  0.50107227764E+01  0.92754921350E+01  0.51100000000E-03 0. -1.
        -11    1    3    3    0    0  0.53690154442E+01  0.15245042000E+02  0.13585148493E+02  0.21113831776E+02  0.51100000000E-03 0.  1.
         12    1    3    3    0    0 -0.38518987794E+01 -0.25507289804E+02  0.13056863466E+02  0.28912638084E+02  0.00000000000E+00 0. -1.
</event>
<event>
 7    1  0.6963701E-013  0.5930194E+02  0.7816164E-02  0.1266605E+00
        -11   -1    0    0    0    0  0.00000000000E+00  0.00000000000E+00  0.45593999997E+02  0.45594000000E+02  0.51100000000E-03 0. -1.
         11   -1    0    0    0    0 -0.00000000000E+00 -0.00000000000E+00 -0.45593999997E+02  0.45594000000E+02  0.51100000000E-03 0.  1.
    9900012    2    1    2    0    0 -0.93668742332E+01 -0.27469375611E+02 -0.13206653674E+02  0.59301943006E+02  0.49999998137E+02 0.  0.
         12    1    1    2    0    0  0.93668742332E+01  0.27469375611E+02  0.13206653674E+02  0.31886056994E+02  0.00000000000E+00 0. -1.
         11    1    3    3    0    0 -0.29525680688E+01 -0.11789715574E+01  0.14157545844E+01  0.34802289347E+01  0.51100000000E-03 0. -1.
        -11    1    3    3    0    0 -0.32524344296E+01 -0.39668647545E+02 -0.81508765416E+01  0.40627782568E+02  0.51100000000E-03 0.  1.
         12    1    3    3    0    0 -0.31618717349E+01  0.13378243491E+02 -0.64715317166E+01  0.15193931504E+02  0.00000000000E+00 0. -1.
</event>
<event>
 7    1  0.6963701E-013  0.5930191E+02  0.7816164E-02  0.1266605E+00
        -11   -1    0    0    0    0  0.00000000000E+00  0.00000000000E+00  0.45593999997E+02  0.45594000000E+02  0.51100000000E-03 0.  1.
         11   -1    0    0    0    0 -0.00000000000E+00 -0.00000000000E+00 -0.45593999997E+02  0.45594000000E+02  0.51100000000E-03 0. -1.
    9900012    2    1    2    0    0 -0.28791092446E+02  0.10751972738E+02  0.84965030372E+01  0.59301913914E+02  0.49999945080E+02 0.  0.
         12    1    1    2    0    0  0.28791092446E+02 -0.10751972738E+02 -0.84965030372E+01  0.31886086086E+02  0.00000000000E+00 0. -1.
         11    1    3    3    0    0  0.33475361783E+01  0.20311687621E+01  0.78613201191E+01  0.87824825239E+01  0.51100000000E-03 0. -1.
        -11    1    3    3    0    0 -0.32556974471E+02  0.20529851463E+02  0.24367698711E+01  0.38566426273E+02  0.51100000000E-03 0.  1.
         12    1    3    3    0    0  0.41834584581E+00 -0.11809047487E+02 -0.18015869530E+01  0.11953005117E+02  0.00000000000E+00 0. -1.
</event>
<event>
 7    1  0.6963701E-013  0.5930194E+02  0.7816164E-02  0.1266605E+00
        -11   -1    0    0    0    0  0.00000000000E+00  0.00000000000E+00  0.45593999997E+02  0.45594000000E+02  0.51100000000E-03 0.  1.
         11   -1    0    0    0    0 -0.00000000000E+00 -0.00000000000E+00 -0.45593999997E+02  0.45594000000E+02  0.51100000000E-03 0. -1.
    9900012    2    1    2    0    0  0.10158874018E+02 -0.26966492697E+02  0.13650134929E+02  0.59301942964E+02  0.49999998060E+02 0.  0.
         12    1    1    2    0    0 -0.10158874018E+02  0.26966492697E+02 -0.13650134929E+02  0.31886057036E+02  0.00000000000E+00 0. -1.
         11    1    3    3    0    0  0.13132781795E+02 -0.10330681632E+01  0.29042742007E+01  0.13489699641E+02  0.51100000000E-03 0. -1.
        -11    1    3    3    0    0 -0.52976728451E+01  0.21592885395E+01  0.16129589287E+02  0.17114073606E+02  0.51100000000E-03 0.  1.
         12    1    3    3    0    0  0.23237650680E+01 -0.28092713074E+02 -0.53837285579E+01  0.28698169717E+02  0.00000000000E+00 0. -1.
</event>
<event>
 7    1  0.6963701E-013  0.5930196E+02  0.7816164E-02  0.1266605E+00
        -11   -1    0    0    0    0  0.00000000000E+00  0.00000000000E+00  0.45593999997E+02  0.45594000000E+02  0.51100000000E-03 0.  1.
         11   -1    0    0    0    0 -0.00000000000E+00 -0.00000000000E+00 -0.45593999997E+02  0.45594000000E+02  0.51100000000E-03 0. -1.
    9900012    2    1    2    0    0  0.23933881363E+02  0.70950186522E+01  0.19838086897E+02  0.59301958250E+02  0.50000025938E+02 0.  0.
         12    1    1    2    0    0 -0.23933881363E+02 -0.70950186522E+01 -0.19838086897E+02  0.31886041750E+02  0.00000000000E+00 0. -1.
         11    1    3    3    0    0 -0.10632918677E+02 -0.42252670256E+01  0.10502579186E+02  0.15531130379E+02  0.51100000000E-03 0. -1.
        -11    1    3    3    0    0  0.63660452433E+01 -0.39316198797E+01 -0.46314742801E+01  0.87997000624E+01  0.51100000000E-03 0.  1.
        -12    1    3    3    0    0  0.28200754797E+02  0.15251905557E+02  0.13966981991E+02  0.34971127808E+02  0.00000000000E+00 0.  1.
</event>
<event>
 7    1  0.6963701E-013  0.5930194E+02  0.7816164E-02  0.1266605E+00
        -11   -1    0    0    0    0  0.00000000000E+00  0.00000000000E+00  0.45593999997E+02  0.45594000000E+02  0.51100000000E-03 0.  1.
         11   -1    0    0    0    0 -0.00000000000E+00 -0.00000000000E+00 -0.45593999997E+02  0.45594000000E+02  0.51100000000E-03 0. -1.
    9900012    2    1    2    0    0  0.71889247553E+01  0.22282816344E+02  0.21645235661E+02  0.59301940818E+02  0.49999994146E+02 0.  0.
         12    1    1    2    0    0 -0.71889247553E+01 -0.22282816344E+02 -0.21645235661E+02  0.31886059182E+02  0.00000000000E+00 0. -1.
         11    1    3    3    0    0 -0.47975663751E+01  0.23314636200E+02  0.23317186375E+01  0.23917061198E+02  0.51100000000E-03 0.  1.
        -11    1    3    3    0    0  0.73374384678E+01  0.49112064374E+01 -0.48478600853E+01  0.10072720566E+02  0.51100000000E-03 0. -1.
        -12    1    3    3    0    0  0.46490526626E+01 -0.59430262934E+01  0.24161377108E+02  0.25312159054E+02  0.00000000000E+00 0.  1.
</event>
<event>
 7    1  0.6963701E-013  0.5930199E+02  0.7816164E-02  0.1266605E+00
        -11   -1    0    0    0    0  0.00000000000E+00  0.00000000000E+00  0.45593999997E+02  0.45594000000E+02  0.51100000000E-03 0.  1.
         11   -1    0    0    0    0 -0.00000000000E+00 -0.00000000000E+00 -0.45593999997E+02  0.45594000000E+02  0.51100000000E-03 0. -1.
    9900012    2    1    2    0    0  0.20679109775E+02 -0.22686850102E+02  0.86254931306E+01  0.59301986132E+02  0.50000076787E+02 0.  0.
         12    1    1    2    0    0 -0.20679109775E+02  0.22686850102E+02 -0.86254931306E+01  0.31886013868E+02  0.00000000000E+00 0. -1.
         11    1    3    3    0    0  0.20729142850E+01 -0.30735443037E+00 -0.40006067828E+00  0.21334219428E+01  0.51100000000E-03 0. -1.
        -11    1    3    3    0    0  0.26340723687E+02 -0.14956146230E+02  0.24073914749E+02  0.38692032849E+02  0.51100000000E-03 0.  1.
         12    1    3    3    0    0 -0.77345281965E+01 -0.74233494416E+01 -0.15048360940E+02  0.18476531339E+02  0.00000000000E+00 0. -1.
</event>
<event>
 7    1  0.6963701E-013  0.5930193E+02  0.7816164E-02  0.1266605E+00
        -11   -1    0    0    0    0  0.00000000000E+00  0.00000000000E+00  0.45593999997E+02  0.45594000000E+02  0.51100000000E-03 0.  1.
         11   -1    0    0    0    0 -0.00000000000E+00 -0.00000000000E+00 -0.45593999997E+02  0.45594000000E+02  0.51100000000E-03 0. -1.
    9900012    2    1    2    0    0 -0.18357111978E+02  0.12054772895E+02  0.23117529769E+02  0.59301932630E+02  0.49999979213E+02 0.  0.
         12    1    1    2    0    0  0.18357111978E+02 -0.12054772895E+02 -0.23117529769E+02  0.31886067370E+02  0.00000000000E+00 0. -1.
         11    1    3    3    0    0 -0.93686480192E+01  0.15876161689E+00  0.12158770566E+02  0.15350324847E+02  0.51100000000E-03 0. -1.
        -11    1    3    3    0    0 -0.13818590638E+02  0.22317627202E+02  0.16698756828E+02  0.31110744302E+02  0.51100000000E-03 0.  1.
         12    1    3    3    0    0  0.48301266795E+01 -0.10421615924E+02 -0.57399976249E+01  0.12840863481E+02  0.00000000000E+00 0. -1.
</event>
<event>
 7    1  0.6963701E-013  0.5930196E+02  0.7816164E-02  0.1266605E+00
        -11   -1    0    0    0    0  0.00000000000E+00  0.00000000000E+00  0.45593999997E+02  0.45594000000E+02  0.51100000000E-03 0.  1.
         11   -1    0    0    0    0 -0.00000000000E+00 -0.00000000000E+00 -0.45593999997E+02  0.45594000000E+02  0.51100000000E-03 0. -1.
    9900012    2    1    2    0    0  0.17774975790E+02  0.45900426623E+00  0.26468076116E+02  0.59301960695E+02  0.50000030398E+02 0.  0.
         12    1    1    2    0    0 -0.17774975790E+02 -0.45900426623E+00 -0.26468076116E+02  0.31886039305E+02  0.00000000000E+00 0. -1.
         11    1    3    3    0    0  0.20439502873E+02  0.13942929832E+01  0.11313650315E+02  0.23403333402E+02  0.51100000000E-03 0. -1.
        -11    1    3    3    0    0 -0.13648157476E+01  0.13529346392E+02  0.16421340471E+02  0.21320561881E+02  0.51100000000E-03 0.  1.
         12    1    3    3    0    0 -0.12997113348E+01 -0.14464635109E+02 -0.12669146704E+01  0.14578065412E+02  0.00000000000E+00 0. -1.
</event>
<event>
 7    1  0.6963701E-013  0.5930194E+02  0.7816164E-02  0.1266605E+00
        -11   -1    0    0    0    0  0.00000000000E+00  0.00000000000E+00  0.45593999997E+02  0.45594000000E+02  0.51100000000E-03 0. -1.
         11   -1    0    0    0    0 -0.00000000000E+00 -0.00000000000E+00 -0.45593999997E+02  0.45594000000E+02  0.51100000000E-03 0.  1.
    9900012    2    1    2    0    0 -0.74310967650E+01  0.65382337442E+01 -0.30310903725E+02  0.59301943733E+02  0.49999999463E+02 0.  0.
         12    1    1    2    0    0  0.74310967650E+01 -0.65382337442E+01  0.30310903725E+02  0.31886056267E+02  0.00000000000E+00 0. -1.
         11    1    3    3    0    0 -0.15526019522E+02 -0.32013571321E+01 -0.88091721301E+01  0.18135806670E+02  0.51100000000E-03 0. -1.
        -11    1    3    3    0    0 -0.93953210455E+01  0.98056657539E+01 -0.17079101714E+00  0.13581322036E+02  0.51100000000E-03 0.  1.
         12    1    3    3    0    0  0.17490243802E+02 -0.66074877542E-01 -0.21330940578E+02  0.27584815027E+02  0.00000000000E+00 0. -1.
</event>
<event>
 7    1  0.6963701E-013  0.5930201E+02  0.7816164E-02  0.1266605E+00
        -11   -1    0    0    0    0  0.00000000000E+00  0.00000000000E+00  0.45593999997E+02  0.45594000000E+02  0.51100000000E-03 0.  1.
         11   -1    0    0    0    0 -0.00000000000E+00 -0.00000000000E+00 -0.45593999997E+02  0.45594000000E+02  0.51100000000E-03 0. -1.
    9900012    2    1    2    0    0  0.14148367932E+01  0.96598272424E+01  0.30354610514E+02  0.59302009268E+02  0.50000118982E+02 0.  0.
         12    1    1    2    0    0 -0.14148367932E+01 -0.96598272424E+01 -0.30354610514E+02  0.31885990732E+02  0.00000000000E+00 0. -1.
         11    1    3    3    0    0 -0.55132371041E+00  0.38091513584E+01  0.84550887096E+01  0.92898932854E+01  0.51100000000E-03 0. -1.
        -11    1    3    3    0    0 -0.65070261355E+01  0.12980831250E+02  0.31926295698E+02  0.35073233759E+02  0.51100000000E-03 0.  1.
         12    1    3    3    0    0  0.84731866391E+01 -0.71301553663E+01 -0.10026773894E+02  0.14938882223E+02  0.00000000000E+00 0. -1.
</event>
<event>
 7    1  0.6963701E-013  0.5930204E+02  0.7816164E-02  0.1266604E+00
        -11   -1    0    0    0    0  0.00000000000E+00  0.00000000000E+00  0.45593999997E+02  0.45594000000E+02  0.51100000000E-03 0.  1.
         11   -1    0    0    0    0 -0.00000000000E+00 -0.00000000000E+00 -0.45593999997E+02  0.45594000000E+02  0.51100000000E-03 0. -1.
    9900012    2    1    2    0    0  0.26172661187E+02 -0.15105816038E+02  0.10174519445E+02  0.59302035725E+02  0.50000167234E+02 0.  0.
         12    1    1    2    0    0 -0.26172661187E+02  0.15105816038E+02 -0.10174519445E+02  0.31885964275E+02  0.00000000000E+00 0. -1.
         11    1    3    3    0    0  0.10527558908E+02  0.51632242278E+01 -0.17106686694E+01  0.11849673773E+02  0.51100000000E-03 0. -1.
        -11    1    3    3    0    0  0.93313028921E+01  0.10001367843E+02 -0.14946787936E+01  0.13759892345E+02  0.51100000000E-03 0.  1.
        -12    1    3    3    0    0  0.63137993874E+01 -0.30270408109E+02  0.13379866908E+02  0.33692469607E+02  0.00000000000E+00 0.  1.
</event>
<event>
 7    1  0.6963701E-013  0.5930191E+02  0.7816164E-02  0.1266605E+00
        -11   -1    0    0    0    0  0.00000000000E+00  0.00000000000E+00  0.45593999997E+02  0.45594000000E+02  0.51100000000E-03 0.  1.
         11   -1    0    0    0    0 -0.00000000000E+00 -0.00000000000E+00 -0.45593999997E+02  0.45594000000E+02  0.51100000000E-03 0. -1.
    9900012    2    1    2    0    0 -0.89807426047E+01  0.16721578502E+02  0.25621438088E+02  0.59301905616E+02  0.49999929947E+02 0.  0.
         12    1    1    2    0    0  0.89807426047E+01 -0.16721578502E+02 -0.25621438088E+02  0.31886094384E+02  0.00000000000E+00 0. -1.
         11    1    3    3    0    0 -0.55502344700E+01 -0.67938065122E+01  0.11620718845E+01  0.88493683912E+01  0.51100000000E-03 0. -1.
        -11    1    3    3    0    0  0.25407896114E+01  0.30436872881E+02  0.79165072666E+01  0.31552019431E+02  0.51100000000E-03 0.  1.
         12    1    3    3    0    0 -0.59712977461E+01 -0.69214878666E+01  0.16542858937E+02  0.18900517794E+02  0.00000000000E+00 0. -1.
</event>
<event>
 7    1  0.6963701E-013  0.5930197E+02  0.7816164E-02  0.1266605E+00
        -11   -1    0    0    0    0  0.00000000000E+00  0.00000000000E+00  0.45593999997E+02  0.45594000000E+02  0.51100000000E-03 0.  1.
         11   -1    0    0    0    0 -0.00000000000E+00 -0.00000000000E+00 -0.45593999997E+02  0.45594000000E+02  0.51100000000E-03 0. -1.
    9900012    2    1    2    0    0  0.54420329576E+01 -0.12074432072E+02  0.29005366736E+02  0.59301969640E+02  0.50000046711E+02 0.  0.
         12    1    1    2    0    0 -0.54420329576E+01  0.12074432072E+02 -0.29005366736E+02  0.31886030360E+02  0.00000000000E+00 0. -1.
         11    1    3    3    0    0 -0.10375849237E+02 -0.10135093199E+02  0.36045929237E+01  0.14945616480E+02  0.51100000000E-03 0. -1.
        -11    1    3    3    0    0  0.10724241814E+02 -0.10736342799E+02 -0.18349401890E+01  0.15285464499E+02  0.51100000000E-03 0.  1.
        -12    1    3    3    0    0  0.50936403812E+01  0.87970039262E+01  0.27235714002E+02  0.29070888662E+02  0.00000000000E+00 0.  1.
</event>
<event>
 7    1  0.6963701E-013  0.5930194E+02  0.7816164E-02  0.1266605E+00
        -11   -1    0    0    0    0  0.00000000000E+00  0.00000000000E+00  0.45593999997E+02  0.45594000000E+02  0.51100000000E-03 0.  1.
         11   -1    0    0    0    0 -0.00000000000E+00 -0.00000000000E+00 -0.45593999997E+02  0.45594000000E+02  0.51100000000E-03 0. -1.
    9900012    2    1    2    0    0 -0.21618952002E+01  0.32631935404E+01  0.31644881677E+02  0.59301940988E+02  0.49999994457E+02 0.  0.
         12    1    1    2    0    0  0.21618952002E+01 -0.32631935404E+01 -0.31644881677E+02  0.31886059012E+02  0.00000000000E+00 0. -1.
         11    1    3    3    0    0 -0.64458821405E+01  0.18296325372E+01 -0.78345227978E+01  0.10309059100E+02  0.51100000000E-03 0. -1.
        -11    1    3    3    0    0  0.15223732131E+02  0.30753974467E+00  0.11975834053E+02  0.19372072739E+02  0.51100000000E-03 0.  1.
         12    1    3    3    0    0 -0.10939745191E+02  0.11260212585E+01  0.27503570422E+02  0.29620809149E+02  0.00000000000E+00 0. -1.
</event>
<event>
 7    1  0.6963701E-013  0.5930194E+02  0.7816164E-02  0.1266605E+00
        -11   -1    0    0    0    0  0.00000000000E+00  0.00000000000E+00  0.45593999997E+02  0.45594000000E+02  0.51100000000E-03 0.  1.
         11   -1    0    0    0    0 -0.00000000000E+00 -0.00000000000E+00 -0.45593999997E+02  0.45594000000E+02  0.51100000000E-03 0. -1.
    9900012    2    1    2    0    0  0.15614498155E+02 -0.76896702538E+01  0.26716603942E+02  0.59301944937E+02  0.50000001659E+02 0.  0.
         12    1    1    2    0    0 -0.15614498155E+02  0.76896702538E+01 -0.26716603942E+02  0.31886055063E+02  0.00000000000E+00 0. -1.
         11    1    3    3    0    0  0.10560251418E+02 -0.13406671557E+01 -0.11942741348E+02  0.15998292709E+02  0.51100000000E-03 0. -1.
        -11    1    3    3    0    0 -0.13539097036E+01  0.55006169286E+01  0.78752954697E+01  0.97010379381E+01  0.51100000000E-03 0.  1.
        -12    1    3    3    0    0  0.64081564403E+01 -0.11849620027E+02  0.30784049821E+02  0.33602614290E+02  0.00000000000E+00 0.  1.
</event>
<event>
 7    1  0.6963701E-013  0.5930193E+02  0.7816164E-02  0.1266605E+00
        -11   -1    0    0    0    0  0.00000000000E+00  0.00000000000E+00  0.45593999997E+02  0.45594000000E+02  0.51100000000E-03 0.  1.
         11   -1    0    0    0    0 -0.00000000000E+00 -0.00000000000E+00 -0.45593999997E+02  0.45594000000E+02  0.51100000000E-03 0. -1.
    9900012    2    1    2    0    0  0.19445697083E+02  0.73052834825E+01  0.24191297934E+02  0.59301934117E+02  0.49999981925E+02 0.  0.
         12    1    1    2    0    0 -0.19445697083E+02 -0.73052834825E+01 -0.24191297934E+02  0.31886065883E+02  0.00000000000E+00 0. -1.
         11    1    3    3    0    0  0.16818806970E+02 -0.96805689126E+01  0.16407054573E+02  0.25412145175E+02  0.51100000000E-03 0. -1.
        -11    1    3    3    0    0  0.11886586447E+02  0.72886704774E+01  0.13413608014E+02  0.19347881923E+02  0.51100000000E-03 0.  1.
         12    1    3    3    0    0 -0.92596963338E+01  0.96971819178E+01 -0.56293646535E+01  0.14541907019E+02  0.00000000000E+00 0. -1.
</event>
<event>
 7    1  0.6963701E-013  0.5930201E+02  0.7816164E-02  0.1266605E+00
        -11   -1    0    0    0    0  0.00000000000E+00  0.00000000000E+00  0.45593999997E+02  0.45594000000E+02  0.51100000000E-03 0.  1.
         11   -1    0    0    0    0 -0.00000000000E+00 -0.00000000000E+00 -0.45593999997E+02  0.45594000000E+02  0.51100000000E-03 0. -1.
    9900012    2    1    2    0    0  0.18329582937E+02  0.22993855430E+02  0.12329857957E+02  0.59302009418E+02  0.50000119256E+02 0.  0.
         12    1    1    2    0    0 -0.18329582937E+02 -0.22993855430E+02 -0.12329857957E+02  0.31885990582E+02  0.00000000000E+00 0. -1.
         11    1    3    3    0    0 -0.31348916077E+01  0.63762443451E+01 -0.14344520273E+02  0.16007788712E+02  0.51100000000E-03 0. -1.
        -11    1    3    3    0    0  0.32259914835E+01 -0.44166838797E+01  0.12918571380E+01  0.56198765708E+01  0.51100000000E-03 0.  1.
        -12    1    3    3    0    0  0.18238483061E+02  0.21034294964E+02  0.25382521092E+02  0.37674344135E+02  0.00000000000E+00 0.  1.
</event>
<event>
 7    1  0.6963701E-013  0.5930194E+02  0.7816164E-02  0.1266605E+00
        -11   -1    0    0    0    0  0.00000000000E+00  0.00000000000E+00  0.45593999997E+02  0.45594000000E+02  0.51100000000E-03 0.  1.
         11   -1    0    0    0    0 -0.00000000000E+00 -0.00000000000E+00 -0.45593999997E+02  0.45594000000E+02  0.51100000000E-03 0. -1.
    9900012    2    1    2    0    0  0.98405295053E+01 -0.32787174758E+01  0.30151861959E+02  0.59301940526E+02  0.49999993613E+02 0.  0.
         12    1    1    2    0    0 -0.98405295053E+01  0.32787174758E+01 -0.30151861959E+02  0.31886059474E+02  0.00000000000E+00 0. -1.
         11    1    3    3    0    0  0.46532251120E+01 -0.27629343765E+01 -0.91008041678E+01  0.10588245703E+02  0.51100000000E-03 0.  1.
        -11    1    3    3    0    0 -0.40889518288E+01  0.11854335464E+02  0.11867461556E+02  0.17265035199E+02  0.51100000000E-03 0. -1.
        -12    1    3    3    0    0  0.92762562221E+01 -0.12370118564E+02  0.27385204570E+02  0.31448659623E+02  0.00000000000E+00 0.  1.
</event>
<event>
 7    1  0.6963701E-013  0.5930188E+02  0.7816164E-02  0.1266605E+00
        -11   -1    0    0    0    0  0.00000000000E+00  0.00000000000E+00  0.45593999997E+02  0.45594000000E+02  0.51100000000E-03 0. -1.
         11   -1    0    0    0    0 -0.00000000000E+00 -0.00000000000E+00 -0.45593999997E+02  0.45594000000E+02  0.51100000000E-03 0.  1.
    9900012    2    1    2    0    0 -0.28353921018E+02 -0.11673700698E+02 -0.87466804250E+01  0.59301881649E+02  0.49999886235E+02 0.  0.
         12    1    1    2    0    0  0.28353921018E+02  0.11673700698E+02  0.87466804250E+01  0.31886118351E+02  0.00000000000E+00 0. -1.
         11    1    3    3    0    0 -0.63835722919E+01  0.88432260025E+01 -0.14612386987E+01  0.11003992918E+02  0.51100000000E-03 0. -1.
        -11    1    3    3    0    0 -0.22483975237E+02 -0.44812569024E+01 -0.17877805186E+02  0.29072783225E+02  0.51100000000E-03 0.  1.
         12    1    3    3    0    0  0.51362651144E+00 -0.16035669798E+02  0.10592363460E+02  0.19225105506E+02  0.00000000000E+00 0. -1.
</event>
<event>
 7    1  0.6963701E-013  0.5930176E+02  0.7816164E-02  0.1266605E+00
        -11   -1    0    0    0    0  0.00000000000E+00  0.00000000000E+00  0.45593999997E+02  0.45594000000E+02  0.51100000000E-03 0.  1.
         11   -1    0    0    0    0 -0.00000000000E+00 -0.00000000000E+00 -0.45593999997E+02  0.45594000000E+02  0.51100000000E-03 0. -1.
    9900012    2    1    2    0    0 -0.25771289571E+01 -0.31770092882E+02  0.86716902671E+00  0.59301758805E+02  0.49999662198E+02 0.  0.
         12    1    1    2    0    0  0.25771289571E+01  0.31770092882E+02 -0.86716902671E+00  0.31886241195E+02  0.00000000000E+00 0. -1.
         11    1    3    3    0    0 -0.84010906531E+01 -0.63718815017E+01 -0.17430877683E+02  0.20371909461E+02  0.51100000000E-03 0. -1.
        -11    1    3    3    0    0 -0.40426239538E+01 -0.16897831332E+02  0.11714489097E+01  0.17414126592E+02  0.51100000000E-03 0.  1.
         12    1    3    3    0    0  0.98665856497E+01 -0.85003800482E+01  0.17126597800E+02  0.21515722752E+02  0.00000000000E+00 0. -1.
</event>
<event>
 7    1  0.6963701E-013  0.5930194E+02  0.7816164E-02  0.1266605E+00
        -11   -1    0    0    0    0  0.00000000000E+00  0.00000000000E+00  0.45593999997E+02  0.45594000000E+02  0.51100000000E-03 0.  1.
         11   -1    0    0    0    0 -0.00000000000E+00 -0.00000000000E+00 -0.45593999997E+02  0.45594000000E+02  0.51100000000E-03 0. -1.
    9900012    2    1    2    0    0 -0.21391670897E+01 -0.77125262546E+01  0.30865221547E+02  0.59301937242E+02  0.49999987624E+02 0.  0.
         12    1    1    2    0    0  0.21391670897E+01  0.77125262546E+01 -0.30865221547E+02  0.31886062758E+02  0.00000000000E+00 0. -1.
         11    1    3    3    0    0  0.81804219121E+01 -0.64975015994E+01  0.12725553306E+01  0.10524078441E+02  0.51100000000E-03 0. -1.
        -11    1    3    3    0    0 -0.42828285095E+01  0.13962555613E+02 -0.41733032712E+00  0.14610603825E+02  0.51100000000E-03 0.  1.
        -12    1    3    3    0    0 -0.60367604922E+01 -0.15177580268E+02  0.30009996544E+02  0.34167254976E+02  0.00000000000E+00 0.  1.
</event>
<event>
 7    1  0.6963701E-013  0.5930195E+02  0.7816164E-02  0.1266605E+00
        -11   -1    0    0    0    0  0.00000000000E+00  0.00000000000E+00  0.45593999997E+02  0.45594000000E+02  0.51100000000E-03 0.  1.
         11   -1    0    0    0    0 -0.00000000000E+00 -0.00000000000E+00 -0.45593999997E+02  0.45594000000E+02  0.51100000000E-03 0. -1.
    9900012    2    1    2    0    0 -0.28585973819E+02 -0.56470135007E+01 -0.12948873632E+02  0.59301953067E+02  0.50000016486E+02 0.  0.
         12    1    1    2    0    0  0.28585973819E+02  0.56470135007E+01  0.12948873632E+02  0.31886046933E+02  0.00000000000E+00 0. -1.
         11    1    3    3    0    0  0.59704955972E+01 -0.11696327395E+02 -0.91438497958E+00  0.13163851730E+02  0.51100000000E-03 0. -1.
        -11    1    3    3    0    0 -0.58190010145E+01  0.23054303515E+01  0.85464551264E+01  0.10593284543E+02  0.51100000000E-03 0.  1.
         12    1    3    3    0    0 -0.28737468402E+02  0.37438835433E+01 -0.20580943779E+02  0.35544816795E+02  0.00000000000E+00 0. -1.
</event>
<event>
 7    1  0.6963701E-013  0.5930194E+02  0.7816164E-02  0.1266605E+00
        -11   -1    0    0    0    0  0.00000000000E+00  0.00000000000E+00  0.45593999997E+02  0.45594000000E+02  0.51100000000E-03 0. -1.
         11   -1    0    0    0    0 -0.00000000000E+00 -0.00000000000E+00 -0.45593999997E+02  0.45594000000E+02  0.51100000000E-03 0.  1.
    9900012    2    1    2    0    0 -0.28086709117E+02 -0.91242707300E+00 -0.15067342248E+02  0.59301944198E+02  0.50000000310E+02 0.  0.
         12    1    1    2    0    0  0.28086709117E+02  0.91242707300E+00  0.15067342248E+02  0.31886055802E+02  0.00000000000E+00 0. -1.
         11    1    3    3    0    0  0.47439826248E+01 -0.69120047782E+01  0.43918670180E+01  0.94641258108E+01  0.51100000000E-03 0. -1.
        -11    1    3    3    0    0 -0.44661175324E+01  0.15363579444E+02 -0.73333153227E+01  0.17600093551E+02  0.51100000000E-03 0.  1.
        -12    1    3    3    0    0 -0.28364574210E+02 -0.93640017386E+01 -0.12125893943E+02  0.32237724836E+02  0.00000000000E+00 0.  1.
</event>
<event>
 7    1  0.6963701E-013  0.5930198E+02  0.7816164E-02  0.1266605E+00
        -11   -1    0    0    0    0  0.00000000000E+00  0.00000000000E+00  0.45593999997E+02  0.45594000000E+02  0.51100000000E-03 0. -1.
         11   -1    0    0    0    0 -0.00000000000E+00 -0.00000000000E+00 -0.45593999997E+02  0.45594000000E+02  0.51100000000E-03 0.  1.
    9900012    2    1    2    0    0 -0.26018420087E+01 -0.21468966294E+02 -0.23431437101E+02  0.59301978922E+02  0.50000063638E+02 0.  0.
         12    1    1    2    0    0  0.26018420087E+01  0.21468966294E+02  0.23431437101E+02  0.31886021078E+02  0.00000000000E+00 0. -1.
         11    1    3    3    0    0  0.10577387509E+02  0.52966286626E+00 -0.80604657143E+01  0.13309123828E+02  0.51100000000E-03 0.  1.
        -11    1    3    3    0    0  0.11877176442E+02 -0.67679877041E+01 -0.21909037952E+01  0.13844603190E+02  0.51100000000E-03 0. -1.
         12    1    3    3    0    0 -0.25056405959E+02 -0.15230641456E+02 -0.13180067592E+02  0.32148251904E+02  0.00000000000E+00 0. -1.
</event>
<event>
 7    1  0.6963701E-013  0.5930195E+02  0.7816164E-02  0.1266605E+00
        -11   -1    0    0    0    0  0.00000000000E+00  0.00000000000E+00  0.45593999997E+02  0.45594000000E+02  0.51100000000E-03 0.  1.
         11   -1    0    0    0    0 -0.00000000000E+00 -0.00000000000E+00 -0.45593999997E+02  0.45594000000E+02  0.51100000000E-03 0. -1.
    9900012    2    1    2    0    0 -0.14306984563E+02 -0.81378206804E+00  0.28484526500E+02  0.59301948215E+02  0.50000007636E+02 0.  0.
         12    1    1    2    0    0  0.14306984563E+02  0.81378206804E+00 -0.28484526500E+02  0.31886051785E+02  0.00000000000E+00 0. -1.
         11    1    3    3    0    0  0.26824218305E+01 -0.13398300858E+02 -0.53832030917E+01  0.14686344969E+02  0.51100000000E-03 0. -1.
        -11    1    3    3    0    0 -0.40305884157E+01 -0.16750394397E+01 -0.12663630543E+01  0.45447855557E+01  0.51100000000E-03 0.  1.
        -12    1    3    3    0    0 -0.12958817977E+02  0.14259558230E+02  0.35134092646E+02  0.40070817690E+02  0.00000000000E+00 0.  1.
</event>
<event>
 7    1  0.6963701E-013  0.5930195E+02  0.7816164E-02  0.1266605E+00
        -11   -1    0    0    0    0  0.00000000000E+00  0.00000000000E+00  0.45593999997E+02  0.45594000000E+02  0.51100000000E-03 0.  1.
         11   -1    0    0    0    0 -0.00000000000E+00 -0.00000000000E+00 -0.45593999997E+02  0.45594000000E+02  0.51100000000E-03 0. -1.
    9900012    2    1    2    0    0  0.99010625219E+01 -0.20363581256E+02  0.22450246552E+02  0.59301952097E+02  0.50000014716E+02 0.  0.
         12    1    1    2    0    0 -0.99010625219E+01  0.20363581256E+02 -0.22450246552E+02  0.31886047903E+02  0.00000000000E+00 0. -1.
         11    1    3    3    0    0  0.15942596633E+02 -0.17022045083E+02 -0.52612539515E+01  0.23908099038E+02  0.51100000000E-03 0. -1.
        -11    1    3    3    0    0  0.16450121673E+01 -0.19368641948E+01 -0.28679931777E+01  0.38318263358E+01  0.51100000000E-03 0.  1.
         12    1    3    3    0    0 -0.76865462787E+01 -0.14046719784E+01  0.30579493681E+02  0.31562026723E+02  0.00000000000E+00 0. -1.
</event>
<event>
 7    1  0.6963701E-013  0.5930196E+02  0.7816164E-02  0.1266605E+00
        -11   -1    0    0    0    0  0.00000000000E+00  0.00000000000E+00  0.45593999997E+02  0.45594000000E+02  0.51100000000E-03 0. -1.
         11   -1    0    0    0    0 -0.00000000000E+00 -0.00000000000E+00 -0.45593999997E+02  0.45594000000E+02  0.51100000000E-03 0.  1.
    9900012    2    1    2    0    0  0.24146700562E+02  0.19336324400E+02  0.77306401000E+01  0.59301962528E+02  0.50000033739E+02 0.  0.
         12    1    1    2    0    0 -0.24146700562E+02 -0.19336324400E+02 -0.77306401000E+01  0.31886037472E+02  0.00000000000E+00 0. -1.
         11    1    3    3    0    0  0.61474688404E+01 -0.14322357883E+01 -0.25133271708E+01  0.67940772902E+01  0.51100000000E-03 0. -1.
        -11    1    3    3    0    0  0.19717021994E+02  0.33347024810E+02  0.65826379260E+01  0.39295243253E+02  0.51100000000E-03 0.  1.
         12    1    3    3    0    0 -0.17177902721E+01 -0.12578464621E+02  0.36613293448E+01  0.13212641985E+02  0.00000000000E+00 0. -1.
</event>
<event>
 7    1  0.6963701E-013  0.5930194E+02  0.7816164E-02  0.1266605E+00
        -11   -1    0    0    0    0  0.00000000000E+00  0.00000000000E+00  0.45593999997E+02  0.45594000000E+02  0.51100000000E-03 0.  1.
         11   -1    0    0    0    0 -0.00000000000E+00 -0.00000000000E+00 -0.45593999997E+02  0.45594000000E+02  0.51100000000E-03 0. -1.
    9900012    2    1    2    0    0 -0.21269600523E+02 -0.20695625228E+02  0.11662584090E+02  0.59301942269E+02  0.49999996793E+02 0.  0.
         12    1    1    2    0    0  0.21269600523E+02  0.20695625228E+02 -0.11662584090E+02  0.31886057731E+02  0.00000000000E+00 0. -1.
         11    1    3    3    0    0 -0.18165799425E+02  0.87794094936E+01  0.12990359680E+02  0.23996327733E+02  0.51100000000E-03 0. -1.
        -11    1    3    3    0    0 -0.36864738340E+01 -0.47198341687E+00  0.43760114716E+01  0.57412833352E+01  0.51100000000E-03 0.  1.
         12    1    3    3    0    0  0.58267273596E+00 -0.29003051304E+02 -0.57037870622E+01  0.29564331200E+02  0.00000000000E+00 0. -1.
</event>
<event>
 7    1  0.6963701E-013  0.5930198E+02  0.7816164E-02  0.1266605E+00
        -11   -1    0    0    0    0  0.00000000000E+00  0.00000000000E+00  0.45593999997E+02  0.45594000000E+02  0.51100000000E-03 0.  1.
         11   -1    0    0    0    0 -0.00000000000E+00 -0.00000000000E+00 -0.45593999997E+02  0.45594000000E+02  0.51100000000E-03 0. -1.
    9900012    2    1    2    0    0 -0.17875562601E+02 -0.51652329495E+01  0.25894074011E+02  0.59301977379E+02  0.50000060824E+02 0.  0.
         12    1    1    2    0    0  0.17875562601E+02  0.51652329495E+01 -0.25894074011E+02  0.31886022621E+02  0.00000000000E+00 0. -1.
         11    1    3    3    0    0  0.58629864724E+01  0.43004701075E+01 -0.35657212611E+01  0.80983345136E+01  0.51100000000E-03 0. -1.
        -11    1    3    3    0    0 -0.14835953097E+02 -0.18586722196E+02  0.60344900433E+01  0.24535419634E+02  0.51100000000E-03 0.  1.
         12    1    3    3    0    0 -0.89025959768E+01  0.91210191388E+01  0.23425305228E+02  0.26668223231E+02  0.00000000000E+00 0. -1.
</event>
<event>
 7    1  0.6963701E-013  0.5930194E+02  0.7816164E-02  0.1266605E+00
        -11   -1    0    0    0    0  0.00000000000E+00  0.00000000000E+00  0.45593999997E+02  0.45594000000E+02  0.51100000000E-03 0.  1.
         11   -1    0    0    0    0 -0.00000000000E+00 -0.00000000000E+00 -0.45593999997E+02  0.45594000000E+02  0.51100000000E-03 0. -1.
    9900012    2    1    2    0    0  0.28381644773E+02  0.76350225646E+01 -0.12365667833E+02  0.59301936108E+02  0.49999985557E+02 0.  0.
         12    1    1    2    0    0 -0.28381644773E+02 -0.76350225646E+01  0.12365667833E+02  0.31886063892E+02  0.00000000000E+00 0. -1.
         11    1    3    3    0    0  0.62286181573E+01 -0.20796623516E+01  0.54843906909E+01  0.85556543384E+01  0.51100000000E-03 0. -1.
        -11    1    3    3    0    0  0.31448068981E+02  0.16899732213E+02 -0.12378983009E+02  0.37786521567E+02  0.51100000000E-03 0.  1.
         12    1    3    3    0    0 -0.92950423658E+01 -0.71850472965E+01 -0.54710755147E+01  0.12959760203E+02  0.00000000000E+00 0. -1.
</event>
<event>
 7    1  0.6963701E-013  0.5930191E+02  0.7816164E-02  0.1266605E+00
        -11   -1    0    0    0    0  0.00000000000E+00  0.00000000000E+00  0.45593999997E+02  0.45594000000E+02  0.51100000000E-03 0. -1.
         11   -1    0    0    0    0 -0.00000000000E+00 -0.00000000000E+00 -0.45593999997E+02  0.45594000000E+02  0.51100000000E-03 0.  1.
    9900012    2    1    2    0    0  0.18073167198E+01 -0.31278502972E+02 -0.59255040487E+01  0.59301909927E+02  0.49999937809E+02 0.  0.
         12    1    1    2    0    0 -0.18073167198E+01  0.31278502972E+02  0.59255040487E+01  0.31886090073E+02  0.00000000000E+00 0. -1.
         11    1    3    3    0    0 -0.15209897394E+01  0.91194161460E+01  0.80493674971E+01  0.12258445170E+02  0.51100000000E-03 0. -1.
        -11    1    3    3    0    0  0.80597938688E+01 -0.78826320914E+01  0.15897050452E+00  0.11274814312E+02  0.51100000000E-03 0.  1.
        -12    1    3    3    0    0 -0.47314874096E+01 -0.32515287027E+02 -0.14133842050E+02  0.35768650445E+02  0.00000000000E+00 0.  1.
</event>
<event>
 7    1  0.6963701E-013  0.5930193E+02  0.7816164E-02  0.1266605E+00
        -11   -1    0    0    0    0  0.00000000000E+00  0.00000000000E+00  0.45593999997E+02  0.45594000000E+02  0.51100000000E-03 0. -1.
         11   -1    0    0    0    0 -0.00000000000E+00 -0.00000000000E+00 -0.45593999997E+02  0.45594000000E+02  0.51100000000E-03 0.  1.
    9900012    2    1    2    0    0 -0.25773879558E+02 -0.16006490449E+02 -0.98092132423E+01  0.59301933005E+02  0.49999979898E+02 0.  0.
         12    1    1    2    0    0  0.25773879558E+02  0.16006490449E+02  0.98092132423E+01  0.31886066995E+02  0.00000000000E+00 0. -1.
         11    1    3    3    0    0 -0.25965361645E+02 -0.15924656334E+02  0.45033913571E+01  0.30790830107E+02  0.51100000000E-03 0. -1.
        -11    1    3    3    0    0 -0.85566924569E+01  0.19042470142E+01  0.27893752759E+01  0.91991171959E+01  0.51100000000E-03 0.  1.
         12    1    3    3    0    0  0.87481745444E+01 -0.19860811299E+01 -0.17101979875E+02  0.19311985702E+02  0.00000000000E+00 0. -1.
</event>
<event>
 7    1  0.6963701E-013  0.5930194E+02  0.7816164E-02  0.1266605E+00
        -11   -1    0    0    0    0  0.00000000000E+00  0.00000000000E+00  0.45593999997E+02  0.45594000000E+02  0.51100000000E-03 0.  1.
         11   -1    0    0    0    0 -0.00000000000E+00 -0.00000000000E+00 -0.45593999997E+02  0.45594000000E+02  0.51100000000E-03 0. -1.
    9900012    2    1    2    0    0 -0.31077985530E+02  0.39814802907E+01  0.59183814414E+01  0.59301943348E+02  0.49999998761E+02 0.  0.
         12    1    1    2    0    0  0.31077985530E+02 -0.39814802907E+01 -0.59183814414E+01  0.31886056652E+02  0.00000000000E+00 0. -1.
         11    1    3    3    0    0 -0.14756077397E+02 -0.15028335120E+01 -0.10936254333E+02  0.18428293134E+02  0.51100000000E-03 0. -1.
        -11    1    3    3    0    0 -0.26531762300E+02  0.28129573212E+01  0.11852705187E+02  0.29194755696E+02  0.51100000000E-03 0.  1.
        -12    1    3    3    0    0  0.10209854167E+02  0.26713564815E+01  0.50019305875E+01  0.11678894518E+02  0.00000000000E+00 0.  1.
</event>
<event>
 7    1  0.6963701E-013  0.5930196E+02  0.7816164E-02  0.1266605E+00
        -11   -1    0    0    0    0  0.00000000000E+00  0.00000000000E+00  0.45593999997E+02  0.45594000000E+02  0.51100000000E-03 0.  1.
         11   -1    0    0    0    0 -0.00000000000E+00 -0.00000000000E+00 -0.45593999997E+02  0.45594000000E+02  0.51100000000E-03 0. -1.
    9900012    2    1    2    0    0  0.16198207757E+02 -0.14560250927E+02  0.23288123535E+02  0.59301960117E+02  0.50000029344E+02 0.  0.
         12    1    1    2    0    0 -0.16198207757E+02  0.14560250927E+02 -0.23288123535E+02  0.31886039883E+02  0.00000000000E+00 0. -1.
         11    1    3    3    0    0 -0.23304327609E+01 -0.55858415309E+01 -0.70580494827E+01  0.92977742079E+01  0.51100000000E-03 0. -1.
        -11    1    3    3    0    0 -0.84121156704E+01 -0.86681930042E+00  0.16735049844E+02  0.18750385578E+02  0.51100000000E-03 0.  1.
        -12    1    3    3    0    0  0.26940756188E+02 -0.81075900958E+01  0.13611123174E+02  0.31253800332E+02  0.00000000000E+00 0.  1.
</event>
<event>
 7    1  0.6963701E-013  0.5930193E+02  0.7816164E-02  0.1266605E+00
        -11   -1    0    0    0    0  0.00000000000E+00  0.00000000000E+00  0.45593999997E+02  0.45594000000E+02  0.51100000000E-03 0.  1.
         11   -1    0    0    0    0 -0.00000000000E+00 -0.00000000000E+00 -0.45593999997E+02  0.45594000000E+02  0.51100000000E-03 0. -1.
    9900012    2    1    2    0    0 -0.82956332819E+01  0.37384879064E+00  0.30785777346E+02  0.59301931235E+02  0.49999976669E+02 0.  0.
         12    1    1    2    0    0  0.82956332819E+01 -0.37384879064E+00 -0.30785777346E+02  0.31886068765E+02  0.00000000000E+00 0. -1.
         11    1    3    3    0    0  0.25777139697E+01  0.11346578415E+02  0.11796542919E+01  0.11695342472E+02  0.51100000000E-03 0. -1.
        -11    1    3    3    0    0  0.69481051952E+01 -0.43730491990E+01  0.27246460517E+02  0.28456446301E+02  0.51100000000E-03 0.  1.
         12    1    3    3    0    0 -0.17821452447E+02 -0.65996804252E+01  0.23596625371E+01  0.19150142462E+02  0.00000000000E+00 0. -1.
</event>
<event>
 7    1  0.6963701E-013  0.5930192E+02  0.7816164E-02  0.1266605E+00
        -11   -1    0    0    0    0  0.00000000000E+00  0.00000000000E+00  0.45593999997E+02  0.45594000000E+02  0.51100000000E-03 0.  1.
         11   -1    0    0    0    0 -0.00000000000E+00 -0.00000000000E+00 -0.45593999997E+02  0.45594000000E+02  0.51100000000E-03 0. -1.
    9900012    2    1    2    0    0  0.19450925959E+02 -0.53161006610E+01  0.24700655093E+02  0.59301924529E+02  0.49999964439E+02 0.  0.
         12    1    1    2    0    0 -0.19450925959E+02  0.53161006610E+01 -0.24700655093E+02  0.31886075471E+02  0.00000000000E+00 0. -1.
         11    1    3    3    0    0  0.34898161192E+01  0.53510121404E+00 -0.51160681514E+01  0.62160520788E+01  0.51100000000E-03 0. -1.
        -11    1    3    3    0    0 -0.67787422757E+01 -0.17212493939E+02  0.12804401508E+02  0.22498310886E+02  0.51100000000E-03 0.  1.
         12    1    3    3    0    0  0.22739852116E+02  0.11361292064E+02  0.17012321736E+02  0.30587561565E+02  0.00000000000E+00 0. -1.
</event>
<event>
 7    1  0.6963701E-013  0.5930193E+02  0.7816164E-02  0.1266605E+00
        -11   -1    0    0    0    0  0.00000000000E+00  0.00000000000E+00  0.45593999997E+02  0.45594000000E+02  0.51100000000E-03 0. -1.
         11   -1    0    0    0    0 -0.00000000000E+00 -0.00000000000E+00 -0.45593999997E+02  0.45594000000E+02  0.51100000000E-03 0.  1.
    9900012    2    1    2    0    0  0.30945593872E+02 -0.37920450198E+01  0.66867215788E+01  0.59301927319E+02  0.49999969527E+02 0.  0.
         12    1    1    2    0    0 -0.30945593872E+02  0.37920450198E+01 -0.66867215788E+01  0.31886072681E+02  0.00000000000E+00 0. -1.
         11    1    3    3    0    0  0.28728513542E+02  0.28486796999E+01  0.12492798732E+02  0.31456517397E+02  0.51100000000E-03 0. -1.
        -11    1    3    3    0    0  0.44246844919E+00 -0.59063795241E+01 -0.16213908362E+02  0.17261863226E+02  0.51100000000E-03 0.  1.
         12    1    3    3    0    0  0.17746118810E+01 -0.73434519555E+00  0.10407831209E+02  0.10583546696E+02  0.00000000000E+00 0. -1.
</event>
<event>
 7    1  0.6963701E-013  0.5930193E+02  0.7816164E-02  0.1266605E+00
        -11   -1    0    0    0    0  0.00000000000E+00  0.00000000000E+00  0.45593999997E+02  0.45594000000E+02  0.51100000000E-03 0.  1.
         11   -1    0    0    0    0 -0.00000000000E+00 -0.00000000000E+00 -0.45593999997E+02  0.45594000000E+02  0.51100000000E-03 0. -1.
    9900012    2    1    2    0    0  0.61643744003E+01  0.24927355106E+02  0.18903678686E+02  0.59301927614E+02  0.49999970066E+02 0.  0.
         12    1    1    2    0    0 -0.61643744003E+01 -0.24927355106E+02 -0.18903678686E+02  0.31886072386E+02  0.00000000000E+00 0. -1.
         11    1    3    3    0    0  0.10682220323E+02 -0.10400132628E+02  0.52286161156E+01  0.15799082773E+02  0.51100000000E-03 0. -1.
        -11    1    3    3    0    0 -0.89164066884E+01  0.15378513123E+02 -0.18108977611E+01  0.17868416971E+02  0.51100000000E-03 0.  1.
        -12    1    3    3    0    0  0.43985607656E+01  0.19948974612E+02  0.15485960331E+02  0.25634427870E+02  0.00000000000E+00 0.  1.
</event>
<event>
 7    1  0.6963701E-013  0.5930197E+02  0.7816164E-02  0.1266605E+00
        -11   -1    0    0    0    0  0.00000000000E+00  0.00000000000E+00  0.45593999997E+02  0.45594000000E+02  0.51100000000E-03 0.  1.
         11   -1    0    0    0    0 -0.00000000000E+00 -0.00000000000E+00 -0.45593999997E+02  0.45594000000E+02  0.51100000000E-03 0. -1.
    9900012    2    1    2    0    0  0.43163133723E+00  0.27771125079E+02  0.15661963951E+02  0.59301971577E+02  0.50000050243E+02 0.  0.
         12    1    1    2    0    0 -0.43163133723E+00 -0.27771125079E+02 -0.15661963951E+02  0.31886028423E+02  0.00000000000E+00 0. -1.
         11    1    3    3    0    0  0.12135305608E+01  0.18804463235E+01 -0.13113187281E+01  0.25938951145E+01  0.51100000000E-03 0. -1.
        -11    1    3    3    0    0  0.13816766249E+02  0.27474212802E+02 -0.40982196816E+01  0.31024680554E+02  0.51100000000E-03 0.  1.
        -12    1    3    3    0    0 -0.14598665472E+02 -0.15835340463E+01  0.21071502361E+02  0.25683395909E+02  0.00000000000E+00 0.  1.
</event>
<event>
 7    1  0.7459628E-013  0.5930193E+02  0.7816164E-02  0.1266605E+00
        -11   -1    0    0    0    0  0.00000000000E+00  0.00000000000E+00  0.45593999997E+02  0.45594000000E+02  0.51100000000E-03 0.  1.
         11   -1    0    0    0    0 -0.00000000000E+00 -0.00000000000E+00 -0.45593999997E+02  0.45594000000E+02  0.51100000000E-03 0. -1.
    9900012    2    1    2    0    0  0.27712068304E+02 -0.12672784917E+02  0.93895205488E+01  0.59301932457E+02  0.49999978898E+02 0.  0.
         12    1    1    2    0    0 -0.27712068304E+02  0.12672784917E+02 -0.93895205488E+01  0.31886067543E+02  0.00000000000E+00 0. -1.
         11    1    3    3    0    0  0.42292428132E+01  0.75709268569E+00 -0.12833283607E+02  0.13533397671E+02  0.51100000000E-03 0. -1.
        -11    1    3    3    0    0  0.38061030643E+01  0.91816006583E+01  0.69460277396E+01  0.12125820088E+02  0.51100000000E-03 0.  1.
        -12    1    3    3    0    0  0.19676722426E+02 -0.22611478261E+02  0.15276776417E+02  0.33642714698E+02  0.00000000000E+00 0.  1.
</event>
<event>
 7    1  0.6963701E-013  0.5930193E+02  0.7816164E-02  0.1266605E+00
        -11   -1    0    0    0    0  0.00000000000E+00  0.00000000000E+00  0.45593999997E+02  0.45594000000E+02  0.51100000000E-03 0. -1.
         11   -1    0    0    0    0 -0.00000000000E+00 -0.00000000000E+00 -0.45593999997E+02  0.45594000000E+02  0.51100000000E-03 0.  1.
    9900012    2    1    2    0    0  0.20164769144E+02 -0.16694535896E+02 -0.18204283567E+02  0.59301931198E+02  0.49999976602E+02 0.  0.
         12    1    1    2    0    0 -0.20164769144E+02  0.16694535896E+02  0.18204283567E+02  0.31886068802E+02  0.00000000000E+00 0. -1.
         11    1    3    3    0    0  0.10539860938E+02 -0.15971850323E+02 -0.65065711820E+01  0.20211980114E+02  0.51100000000E-03 0. -1.
        -11    1    3    3    0    0  0.23218195537E+02  0.12115139943E+01 -0.97937755078E+01  0.25228365169E+02  0.51100000000E-03 0.  1.
         12    1    3    3    0    0 -0.13593287331E+02 -0.19341995676E+01 -0.19039368776E+01  0.13861585915E+02  0.00000000000E+00 0. -1.
</event>
<event>
 7    1  0.6963701E-013  0.5930195E+02  0.7816164E-02  0.1266605E+00
        -11   -1    0    0    0    0  0.00000000000E+00  0.00000000000E+00  0.45593999997E+02  0.45594000000E+02  0.51100000000E-03 0.  1.
         11   -1    0    0    0    0 -0.00000000000E+00 -0.00000000000E+00 -0.45593999997E+02  0.45594000000E+02  0.51100000000E-03 0. -1.
    9900012    2    1    2    0    0  0.22754321592E+02  0.41129114068E+01 -0.21955526037E+02  0.59301947957E+02  0.50000007166E+02 0.  0.
         12    1    1    2    0    0 -0.22754321592E+02 -0.41129114068E+01  0.21955526037E+02  0.31886052043E+02  0.00000000000E+00 0. -1.
         11    1    3    3    0    0  0.16276113915E+02  0.10447323402E+02 -0.12487673525E+02  0.23021738439E+02  0.51100000000E-03 0. -1.
        -11    1    3    3    0    0 -0.99452402284E+00  0.71296772148E+01 -0.17492562483E+02  0.18915895900E+02  0.51100000000E-03 0.  1.
        -12    1    3    3    0    0  0.74727316999E+01 -0.13464089210E+02  0.80247099704E+01  0.17364313618E+02  0.00000000000E+00 0.  1.
</event>
<event>
 7    1  0.6963701E-013  0.5930193E+02  0.7816164E-02  0.1266605E+00
        -11   -1    0    0    0    0  0.00000000000E+00  0.00000000000E+00  0.45593999997E+02  0.45594000000E+02  0.51100000000E-03 0. -1.
         11   -1    0    0    0    0 -0.00000000000E+00 -0.00000000000E+00 -0.45593999997E+02  0.45594000000E+02  0.51100000000E-03 0.  1.
    9900012    2    1    2    0    0 -0.82007328998E+01 -0.30168855665E+02  0.62697467529E+01  0.59301927860E+02  0.49999970513E+02 0.  0.
         12    1    1    2    0    0  0.82007328998E+01  0.30168855665E+02 -0.62697467529E+01  0.31886072140E+02  0.00000000000E+00 0. -1.
         11    1    3    3    0    0 -0.76176062628E+01  0.57401760098E+01 -0.40758839680E+01  0.10372578087E+02  0.51100000000E-03 0. -1.
        -11    1    3    3    0    0 -0.11089970279E+02 -0.83185626910E+00  0.11863357760E+01  0.11184221853E+02  0.51100000000E-03 0.  1.
         12    1    3    3    0    0  0.10506843642E+02 -0.35077175405E+02  0.91592949449E+01  0.37745127919E+02  0.00000000000E+00 0. -1.
</event>
<event>
 7    1  0.6963701E-013  0.5930195E+02  0.7816164E-02  0.1266605E+00
        -11   -1    0    0    0    0  0.00000000000E+00  0.00000000000E+00  0.45593999997E+02  0.45594000000E+02  0.51100000000E-03 0.  1.
         11   -1    0    0    0    0 -0.00000000000E+00 -0.00000000000E+00 -0.45593999997E+02  0.45594000000E+02  0.51100000000E-03 0. -1.
    9900012    2    1    2    0    0  0.23826198997E+02  0.15333708325E+02  0.14625655128E+02  0.59301950424E+02  0.50000011666E+02 0.  0.
         12    1    1    2    0    0 -0.23826198997E+02 -0.15333708325E+02 -0.14625655128E+02  0.31886049576E+02  0.00000000000E+00 0. -1.
         11    1    3    3    0    0  0.35114025218E+01  0.78697107593E+01  0.21532354722E+01  0.88824950529E+01  0.51100000000E-03 0. -1.
        -11    1    3    3    0    0  0.29756955010E+02  0.11153713619E+02  0.20215079324E+02  0.37663392456E+02  0.51100000000E-03 0.  1.
         12    1    3    3    0    0 -0.94421585350E+01 -0.36897160535E+01 -0.77426596683E+01  0.12756062915E+02  0.00000000000E+00 0. -1.
</event>
<event>
 7    1  0.6963701E-013  0.5930194E+02  0.7816164E-02  0.1266605E+00
        -11   -1    0    0    0    0  0.00000000000E+00  0.00000000000E+00  0.45593999997E+02  0.45594000000E+02  0.51100000000E-03 0. -1.
         11   -1    0    0    0    0 -0.00000000000E+00 -0.00000000000E+00 -0.45593999997E+02  0.45594000000E+02  0.51100000000E-03 0.  1.
    9900012    2    1    2    0    0 -0.84569021274E+01  0.24183108211E+02 -0.18983646569E+02  0.59301941081E+02  0.49999994626E+02 0.  0.
         12    1    1    2    0    0  0.84569021274E+01 -0.24183108211E+02  0.18983646569E+02  0.31886058919E+02  0.00000000000E+00 0. -1.
         11    1    3    3    0    0  0.73809762841E+01  0.17741924939E+01 -0.17048536028E+02  0.18662238635E+02  0.51100000000E-03 0. -1.
        -11    1    3    3    0    0  0.13248002624E+01  0.15422318278E+02 -0.11969389938E+02  0.19567046087E+02  0.51100000000E-03 0.  1.
        -12    1    3    3    0    0 -0.17162678674E+02  0.69865974391E+01  0.10034279397E+02  0.21072656360E+02  0.00000000000E+00 0.  1.
</event>
<event>
 7    1  0.6963701E-013  0.5930194E+02  0.7816164E-02  0.1266605E+00
        -11   -1    0    0    0    0  0.00000000000E+00  0.00000000000E+00  0.45593999997E+02  0.45594000000E+02  0.51100000000E-03 0.  1.
         11   -1    0    0    0    0 -0.00000000000E+00 -0.00000000000E+00 -0.45593999997E+02  0.45594000000E+02  0.51100000000E-03 0. -1.
    9900012    2    1    2    0    0 -0.51613274222E+01 -0.27121494817E+02  0.15953246695E+02  0.59301939378E+02  0.49999991521E+02 0.  0.
         12    1    1    2    0    0  0.51613274222E+01  0.27121494817E+02 -0.15953246695E+02  0.31886060622E+02  0.00000000000E+00 0. -1.
         11    1    3    3    0    0  0.80175290889E+01  0.28200158274E+01  0.61899947711E+01  0.10514242602E+02  0.51100000000E-03 0. -1.
        -11    1    3    3    0    0  0.17420371602E+01 -0.28456663224E+02  0.15832800914E+02  0.32611255118E+02  0.51100000000E-03 0.  1.
         12    1    3    3    0    0 -0.14920893671E+02 -0.14848474200E+01 -0.60695489901E+01  0.16176441659E+02  0.00000000000E+00 0. -1.
</event>
<event>
 7    1  0.6963701E-013  0.5930169E+02  0.7816164E-02  0.1266606E+00
        -11   -1    0    0    0    0  0.00000000000E+00  0.00000000000E+00  0.45593999997E+02  0.45594000000E+02  0.51100000000E-03 0. -1.
         11   -1    0    0    0    0 -0.00000000000E+00 -0.00000000000E+00 -0.45593999997E+02  0.45594000000E+02  0.51100000000E-03 0.  1.
    9900012    2    1    2    0    0 -0.27664889621E+02 -0.14507574834E+02 -0.63969479470E+01  0.59301689640E+02  0.49999536056E+02 0.  0.
         12    1    1    2    0    0  0.27664889621E+02  0.14507574834E+02  0.63969479470E+01  0.31886310360E+02  0.00000000000E+00 0. -1.
         11    1    3    3    0    0 -0.54657211737E+01 -0.10681045495E+02 -0.11852864424E+02  0.16865622910E+02  0.51100000000E-03 0. -1.
        -11    1    3    3    0    0 -0.26111199490E+01  0.74601391175E+01 -0.11655901392E+02  0.14083027394E+02  0.51100000000E-03 0.  1.
         12    1    3    3    0    0 -0.19588048498E+02 -0.11286668456E+02  0.17111817870E+02  0.28353039337E+02  0.00000000000E+00 0. -1.
</event>
<event>
 7    1  0.6963701E-013  0.5930234E+02  0.7816164E-02  0.1266603E+00
        -11   -1    0    0    0    0  0.00000000000E+00  0.00000000000E+00  0.45593999997E+02  0.45594000000E+02  0.51100000000E-03 0.  1.
         11   -1    0    0    0    0 -0.00000000000E+00 -0.00000000000E+00 -0.45593999997E+02  0.45594000000E+02  0.51100000000E-03 0. -1.
    9900012    2    1    2    0    0 -0.24632910552E+02 -0.19010214849E+02 -0.69661093217E+01  0.59302341313E+02  0.50000724547E+02 0.  0.
         12    1    1    2    0    0  0.24632910552E+02  0.19010214849E+02  0.69661093217E+01  0.31885658687E+02  0.00000000000E+00 0. -1.
         11    1    3    3    0    0  0.49517049763E+01  0.16990104470E+01  0.55363296183E+01  0.76195120955E+01  0.51100000000E-03 0.  1.
        -11    1    3    3    0    0  0.38325540662E+01  0.17513002356E+01 -0.10562764335E+02  0.11372225545E+02  0.51100000000E-03 0. -1.
         12    1    3    3    0    0 -0.33417169594E+02 -0.22460525532E+02 -0.19396746049E+01  0.40310603672E+02  0.00000000000E+00 0. -1.
</event>
<event>
 7    1  0.6963701E-013  0.5930195E+02  0.7816164E-02  0.1266605E+00
        -11   -1    0    0    0    0  0.00000000000E+00  0.00000000000E+00  0.45593999997E+02  0.45594000000E+02  0.51100000000E-03 0.  1.
         11   -1    0    0    0    0 -0.00000000000E+00 -0.00000000000E+00 -0.45593999997E+02  0.45594000000E+02  0.51100000000E-03 0. -1.
    9900012    2    1    2    0    0 -0.40605825131E+01 -0.77065349057E+01  0.30673136832E+02  0.59301947661E+02  0.50000006627E+02 0.  0.
         12    1    1    2    0    0  0.40605825131E+01  0.77065349057E+01 -0.30673136832E+02  0.31886052339E+02  0.00000000000E+00 0. -1.
         11    1    3    3    0    0 -0.99071257295E+01  0.45195549061E+01  0.58687106135E+01  0.12370096253E+02  0.51100000000E-03 0. -1.
        -11    1    3    3    0    0 -0.69301565987E+01 -0.90717390038E+01  0.30519092192E+02  0.32584329171E+02  0.51100000000E-03 0.  1.
         12    1    3    3    0    0  0.12776699815E+02 -0.31543508079E+01 -0.57146659730E+01  0.14347522238E+02  0.00000000000E+00 0. -1.
</event>
<event>
 7    1  0.6963701E-013  0.5930196E+02  0.7816164E-02  0.1266605E+00
        -11   -1    0    0    0    0  0.00000000000E+00  0.00000000000E+00  0.45593999997E+02  0.45594000000E+02  0.51100000000E-03 0.  1.
         11   -1    0    0    0    0 -0.00000000000E+00 -0.00000000000E+00 -0.45593999997E+02  0.45594000000E+02  0.51100000000E-03 0. -1.
    9900012    2    1    2    0    0  0.87526313661E+01 -0.53035673190E+01  0.30199061010E+02  0.59301958101E+02  0.50000025666E+02 0.  0.
         12    1    1    2    0    0 -0.87526313661E+01  0.53035673190E+01 -0.30199061010E+02  0.31886041899E+02  0.00000000000E+00 0. -1.
         11    1    3    3    0    0 -0.60613900842E+01  0.37537908478E+01 -0.12672836049E+01  0.72413675144E+01  0.51100000000E-03 0. -1.
        -11    1    3    3    0    0 -0.44447593560E+01  0.53812297466E+01 -0.48446565837E+01  0.84961295302E+01  0.51100000000E-03 0.  1.
        -12    1    3    3    0    0  0.19258780806E+02 -0.14438587913E+02  0.36311001198E+02  0.43564461056E+02  0.00000000000E+00 0.  1.
</event>
<event>
 7    1  0.6963701E-013  0.5930195E+02  0.7816164E-02  0.1266605E+00
        -11   -1    0    0    0    0  0.00000000000E+00  0.00000000000E+00  0.45593999997E+02  0.45594000000E+02  0.51100000000E-03 0.  1.
         11   -1    0    0    0    0 -0.00000000000E+00 -0.00000000000E+00 -0.45593999997E+02  0.45594000000E+02  0.51100000000E-03 0. -1.
    9900012    2    1    2    0    0 -0.31333339472E+02  0.30051162304E+01 -0.50902829474E+01  0.59301954988E+02  0.50000019988E+02 0.  0.
         12    1    1    2    0    0  0.31333339472E+02 -0.30051162304E+01  0.50902829474E+01  0.31886045012E+02  0.00000000000E+00 0. -1.
         11    1    3    3    0    0 -0.31051798228E+02  0.12200740212E+02 -0.10812013104E+02  0.35070954685E+02  0.51100000000E-03 0. -1.
        -11    1    3    3    0    0 -0.92983999050E+01 -0.92892903987E+01 -0.69780164149E+00  0.13161993933E+02  0.51100000000E-03 0.  1.
        -12    1    3    3    0    0  0.90168586602E+01  0.93666417294E-01  0.64195317983E+01  0.11069006369E+02  0.00000000000E+00 0.  1.
</event>
<event>
 7    1  0.6963701E-013  0.5930194E+02  0.7816164E-02  0.1266605E+00
        -11   -1    0    0    0    0  0.00000000000E+00  0.00000000000E+00  0.45593999997E+02  0.45594000000E+02  0.51100000000E-03 0.  1.
         11   -1    0    0    0    0 -0.00000000000E+00 -0.00000000000E+00 -0.45593999997E+02  0.45594000000E+02  0.51100000000E-03 0. -1.
    9900012    2    1    2    0    0 -0.26382647270E+02  0.87136134104E+01  0.15644483631E+02  0.59301937155E+02  0.49999987466E+02 0.  0.
         12    1    1    2    0    0  0.26382647270E+02 -0.87136134104E+01 -0.15644483631E+02  0.31886062845E+02  0.00000000000E+00 0. -1.
         11    1    3    3    0    0  0.10044516444E+02  0.10399028525E+02  0.54546665222E+01  0.15452685591E+02  0.51100000000E-03 0. -1.
        -11    1    3    3    0    0 -0.18438606500E+02  0.54056303022E+01  0.14459801655E+02  0.24047638404E+02  0.51100000000E-03 0.  1.
         12    1    3    3    0    0 -0.17988557213E+02 -0.70910454164E+01 -0.42699845466E+01  0.19801613160E+02  0.00000000000E+00 0. -1.
</event>
<event>
 7    1  0.6963701E-013  0.5930194E+02  0.7816164E-02  0.1266605E+00
        -11   -1    0    0    0    0  0.00000000000E+00  0.00000000000E+00  0.45593999997E+02  0.45594000000E+02  0.51100000000E-03 0.  1.
         11   -1    0    0    0    0 -0.00000000000E+00 -0.00000000000E+00 -0.45593999997E+02  0.45594000000E+02  0.51100000000E-03 0. -1.
    9900012    2    1    2    0    0  0.29197652181E+02  0.75534873045E+01  0.10351930563E+02  0.59301944589E+02  0.50000001023E+02 0.  0.
         12    1    1    2    0    0 -0.29197652181E+02 -0.75534873045E+01 -0.10351930563E+02  0.31886055411E+02  0.00000000000E+00 0. -1.
         11    1    3    3    0    0  0.27829035781E+02  0.10708251819E+02  0.15874422723E+02  0.33780455689E+02  0.51100000000E-03 0. -1.
        -11    1    3    3    0    0 -0.81602297832E+00 -0.57849864041E+01  0.89293035746E+01  0.10670727425E+02  0.51100000000E-03 0.  1.
        -12    1    3    3    0    0  0.21846393780E+01  0.26302218890E+01 -0.14451795735E+02  0.14850761474E+02  0.00000000000E+00 0.  1.
</event>
<event>
 7    1  0.6963701E-013  0.5930195E+02  0.7816164E-02  0.1266605E+00
        -11   -1    0    0    0    0  0.00000000000E+00  0.00000000000E+00  0.45593999997E+02  0.45594000000E+02  0.51100000000E-03 0. -1.
         11   -1    0    0    0    0 -0.00000000000E+00 -0.00000000000E+00 -0.45593999997E+02  0.45594000000E+02  0.51100000000E-03 0.  1.
    9900012    2    1    2    0    0  0.25704860914E+02  0.18024473116E+02 -0.55766333220E+01  0.59301947486E+02  0.50000006307E+02 0.  0.
         12    1    1    2    0    0 -0.25704860914E+02 -0.18024473116E+02  0.55766333220E+01  0.31886052514E+02  0.00000000000E+00 0. -1.
         11    1    3    3    0    0 -0.53718259822E+00  0.16039058186E+02  0.61356650541E+00  0.16059776361E+02  0.51100000000E-03 0. -1.
        -11    1    3    3    0    0 -0.13667616260E+01 -0.63326146607E+00 -0.14275597941E+02  0.14354851245E+02  0.51100000000E-03 0.  1.
         12    1    3    3    0    0  0.27608805138E+02  0.26186763963E+01  0.80853981140E+01  0.28887319880E+02  0.00000000000E+00 0. -1.
</event>
<event>
 7    1  0.6963701E-013  0.5930194E+02  0.7816164E-02  0.1266605E+00
        -11   -1    0    0    0    0  0.00000000000E+00  0.00000000000E+00  0.45593999997E+02  0.45594000000E+02  0.51100000000E-03 0. -1.
         11   -1    0    0    0    0 -0.00000000000E+00 -0.00000000000E+00 -0.45593999997E+02  0.45594000000E+02  0.51100000000E-03 0.  1.
    9900012    2    1    2    0    0 -0.25459865097E+02  0.13294777858E+02 -0.13847925454E+02  0.59301938964E+02  0.49999990765E+02 0.  0.
         12    1    1    2    0    0  0.25459865097E+02 -0.13294777858E+02  0.13847925454E+02  0.31886061036E+02  0.00000000000E+00 0. -1.
         11    1    3    3    0    0 -0.16930885908E+02 -0.12456376220E+02  0.56780162751E+01  0.21772828829E+02  0.51100000000E-03 0. -1.
        -11    1    3    3    0    0  0.29360884290E+01  0.34425208767E+01  0.15343555455E+01  0.47776367014E+01  0.51100000000E-03 0.  1.
        -12    1    3    3    0    0 -0.11465067618E+02  0.22308633201E+02 -0.21060297274E+02  0.32751473433E+02  0.00000000000E+00 0.  1.
</event>
<event>
 7    1  0.6963701E-013  0.5930194E+02  0.7816164E-02  0.1266605E+00
        -11   -1    0    0    0    0  0.00000000000E+00  0.00000000000E+00  0.45593999997E+02  0.45594000000E+02  0.51100000000E-03 0.  1.
         11   -1    0    0    0    0 -0.00000000000E+00 -0.00000000000E+00 -0.45593999997E+02  0.45594000000E+02  0.51100000000E-03 0. -1.
    9900012    2    1    2    0    0 -0.11706419579E+01  0.14158232480E+02  0.28546367162E+02  0.59301936780E+02  0.49999986782E+02 0.  0.
         12    1    1    2    0    0  0.11706419579E+01 -0.14158232480E+02 -0.28546367162E+02  0.31886063220E+02  0.00000000000E+00 0. -1.
         11    1    3    3    0    0  0.74299272689E+01  0.45282302069E+01  0.56727474419E+00  0.87195463715E+01  0.51100000000E-03 0. -1.
        -11    1    3    3    0    0  0.75402920087E+01 -0.62124239826E+01  0.26122538892E+02  0.27889733841E+02  0.51100000000E-03 0.  1.
        -12    1    3    3    0    0 -0.16140861235E+02  0.15842426256E+02  0.18565535252E+01  0.22692656567E+02  0.00000000000E+00 0.  1.
</event>
<event>
 7    1  0.6963701E-013  0.5930195E+02  0.7816164E-02  0.1266605E+00
        -11   -1    0    0    0    0  0.00000000000E+00  0.00000000000E+00  0.45593999997E+02  0.45594000000E+02  0.51100000000E-03 0.  1.
         11   -1    0    0    0    0 -0.00000000000E+00 -0.00000000000E+00 -0.45593999997E+02  0.45594000000E+02  0.51100000000E-03 0. -1.
    9900012    2    1    2    0    0  0.30527599752E+01 -0.30910328578E+02 -0.72077968009E+01  0.59301951468E+02  0.50000013570E+02 0.  0.
         12    1    1    2    0    0 -0.30527599752E+01  0.30910328578E+02  0.72077968009E+01  0.31886048532E+02  0.00000000000E+00 0. -1.
         11    1    3    3    0    0 -0.12179435242E+02  0.26631337129E+01 -0.16723255283E+01  0.12578855152E+02  0.51100000000E-03 0. -1.
        -11    1    3    3    0    0  0.83300240675E+01  0.28123562451E+01  0.17862919516E+01  0.89715933820E+01  0.51100000000E-03 0.  1.
         12    1    3    3    0    0  0.69021711500E+01 -0.36385818536E+02 -0.73217632243E+01  0.37751502935E+02  0.00000000000E+00 0. -1.
</event>
<event>
 7    1  0.6963701E-013  0.5930192E+02  0.7816164E-02  0.1266605E+00
        -11   -1    0    0    0    0  0.00000000000E+00  0.00000000000E+00  0.45593999997E+02  0.45594000000E+02  0.51100000000E-03 0. -1.
         11   -1    0    0    0    0 -0.00000000000E+00 -0.00000000000E+00 -0.45593999997E+02  0.45594000000E+02  0.51100000000E-03 0.  1.
    9900012    2    1    2    0    0 -0.22231802010E+02 -0.16118649928E+02 -0.16206735406E+02  0.59301918888E+02  0.49999954151E+02 0.  0.
         12    1    1    2    0    0  0.22231802010E+02  0.16118649928E+02  0.16206735406E+02  0.31886081112E+02  0.00000000000E+00 0. -1.
         11    1    3    3    0    0 -0.42964997856E+00 -0.29174244078E+01  0.98859358459E+01  0.10316379796E+02  0.51100000000E-03 0. -1.
        -11    1    3    3    0    0 -0.22131247638E+02 -0.19002468319E+02 -0.83883852497E+01  0.30352115768E+02  0.51100000000E-03 0.  1.
        -12    1    3    3    0    0  0.32909560637E+00  0.58012427984E+01 -0.17704286003E+02  0.18633423324E+02  0.00000000000E+00 0.  1.
</event>
<event>
 7    1  0.6963701E-013  0.5930195E+02  0.7816164E-02  0.1266605E+00
        -11   -1    0    0    0    0  0.00000000000E+00  0.00000000000E+00  0.45593999997E+02  0.45594000000E+02  0.51100000000E-03 0. -1.
         11   -1    0    0    0    0 -0.00000000000E+00 -0.00000000000E+00 -0.45593999997E+02  0.45594000000E+02  0.51100000000E-03 0.  1.
    9900012    2    1    2    0    0  0.16131814384E+02  0.24489861930E+02 -0.12519234232E+02  0.59301952919E+02  0.50000016216E+02 0.  0.
         12    1    1    2    0    0 -0.16131814384E+02 -0.24489861930E+02  0.12519234232E+02  0.31886047081E+02  0.00000000000E+00 0. -1.
         11    1    3    3    0    0 -0.26066160684E+00  0.14250978103E+02 -0.20817662292E+02  0.25229613254E+02  0.51100000000E-03 0. -1.
        -11    1    3    3    0    0  0.65774158464E+00  0.10317968255E+02 -0.67115892069E+01  0.12326334526E+02  0.51100000000E-03 0.  1.
         12    1    3    3    0    0  0.15734734407E+02 -0.79084428160E-01  0.15010017266E+02  0.21746005140E+02  0.00000000000E+00 0. -1.
</event>
<event>
 7    1  0.6963701E-013  0.5930194E+02  0.7816164E-02  0.1266605E+00
        -11   -1    0    0    0    0  0.00000000000E+00  0.00000000000E+00  0.45593999997E+02  0.45594000000E+02  0.51100000000E-03 0. -1.
         11   -1    0    0    0    0 -0.00000000000E+00 -0.00000000000E+00 -0.45593999997E+02  0.45594000000E+02  0.51100000000E-03 0.  1.
    9900012    2    1    2    0    0  0.77287101097E+01  0.74053686942E+00 -0.30926356807E+02  0.59301938779E+02  0.49999990428E+02 0.  0.
         12    1    1    2    0    0 -0.77287101097E+01 -0.74053686942E+00  0.30926356807E+02  0.31886061221E+02  0.00000000000E+00 0. -1.
         11    1    3    3    0    0  0.28479943503E+01 -0.12633956639E+02 -0.17349405925E+02  0.21650169016E+02  0.51100000000E-03 0. -1.
        -11    1    3    3    0    0 -0.67570087087E+01  0.13520770655E+02 -0.19435909726E+02  0.24621596068E+02  0.51100000000E-03 0.  1.
        -12    1    3    3    0    0  0.11637724468E+02 -0.14627714656E+00  0.58589588443E+01  0.13030173696E+02  0.00000000000E+00 0.  1.
</event>
<event>
 7    1  0.6963701E-013  0.5930194E+02  0.7816164E-02  0.1266605E+00
        -11   -1    0    0    0    0  0.00000000000E+00  0.00000000000E+00  0.45593999997E+02  0.45594000000E+02  0.51100000000E-03 0.  1.
         11   -1    0    0    0    0 -0.00000000000E+00 -0.00000000000E+00 -0.45593999997E+02  0.45594000000E+02  0.51100000000E-03 0. -1.
    9900012    2    1    2    0    0  0.29259419181E+02  0.11703821612E+01 -0.12618936351E+02  0.59301937843E+02  0.49999988721E+02 0.  0.
         12    1    1    2    0    0 -0.29259419181E+02 -0.11703821612E+01  0.12618936351E+02  0.31886062157E+02  0.00000000000E+00 0. -1.
         11    1    3    3    0    0 -0.22222746515E+01 -0.66074355315E+01 -0.15701166507E+02  0.17179154195E+02  0.51100000000E-03 0. -1.
        -11    1    3    3    0    0  0.39166304559E+00  0.63612620579E+00 -0.82396388803E+01  0.82734337267E+01  0.51100000000E-03 0.  1.
        -12    1    3    3    0    0  0.31090030787E+02  0.71416914869E+01  0.11321869036E+02  0.33849349921E+02  0.00000000000E+00 0.  1.
</event>
<event>
 7    1  0.6963701E-013  0.5930195E+02  0.7816164E-02  0.1266605E+00
        -11   -1    0    0    0    0  0.00000000000E+00  0.00000000000E+00  0.45593999997E+02  0.45594000000E+02  0.51100000000E-03 0.  1.
         11   -1    0    0    0    0 -0.00000000000E+00 -0.00000000000E+00 -0.45593999997E+02  0.45594000000E+02  0.51100000000E-03 0. -1.
    9900012    2    1    2    0    0  0.55849862862E+00 -0.31299994552E+02  0.60595805774E+01  0.59301951382E+02  0.50000013413E+02 0.  0.
         12    1    1    2    0    0 -0.55849862862E+00  0.31299994552E+02 -0.60595805774E+01  0.31886048618E+02  0.00000000000E+00 0. -1.
         11    1    3    3    0    0 -0.48623707393E+01 -0.67451632153E+00  0.10759561953E+02  0.11826487017E+02  0.51100000000E-03 0. -1.
        -11    1    3    3    0    0  0.14136792473E+02  0.18034187377E+00  0.32098100274E+01  0.14497734488E+02  0.51100000000E-03 0.  1.
        -12    1    3    3    0    0 -0.87159231050E+01 -0.30805820104E+02 -0.79097914029E+01  0.32977729878E+02  0.00000000000E+00 0.  1.
</event>
<event>
 7    1  0.6963701E-013  0.5930193E+02  0.7816164E-02  0.1266605E+00
        -11   -1    0    0    0    0  0.00000000000E+00  0.00000000000E+00  0.45593999997E+02  0.45594000000E+02  0.51100000000E-03 0.  1.
         11   -1    0    0    0    0 -0.00000000000E+00 -0.00000000000E+00 -0.45593999997E+02  0.45594000000E+02  0.51100000000E-03 0. -1.
    9900012    2    1    2    0    0 -0.27363465473E+02 -0.46107671369E+01  0.15706776771E+02  0.59301933249E+02  0.49999980343E+02 0.  0.
         12    1    1    2    0    0  0.27363465473E+02  0.46107671369E+01 -0.15706776771E+02  0.31886066751E+02  0.00000000000E+00 0. -1.
         11    1    3    3    0    0 -0.76083732432E+01  0.91368647329E+00 -0.14188191859E+02  0.16125351310E+02  0.51100000000E-03 0. -1.
        -11    1    3    3    0    0 -0.21341138740E+02  0.87841963905E+00  0.12914745998E+02  0.24960097921E+02  0.51100000000E-03 0.  1.
        -12    1    3    3    0    0  0.15860465098E+01 -0.64028732492E+01  0.16980222632E+02  0.18216484019E+02  0.00000000000E+00 0.  1.
</event>
<event>
 7    1  0.6963701E-013  0.5930196E+02  0.7816164E-02  0.1266605E+00
        -11   -1    0    0    0    0  0.00000000000E+00  0.00000000000E+00  0.45593999997E+02  0.45594000000E+02  0.51100000000E-03 0.  1.
         11   -1    0    0    0    0 -0.00000000000E+00 -0.00000000000E+00 -0.45593999997E+02  0.45594000000E+02  0.51100000000E-03 0. -1.
    9900012    2    1    2    0    0 -0.79611530748E+01 -0.26432118671E+02  0.15958784317E+02  0.59301958342E+02  0.50000026107E+02 0.  0.
         12    1    1    2    0    0  0.79611530748E+01  0.26432118671E+02 -0.15958784317E+02  0.31886041658E+02  0.00000000000E+00 0. -1.
         11    1    3    3    0    0  0.25448050108E+00 -0.96103448677E+01  0.82039864845E+01  0.12638389268E+02  0.51100000000E-03 0. -1.
        -11    1    3    3    0    0 -0.21186675312E+02  0.11548559946E+01  0.11573594289E+02  0.24169339837E+02  0.51100000000E-03 0.  1.
         12    1    3    3    0    0  0.12971041736E+02 -0.17976629798E+02 -0.38187964562E+01  0.22494229237E+02  0.00000000000E+00 0. -1.
</event>
<event>
 7    1  0.6963701E-013  0.5930198E+02  0.7816164E-02  0.1266605E+00
        -11   -1    0    0    0    0  0.00000000000E+00  0.00000000000E+00  0.45593999997E+02  0.45594000000E+02  0.51100000000E-03 0.  1.
         11   -1    0    0    0    0 -0.00000000000E+00 -0.00000000000E+00 -0.45593999997E+02  0.45594000000E+02  0.51100000000E-03 0. -1.
    9900012    2    1    2    0    0 -0.21510824853E+02 -0.18109951091E+02  0.15034377456E+02  0.59301977673E+02  0.50000061360E+02 0.  0.
         12    1    1    2    0    0  0.21510824853E+02  0.18109951091E+02 -0.15034377456E+02  0.31886022327E+02  0.00000000000E+00 0. -1.
         11    1    3    3    0    0 -0.19525355047E+02 -0.25415080155E+00 -0.47115463248E+01  0.20087377912E+02  0.51100000000E-03 0. -1.
        -11    1    3    3    0    0 -0.14750360358E+02 -0.10214900650E+02  0.58888949758E+01  0.18883760491E+02  0.51100000000E-03 0.  1.
         12    1    3    3    0    0  0.12764890552E+02 -0.76408996401E+01  0.13857028805E+02  0.20330839270E+02  0.00000000000E+00 0. -1.
</event>
<event>
 7    1  0.6963701E-013  0.5930194E+02  0.7816164E-02  0.1266605E+00
        -11   -1    0    0    0    0  0.00000000000E+00  0.00000000000E+00  0.45593999997E+02  0.45594000000E+02  0.51100000000E-03 0. -1.
         11   -1    0    0    0    0 -0.00000000000E+00 -0.00000000000E+00 -0.45593999997E+02  0.45594000000E+02  0.51100000000E-03 0.  1.
    9900012    2    1    2    0    0 -0.34150839834E+01  0.31386630230E+02 -0.44651263503E+01  0.59301941774E+02  0.49999995891E+02 0.  0.
         12    1    1    2    0    0  0.34150839834E+01 -0.31386630230E+02  0.44651263503E+01  0.31886058226E+02  0.00000000000E+00 0. -1.
         11    1    3    3    0    0 -0.86921515029E+01  0.15090748401E+02  0.12161247040E+02  0.21241000797E+02  0.51100000000E-03 0. -1.
        -11    1    3    3    0    0  0.14503415260E+02  0.43453010605E+01  0.60326076652E+00  0.15152379989E+02  0.51100000000E-03 0.  1.
        -12    1    3    3    0    0 -0.92263477409E+01  0.11950580769E+02 -0.17229634157E+02  0.22908560988E+02  0.00000000000E+00 0.  1.
</event>
<event>
 7    1  0.6963701E-013  0.5930193E+02  0.7816164E-02  0.1266605E+00
        -11   -1    0    0    0    0  0.00000000000E+00  0.00000000000E+00  0.45593999997E+02  0.45594000000E+02  0.51100000000E-03 0.  1.
         11   -1    0    0    0    0 -0.00000000000E+00 -0.00000000000E+00 -0.45593999997E+02  0.45594000000E+02  0.51100000000E-03 0. -1.
    9900012    2    1    2    0    0  0.17185362918E+02 -0.21728263745E+02  0.15788193524E+02  0.59301934097E+02  0.49999981889E+02 0.  0.
         12    1    1    2    0    0 -0.17185362918E+02  0.21728263745E+02 -0.15788193524E+02  0.31886065903E+02  0.00000000000E+00 0. -1.
         11    1    3    3    0    0 -0.13847245299E+01 -0.18092058604E+01 -0.23808801298E+00  0.22907147426E+01  0.51100000000E-03 0. -1.
        -11    1    3    3    0    0 -0.68008386721E+01 -0.22508086130E+02  0.20408528849E+02  0.31134761890E+02  0.51100000000E-03 0.  1.
        -12    1    3    3    0    0  0.25370926120E+02  0.25890282447E+01 -0.43822473120E+01  0.25876457465E+02  0.00000000000E+00 0.  1.
</event>
<event>
 7    1  0.6963701E-013  0.5930195E+02  0.7816164E-02  0.1266605E+00
        -11   -1    0    0    0    0  0.00000000000E+00  0.00000000000E+00  0.45593999997E+02  0.45594000000E+02  0.51100000000E-03 0. -1.
         11   -1    0    0    0    0 -0.00000000000E+00 -0.00000000000E+00 -0.45593999997E+02  0.45594000000E+02  0.51100000000E-03 0.  1.
    9900012    2    1    2    0    0  0.78435878558E+01  0.21002935274E+01 -0.30834839247E+02  0.59301946392E+02  0.50000004311E+02 0.  0.
         12    1    1    2    0    0 -0.78435878558E+01 -0.21002935274E+01  0.30834839247E+02  0.31886053608E+02  0.00000000000E+00 0. -1.
         11    1    3    3    0    0 -0.15785769582E+02  0.67249510589E+01 -0.74966571124E+01  0.18724725797E+02  0.51100000000E-03 0. -1.
        -11    1    3    3    0    0 -0.45965625960E+01 -0.58214881394E-01 -0.30134731677E+01  0.54966169109E+01  0.51100000000E-03 0.  1.
         12    1    3    3    0    0  0.28225920034E+02 -0.45664426501E+01 -0.20324708966E+02  0.35080603684E+02  0.00000000000E+00 0. -1.
</event>
<event>
 7    1  0.6963701E-013  0.5930194E+02  0.7816164E-02  0.1266605E+00
        -11   -1    0    0    0    0  0.00000000000E+00  0.00000000000E+00  0.45593999997E+02  0.45594000000E+02  0.51100000000E-03 0.  1.
         11   -1    0    0    0    0 -0.00000000000E+00 -0.00000000000E+00 -0.45593999997E+02  0.45594000000E+02  0.51100000000E-03 0. -1.
    9900012    2    1    2    0    0 -0.50271894863E+01 -0.20549758462E+02  0.23856978725E+02  0.59301942846E+02  0.49999997845E+02 0.  0.
         12    1    1    2    0    0  0.50271894863E+01  0.20549758462E+02 -0.23856978725E+02  0.31886057154E+02  0.00000000000E+00 0. -1.
         11    1    3    3    0    0  0.94391612729E+01  0.16035730025E+01  0.27675406607E+00  0.95784030498E+01  0.51100000000E-03 0. -1.
        -11    1    3    3    0    0  0.10516950179E+02 -0.13952093429E+02  0.88971631042E+01  0.19606801465E+02  0.51100000000E-03 0.  1.
        -12    1    3    3    0    0 -0.24983300939E+02 -0.82012380358E+01  0.14683061554E+02  0.30116738331E+02  0.00000000000E+00 0.  1.
</event>
<event>
 7    1  0.6963701E-013  0.5930193E+02  0.7816164E-02  0.1266605E+00
        -11   -1    0    0    0    0  0.00000000000E+00  0.00000000000E+00  0.45593999997E+02  0.45594000000E+02  0.51100000000E-03 0.  1.
         11   -1    0    0    0    0 -0.00000000000E+00 -0.00000000000E+00 -0.45593999997E+02  0.45594000000E+02  0.51100000000E-03 0. -1.
    9900012    2    1    2    0    0  0.20832360988E+02 -0.32191509373E+01  0.23924276522E+02  0.59301934012E+02  0.49999981734E+02 0.  0.
         12    1    1    2    0    0 -0.20832360988E+02  0.32191509373E+01 -0.23924276522E+02  0.31886065988E+02  0.00000000000E+00 0. -1.
         11    1    3    3    0    0 -0.79698864776E+01  0.94614430694E+01  0.50724369342E+01  0.13370400597E+02  0.51100000000E-03 0. -1.
        -11    1    3    3    0    0  0.21153902035E+02  0.57540431382E+01  0.10174281656E+02  0.24168421364E+02  0.51100000000E-03 0.  1.
         12    1    3    3    0    0  0.76483454304E+01 -0.18434637145E+02  0.86775579318E+01  0.21763112051E+02  0.00000000000E+00 0. -1.
</event>
<event>
 7    1  0.6963701E-013  0.5930195E+02  0.7816164E-02  0.1266605E+00
        -11   -1    0    0    0    0  0.00000000000E+00  0.00000000000E+00  0.45593999997E+02  0.45594000000E+02  0.51100000000E-03 0. -1.
         11   -1    0    0    0    0 -0.00000000000E+00 -0.00000000000E+00 -0.45593999997E+02  0.45594000000E+02  0.51100000000E-03 0.  1.
    9900012    2    1    2    0    0 -0.10971359532E+01  0.24334640400E+02 -0.20575268293E+02  0.59301951389E+02  0.50000013425E+02 0.  0.
         12    1    1    2    0    0  0.10971359532E+01 -0.24334640400E+02  0.20575268293E+02  0.31886048611E+02  0.00000000000E+00 0. -1.
         11    1    3    3    0    0  0.16374663455E+02 -0.21844428988E+01  0.25575579963E+00  0.16521707095E+02  0.51100000000E-03 0. -1.
        -11    1    3    3    0    0 -0.44840337794E+01  0.16440428117E+02 -0.20062087306E+02  0.26322643920E+02  0.51100000000E-03 0.  1.
        -12    1    3    3    0    0 -0.12987765629E+02  0.10078655181E+02 -0.76893678684E+00  0.16457600374E+02  0.00000000000E+00 0.  1.
</event>
<event>
 7    1  0.6963701E-013  0.5930212E+02  0.7816164E-02  0.1266604E+00
        -11   -1    0    0    0    0  0.00000000000E+00  0.00000000000E+00  0.45593999997E+02  0.45594000000E+02  0.51100000000E-03 0. -1.
         11   -1    0    0    0    0 -0.00000000000E+00 -0.00000000000E+00 -0.45593999997E+02  0.45594000000E+02  0.51100000000E-03 0.  1.
    9900012    2    1    2    0    0 -0.18915027325E+02 -0.52622227136E+01 -0.25124490052E+02  0.59302121512E+02  0.50000323687E+02 0.  0.
         12    1    1    2    0    0  0.18915027325E+02  0.52622227136E+01  0.25124490052E+02  0.31885878488E+02  0.00000000000E+00 0. -1.
         11    1    3    3    0    0 -0.18260527068E+01 -0.32172108739E+01 -0.67803322678E+01  0.77238475010E+01  0.51100000000E-03 0. -1.
        -11    1    3    3    0    0 -0.13492990253E-02  0.36872270512E+01 -0.29927337167E+02  0.30153625907E+02  0.51100000000E-03 0.  1.
         12    1    3    3    0    0 -0.17087625319E+02 -0.57322388909E+01  0.11583179383E+02  0.21424648104E+02  0.00000000000E+00 0. -1.
</event>
<event>
 7    1  0.6963701E-013  0.5930195E+02  0.7816164E-02  0.1266605E+00
        -11   -1    0    0    0    0  0.00000000000E+00  0.00000000000E+00  0.45593999997E+02  0.45594000000E+02  0.51100000000E-03 0. -1.
         11   -1    0    0    0    0 -0.00000000000E+00 -0.00000000000E+00 -0.45593999997E+02  0.45594000000E+02  0.51100000000E-03 0.  1.
    9900012    2    1    2    0    0  0.96290898495E+01 -0.46397617079E+01 -0.30041197636E+02  0.59301947948E+02  0.50000007150E+02 0.  0.
         12    1    1    2    0    0 -0.96290898495E+01  0.46397617079E+01  0.30041197636E+02  0.31886052052E+02  0.00000000000E+00 0. -1.
         11    1    3    3    0    0 -0.80013997963E+01 -0.11749131201E+02 -0.16134986309E+02  0.21503540781E+02  0.51100000000E-03 0. -1.
        -11    1    3    3    0    0  0.11853625694E+02  0.10024046890E+00 -0.22412493156E+02  0.25354256841E+02  0.51100000000E-03 0.  1.
         12    1    3    3    0    0  0.57768639520E+01  0.70091290240E+01  0.85062818282E+01  0.12444150326E+02  0.00000000000E+00 0. -1.
</event>
<event>
 7    1  0.6963701E-013  0.5930208E+02  0.7816164E-02  0.1266604E+00
        -11   -1    0    0    0    0  0.00000000000E+00  0.00000000000E+00  0.45593999997E+02  0.45594000000E+02  0.51100000000E-03 0.  1.
         11   -1    0    0    0    0 -0.00000000000E+00 -0.00000000000E+00 -0.45593999997E+02  0.45594000000E+02  0.51100000000E-03 0. -1.
    9900012    2    1    2    0    0  0.22790150809E+02 -0.16599282814E+02  0.14892428028E+02  0.59302084984E+02  0.50000257069E+02 0.  0.
         12    1    1    2    0    0 -0.22790150809E+02  0.16599282814E+02 -0.14892428028E+02  0.31885915016E+02  0.00000000000E+00 0. -1.
         11    1    3    3    0    0  0.18768473676E-01 -0.53568011018E+00 -0.18131657234E+01  0.18907341531E+01  0.51100000000E-03 0. -1.
        -11    1    3    3    0    0 -0.10506028876E+02  0.79561001221E+01  0.21161064969E+00  0.13180324397E+02  0.51100000000E-03 0.  1.
        -12    1    3    3    0    0  0.33277411212E+02 -0.24019702826E+02  0.16493983101E+02  0.44231026433E+02  0.00000000000E+00 0.  1.
</event>
<event>
 7    1  0.6963701E-013  0.5930195E+02  0.7816164E-02  0.1266605E+00
        -11   -1    0    0    0    0  0.00000000000E+00  0.00000000000E+00  0.45593999997E+02  0.45594000000E+02  0.51100000000E-03 0. -1.
         11   -1    0    0    0    0 -0.00000000000E+00 -0.00000000000E+00 -0.45593999997E+02  0.45594000000E+02  0.51100000000E-03 0.  1.
    9900012    2    1    2    0    0  0.30545891341E+02 -0.43902349268E+01 -0.80246369220E+01  0.59301946023E+02  0.50000003639E+02 0.  0.
         12    1    1    2    0    0 -0.30545891341E+02  0.43902349268E+01  0.80246369220E+01  0.31886053977E+02  0.00000000000E+00 0. -1.
         11    1    3    3    0    0  0.15706503463E+02 -0.12960172615E+02 -0.97670692284E+01  0.22584418673E+02  0.51100000000E-03 0. -1.
        -11    1    3    3    0    0 -0.50724142629E+01  0.42566827143E+00 -0.10711701252E+02  0.11859642655E+02  0.51100000000E-03 0.  1.
         12    1    3    3    0    0  0.19911802141E+02  0.81442694163E+01  0.12454133558E+02  0.24857884695E+02  0.00000000000E+00 0. -1.
</event>
<event>
 7    1  0.6963701E-013  0.5930188E+02  0.7816164E-02  0.1266605E+00
        -11   -1    0    0    0    0  0.00000000000E+00  0.00000000000E+00  0.45593999997E+02  0.45594000000E+02  0.51100000000E-03 0. -1.
         11   -1    0    0    0    0 -0.00000000000E+00 -0.00000000000E+00 -0.45593999997E+02  0.45594000000E+02  0.51100000000E-03 0.  1.
    9900012    2    1    2    0    0  0.81425795297E+01  0.19579723045E+02 -0.23812968498E+02  0.59301880377E+02  0.49999883916E+02 0.  0.
         12    1    1    2    0    0 -0.81425795297E+01 -0.19579723045E+02  0.23812968498E+02  0.31886119623E+02  0.00000000000E+00 0. -1.
         11    1    3    3    0    0 -0.20646761512E+01 -0.48542637649E+00 -0.11625554631E+02  0.11817446726E+02  0.51100000000E-03 0. -1.
        -11    1    3    3    0    0  0.16634841570E+01  0.34538883673E+01 -0.24703554723E+02  0.24999242801E+02  0.51100000000E-03 0.  1.
         12    1    3    3    0    0  0.85437715239E+01  0.16611261055E+02  0.12516140856E+02  0.22485190851E+02  0.00000000000E+00 0. -1.
</event>
<event>
 7    1  0.6963701E-013  0.5930194E+02  0.7816164E-02  0.1266605E+00
        -11   -1    0    0    0    0  0.00000000000E+00  0.00000000000E+00  0.45593999997E+02  0.45594000000E+02  0.51100000000E-03 0.  1.
         11   -1    0    0    0    0 -0.00000000000E+00 -0.00000000000E+00 -0.45593999997E+02  0.45594000000E+02  0.51100000000E-03 0. -1.
    9900012    2    1    2    0    0 -0.14543844383E+02 -0.73783008833E+01  0.27399966781E+02  0.59301938579E+02  0.49999990063E+02 0.  0.
         12    1    1    2    0    0  0.14543844383E+02  0.73783008833E+01 -0.27399966781E+02  0.31886061421E+02  0.00000000000E+00 0. -1.
         11    1    3    3    0    0 -0.26928338741E+01  0.73545682802E+01  0.16476588353E+02  0.18243327352E+02  0.51100000000E-03 0. -1.
        -11    1    3    3    0    0 -0.20446610631E+02 -0.15109354217E+02  0.16948400537E+02  0.30554946444E+02  0.51100000000E-03 0.  1.
         12    1    3    3    0    0  0.85956001224E+01  0.37648505344E+00 -0.60250221093E+01  0.10503664783E+02  0.00000000000E+00 0. -1.
</event>
<event>
 7    1  0.6963701E-013  0.5930195E+02  0.7816164E-02  0.1266605E+00
        -11   -1    0    0    0    0  0.00000000000E+00  0.00000000000E+00  0.45593999997E+02  0.45594000000E+02  0.51100000000E-03 0. -1.
         11   -1    0    0    0    0 -0.00000000000E+00 -0.00000000000E+00 -0.45593999997E+02  0.45594000000E+02  0.51100000000E-03 0.  1.
    9900012    2    1    2    0    0 -0.23059737559E+01 -0.31457807357E+02  0.46700157159E+01  0.59301949673E+02  0.50000010296E+02 0.  0.
         12    1    1    2    0    0  0.23059737559E+01  0.31457807357E+02 -0.46700157159E+01  0.31886050327E+02  0.00000000000E+00 0. -1.
         11    1    3    3    0    0  0.51815619839E+01  0.50530729286E+01  0.58992058759E+01  0.93371709228E+01  0.51100000000E-03 0. -1.
        -11    1    3    3    0    0 -0.59029416732E+01  0.42695393040E+00 -0.10315581447E+02  0.11892780621E+02  0.51100000000E-03 0.  1.
        -12    1    3    3    0    0 -0.15845940666E+01 -0.36937834216E+02  0.90863912871E+01  0.38071998129E+02  0.00000000000E+00 0.  1.
</event>
<event>
 7    1  0.6963701E-013  0.5930195E+02  0.7816164E-02  0.1266605E+00
        -11   -1    0    0    0    0  0.00000000000E+00  0.00000000000E+00  0.45593999997E+02  0.45594000000E+02  0.51100000000E-03 0.  1.
         11   -1    0    0    0    0 -0.00000000000E+00 -0.00000000000E+00 -0.45593999997E+02  0.45594000000E+02  0.51100000000E-03 0. -1.
    9900012    2    1    2    0    0 -0.21971532194E+02 -0.19290319617E+02  0.12722236265E+02  0.59301953625E+02  0.50000017502E+02 0.  0.
         12    1    1    2    0    0  0.21971532194E+02  0.19290319617E+02 -0.12722236265E+02  0.31886046375E+02  0.00000000000E+00 0. -1.
         11    1    3    3    0    0  0.18307377233E+01 -0.12170526668E+02 -0.18614375551E+01  0.12447420216E+02  0.51100000000E-03 0. -1.
        -11    1    3    3    0    0  0.26789146391E+01 -0.13961253796E+02 -0.27420820497E+01  0.14477990380E+02  0.51100000000E-03 0.  1.
        -12    1    3    3    0    0 -0.26481184557E+02  0.68414608479E+01  0.17325755869E+02  0.32376543029E+02  0.00000000000E+00 0.  1.
</event>
<event>
 7    1  0.6963701E-013  0.5930195E+02  0.7816164E-02  0.1266605E+00
        -11   -1    0    0    0    0  0.00000000000E+00  0.00000000000E+00  0.45593999997E+02  0.45594000000E+02  0.51100000000E-03 0. -1.
         11   -1    0    0    0    0 -0.00000000000E+00 -0.00000000000E+00 -0.45593999997E+02  0.45594000000E+02  0.51100000000E-03 0.  1.
    9900012    2    1    2    0    0 -0.70078710676E+01 -0.29405306644E+02 -0.10145830306E+02  0.59301949942E+02  0.50000010786E+02 0.  0.
         12    1    1    2    0    0  0.70078710676E+01  0.29405306644E+02  0.10145830306E+02  0.31886050058E+02  0.00000000000E+00 0. -1.
         11    1    3    3    0    0  0.23571566846E+01 -0.62413583819E+00 -0.15944878142E+02  0.16130247128E+02  0.51100000000E-03 0. -1.
        -11    1    3    3    0    0 -0.88552864263E+01 -0.71058822470E+01 -0.10950525003E+02  0.15774145248E+02  0.51100000000E-03 0.  1.
         12    1    3    3    0    0 -0.50974132584E+00 -0.21675288559E+02  0.16749572839E+02  0.27397557566E+02  0.00000000000E+00 0. -1.
</event>
<event>
 7    1  0.6963701E-013  0.5930198E+02  0.7816164E-02  0.1266605E+00
        -11   -1    0    0    0    0  0.00000000000E+00  0.00000000000E+00  0.45593999997E+02  0.45594000000E+02  0.51100000000E-03 0.  1.
         11   -1    0    0    0    0 -0.00000000000E+00 -0.00000000000E+00 -0.45593999997E+02  0.45594000000E+02  0.51100000000E-03 0. -1.
    9900012    2    1    2    0    0  0.92186973016E+01  0.21744913669E+02  0.21421783342E+02  0.59301977169E+02  0.50000060442E+02 0.  0.
         12    1    1    2    0    0 -0.92186973016E+01 -0.21744913669E+02 -0.21421783342E+02  0.31886022831E+02  0.00000000000E+00 0. -1.
         11    1    3    3    0    0 -0.25914145411E+01 -0.42685520229E+01 -0.60912931907E+00  0.50306067710E+01  0.51100000000E-03 0. -1.
        -11    1    3    3    0    0  0.21891776944E+01 -0.10747599697E+02  0.87064396902E+01  0.14003767013E+02  0.51100000000E-03 0.  1.
         12    1    3    3    0    0  0.96209341484E+01  0.36761065389E+02  0.13324472971E+02  0.40267603385E+02  0.00000000000E+00 0. -1.
</event>
<event>
 7    1  0.6963701E-013  0.5930165E+02  0.7816164E-02  0.1266606E+00
        -11   -1    0    0    0    0  0.00000000000E+00  0.00000000000E+00  0.45593999997E+02  0.45594000000E+02  0.51100000000E-03 0.  1.
         11   -1    0    0    0    0 -0.00000000000E+00 -0.00000000000E+00 -0.45593999997E+02  0.45594000000E+02  0.51100000000E-03 0. -1.
    9900012    2    1    2    0    0 -0.15226801720E+02 -0.12259193405E+02  0.25191192613E+02  0.59301647138E+02  0.49999458542E+02 0.  0.
         12    1    1    2    0    0  0.15226801720E+02  0.12259193405E+02 -0.25191192613E+02  0.31886352862E+02  0.00000000000E+00 0. -1.
         11    1    3    3    0    0 -0.12197344602E+02 -0.42585441949E+01  0.94396758086E+01  0.16000559166E+02  0.51100000000E-03 0.  1.
        -11    1    3    3    0    0 -0.19963747108E+02 -0.11503851327E+02  0.88782506442E+01  0.24692369848E+02  0.51100000000E-03 0. -1.
        -12    1    3    3    0    0  0.16934289989E+02  0.35032021171E+01  0.68732661600E+01  0.18608718124E+02  0.00000000000E+00 0.  1.
</event>
<event>
 7    1  0.6963701E-013  0.5930197E+02  0.7816164E-02  0.1266605E+00
        -11   -1    0    0    0    0  0.00000000000E+00  0.00000000000E+00  0.45593999997E+02  0.45594000000E+02  0.51100000000E-03 0. -1.
         11   -1    0    0    0    0 -0.00000000000E+00 -0.00000000000E+00 -0.45593999997E+02  0.45594000000E+02  0.51100000000E-03 0.  1.
    9900012    2    1    2    0    0 -0.25267864500E+02  0.47114449265E+01 -0.18869457601E+02  0.59301966696E+02  0.50000041341E+02 0.  0.
         12    1    1    2    0    0  0.25267864500E+02 -0.47114449265E+01  0.18869457601E+02  0.31886033304E+02  0.00000000000E+00 0. -1.
         11    1    3    3    0    0 -0.24869731871E+02 -0.38079283086E+01  0.58230667315E+01  0.25824639161E+02  0.51100000000E-03 0. -1.
        -11    1    3    3    0    0 -0.25271574773E+01  0.23879717516E+01  0.32690234893E+01  0.47723630243E+01  0.51100000000E-03 0.  1.
        -12    1    3    3    0    0  0.21290248482E+01  0.61314014835E+01 -0.27961547822E+02  0.28704964511E+02  0.00000000000E+00 0.  1.
</event>
<event>
 7    1  0.6963701E-013  0.5930189E+02  0.7816164E-02  0.1266605E+00
        -11   -1    0    0    0    0  0.00000000000E+00  0.00000000000E+00  0.45593999997E+02  0.45594000000E+02  0.51100000000E-03 0.  1.
         11   -1    0    0    0    0 -0.00000000000E+00 -0.00000000000E+00 -0.45593999997E+02  0.45594000000E+02  0.51100000000E-03 0. -1.
    9900012    2    1    2    0    0 -0.13612499220E+02 -0.16268219104E+02  0.23806914256E+02  0.59301886185E+02  0.49999894508E+02 0.  0.
         12    1    1    2    0    0  0.13612499220E+02  0.16268219104E+02 -0.23806914256E+02  0.31886113815E+02  0.00000000000E+00 0. -1.
         11    1    3    3    0    0 -0.31257973633E+01 -0.49486413998E+01  0.53146140005E+01  0.79059966542E+01  0.51100000000E-03 0. -1.
        -11    1    3    3    0    0  0.20738163447E+00 -0.26122031565E+02  0.20246741730E+02  0.33050477927E+02  0.51100000000E-03 0.  1.
         12    1    3    3    0    0 -0.10694083492E+02  0.14802453861E+02 -0.17544414747E+01  0.18345411604E+02  0.00000000000E+00 0. -1.
</event>
<event>
 7    1  0.6963701E-013  0.5930193E+02  0.7816164E-02  0.1266605E+00
        -11   -1    0    0    0    0  0.00000000000E+00  0.00000000000E+00  0.45593999997E+02  0.45594000000E+02  0.51100000000E-03 0. -1.
         11   -1    0    0    0    0 -0.00000000000E+00 -0.00000000000E+00 -0.45593999997E+02  0.45594000000E+02  0.51100000000E-03 0.  1.
    9900012    2    1    2    0    0 -0.28019799722E+02 -0.83196440286E+01 -0.12743460476E+02  0.59301930344E+02  0.49999975045E+02 0.  0.
         12    1    1    2    0    0  0.28019799722E+02  0.83196440286E+01  0.12743460476E+02  0.31886069656E+02  0.00000000000E+00 0. -1.
         11    1    3    3    0    0  0.17044589512E+01  0.69012450018E+00  0.13029692163E+01  0.22537038807E+01  0.51100000000E-03 0. -1.
        -11    1    3    3    0    0  0.72302299787E+01  0.60189237068E+00 -0.17266319320E+02  0.18728702120E+02  0.51100000000E-03 0.  1.
        -12    1    3    3    0    0 -0.36954488651E+02 -0.96116608994E+01  0.32198896278E+01  0.38319524344E+02  0.00000000000E+00 0.  1.
</event>
<event>
 7    1  0.6963701E-013  0.5930197E+02  0.7816164E-02  0.1266605E+00
        -11   -1    0    0    0    0  0.00000000000E+00  0.00000000000E+00  0.45593999997E+02  0.45594000000E+02  0.51100000000E-03 0.  1.
         11   -1    0    0    0    0 -0.00000000000E+00 -0.00000000000E+00 -0.45593999997E+02  0.45594000000E+02  0.51100000000E-03 0. -1.
    9900012    2    1    2    0    0 -0.21013266989E+02 -0.17174726822E+02  0.16738888905E+02  0.59301968062E+02  0.50000043833E+02 0.  0.
         12    1    1    2    0    0  0.21013266989E+02  0.17174726822E+02 -0.16738888905E+02  0.31886031938E+02  0.00000000000E+00 0. -1.
         11    1    3    3    0    0 -0.16366086945E+01 -0.43842161656E+01  0.94150802017E+01  0.10513970462E+02  0.51100000000E-03 0. -1.
        -11    1    3    3    0    0 -0.15062087016E+02 -0.27351216295E+02  0.11100829945E+02  0.33138858216E+02  0.51100000000E-03 0.  1.
         12    1    3    3    0    0 -0.43145712789E+01  0.14560705639E+02 -0.37770212416E+01  0.15649139385E+02  0.00000000000E+00 0. -1.
</event>
<event>
 7    1  0.6963701E-013  0.5930188E+02  0.7816164E-02  0.1266605E+00
        -11   -1    0    0    0    0  0.00000000000E+00  0.00000000000E+00  0.45593999997E+02  0.45594000000E+02  0.51100000000E-03 0.  1.
         11   -1    0    0    0    0 -0.00000000000E+00 -0.00000000000E+00 -0.45593999997E+02  0.45594000000E+02  0.51100000000E-03 0. -1.
    9900012    2    1    2    0    0  0.23789099421E+02 -0.20731487118E+02  0.45835645720E+01  0.59301876473E+02  0.49999876797E+02 0.  0.
         12    1    1    2    0    0 -0.23789099421E+02  0.20731487118E+02 -0.45835645720E+01  0.31886123527E+02  0.00000000000E+00 0. -1.
         11    1    3    3    0    0  0.15045313247E+02  0.14670976773E+01  0.26170344508E+01  0.15341534991E+02  0.51100000000E-03 0. -1.
        -11    1    3    3    0    0  0.10013852768E+02  0.77915707638E+01  0.53166977005E+01  0.13756929052E+02  0.51100000000E-03 0.  1.
         12    1    3    3    0    0 -0.12700665951E+01 -0.29990155559E+02 -0.33501675793E+01  0.30203412430E+02  0.00000000000E+00 0. -1.
</event>
<event>
 7    1  0.6963701E-013  0.5930194E+02  0.7816164E-02  0.1266605E+00
        -11   -1    0    0    0    0  0.00000000000E+00  0.00000000000E+00  0.45593999997E+02  0.45594000000E+02  0.51100000000E-03 0.  1.
         11   -1    0    0    0    0 -0.00000000000E+00 -0.00000000000E+00 -0.45593999997E+02  0.45594000000E+02  0.51100000000E-03 0. -1.
    9900012    2    1    2    0    0  0.63739671823E+01  0.21303004296E+02  0.22853351613E+02  0.59301935181E+02  0.49999983866E+02 0.  0.
         12    1    1    2    0    0 -0.63739671823E+01 -0.21303004296E+02 -0.22853351613E+02  0.31886064819E+02  0.00000000000E+00 0. -1.
         11    1    3    3    0    0  0.85387537564E+01  0.86421332508E+01 -0.45338001483E+00  0.12157398428E+02  0.51100000000E-03 0. -1.
        -11    1    3    3    0    0 -0.14680406173E+01  0.80311935894E+01 -0.10339442906E+02  0.13174190434E+02  0.51100000000E-03 0.  1.
        -12    1    3    3    0    0 -0.69674595677E+00  0.46296774557E+01  0.33646174534E+02  0.33970346319E+02  0.00000000000E+00 0.  1.
</event>
<event>
 7    1  0.6963701E-013  0.5930187E+02  0.7816164E-02  0.1266605E+00
        -11   -1    0    0    0    0  0.00000000000E+00  0.00000000000E+00  0.45593999997E+02  0.45594000000E+02  0.51100000000E-03 0.  1.
         11   -1    0    0    0    0 -0.00000000000E+00 -0.00000000000E+00 -0.45593999997E+02  0.45594000000E+02  0.51100000000E-03 0. -1.
    9900012    2    1    2    0    0 -0.10767300400E+02  0.12926447975E+01  0.29985325884E+02  0.59301867327E+02  0.49999860116E+02 0.  0.
         12    1    1    2    0    0  0.10767300400E+02 -0.12926447975E+01 -0.29985325884E+02  0.31886132673E+02  0.00000000000E+00 0. -1.
         11    1    3    3    0    0 -0.15974634552E+02  0.34451846719E+01  0.43060948692E+01  0.16899724844E+02  0.51100000000E-03 0. -1.
        -11    1    3    3    0    0 -0.70596184614E+01  0.88404982076E+01 -0.66417796263E+00  0.11332861687E+02  0.51100000000E-03 0.  1.
        -12    1    3    3    0    0  0.12266952614E+02 -0.10993038082E+02  0.26343408977E+02  0.31069280797E+02  0.00000000000E+00 0.  1.
</event>
<event>
 7    1  0.6963701E-013  0.5930193E+02  0.7816164E-02  0.1266605E+00
        -11   -1    0    0    0    0  0.00000000000E+00  0.00000000000E+00  0.45593999997E+02  0.45594000000E+02  0.51100000000E-03 0.  1.
         11   -1    0    0    0    0 -0.00000000000E+00 -0.00000000000E+00 -0.45593999997E+02  0.45594000000E+02  0.51100000000E-03 0. -1.
    9900012    2    1    2    0    0 -0.10803560552E+02  0.10749943291E+02  0.28007910293E+02  0.59301933445E+02  0.49999980700E+02 0.  0.
         12    1    1    2    0    0  0.10803560552E+02 -0.10749943291E+02 -0.28007910293E+02  0.31886066555E+02  0.00000000000E+00 0. -1.
         11    1    3    3    0    0 -0.15329084192E+01 -0.84296118281E+01 -0.67831532627E+00  0.85946655396E+01  0.51100000000E-03 0. -1.
        -11    1    3    3    0    0 -0.64173277443E+01 -0.66500062609E+01  0.22017829915E+02  0.23878641358E+02  0.51100000000E-03 0.  1.
        -12    1    3    3    0    0 -0.28533243890E+01  0.25829561380E+02  0.66683957037E+01  0.26828626548E+02  0.00000000000E+00 0.  1.
</event>
<event>
 7    1  0.6963701E-013  0.5930195E+02  0.7816164E-02  0.1266605E+00
        -11   -1    0    0    0    0  0.00000000000E+00  0.00000000000E+00  0.45593999997E+02  0.45594000000E+02  0.51100000000E-03 0.  1.
         11   -1    0    0    0    0 -0.00000000000E+00 -0.00000000000E+00 -0.45593999997E+02  0.45594000000E+02  0.51100000000E-03 0. -1.
    9900012    2    1    2    0    0  0.13406215440E+02 -0.15859113747E+02  0.24196738088E+02  0.59301949204E+02  0.50000009441E+02 0.  0.
         12    1    1    2    0    0 -0.13406215440E+02  0.15859113747E+02 -0.24196738088E+02  0.31886050796E+02  0.00000000000E+00 0. -1.
         11    1    3    3    0    0 -0.60589285746E+01  0.21623123105E+01  0.17008927146E+02  0.18184878689E+02  0.51100000000E-03 0. -1.
        -11    1    3    3    0    0  0.15515512974E+01 -0.13229364770E+02  0.15804861164E+02  0.20669229311E+02  0.51100000000E-03 0.  1.
         12    1    3    3    0    0  0.17913592717E+02 -0.47920612874E+01 -0.86170502220E+01  0.20447841205E+02  0.00000000000E+00 0. -1.
</event>
<event>
 7    1  0.6963701E-013  0.5930190E+02  0.7816164E-02  0.1266605E+00
        -11   -1    0    0    0    0  0.00000000000E+00  0.00000000000E+00  0.45593999997E+02  0.45594000000E+02  0.51100000000E-03 0.  1.
         11   -1    0    0    0    0 -0.00000000000E+00 -0.00000000000E+00 -0.45593999997E+02  0.45594000000E+02  0.51100000000E-03 0. -1.
    9900012    2    1    2    0    0  0.16117777378E+02  0.19735276698E+02  0.19169234754E+02  0.59301898718E+02  0.49999917365E+02 0.  0.
         12    1    1    2    0    0 -0.16117777378E+02 -0.19735276698E+02 -0.19169234754E+02  0.31886101282E+02  0.00000000000E+00 0. -1.
         11    1    3    3    0    0  0.16642069540E+02  0.30320316654E+01 -0.20548814154E+01  0.17040370668E+02  0.51100000000E-03 0. -1.
        -11    1    3    3    0    0  0.87669022461E+01 -0.13063479239E+01 -0.41508940843E+01  0.97874941559E+01  0.51100000000E-03 0.  1.
        -12    1    3    3    0    0 -0.92911944084E+01  0.18009592957E+02  0.25375010253E+02  0.32474033894E+02  0.00000000000E+00 0.  1.
</event>
<event>
 7    1  0.6963701E-013  0.5930193E+02  0.7816164E-02  0.1266605E+00
        -11   -1    0    0    0    0  0.00000000000E+00  0.00000000000E+00  0.45593999997E+02  0.45594000000E+02  0.51100000000E-03 0.  1.
         11   -1    0    0    0    0 -0.00000000000E+00 -0.00000000000E+00 -0.45593999997E+02  0.45594000000E+02  0.51100000000E-03 0. -1.
    9900012    2    1    2    0    0 -0.23939955982E+02  0.19373604163E+01  0.20972516170E+02  0.59301932630E+02  0.49999979214E+02 0.  0.
         12    1    1    2    0    0  0.23939955982E+02 -0.19373604163E+01 -0.20972516170E+02  0.31886067370E+02  0.00000000000E+00 0. -1.
         11    1    3    3    0    0  0.12845179971E+01 -0.12734517629E+00 -0.20813271801E+01  0.24491072599E+01  0.51100000000E-03 0. -1.
        -11    1    3    3    0    0  0.44355825368E+01 -0.11212509786E+02 -0.58136750047E+01  0.13386320833E+02  0.51100000000E-03 0.  1.
        -12    1    3    3    0    0 -0.29660056516E+02  0.13277215378E+02  0.28867518355E+02  0.43466504537E+02  0.00000000000E+00 0.  1.
</event>
<event>
 7    1  0.6963701E-013  0.5930194E+02  0.7816164E-02  0.1266605E+00
        -11   -1    0    0    0    0  0.00000000000E+00  0.00000000000E+00  0.45593999997E+02  0.45594000000E+02  0.51100000000E-03 0. -1.
         11   -1    0    0    0    0 -0.00000000000E+00 -0.00000000000E+00 -0.45593999997E+02  0.45594000000E+02  0.51100000000E-03 0.  1.
    9900012    2    1    2    0    0 -0.30855222437E+02 -0.57649452237E+01 -0.56072593465E+01  0.59301941880E+02  0.49999996083E+02 0.  0.
         12    1    1    2    0    0  0.30855222437E+02  0.57649452237E+01  0.56072593465E+01  0.31886058120E+02  0.00000000000E+00 0. -1.
         11    1    3    3    0    0 -0.13692046417E+02 -0.23599324329E+01  0.63535544740E+01  0.15277731209E+02  0.51100000000E-03 0. -1.
        -11    1    3    3    0    0 -0.15020928835E+02 -0.46682099072E+01  0.12093797560E+02  0.19841381668E+02  0.51100000000E-03 0.  1.
        -12    1    3    3    0    0 -0.21422471847E+01  0.12631971164E+01 -0.24054611381E+02  0.24182829004E+02  0.00000000000E+00 0.  1.
</event>
<event>
 7    1  0.6963701E-013  0.5930194E+02  0.7816164E-02  0.1266605E+00
        -11   -1    0    0    0    0  0.00000000000E+00  0.00000000000E+00  0.45593999997E+02  0.45594000000E+02  0.51100000000E-03 0.  1.
         11   -1    0    0    0    0 -0.00000000000E+00 -0.00000000000E+00 -0.45593999997E+02  0.45594000000E+02  0.51100000000E-03 0. -1.
    9900012    2    1    2    0    0 -0.17361824580E+02 -0.12519530055E+02  0.23633651122E+02  0.59301936416E+02  0.49999986117E+02 0.  0.
         12    1    1    2    0    0  0.17361824580E+02  0.12519530055E+02 -0.23633651122E+02  0.31886063584E+02  0.00000000000E+00 0. -1.
         11    1    3    3    0    0 -0.15474481507E+02 -0.33026977820E+01  0.55804912975E+00  0.15832839595E+02  0.51100000000E-03 0. -1.
        -11    1    3    3    0    0 -0.14311918566E+02 -0.99823938163E+01  0.25389663374E+02  0.30807697185E+02  0.51100000000E-03 0.  1.
         12    1    3    3    0    0  0.12424575493E+02  0.76556154363E+00 -0.23140613814E+01  0.12661399636E+02  0.00000000000E+00 0. -1.
</event>
<event>
 7    1  0.6963701E-013  0.5930192E+02  0.7816164E-02  0.1266605E+00
        -11   -1    0    0    0    0  0.00000000000E+00  0.00000000000E+00  0.45593999997E+02  0.45594000000E+02  0.51100000000E-03 0.  1.
         11   -1    0    0    0    0 -0.00000000000E+00 -0.00000000000E+00 -0.45593999997E+02  0.45594000000E+02  0.51100000000E-03 0. -1.
    9900012    2    1    2    0    0  0.10795304330E+00  0.24750079653E+02 -0.20103338544E+02  0.59301916558E+02  0.49999949902E+02 0.  0.
         12    1    1    2    0    0 -0.10795304330E+00 -0.24750079653E+02  0.20103338544E+02  0.31886083442E+02  0.00000000000E+00 0. -1.
         11    1    3    3    0    0  0.30871594484E+01 -0.14266088523E+01  0.85557711232E+01  0.92068988292E+01  0.51100000000E-03 0. -1.
        -11    1    3    3    0    0  0.19054119006E+01 -0.70842435622E+01 -0.67447257256E+01  0.99653613449E+01  0.51100000000E-03 0.  1.
         12    1    3    3    0    0 -0.48846183057E+01  0.33260932067E+02 -0.21914383941E+02  0.40129656384E+02  0.00000000000E+00 0. -1.
</event>
<event>
 7    1  0.6963701E-013  0.5930195E+02  0.7816164E-02  0.1266605E+00
        -11   -1    0    0    0    0  0.00000000000E+00  0.00000000000E+00  0.45593999997E+02  0.45594000000E+02  0.51100000000E-03 0. -1.
         11   -1    0    0    0    0 -0.00000000000E+00 -0.00000000000E+00 -0.45593999997E+02  0.45594000000E+02  0.51100000000E-03 0.  1.
    9900012    2    1    2    0    0  0.25224858872E+02 -0.18603905833E+02  0.58584368277E+01  0.59301951335E+02  0.50000013328E+02 0.  0.
         12    1    1    2    0    0 -0.25224858872E+02  0.18603905833E+02 -0.58584368277E+01  0.31886048665E+02  0.00000000000E+00 0. -1.
         11    1    3    3    0    0  0.67573755630E+01 -0.21078656504E+02  0.64842360662E+01  0.23065498090E+02  0.51100000000E-03 0.  1.
        -11    1    3    3    0    0  0.22928770075E+02 -0.73079826357E+01  0.42379995595E+01  0.24435542717E+02  0.51100000000E-03 0. -1.
        -12    1    3    3    0    0 -0.44612867658E+01  0.97827333064E+01 -0.48637987980E+01  0.11800910528E+02  0.00000000000E+00 0.  1.
</event>
<event>
 7    1  0.6963701E-013  0.5930193E+02  0.7816164E-02  0.1266605E+00
        -11   -1    0    0    0    0  0.00000000000E+00  0.00000000000E+00  0.45593999997E+02  0.45594000000E+02  0.51100000000E-03 0. -1.
         11   -1    0    0    0    0 -0.00000000000E+00 -0.00000000000E+00 -0.45593999997E+02  0.45594000000E+02  0.51100000000E-03 0.  1.
    9900012    2    1    2    0    0  0.22495721969E+02 -0.22436500959E+02 -0.26957935045E+01  0.59301931179E+02  0.49999976567E+02 0.  0.
         12    1    1    2    0    0 -0.22495721969E+02  0.22436500959E+02  0.26957935045E+01  0.31886068821E+02  0.00000000000E+00 0. -1.
         11    1    3    3    0    0  0.87520813655E+00  0.30469787274E+01 -0.35656027048E+01  0.47711205767E+01  0.51100000000E-03 0. -1.
        -11    1    3    3    0    0  0.69807514279E+01  0.11261409388E+02  0.61838307975E+01  0.14621559270E+02  0.51100000000E-03 0.  1.
        -12    1    3    3    0    0  0.14639762405E+02 -0.36744889075E+02 -0.53140215973E+01  0.39909251332E+02  0.00000000000E+00 0.  1.
</event>
<event>
 7    1  0.6963701E-013  0.5930195E+02  0.7816164E-02  0.1266605E+00
        -11   -1    0    0    0    0  0.00000000000E+00  0.00000000000E+00  0.45593999997E+02  0.45594000000E+02  0.51100000000E-03 0.  1.
         11   -1    0    0    0    0 -0.00000000000E+00 -0.00000000000E+00 -0.45593999997E+02  0.45594000000E+02  0.51100000000E-03 0. -1.
    9900012    2    1    2    0    0 -0.22802248838E+02  0.11063791329E+02  0.19348655091E+02  0.59301945298E+02  0.50000002316E+02 0.  0.
         12    1    1    2    0    0  0.22802248838E+02 -0.11063791329E+02 -0.19348655091E+02  0.31886054702E+02  0.00000000000E+00 0. -1.
         11    1    3    3    0    0  0.21429518603E+01  0.27847340389E+01  0.11737201825E+02  0.12251893457E+02  0.51100000000E-03 0. -1.
        -11    1    3    3    0    0 -0.57726258645E+00 -0.10608295495E+02  0.11866203737E+02  0.15927208066E+02  0.51100000000E-03 0.  1.
         12    1    3    3    0    0 -0.24367938112E+02  0.18887352785E+02 -0.42547504708E+01  0.31122843775E+02  0.00000000000E+00 0. -1.
</event>
<event>
 7    1  0.6963701E-013  0.5930194E+02  0.7816164E-02  0.1266605E+00
        -11   -1    0    0    0    0  0.00000000000E+00  0.00000000000E+00  0.45593999997E+02  0.45594000000E+02  0.51100000000E-03 0.  1.
         11   -1    0    0    0    0 -0.00000000000E+00 -0.00000000000E+00 -0.45593999997E+02  0.45594000000E+02  0.51100000000E-03 0. -1.
    9900012    2    1    2    0    0  0.21742457337E+02  0.15623546327E+02  0.17317359520E+02  0.59301943617E+02  0.49999999251E+02 0.  0.
         12    1    1    2    0    0 -0.21742457337E+02 -0.15623546327E+02 -0.17317359520E+02  0.31886056383E+02  0.00000000000E+00 0. -1.
         11    1    3    3    0    0 -0.70697257522E+01  0.39950219653E+01  0.71278440623E+01  0.10804970336E+02  0.51100000000E-03 0. -1.
        -11    1    3    3    0    0  0.24055637385E+02  0.19015529457E+02  0.18984914452E+02  0.36065094309E+02  0.51100000000E-03 0.  1.
         12    1    3    3    0    0  0.47565457045E+01 -0.73870050955E+01 -0.87953989936E+01  0.12431878972E+02  0.00000000000E+00 0. -1.
</event>
<event>
 7    1  0.6963701E-013  0.5930195E+02  0.7816164E-02  0.1266605E+00
        -11   -1    0    0    0    0  0.00000000000E+00  0.00000000000E+00  0.45593999997E+02  0.45594000000E+02  0.51100000000E-03 0.  1.
         11   -1    0    0    0    0 -0.00000000000E+00 -0.00000000000E+00 -0.45593999997E+02  0.45594000000E+02  0.51100000000E-03 0. -1.
    9900012    2    1    2    0    0  0.18255050628E+02  0.53880532613E+01  0.25582071629E+02  0.59301946933E+02  0.50000005299E+02 0.  0.
         12    1    1    2    0    0 -0.18255050628E+02 -0.53880532613E+01 -0.25582071629E+02  0.31886053067E+02  0.00000000000E+00 0. -1.
         11    1    3    3    0    0  0.13929542867E+02 -0.32074057275E+01  0.19824710426E-01  0.14294055032E+02  0.51100000000E-03 0. -1.
        -11    1    3    3    0    0  0.19632470451E+02  0.75171988767E+01  0.10472106332E+02  0.23486319130E+02  0.51100000000E-03 0.  1.
         12    1    3    3    0    0 -0.15306962690E+02  0.10782601120E+01  0.15090140586E+02  0.21521572772E+02  0.00000000000E+00 0. -1.
</event>
<event>
 7    1  0.6963701E-013  0.5930195E+02  0.7816164E-02  0.1266605E+00
        -11   -1    0    0    0    0  0.00000000000E+00  0.00000000000E+00  0.45593999997E+02  0.45594000000E+02  0.51100000000E-03 0. -1.
         11   -1    0    0    0    0 -0.00000000000E+00 -0.00000000000E+00 -0.45593999997E+02  0.45594000000E+02  0.51100000000E-03 0.  1.
    9900012    2    1    2    0    0  0.32147594458E+01  0.18018038113E+02 -0.26110071251E+02  0.59301949814E+02  0.50000010553E+02 0.  0.
         12    1    1    2    0    0 -0.32147594458E+01 -0.18018038113E+02  0.26110071251E+02  0.31886050186E+02  0.00000000000E+00 0. -1.
         11    1    3    3    0    0  0.46239996072E+01  0.25382794057E+01 -0.74365086367E+01  0.91173403838E+01  0.51100000000E-03 0.  1.
        -11    1    3    3    0    0 -0.70960085849E+01  0.10531468263E+02  0.12675173913E+02  0.17942273981E+02  0.51100000000E-03 0. -1.
         12    1    3    3    0    0  0.56867684236E+01  0.49482904442E+01 -0.31348736527E+02  0.32242335450E+02  0.00000000000E+00 0. -1.
</event>
<event>
 7    1  0.6963701E-013  0.5930198E+02  0.7816164E-02  0.1266605E+00
        -11   -1    0    0    0    0  0.00000000000E+00  0.00000000000E+00  0.45593999997E+02  0.45594000000E+02  0.51100000000E-03 0.  1.
         11   -1    0    0    0    0 -0.00000000000E+00 -0.00000000000E+00 -0.45593999997E+02  0.45594000000E+02  0.51100000000E-03 0. -1.
    9900012    2    1    2    0    0 -0.43245683527E+01 -0.23139235931E+02 -0.21507959191E+02  0.59301977365E+02  0.50000060799E+02 0.  0.
         12    1    1    2    0    0  0.43245683527E+01  0.23139235931E+02  0.21507959191E+02  0.31886022635E+02  0.00000000000E+00 0. -1.
         11    1    3    3    0    0  0.76165887039E+01 -0.10924677178E+02 -0.47501052492E+01  0.14139465869E+02  0.51100000000E-03 0. -1.
        -11    1    3    3    0    0  0.12567542006E+02 -0.97772045441E+01 -0.10651288519E+01  0.15958425377E+02  0.51100000000E-03 0.  1.
         12    1    3    3    0    0 -0.24508699063E+02 -0.24373542093E+01 -0.15692725090E+02  0.29204086119E+02  0.00000000000E+00 0. -1.
</event>
<event>
 7    1  0.6963701E-013  0.5930186E+02  0.7816164E-02  0.1266605E+00
        -11   -1    0    0    0    0  0.00000000000E+00  0.00000000000E+00  0.45593999997E+02  0.45594000000E+02  0.51100000000E-03 0. -1.
         11   -1    0    0    0    0 -0.00000000000E+00 -0.00000000000E+00 -0.45593999997E+02  0.45594000000E+02  0.51100000000E-03 0.  1.
    9900012    2    1    2    0    0 -0.64898231877E+01 -0.31044437182E+02 -0.32940533781E+01  0.59301863944E+02  0.49999853946E+02 0.  0.
         12    1    1    2    0    0  0.64898231877E+01  0.31044437182E+02  0.32940533781E+01  0.31886136056E+02  0.00000000000E+00 0. -1.
         11    1    3    3    0    0 -0.70189814188E+01 -0.92093608261E+01  0.11720737702E+02  0.16475864758E+02  0.51100000000E-03 0. -1.
        -11    1    3    3    0    0  0.89483087042E+01 -0.27220809537E+01  0.75933821416E+01  0.12047464712E+02  0.51100000000E-03 0.  1.
        -12    1    3    3    0    0 -0.84191504732E+01 -0.19112995402E+02 -0.22608173222E+02  0.30778534474E+02  0.00000000000E+00 0.  1.
</event>
<event>
 7    1  0.6963701E-013  0.5930196E+02  0.7816164E-02  0.1266605E+00
        -11   -1    0    0    0    0  0.00000000000E+00  0.00000000000E+00  0.45593999997E+02  0.45594000000E+02  0.51100000000E-03 0.  1.
         11   -1    0    0    0    0 -0.00000000000E+00 -0.00000000000E+00 -0.45593999997E+02  0.45594000000E+02  0.51100000000E-03 0. -1.
    9900012    2    1    2    0    0 -0.44884213627E+01  0.26772996366E+02  0.16726635069E+02  0.59301959457E+02  0.50000028140E+02 0.  0.
         12    1    1    2    0    0  0.44884213627E+01 -0.26772996366E+02 -0.16726635069E+02  0.31886040543E+02  0.00000000000E+00 0. -1.
         11    1    3    3    0    0  0.84212247249E+01  0.65965881886E+01  0.18728003372E+02  0.21567802674E+02  0.51100000000E-03 0. -1.
        -11    1    3    3    0    0  0.68463820709E+01  0.13195821482E+02  0.49333812732E+01  0.15663361807E+02  0.51100000000E-03 0.  1.
         12    1    3    3    0    0 -0.19756028159E+02  0.69805866957E+01 -0.69347495767E+01  0.22070794977E+02  0.00000000000E+00 0. -1.
</event>
<event>
 7    1  0.6963701E-013  0.5930191E+02  0.7816164E-02  0.1266605E+00
        -11   -1    0    0    0    0  0.00000000000E+00  0.00000000000E+00  0.45593999997E+02  0.45594000000E+02  0.51100000000E-03 0.  1.
         11   -1    0    0    0    0 -0.00000000000E+00 -0.00000000000E+00 -0.45593999997E+02  0.45594000000E+02  0.51100000000E-03 0. -1.
    9900012    2    1    2    0    0  0.60532262822E+01  0.10133885780E+02  0.29620694547E+02  0.59301910009E+02  0.49999937959E+02 0.  0.
         12    1    1    2    0    0 -0.60532262822E+01 -0.10133885780E+02 -0.29620694547E+02  0.31886089991E+02  0.00000000000E+00 0. -1.
         11    1    3    3    0    0  0.10644626693E+02 -0.13390802227E+01 -0.10986762581E+02  0.15356111668E+02  0.51100000000E-03 0. -1.
        -11    1    3    3    0    0  0.23000065599E+01  0.30696565353E+01  0.32113496345E+01  0.50025581613E+01  0.51100000000E-03 0.  1.
        -12    1    3    3    0    0 -0.68914069706E+01  0.84033094671E+01  0.37396107494E+02  0.38943240180E+02  0.00000000000E+00 0.  1.
</event>
<event>
 7    1  0.6963701E-013  0.5930188E+02  0.7816164E-02  0.1266605E+00
        -11   -1    0    0    0    0  0.00000000000E+00  0.00000000000E+00  0.45593999997E+02  0.45594000000E+02  0.51100000000E-03 0.  1.
         11   -1    0    0    0    0 -0.00000000000E+00 -0.00000000000E+00 -0.45593999997E+02  0.45594000000E+02  0.51100000000E-03 0. -1.
    9900012    2    1    2    0    0  0.14582326484E+01  0.10588840647E+02  0.30041216789E+02  0.59301879275E+02  0.49999881906E+02 0.  0.
         12    1    1    2    0    0 -0.14582326484E+01 -0.10588840647E+02 -0.30041216789E+02  0.31886120725E+02  0.00000000000E+00 0. -1.
         11    1    3    3    0    0  0.15451328798E+01  0.87431403696E+00 -0.10320644909E+02  0.10472228619E+02  0.51100000000E-03 0. -1.
        -11    1    3    3    0    0 -0.22580483393E+01 -0.85317937736E+01  0.99729196980E+01  0.13317260036E+02  0.51100000000E-03 0.  1.
        -12    1    3    3    0    0  0.21711481079E+01  0.18246320384E+02  0.30388942000E+02  0.35512390620E+02  0.00000000000E+00 0.  1.
</event>
<event>
 7    1  0.6963701E-013  0.5930195E+02  0.7816164E-02  0.1266605E+00
        -11   -1    0    0    0    0  0.00000000000E+00  0.00000000000E+00  0.45593999997E+02  0.45594000000E+02  0.51100000000E-03 0.  1.
         11   -1    0    0    0    0 -0.00000000000E+00 -0.00000000000E+00 -0.45593999997E+02  0.45594000000E+02  0.51100000000E-03 0. -1.
    9900012    2    1    2    0    0  0.99233870957E+01 -0.12550927435E+02  0.27581166548E+02  0.59301950714E+02  0.50000012194E+02 0.  0.
         12    1    1    2    0    0 -0.99233870957E+01  0.12550927435E+02 -0.27581166548E+02  0.31886049286E+02  0.00000000000E+00 0. -1.
         11    1    3    3    0    0  0.50475197521E+01 -0.69438437146E-01  0.17176149918E+02  0.17902580920E+02  0.51100000000E-03 0. -1.
        -11    1    3    3    0    0  0.18604965438E+02  0.30613449781E+01  0.17792045263E+01  0.18938905486E+02  0.51100000000E-03 0.  1.
        -12    1    3    3    0    0 -0.13729098094E+02 -0.15542833976E+02  0.86258121038E+01  0.22460464308E+02  0.00000000000E+00 0.  1.
</event>
<event>
 7    1  0.7327903E-013  0.5930181E+02  0.7816164E-02  0.1266605E+00
        -11   -1    0    0    0    0  0.00000000000E+00  0.00000000000E+00  0.45593999997E+02  0.45594000000E+02  0.51100000000E-03 0. -1.
         11   -1    0    0    0    0 -0.00000000000E+00 -0.00000000000E+00 -0.45593999997E+02  0.45594000000E+02  0.51100000000E-03 0.  1.
    9900012    2    1    2    0    0  0.26201180700E+02 -0.71305571625E+01 -0.16714735587E+02  0.59301810180E+02  0.49999755893E+02 0.  0.
         12    1    1    2    0    0 -0.26201180700E+02  0.71305571625E+01  0.16714735587E+02  0.31886189820E+02  0.00000000000E+00 0. -1.
         11    1    3    3    0    0  0.73472292758E+01 -0.50598948579E+01  0.95865395214E+01  0.13095268392E+02  0.51100000000E-03 0. -1.
        -11    1    3    3    0    0 -0.35430524722E+01  0.55999586153E+01  0.40101363326E+01  0.77455762201E+01  0.51100000000E-03 0.  1.
        -12    1    3    3    0    0  0.22397003897E+02 -0.76706209199E+01 -0.30311411441E+02  0.38460965567E+02  0.00000000000E+00 0.  1.
</event>
<event>
 7    1  0.6963701E-013  0.5930192E+02  0.7816164E-02  0.1266605E+00
        -11   -1    0    0    0    0  0.00000000000E+00  0.00000000000E+00  0.45593999997E+02  0.45594000000E+02  0.51100000000E-03 0. -1.
         11   -1    0    0    0    0 -0.00000000000E+00 -0.00000000000E+00 -0.45593999997E+02  0.45594000000E+02  0.51100000000E-03 0.  1.
    9900012    2    1    2    0    0  0.22484166796E+02 -0.22257542069E+02 -0.39731484708E+01  0.59301923976E+02  0.49999963430E+02 0.  0.
         12    1    1    2    0    0 -0.22484166796E+02  0.22257542069E+02  0.39731484708E+01  0.31886076024E+02  0.00000000000E+00 0. -1.
         11    1    3    3    0    0  0.27154416322E+00 -0.76202607439E+01  0.16220722450E+01  0.77957186113E+01  0.51100000000E-03 0. -1.
        -11    1    3    3    0    0  0.26009725152E+02 -0.22527593810E+02 -0.15966130473E+02  0.37933041111E+02  0.51100000000E-03 0.  1.
         12    1    3    3    0    0 -0.37971025194E+01  0.78903124857E+01  0.10370909757E+02  0.13573164253E+02  0.00000000000E+00 0. -1.
</event>
<event>
 7    1  0.6963701E-013  0.5930194E+02  0.7816164E-02  0.1266605E+00
        -11   -1    0    0    0    0  0.00000000000E+00  0.00000000000E+00  0.45593999997E+02  0.45594000000E+02  0.51100000000E-03 0. -1.
         11   -1    0    0    0    0 -0.00000000000E+00 -0.00000000000E+00 -0.45593999997E+02  0.45594000000E+02  0.51100000000E-03 0.  1.
    9900012    2    1    2    0    0  0.28371567779E+02  0.10358041825E+01 -0.14515575053E+02  0.59301942425E+02  0.49999997078E+02 0.  0.
         12    1    1    2    0    0 -0.28371567779E+02 -0.10358041825E+01  0.14515575053E+02  0.31886057575E+02  0.00000000000E+00 0. -1.
         11    1    3    3    0    0  0.10927234438E+02 -0.27287168676E+01 -0.54617317527E+01  0.12517222624E+02  0.51100000000E-03 0. -1.
        -11    1    3    3    0    0  0.23338677779E+02 -0.32501262938E+01 -0.21113585324E+02  0.31639227027E+02  0.51100000000E-03 0.  1.
         12    1    3    3    0    0 -0.58943444381E+01  0.70146473439E+01  0.12059742023E+02  0.15145492775E+02  0.00000000000E+00 0. -1.
</event>
<event>
 7    1  0.6963701E-013  0.5930196E+02  0.7816164E-02  0.1266605E+00
        -11   -1    0    0    0    0  0.00000000000E+00  0.00000000000E+00  0.45593999997E+02  0.45594000000E+02  0.51100000000E-03 0.  1.
         11   -1    0    0    0    0 -0.00000000000E+00 -0.00000000000E+00 -0.45593999997E+02  0.45594000000E+02  0.51100000000E-03 0. -1.
    9900012    2    1    2    0    0 -0.18148780090E+02 -0.26133292690E+02  0.20957945418E+01  0.59301959789E+02  0.50000028744E+02 0.  0.
         12    1    1    2    0    0  0.18148780090E+02  0.26133292690E+02 -0.20957945418E+01  0.31886040211E+02  0.00000000000E+00 0. -1.
         11    1    3    3    0    0  0.42415398979E+01 -0.95267071352E+01 -0.23012233122E+01  0.10679159075E+02  0.51100000000E-03 0. -1.
        -11    1    3    3    0    0  0.38218918202E+01 -0.19551324266E+02  0.89777783009E+01  0.21850895660E+02  0.51100000000E-03 0.  1.
        -12    1    3    3    0    0 -0.26212211808E+02  0.29447387118E+01 -0.45807604469E+01  0.26771905054E+02  0.00000000000E+00 0.  1.
</event>
<event>
 7    1  0.6963701E-013  0.5930195E+02  0.7816164E-02  0.1266605E+00
        -11   -1    0    0    0    0  0.00000000000E+00  0.00000000000E+00  0.45593999997E+02  0.45594000000E+02  0.51100000000E-03 0.  1.
         11   -1    0    0    0    0 -0.00000000000E+00 -0.00000000000E+00 -0.45593999997E+02  0.45594000000E+02  0.51100000000E-03 0. -1.
    9900012    2    1    2    0    0  0.18387683505E+02 -0.13785115295E+02  0.22103939635E+02  0.59301945748E+02  0.50000003137E+02 0.  0.
         12    1    1    2    0    0 -0.18387683505E+02  0.13785115295E+02 -0.22103939635E+02  0.31886054252E+02  0.00000000000E+00 0. -1.
         11    1    3    3    0    0  0.12323513073E+02  0.11186116422E+02 -0.46883381581E+00  0.16649864278E+02  0.51100000000E-03 0. -1.
        -11    1    3    3    0    0  0.48551476105E+01  0.45219858400E+01  0.34146057879E+01  0.74619265076E+01  0.51100000000E-03 0.  1.
        -12    1    3    3    0    0  0.12090228217E+01 -0.29493217557E+02  0.19158167663E+02  0.35190154962E+02  0.00000000000E+00 0.  1.
</event>
<event>
 7    1  0.6963701E-013  0.5930226E+02  0.7816164E-02  0.1266604E+00
        -11   -1    0    0    0    0  0.00000000000E+00  0.00000000000E+00  0.45593999997E+02  0.45594000000E+02  0.51100000000E-03 0. -1.
         11   -1    0    0    0    0 -0.00000000000E+00 -0.00000000000E+00 -0.45593999997E+02  0.45594000000E+02  0.51100000000E-03 0.  1.
    9900012    2    1    2    0    0  0.12708487103E+02 -0.18003491318E+02 -0.23044936637E+02  0.59302259477E+02  0.50000575301E+02 0.  0.
         12    1    1    2    0    0 -0.12708487103E+02  0.18003491318E+02  0.23044936637E+02  0.31885740523E+02  0.00000000000E+00 0. -1.
         11    1    3    3    0    0  0.52472033412E+01 -0.20123546424E+02  0.35967853530E+01  0.21105144603E+02  0.51100000000E-03 0. -1.
        -11    1    3    3    0    0  0.96377794358E+01 -0.72914418502E+00  0.15408656374E+01  0.97873750756E+01  0.51100000000E-03 0.  1.
         12    1    3    3    0    0 -0.21764956745E+01  0.28491992908E+01 -0.28182587628E+02  0.28409739799E+02  0.00000000000E+00 0. -1.
</event>
<event>
 7    1  0.6963701E-013  0.5930194E+02  0.7816164E-02  0.1266605E+00
        -11   -1    0    0    0    0  0.00000000000E+00  0.00000000000E+00  0.45593999997E+02  0.45594000000E+02  0.51100000000E-03 0.  1.
         11   -1    0    0    0    0 -0.00000000000E+00 -0.00000000000E+00 -0.45593999997E+02  0.45594000000E+02  0.51100000000E-03 0. -1.
    9900012    2    1    2    0    0  0.10738495746E+02  0.88570004133E+01  0.28687268406E+02  0.59301935398E+02  0.49999984261E+02 0.  0.
         12    1    1    2    0    0 -0.10738495746E+02 -0.88570004133E+01 -0.28687268406E+02  0.31886064602E+02  0.00000000000E+00 0. -1.
         11    1    3    3    0    0 -0.33572401098E+01 -0.95641564661E+01  0.30535743230E+01  0.10586239487E+02  0.51100000000E-03 0. -1.
        -11    1    3    3    0    0  0.17424197997E+02  0.36757695952E+01  0.28230617759E+02  0.33377862982E+02  0.51100000000E-03 0.  1.
        -12    1    3    3    0    0 -0.33284621408E+01  0.14745387284E+02 -0.25969236755E+01  0.15337832929E+02  0.00000000000E+00 0.  1.
</event>
<event>
 7    1  0.6963701E-013  0.5930193E+02  0.7816164E-02  0.1266605E+00
        -11   -1    0    0    0    0  0.00000000000E+00  0.00000000000E+00  0.45593999997E+02  0.45594000000E+02  0.51100000000E-03 0.  1.
         11   -1    0    0    0    0 -0.00000000000E+00 -0.00000000000E+00 -0.45593999997E+02  0.45594000000E+02  0.51100000000E-03 0. -1.
    9900012    2    1    2    0    0  0.24376114493E+02  0.12585724834E+02  0.16251947008E+02  0.59301933938E+02  0.49999981598E+02 0.  0.
         12    1    1    2    0    0 -0.24376114493E+02 -0.12585724834E+02 -0.16251947008E+02  0.31886066062E+02  0.00000000000E+00 0. -1.
         11    1    3    3    0    0 -0.36422915712E+01 -0.58559641137E+01 -0.16758437984E+01  0.70969751506E+01  0.51100000000E-03 0. -1.
        -11    1    3    3    0    0  0.11659846718E+02  0.11211430177E+02 -0.10017585798E+02  0.19026303308E+02  0.51100000000E-03 0.  1.
        -12    1    3    3    0    0  0.16358559347E+02  0.72302587708E+01  0.27945376605E+02  0.33178655479E+02  0.00000000000E+00 0.  1.
</event>
<event>
 7    1  0.6963701E-013  0.5930194E+02  0.7816164E-02  0.1266605E+00
        -11   -1    0    0    0    0  0.00000000000E+00  0.00000000000E+00  0.45593999997E+02  0.45594000000E+02  0.51100000000E-03 0.  1.
         11   -1    0    0    0    0 -0.00000000000E+00 -0.00000000000E+00 -0.45593999997E+02  0.45594000000E+02  0.51100000000E-03 0. -1.
    9900012    2    1    2    0    0  0.29682974091E+02 -0.39369385698E+01  0.10960947024E+02  0.59301940415E+02  0.49999993412E+02 0.  0.
         12    1    1    2    0    0 -0.29682974091E+02  0.39369385698E+01 -0.10960947024E+02  0.31886059585E+02  0.00000000000E+00 0. -1.
         11    1    3    3    0    0  0.67862684107E+01  0.33454671930E+00  0.39464499295E+01  0.78574695517E+01  0.51100000000E-03 0.  1.
        -11    1    3    3    0    0  0.23670895732E+02  0.34006579176E+01 -0.14925067182E+02  0.28189242801E+02  0.51100000000E-03 0. -1.
         12    1    3    3    0    0 -0.77419005185E+00 -0.76721432067E+01  0.21939564276E+02  0.23255228063E+02  0.00000000000E+00 0. -1.
</event>
<event>
 7    1  0.6963701E-013  0.5930195E+02  0.7816164E-02  0.1266605E+00
        -11   -1    0    0    0    0  0.00000000000E+00  0.00000000000E+00  0.45593999997E+02  0.45594000000E+02  0.51100000000E-03 0.  1.
         11   -1    0    0    0    0 -0.00000000000E+00 -0.00000000000E+00 -0.45593999997E+02  0.45594000000E+02  0.51100000000E-03 0. -1.
    9900012    2    1    2    0    0 -0.79156784726E+01 -0.13073135598E+02  0.27984911930E+02  0.59301950766E+02  0.50000012289E+02 0.  0.
         12    1    1    2    0    0  0.79156784726E+01  0.13073135598E+02 -0.27984911930E+02  0.31886049234E+02  0.00000000000E+00 0. -1.
         11    1    3    3    0    0 -0.17176302479E+02  0.51929828395E+01  0.14272903643E+02  0.22928327813E+02  0.51100000000E-03 0. -1.
        -11    1    3    3    0    0 -0.44157188852E+01 -0.37285686421E+01  0.15295938762E+02  0.16351346741E+02  0.51100000000E-03 0.  1.
         12    1    3    3    0    0  0.13676342892E+02 -0.14537549795E+02 -0.15839304753E+01  0.20022276212E+02  0.00000000000E+00 0. -1.
</event>
<event>
 7    1  0.6963701E-013  0.5930195E+02  0.7816164E-02  0.1266605E+00
        -11   -1    0    0    0    0  0.00000000000E+00  0.00000000000E+00  0.45593999997E+02  0.45594000000E+02  0.51100000000E-03 0.  1.
         11   -1    0    0    0    0 -0.00000000000E+00 -0.00000000000E+00 -0.45593999997E+02  0.45594000000E+02  0.51100000000E-03 0. -1.
    9900012    2    1    2    0    0 -0.11309220954E+02 -0.21735692936E+02  0.20405424252E+02  0.59301950309E+02  0.50000011455E+02 0.  0.
         12    1    1    2    0    0  0.11309220954E+02  0.21735692936E+02 -0.20405424252E+02  0.31886049691E+02  0.00000000000E+00 0. -1.
         11    1    3    3    0    0 -0.46779364350E+01  0.29952845720E+01 -0.85404265855E+01  0.10187919586E+02  0.51100000000E-03 0. -1.
        -11    1    3    3    0    0 -0.91746846445E+00 -0.20829092186E+02  0.16046454586E+01  0.20910947300E+02  0.51100000000E-03 0.  1.
        -12    1    3    3    0    0 -0.57138160548E+01 -0.39018853224E+01  0.27341205379E+02  0.28203083423E+02  0.00000000000E+00 0.  1.
</event>
<event>
 7    1  0.6963701E-013  0.5930196E+02  0.7816164E-02  0.1266605E+00
        -11   -1    0    0    0    0  0.00000000000E+00  0.00000000000E+00  0.45593999997E+02  0.45594000000E+02  0.51100000000E-03 0.  1.
         11   -1    0    0    0    0 -0.00000000000E+00 -0.00000000000E+00 -0.45593999997E+02  0.45594000000E+02  0.51100000000E-03 0. -1.
    9900012    2    1    2    0    0  0.24264748725E+02  0.14870161960E+02 -0.14381223319E+02  0.59301963377E+02  0.50000035288E+02 0.  0.
         12    1    1    2    0    0 -0.24264748725E+02 -0.14870161960E+02  0.14381223319E+02  0.31886036623E+02  0.00000000000E+00 0. -1.
         11    1    3    3    0    0  0.17772377545E+02 -0.36721308924E+01 -0.17733760280E+02  0.25373769976E+02  0.51100000000E-03 0. -1.
        -11    1    3    3    0    0  0.17154824796E+02  0.91619954116E+01  0.56793729944E+00  0.19456431501E+02  0.51100000000E-03 0.  1.
        -12    1    3    3    0    0 -0.10662453616E+02  0.93802974409E+01  0.27845996620E+01  0.14471761900E+02  0.00000000000E+00 0.  1.
</event>
<event>
 7    1  0.6963701E-013  0.5930196E+02  0.7816164E-02  0.1266605E+00
        -11   -1    0    0    0    0  0.00000000000E+00  0.00000000000E+00  0.45593999997E+02  0.45594000000E+02  0.51100000000E-03 0.  1.
         11   -1    0    0    0    0 -0.00000000000E+00 -0.00000000000E+00 -0.45593999997E+02  0.45594000000E+02  0.51100000000E-03 0. -1.
    9900012    2    1    2    0    0  0.22355358005E+02  0.83619840069E+01  0.21143202872E+02  0.59301955470E+02  0.50000020869E+02 0.  0.
         12    1    1    2    0    0 -0.22355358005E+02 -0.83619840069E+01 -0.21143202872E+02  0.31886044530E+02  0.00000000000E+00 0. -1.
         11    1    3    3    0    0  0.11820472872E+02 -0.13164704472E+02  0.12447335554E+02  0.21632595438E+02  0.51100000000E-03 0.  1.
        -11    1    3    3    0    0  0.28196368065E+01  0.22802249287E+02 -0.34401941208E+01  0.23232043821E+02  0.51100000000E-03 0. -1.
         12    1    3    3    0    0  0.77152483267E+01 -0.12755608081E+01  0.12136061439E+02  0.14437316211E+02  0.00000000000E+00 0. -1.
</event>
<event>
 7    1  0.6963701E-013  0.5930193E+02  0.7816164E-02  0.1266605E+00
        -11   -1    0    0    0    0  0.00000000000E+00  0.00000000000E+00  0.45593999997E+02  0.45594000000E+02  0.51100000000E-03 0. -1.
         11   -1    0    0    0    0 -0.00000000000E+00 -0.00000000000E+00 -0.45593999997E+02  0.45594000000E+02  0.51100000000E-03 0.  1.
    9900012    2    1    2    0    0 -0.27889270554E+02  0.73581020067E+01 -0.13592954616E+02  0.59301929493E+02  0.49999973492E+02 0.  0.
         12    1    1    2    0    0  0.27889270554E+02 -0.73581020067E+01  0.13592954616E+02  0.31886070507E+02  0.00000000000E+00 0. -1.
         11    1    3    3    0    0 -0.57667879391E+01 -0.21707170132E+01  0.76387402523E+01  0.98141840409E+01  0.51100000000E-03 0. -1.
        -11    1    3    3    0    0 -0.39985886573E+01  0.83400191007E+01  0.98352728336E+01  0.13501008178E+02  0.51100000000E-03 0.  1.
        -12    1    3    3    0    0 -0.18123893958E+02  0.11887999192E+01 -0.31066967702E+02  0.35986737274E+02  0.00000000000E+00 0.  1.
</event>
<event>
 7    1  0.6963701E-013  0.5930197E+02  0.7816164E-02  0.1266605E+00
        -11   -1    0    0    0    0  0.00000000000E+00  0.00000000000E+00  0.45593999997E+02  0.45594000000E+02  0.51100000000E-03 0. -1.
         11   -1    0    0    0    0 -0.00000000000E+00 -0.00000000000E+00 -0.45593999997E+02  0.45594000000E+02  0.51100000000E-03 0.  1.
    9900012    2    1    2    0    0 -0.12085602642E+01 -0.58162390642E+01 -0.31327779273E+02  0.59301968435E+02  0.50000044514E+02 0.  0.
         12    1    1    2    0    0  0.12085602642E+01  0.58162390642E+01  0.31327779273E+02  0.31886031565E+02  0.00000000000E+00 0. -1.
         11    1    3    3    0    0 -0.63294827567E+01 -0.60443701407E-01 -0.12943537940E+01  0.64607551737E+01  0.51100000000E-03 0. -1.
        -11    1    3    3    0    0 -0.12562320667E+02 -0.85551440443E+00  0.47958798867E+01  0.13473836484E+02  0.51100000000E-03 0.  1.
        -12    1    3    3    0    0  0.17683243160E+02 -0.49002809584E+01 -0.34829305366E+02  0.39367376778E+02  0.00000000000E+00 0.  1.
</event>
<event>
 7    1  0.6963701E-013  0.5930183E+02  0.7816164E-02  0.1266605E+00
        -11   -1    0    0    0    0  0.00000000000E+00  0.00000000000E+00  0.45593999997E+02  0.45594000000E+02  0.51100000000E-03 0. -1.
         11   -1    0    0    0    0 -0.00000000000E+00 -0.00000000000E+00 -0.45593999997E+02  0.45594000000E+02  0.51100000000E-03 0.  1.
    9900012    2    1    2    0    0  0.15122182592E+02 -0.15686432749E+02 -0.23280528586E+02  0.59301833878E+02  0.49999799113E+02 0.  0.
         12    1    1    2    0    0 -0.15122182592E+02  0.15686432749E+02  0.23280528586E+02  0.31886166122E+02  0.00000000000E+00 0. -1.
         11    1    3    3    0    0  0.16203515248E+02  0.59321164991E+01 -0.16269854494E+02  0.23716072146E+02  0.51100000000E-03 0. -1.
        -11    1    3    3    0    0  0.30046612980E+01  0.60625149916E+00 -0.12049707546E+02  0.12433462213E+02  0.51100000000E-03 0.  1.
        -12    1    3    3    0    0 -0.40859939540E+01 -0.22224800747E+02  0.50390334543E+01  0.23152299518E+02  0.00000000000E+00 0.  1.
</event>
<event>
 7    1  0.6963701E-013  0.5930197E+02  0.7816164E-02  0.1266605E+00
        -11   -1    0    0    0    0  0.00000000000E+00  0.00000000000E+00  0.45593999997E+02  0.45594000000E+02  0.51100000000E-03 0.  1.
         11   -1    0    0    0    0 -0.00000000000E+00 -0.00000000000E+00 -0.45593999997E+02  0.45594000000E+02  0.51100000000E-03 0. -1.
    9900012    2    1    2    0    0  0.22906915192E+02  0.17377903745E+01  0.22112720717E+02  0.59301967063E+02  0.50000042010E+02 0.  0.
         12    1    1    2    0    0 -0.22906915192E+02 -0.17377903745E+01 -0.22112720717E+02  0.31886032937E+02  0.00000000000E+00 0. -1.
         11    1    3    3    0    0  0.87920176070E+01  0.11752636833E+02 -0.26898673819E+01  0.14921777137E+02  0.51100000000E-03 0. -1.
        -11    1    3    3    0    0  0.69273582674E+01  0.49532178497E+01 -0.52795290453E+01  0.10019784770E+02  0.51100000000E-03 0.  1.
        -12    1    3    3    0    0  0.71875393174E+01 -0.14968064309E+02  0.30082117144E+02  0.34360405156E+02  0.00000000000E+00 0.  1.
</event>
<event>
 7    1  0.6963701E-013  0.5930196E+02  0.7816164E-02  0.1266605E+00
        -11   -1    0    0    0    0  0.00000000000E+00  0.00000000000E+00  0.45593999997E+02  0.45594000000E+02  0.51100000000E-03 0.  1.
         11   -1    0    0    0    0 -0.00000000000E+00 -0.00000000000E+00 -0.45593999997E+02  0.45594000000E+02  0.51100000000E-03 0. -1.
    9900012    2    1    2    0    0 -0.75799178892E+01 -0.29991324585E+02 -0.77320557684E+01  0.59301962429E+02  0.50000033559E+02 0.  0.
         12    1    1    2    0    0  0.75799178892E+01  0.29991324585E+02  0.77320557684E+01  0.31886037571E+02  0.00000000000E+00 0. -1.
         11    1    3    3    0    0 -0.86557644031E+01 -0.15070744056E+02  0.88866000088E+01  0.19519765464E+02  0.51100000000E-03 0.  1.
        -11    1    3    3    0    0 -0.29553943920E+01 -0.64376281956E+01  0.96008880163E+01  0.11931238987E+02  0.51100000000E-03 0. -1.
         12    1    3    3    0    0  0.40312409059E+01 -0.84829523335E+01 -0.26219543793E+02  0.27850957978E+02  0.00000000000E+00 0. -1.
</event>
<event>
 7    1  0.6963701E-013  0.5930195E+02  0.7816164E-02  0.1266605E+00
        -11   -1    0    0    0    0  0.00000000000E+00  0.00000000000E+00  0.45593999997E+02  0.45594000000E+02  0.51100000000E-03 0. -1.
         11   -1    0    0    0    0 -0.00000000000E+00 -0.00000000000E+00 -0.45593999997E+02  0.45594000000E+02  0.51100000000E-03 0.  1.
    9900012    2    1    2    0    0 -0.11432645506E+02  0.65436205055E+01 -0.29037834262E+02  0.59301950210E+02  0.50000011276E+02 0.  0.
         12    1    1    2    0    0  0.11432645506E+02 -0.65436205055E+01  0.29037834262E+02  0.31886049790E+02  0.00000000000E+00 0. -1.
         11    1    3    3    0    0 -0.14828219640E+01  0.15752344926E+02  0.25185205565E+01  0.16021175915E+02  0.51100000000E-03 0. -1.
        -11    1    3    3    0    0 -0.14719071552E+00  0.86036946508E+01 -0.13924433558E+02  0.16368722519E+02  0.51100000000E-03 0.  1.
         12    1    3    3    0    0 -0.98026328261E+01 -0.17812419071E+02 -0.17631921260E+02  0.26912051776E+02  0.00000000000E+00 0. -1.
</event>
<event>
 7    1  0.6963701E-013  0.5930193E+02  0.7816164E-02  0.1266605E+00
        -11   -1    0    0    0    0  0.00000000000E+00  0.00000000000E+00  0.45593999997E+02  0.45594000000E+02  0.51100000000E-03 0.  1.
         11   -1    0    0    0    0 -0.00000000000E+00 -0.00000000000E+00 -0.45593999997E+02  0.45594000000E+02  0.51100000000E-03 0. -1.
    9900012    2    1    2    0    0  0.48712536881E+01 -0.54915120664E+01  0.31029595082E+02  0.59301927990E+02  0.49999970751E+02 0.  0.
         12    1    1    2    0    0 -0.48712536881E+01  0.54915120664E+01 -0.31029595082E+02  0.31886072010E+02  0.00000000000E+00 0. -1.
         11    1    3    3    0    0  0.64999519107E+00  0.56498511099E+01  0.67939581530E+01  0.88600891055E+01  0.51100000000E-03 0. -1.
        -11    1    3    3    0    0 -0.12271318228E+02  0.10667729574E+02  0.13248175045E+02  0.20973789539E+02  0.51100000000E-03 0.  1.
         12    1    3    3    0    0  0.16492576725E+02 -0.21809092750E+02  0.10987461884E+02  0.29468049346E+02  0.00000000000E+00 0. -1.
</event>
<event>
 7    1  0.6963701E-013  0.5930206E+02  0.7816164E-02  0.1266604E+00
        -11   -1    0    0    0    0  0.00000000000E+00  0.00000000000E+00  0.45593999997E+02  0.45594000000E+02  0.51100000000E-03 0. -1.
         11   -1    0    0    0    0 -0.00000000000E+00 -0.00000000000E+00 -0.45593999997E+02  0.45594000000E+02  0.51100000000E-03 0.  1.
    9900012    2    1    2    0    0  0.17097495143E+02  0.11891045400E+02 -0.24145221335E+02  0.59302062438E+02  0.50000215952E+02 0.  0.
         12    1    1    2    0    0 -0.17097495143E+02 -0.11891045400E+02  0.24145221335E+02  0.31885937562E+02  0.00000000000E+00 0. -1.
         11    1    3    3    0    0  0.20101320046E+02 -0.60358463854E+01 -0.71332734741E+01  0.22167049869E+02  0.51100000000E-03 0. -1.
        -11    1    3    3    0    0  0.98774895897E+01  0.14522239003E+01  0.29735114896E+00  0.99881015623E+01  0.51100000000E-03 0.  1.
         12    1    3    3    0    0 -0.12881314493E+02  0.16474667885E+02 -0.17309299010E+02  0.27146911006E+02  0.00000000000E+00 0. -1.
</event>
<event>
 7    1  0.6963701E-013  0.5930193E+02  0.7816164E-02  0.1266605E+00
        -11   -1    0    0    0    0  0.00000000000E+00  0.00000000000E+00  0.45593999997E+02  0.45594000000E+02  0.51100000000E-03 0.  1.
         11   -1    0    0    0    0 -0.00000000000E+00 -0.00000000000E+00 -0.45593999997E+02  0.45594000000E+02  0.51100000000E-03 0. -1.
    9900012    2    1    2    0    0  0.29780508492E+01 -0.18633356148E+02 -0.25703130847E+02  0.59301926495E+02  0.49999968025E+02 0.  0.
         12    1    1    2    0    0 -0.29780508492E+01  0.18633356148E+02  0.25703130847E+02  0.31886073505E+02  0.00000000000E+00 0. -1.
         11    1    3    3    0    0  0.23272106343E+01 -0.81397729859E+01  0.32738621723E+01  0.90768930468E+01  0.51100000000E-03 0.  1.
        -11    1    3    3    0    0 -0.63494741071E+01 -0.56511486105E+01  0.83646405273E+01  0.11925540385E+02  0.51100000000E-03 0. -1.
         12    1    3    3    0    0  0.70003143220E+01 -0.48424345515E+01 -0.37341633547E+02  0.38299493064E+02  0.00000000000E+00 0. -1.
</event>
<event>
 7    1  0.6963701E-013  0.5930185E+02  0.7816164E-02  0.1266605E+00
        -11   -1    0    0    0    0  0.00000000000E+00  0.00000000000E+00  0.45593999997E+02  0.45594000000E+02  0.51100000000E-03 0. -1.
         11   -1    0    0    0    0 -0.00000000000E+00 -0.00000000000E+00 -0.45593999997E+02  0.45594000000E+02  0.51100000000E-03 0.  1.
    9900012    2    1    2    0    0 -0.21576366601E+01  0.27218826115E+02 -0.16468346627E+02  0.59301853609E+02  0.49999835098E+02 0.  0.
         12    1    1    2    0    0  0.21576366601E+01 -0.27218826115E+02  0.16468346627E+02  0.31886146391E+02  0.00000000000E+00 0. -1.
         11    1    3    3    0    0  0.17930936833E+02  0.24846309285E+02  0.16592498461E+00  0.30641232223E+02  0.51100000000E-03 0. -1.
        -11    1    3    3    0    0  0.14038362669E+01  0.76310984356E+00 -0.31961399510E+00  0.16294926402E+01  0.51100000000E-03 0.  1.
        -12    1    3    3    0    0 -0.21492409760E+02  0.16094069860E+01 -0.16314657616E+02  0.27031128746E+02  0.00000000000E+00 0.  1.
</event>
<event>
 7    1  0.6963701E-013  0.5930193E+02  0.7816164E-02  0.1266605E+00
        -11   -1    0    0    0    0  0.00000000000E+00  0.00000000000E+00  0.45593999997E+02  0.45594000000E+02  0.51100000000E-03 0. -1.
         11   -1    0    0    0    0 -0.00000000000E+00 -0.00000000000E+00 -0.45593999997E+02  0.45594000000E+02  0.51100000000E-03 0.  1.
    9900012    2    1    2    0    0  0.21887378135E+02 -0.17725224778E+02  0.14949264773E+02  0.59301930435E+02  0.49999975210E+02 0.  0.
         12    1    1    2    0    0 -0.21887378135E+02  0.17725224778E+02 -0.14949264773E+02  0.31886069565E+02  0.00000000000E+00 0. -1.
         11    1    3    3    0    0 -0.83454004571E+01 -0.12681306147E+02 -0.22593868924E+01  0.15348161577E+02  0.51100000000E-03 0. -1.
        -11    1    3    3    0    0  0.18341292088E+01 -0.10709197585E+02  0.82471502205E+01  0.13640616918E+02  0.51100000000E-03 0.  1.
        -12    1    3    3    0    0  0.28398649383E+02  0.56652789546E+01  0.89615014452E+01  0.30313151941E+02  0.00000000000E+00 0.  1.
</event>
<event>
 7    1  0.6963701E-013  0.5930196E+02  0.7816164E-02  0.1266605E+00
        -11   -1    0    0    0    0  0.00000000000E+00  0.00000000000E+00  0.45593999997E+02  0.45594000000E+02  0.51100000000E-03 0. -1.
         11   -1    0    0    0    0 -0.00000000000E+00 -0.00000000000E+00 -0.45593999997E+02  0.45594000000E+02  0.51100000000E-03 0.  1.
    9900012    2    1    2    0    0  0.20133051056E+02  0.22168374414E+02 -0.10951856820E+02  0.59301957022E+02  0.50000023699E+02 0.  0.
         12    1    1    2    0    0 -0.20133051056E+02 -0.22168374414E+02  0.10951856820E+02  0.31886042978E+02  0.00000000000E+00 0. -1.
         11    1    3    3    0    0  0.19745683107E+02 -0.52634220241E+01 -0.49205254080E+01  0.21019209864E+02  0.51100000000E-03 0. -1.
        -11    1    3    3    0    0  0.61220645404E+01  0.61669363178E+01  0.82913419292E+01  0.12010708931E+02  0.51100000000E-03 0.  1.
        -12    1    3    3    0    0 -0.57346965915E+01  0.21264860120E+02 -0.14322673342E+02  0.26272038227E+02  0.00000000000E+00 0.  1.
</event>
<event>
 7    1  0.1372788E-012  0.5930188E+02  0.7816164E-02  0.1266605E+00
        -11   -1    0    0    0    0  0.00000000000E+00  0.00000000000E+00  0.45593999997E+02  0.45594000000E+02  0.51100000000E-03 0. -1.
         11   -1    0    0    0    0 -0.00000000000E+00 -0.00000000000E+00 -0.45593999997E+02  0.45594000000E+02  0.51100000000E-03 0.  1.
    9900012    2    1    2    0    0  0.15983428813E+02 -0.64292312107E+01 -0.26831317466E+02  0.59301880645E+02  0.49999884405E+02 0.  0.
         12    1    1    2    0    0 -0.15983428813E+02  0.64292312107E+01  0.26831317466E+02  0.31886119355E+02  0.00000000000E+00 0. -1.
         11    1    3    3    0    0  0.24195251665E+01 -0.19129086936E+01  0.79903844509E+01  0.85650198853E+01  0.51100000000E-03 0. -1.
        -11    1    3    3    0    0  0.20015957492E+01 -0.15884239440E+02 -0.49663161818E+01  0.16762450441E+02  0.51100000000E-03 0.  1.
        -12    1    3    3    0    0  0.11562307897E+02  0.11367916923E+02 -0.29855385735E+02  0.33974410318E+02  0.00000000000E+00 0.  1.
</event>
<event>
 7    1  0.6963701E-013  0.5930196E+02  0.7816164E-02  0.1266605E+00
        -11   -1    0    0    0    0  0.00000000000E+00  0.00000000000E+00  0.45593999997E+02  0.45594000000E+02  0.51100000000E-03 0.  1.
         11   -1    0    0    0    0 -0.00000000000E+00 -0.00000000000E+00 -0.45593999997E+02  0.45594000000E+02  0.51100000000E-03 0. -1.
    9900012    2    1    2    0    0 -0.30771837407E+02  0.80474086074E+01 -0.22478483081E+01  0.59301959407E+02  0.50000028047E+02 0.  0.
         12    1    1    2    0    0  0.30771837407E+02 -0.80474086074E+01  0.22478483081E+01  0.31886040593E+02  0.00000000000E+00 0. -1.
         11    1    3    3    0    0 -0.20661951475E+02 -0.62862631533E+01 -0.32793865985E+01  0.21844626798E+02  0.51100000000E-03 0. -1.
        -11    1    3    3    0    0 -0.11963360152E+02  0.18567606768E+02 -0.10922435036E+02  0.24640973897E+02  0.51100000000E-03 0.  1.
         12    1    3    3    0    0  0.18534742199E+01 -0.42339350076E+01  0.11953973327E+02  0.12816358712E+02  0.00000000000E+00 0. -1.
</event>
<event>
 7    1  0.6963701E-013  0.5930193E+02  0.7816164E-02  0.1266605E+00
        -11   -1    0    0    0    0  0.00000000000E+00  0.00000000000E+00  0.45593999997E+02  0.45594000000E+02  0.51100000000E-03 0.  1.
         11   -1    0    0    0    0 -0.00000000000E+00 -0.00000000000E+00 -0.45593999997E+02  0.45594000000E+02  0.51100000000E-03 0. -1.
    9900012    2    1    2    0    0  0.16843122215E+02 -0.85137600830E+01  0.25701096896E+02  0.59301933162E+02  0.49999980184E+02 0.  0.
         12    1    1    2    0    0 -0.16843122215E+02  0.85137600830E+01 -0.25701096896E+02  0.31886066838E+02  0.00000000000E+00 0. -1.
         11    1    3    3    0    0 -0.17868628966E+00 -0.62083306789E+01 -0.32016519451E+01  0.69875513627E+01  0.51100000000E-03 0. -1.
        -11    1    3    3    0    0  0.28719187074E+02 -0.70238495575E+01  0.13771989031E+02  0.32615852754E+02  0.51100000000E-03 0.  1.
        -12    1    3    3    0    0 -0.11697378569E+02  0.47184201534E+01  0.15130759810E+02  0.19698529045E+02  0.00000000000E+00 0.  1.
</event>
<event>
 7    1  0.6963701E-013  0.5930191E+02  0.7816164E-02  0.1266605E+00
        -11   -1    0    0    0    0  0.00000000000E+00  0.00000000000E+00  0.45593999997E+02  0.45594000000E+02  0.51100000000E-03 0. -1.
         11   -1    0    0    0    0 -0.00000000000E+00 -0.00000000000E+00 -0.45593999997E+02  0.45594000000E+02  0.51100000000E-03 0.  1.
    9900012    2    1    2    0    0  0.16225963377E+02 -0.27374556856E+02 -0.20185636995E+01  0.59301908205E+02  0.49999934667E+02 0.  0.
         12    1    1    2    0    0 -0.16225963377E+02  0.27374556856E+02  0.20185636995E+01  0.31886091795E+02  0.00000000000E+00 0. -1.
         11    1    3    3    0    0  0.10724338703E+01  0.47172701204E+01  0.44561185698E+01  0.65772140579E+01  0.51100000000E-03 0. -1.
        -11    1    3    3    0    0  0.14529866924E+02  0.28712304116E+01  0.54455230691E+01  0.15780200210E+02  0.51100000000E-03 0.  1.
        -12    1    3    3    0    0  0.62366258235E+00 -0.34963057388E+02 -0.11920205338E+02  0.36944493937E+02  0.00000000000E+00 0.  1.
</event>
<event>
 7    1  0.6963701E-013  0.5930188E+02  0.7816164E-02  0.1266605E+00
        -11   -1    0    0    0    0  0.00000000000E+00  0.00000000000E+00  0.45593999997E+02  0.45594000000E+02  0.51100000000E-03 0. -1.
         11   -1    0    0    0    0 -0.00000000000E+00 -0.00000000000E+00 -0.45593999997E+02  0.45594000000E+02  0.51100000000E-03 0.  1.
    9900012    2    1    2    0    0 -0.15141129995E+02 -0.59738633628E+01 -0.27418679669E+02  0.59301876752E+02  0.49999877304E+02 0.  0.
         12    1    1    2    0    0  0.15141129995E+02  0.59738633628E+01  0.27418679669E+02  0.31886123248E+02  0.00000000000E+00 0. -1.
         11    1    3    3    0    0 -0.64879004590E+01  0.52661490202E+01 -0.31738968402E+00  0.83621716283E+01  0.51100000000E-03 0. -1.
        -11    1    3    3    0    0  0.13285409634E+02 -0.14036063829E+02 -0.56647182683E+01  0.20139568771E+02  0.51100000000E-03 0.  1.
         12    1    3    3    0    0 -0.21938639170E+02  0.27960514464E+01 -0.21436571717E+02  0.30800136352E+02  0.00000000000E+00 0. -1.
</event>
<event>
 7    1  0.6963701E-013  0.5930195E+02  0.7816164E-02  0.1266605E+00
        -11   -1    0    0    0    0  0.00000000000E+00  0.00000000000E+00  0.45593999997E+02  0.45594000000E+02  0.51100000000E-03 0.  1.
         11   -1    0    0    0    0 -0.00000000000E+00 -0.00000000000E+00 -0.45593999997E+02  0.45594000000E+02  0.51100000000E-03 0. -1.
    9900012    2    1    2    0    0 -0.99567345706E+01 -0.29284139705E+02  0.77474437513E+01  0.59301948406E+02  0.50000007985E+02 0.  0.
         12    1    1    2    0    0  0.99567345706E+01  0.29284139705E+02 -0.77474437513E+01  0.31886051594E+02  0.00000000000E+00 0. -1.
         11    1    3    3    0    0  0.43883538446E+01 -0.23678015124E+02 -0.31059730721E+01  0.24280714954E+02  0.51100000000E-03 0. -1.
        -11    1    3    3    0    0 -0.12633771065E+02 -0.16636937755E+02  0.11487710531E+02  0.23840456428E+02  0.51100000000E-03 0.  1.
         12    1    3    3    0    0 -0.17113173507E+01  0.11030813174E+02 -0.63429370799E+00  0.11180777024E+02  0.00000000000E+00 0. -1.
</event>
<event>
 7    1  0.6963701E-013  0.5930193E+02  0.7816164E-02  0.1266605E+00
        -11   -1    0    0    0    0  0.00000000000E+00  0.00000000000E+00  0.45593999997E+02  0.45594000000E+02  0.51100000000E-03 0. -1.
         11   -1    0    0    0    0 -0.00000000000E+00 -0.00000000000E+00 -0.45593999997E+02  0.45594000000E+02  0.51100000000E-03 0.  1.
    9900012    2    1    2    0    0 -0.50618920966E+01 -0.35538970730E+01 -0.31280476679E+02  0.59301934747E+02  0.49999983075E+02 0.  0.
         12    1    1    2    0    0  0.50618920966E+01  0.35538970730E+01  0.31280476679E+02  0.31886065253E+02  0.00000000000E+00 0. -1.
         11    1    3    3    0    0  0.50885824018E+01 -0.22596927310E+01 -0.20017069551E+02  0.20776981392E+02  0.51100000000E-03 0. -1.
        -11    1    3    3    0    0 -0.10038698762E+02 -0.14619699700E+02 -0.16484581041E+02  0.24212651745E+02  0.51100000000E-03 0.  1.
         12    1    3    3    0    0 -0.11177573617E+00  0.13325495358E+02  0.52211739125E+01  0.14312301610E+02  0.00000000000E+00 0. -1.
</event>
