<event>
 7    1  0.2950722E-010  0.4778727E+02  0.7816164E-02  0.1312668E+00
        -11   -1    0    0    0    0  0.00000000000E+00  0.00000000000E+00  0.45593999997E+02  0.45594000000E+02  0.51100000000E-03 0.  1.
         11   -1    0    0    0    0 -0.00000000000E+00 -0.00000000000E+00 -0.45593999997E+02  0.45594000000E+02  0.51100000000E-03 0. -1.
    9900012    2    1    2    0    0  0.21093140520E+02 -0.17310413322E+02 -0.33749845681E+02  0.47787273395E+02  0.20000010716E+02 0.  0.
        -12    1    1    2    0    0 -0.21093140520E+02  0.17310413322E+02  0.33749845681E+02  0.43400726605E+02  0.00000000000E+00 0.  1.
         11    1    3    3    0    0  0.10842732521E+02 -0.13602593847E+02 -0.10427981933E+02  0.20281474684E+02  0.51100000000E-03 0. -1.
        -11    1    3    3    0    0  0.57923866977E+01  0.24550416418E+01 -0.65089288857E+01  0.90523548660E+01  0.51100000000E-03 0.  1.
         12    1    3    3    0    0  0.44580213014E+01 -0.61628611170E+01 -0.16812934862E+02  0.18453443845E+02  0.00000000000E+00 0. -1.
</event>
<event>
 7    1  0.2950722E-010  0.4778728E+02  0.7816164E-02  0.1312668E+00
        -11   -1    0    0    0    0  0.00000000000E+00  0.00000000000E+00  0.45593999997E+02  0.45594000000E+02  0.51100000000E-03 0. -1.
         11   -1    0    0    0    0 -0.00000000000E+00 -0.00000000000E+00 -0.45593999997E+02  0.45594000000E+02  0.51100000000E-03 0.  1.
    9900012    2    1    2    0    0  0.40434204996E+02  0.14091035532E+02 -0.70809870101E+01  0.47787278888E+02  0.20000035763E+02 0.  0.
        -12    1    1    2    0    0 -0.40434204996E+02 -0.14091035532E+02  0.70809870101E+01  0.43400721112E+02  0.00000000000E+00 0.  1.
         11    1    3    3    0    0  0.19750140388E+02  0.27232527473E+01 -0.10634884140E+02  0.22596126036E+02  0.51100000000E-03 0. -1.
        -11    1    3    3    0    0  0.13490122801E+02  0.31947936559E+01  0.35193549101E+01  0.14303005940E+02  0.51100000000E-03 0.  1.
         12    1    3    3    0    0  0.71939418068E+01  0.81729891290E+01  0.34542220024E-01  0.10888146912E+02  0.00000000000E+00 0. -1.
</event>
<event>
 7    1  0.2950722E-010  0.4778727E+02  0.7816164E-02  0.1312668E+00
        -11   -1    0    0    0    0  0.00000000000E+00  0.00000000000E+00  0.45593999997E+02  0.45594000000E+02  0.51100000000E-03 0. -1.
         11   -1    0    0    0    0 -0.00000000000E+00 -0.00000000000E+00 -0.45593999997E+02  0.45594000000E+02  0.51100000000E-03 0.  1.
    9900012    2    1    2    0    0  0.30272668005E+02 -0.30749053092E+02  0.46566869860E+01  0.47787269270E+02  0.19999991911E+02 0.  0.
        -12    1    1    2    0    0 -0.30272668005E+02  0.30749053092E+02 -0.46566869860E+01  0.43400730730E+02  0.00000000000E+00 0.  1.
         11    1    3    3    0    0  0.11359567901E+02 -0.11206206481E+02  0.31005585061E+01  0.16255224080E+02  0.51100000000E-03 0. -1.
        -11    1    3    3    0    0  0.18917929459E+02 -0.20270860832E+02  0.48591615279E+01  0.28149730104E+02  0.51100000000E-03 0.  1.
        -12    1    3    3    0    0 -0.48293554796E-02  0.72801422081E+00 -0.33030330480E+01  0.33823150865E+01  0.00000000000E+00 0.  1.
</event>
<event>
 7    1  0.2950722E-010  0.4778727E+02  0.7816164E-02  0.1312668E+00
        -11   -1    0    0    0    0  0.00000000000E+00  0.00000000000E+00  0.45593999997E+02  0.45594000000E+02  0.51100000000E-03 0. -1.
         11   -1    0    0    0    0 -0.00000000000E+00 -0.00000000000E+00 -0.45593999997E+02  0.45594000000E+02  0.51100000000E-03 0.  1.
    9900012    2    1    2    0    0 -0.42532965609E+02 -0.13156747171E+01  0.85345907815E+01  0.47787269553E+02  0.19999993202E+02 0.  0.
        -12    1    1    2    0    0  0.42532965609E+02  0.13156747171E+01 -0.85345907815E+01  0.43400730447E+02  0.00000000000E+00 0.  1.
         11    1    3    3    0    0 -0.41928223668E+02 -0.22209961581E+01  0.62858769694E+01  0.42454929200E+02  0.51100000000E-03 0. -1.
        -11    1    3    3    0    0 -0.73119280394E-01 -0.15660130853E+01  0.23240123638E+01  0.28033510556E+01  0.51100000000E-03 0.  1.
         12    1    3    3    0    0 -0.53162266128E+00  0.24713345263E+01 -0.75298551655E-01  0.25289892975E+01  0.00000000000E+00 0. -1.
</event>
<event>
 7    1  0.2950722E-010  0.4778727E+02  0.7816164E-02  0.1312668E+00
        -11   -1    0    0    0    0  0.00000000000E+00  0.00000000000E+00  0.45593999997E+02  0.45594000000E+02  0.51100000000E-03 0. -1.
         11   -1    0    0    0    0 -0.00000000000E+00 -0.00000000000E+00 -0.45593999997E+02  0.45594000000E+02  0.51100000000E-03 0.  1.
    9900012    2    1    2    0    0  0.11037135319E+02  0.33213064926E+02  0.25665099842E+02  0.47787269733E+02  0.19999994020E+02 0.  0.
        -12    1    1    2    0    0 -0.11037135319E+02 -0.33213064926E+02 -0.25665099842E+02  0.43400730267E+02  0.00000000000E+00 0.  1.
         11    1    3    3    0    0  0.64095958137E+01  0.18536011978E+02  0.48401283800E+01  0.20201324252E+02  0.51100000000E-03 0. -1.
        -11    1    3    3    0    0 -0.22962430502E+01  0.37001374387E+01  0.91321250480E+01  0.10117285079E+02  0.51100000000E-03 0.  1.
         12    1    3    3    0    0  0.69237825555E+01  0.10976915509E+02  0.11692846414E+02  0.17468660402E+02  0.00000000000E+00 0. -1.
</event>
<event>
 7    1  0.2950722E-010  0.4778727E+02  0.7816164E-02  0.1312668E+00
        -11   -1    0    0    0    0  0.00000000000E+00  0.00000000000E+00  0.45593999997E+02  0.45594000000E+02  0.51100000000E-03 0. -1.
         11   -1    0    0    0    0 -0.00000000000E+00 -0.00000000000E+00 -0.45593999997E+02  0.45594000000E+02  0.51100000000E-03 0.  1.
    9900012    2    1    2    0    0  0.33035724623E+02 -0.17478028049E+02 -0.22063152274E+02  0.47787271272E+02  0.20000001040E+02 0.  0.
        -12    1    1    2    0    0 -0.33035724623E+02  0.17478028049E+02  0.22063152274E+02  0.43400728728E+02  0.00000000000E+00 0.  1.
         11    1    3    3    0    0  0.12029233797E+02 -0.16904164237E+02 -0.15038723602E+02  0.25624528135E+02  0.51100000000E-03 0. -1.
        -11    1    3    3    0    0  0.16340439698E+02 -0.51845360205E+00 -0.52616545965E+01  0.17174509396E+02  0.51100000000E-03 0.  1.
         12    1    3    3    0    0  0.46660511274E+01 -0.55410210056E-01 -0.17627740753E+01  0.49882337411E+01  0.00000000000E+00 0. -1.
</event>
<event>
 7    1  0.2950722E-010  0.4778727E+02  0.7816164E-02  0.1312668E+00
        -11   -1    0    0    0    0  0.00000000000E+00  0.00000000000E+00  0.45593999997E+02  0.45594000000E+02  0.51100000000E-03 0.  1.
         11   -1    0    0    0    0 -0.00000000000E+00 -0.00000000000E+00 -0.45593999997E+02  0.45594000000E+02  0.51100000000E-03 0. -1.
    9900012    2    1    2    0    0 -0.11685174177E+02 -0.40896381626E+02  0.86351502379E+01  0.47787272526E+02  0.20000006754E+02 0.  0.
        -12    1    1    2    0    0  0.11685174177E+02  0.40896381626E+02 -0.86351502379E+01  0.43400727474E+02  0.00000000000E+00 0.  1.
         11    1    3    3    0    0  0.13213727596E+01 -0.10521470793E+02  0.82325497702E+01  0.13424688064E+02  0.51100000000E-03 0. -1.
        -11    1    3    3    0    0 -0.11574489313E+02 -0.15689314665E+02  0.15785006872E+01  0.19560548617E+02  0.51100000000E-03 0.  1.
         12    1    3    3    0    0 -0.14320576236E+01 -0.14685596168E+02 -0.11759002195E+01  0.14802035845E+02  0.00000000000E+00 0. -1.
</event>
<event>
 7    1  0.2950722E-010  0.4778727E+02  0.7816164E-02  0.1312668E+00
        -11   -1    0    0    0    0  0.00000000000E+00  0.00000000000E+00  0.45593999997E+02  0.45594000000E+02  0.51100000000E-03 0.  1.
         11   -1    0    0    0    0 -0.00000000000E+00 -0.00000000000E+00 -0.45593999997E+02  0.45594000000E+02  0.51100000000E-03 0. -1.
    9900012    2    1    2    0    0  0.25302685722E+02  0.30806087141E+02  0.17157569526E+02  0.47787273027E+02  0.20000009041E+02 0.  0.
        -12    1    1    2    0    0 -0.25302685722E+02 -0.30806087141E+02 -0.17157569526E+02  0.43400726973E+02  0.00000000000E+00 0.  1.
         11    1    3    3    0    0  0.25771747264E+01  0.48406630218E+01  0.14115853559E+01  0.56627220963E+01  0.51100000000E-03 0. -1.
        -11    1    3    3    0    0  0.10496517817E+02  0.24490506779E+02  0.12209743794E+02  0.29309378232E+02  0.51100000000E-03 0.  1.
        -12    1    3    3    0    0  0.12228993178E+02  0.14749173407E+01  0.35362403765E+01  0.12815172699E+02  0.00000000000E+00 0.  1.
</event>
<event>
 7    1  0.2950722E-010  0.4778727E+02  0.7816164E-02  0.1312668E+00
        -11   -1    0    0    0    0  0.00000000000E+00  0.00000000000E+00  0.45593999997E+02  0.45594000000E+02  0.51100000000E-03 0.  1.
         11   -1    0    0    0    0 -0.00000000000E+00 -0.00000000000E+00 -0.45593999997E+02  0.45594000000E+02  0.51100000000E-03 0. -1.
    9900012    2    1    2    0    0  0.26536695921E+01  0.32986146882E+02 -0.28080160925E+02  0.47787270905E+02  0.19999999365E+02 0.  0.
        -12    1    1    2    0    0 -0.26536695921E+01 -0.32986146882E+02  0.28080160925E+02  0.43400729095E+02  0.00000000000E+00 0.  1.
         11    1    3    3    0    0  0.18254465282E+01  0.18086801926E+02 -0.13099120583E+02  0.22406508412E+02  0.51100000000E-03 0. -1.
        -11    1    3    3    0    0  0.69537328860E+01  0.41023294059E+01 -0.59995688360E+01  0.10058744160E+02  0.51100000000E-03 0.  1.
        -12    1    3    3    0    0 -0.61255098221E+01  0.10797015550E+02 -0.89814715057E+01  0.15322018332E+02  0.00000000000E+00 0.  1.
</event>
<event>
 7    1  0.2950722E-010  0.4778725E+02  0.7816164E-02  0.1312668E+00
        -11   -1    0    0    0    0  0.00000000000E+00  0.00000000000E+00  0.45593999997E+02  0.45594000000E+02  0.51100000000E-03 0. -1.
         11   -1    0    0    0    0 -0.00000000000E+00 -0.00000000000E+00 -0.45593999997E+02  0.45594000000E+02  0.51100000000E-03 0.  1.
    9900012    2    1    2    0    0  0.32168708897E+02 -0.26599850753E+02 -0.11884733602E+02  0.47787253636E+02  0.19999920628E+02 0.  0.
        -12    1    1    2    0    0 -0.32168708897E+02  0.26599850753E+02  0.11884733602E+02  0.43400746364E+02  0.00000000000E+00 0.  1.
         11    1    3    3    0    0  0.16114186381E+02 -0.16689949317E+02 -0.25867084868E+01  0.23343360340E+02  0.51100000000E-03 0. -1.
        -11    1    3    3    0    0  0.18077205228E+01 -0.24024119983E+01 -0.76937468708E+01  0.82603376487E+01  0.51100000000E-03 0.  1.
        -12    1    3    3    0    0  0.14246801993E+02 -0.75074894377E+01 -0.16042782442E+01  0.16183555647E+02  0.00000000000E+00 0.  1.
</event>
<event>
 7    1  0.2950722E-010  0.4778727E+02  0.7816164E-02  0.1312668E+00
        -11   -1    0    0    0    0  0.00000000000E+00  0.00000000000E+00  0.45593999997E+02  0.45594000000E+02  0.51100000000E-03 0.  1.
         11   -1    0    0    0    0 -0.00000000000E+00 -0.00000000000E+00 -0.45593999997E+02  0.45594000000E+02  0.51100000000E-03 0. -1.
    9900012    2    1    2    0    0  0.10452288074E+02  0.71317072117E+01 -0.41515198065E+02  0.47787271388E+02  0.20000001565E+02 0.  0.
        -12    1    1    2    0    0 -0.10452288074E+02 -0.71317072117E+01  0.41515198065E+02  0.43400728612E+02  0.00000000000E+00 0.  1.
         11    1    3    3    0    0  0.55549975756E+01  0.49913882499E+01 -0.92996236050E+01  0.11927068130E+02  0.51100000000E-03 0. -1.
        -11    1    3    3    0    0  0.68082311065E+01 -0.47870754782E+01 -0.14125240094E+02  0.16394831820E+02  0.51100000000E-03 0.  1.
        -12    1    3    3    0    0 -0.19109406081E+01  0.69273944400E+01 -0.18090334366E+02  0.19465371437E+02  0.00000000000E+00 0.  1.
</event>
<event>
 7    1  0.2950722E-010  0.4778726E+02  0.7816164E-02  0.1312668E+00
        -11   -1    0    0    0    0  0.00000000000E+00  0.00000000000E+00  0.45593999997E+02  0.45594000000E+02  0.51100000000E-03 0.  1.
         11   -1    0    0    0    0 -0.00000000000E+00 -0.00000000000E+00 -0.45593999997E+02  0.45594000000E+02  0.51100000000E-03 0. -1.
    9900012    2    1    2    0    0 -0.76673922443E+01  0.27529758327E+02 -0.32664169900E+02  0.47787257003E+02  0.19999935981E+02 0.  0.
        -12    1    1    2    0    0  0.76673922443E+01 -0.27529758327E+02  0.32664169900E+02  0.43400742997E+02  0.00000000000E+00 0.  1.
         11    1    3    3    0    0 -0.36372663146E+01  0.96002541170E+01 -0.13511995661E+02  0.16969637956E+02  0.51100000000E-03 0. -1.
        -11    1    3    3    0    0  0.54116552884E+01  0.95370429531E+01 -0.12179764183E+02  0.16388650251E+02  0.51100000000E-03 0.  1.
        -12    1    3    3    0    0 -0.94417812181E+01  0.83924612573E+01 -0.69724100561E+01  0.14428968796E+02  0.00000000000E+00 0.  1.
</event>
<event>
 7    1  0.2950722E-010  0.4778727E+02  0.7816164E-02  0.1312668E+00
        -11   -1    0    0    0    0  0.00000000000E+00  0.00000000000E+00  0.45593999997E+02  0.45594000000E+02  0.51100000000E-03 0.  1.
         11   -1    0    0    0    0 -0.00000000000E+00 -0.00000000000E+00 -0.45593999997E+02  0.45594000000E+02  0.51100000000E-03 0. -1.
    9900012    2    1    2    0    0 -0.25801097421E+02 -0.29291811833E+02 -0.18971463176E+02  0.47787270932E+02  0.19999999487E+02 0.  0.
        -12    1    1    2    0    0  0.25801097421E+02  0.29291811833E+02  0.18971463176E+02  0.43400729068E+02  0.00000000000E+00 0.  1.
         11    1    3    3    0    0 -0.58463710936E+00  0.14503362004E+01 -0.47558794398E+01  0.50063624670E+01  0.51100000000E-03 0.  1.
        -11    1    3    3    0    0 -0.65955556487E+01 -0.11399259242E+02 -0.21460690947E+01  0.13343540700E+02  0.51100000000E-03 0. -1.
         12    1    3    3    0    0 -0.18620904663E+02 -0.19342888791E+02 -0.12069514642E+02  0.29437367765E+02  0.00000000000E+00 0. -1.
</event>
<event>
 7    1  0.2950722E-010  0.4778727E+02  0.7816164E-02  0.1312668E+00
        -11   -1    0    0    0    0  0.00000000000E+00  0.00000000000E+00  0.45593999997E+02  0.45594000000E+02  0.51100000000E-03 0.  1.
         11   -1    0    0    0    0 -0.00000000000E+00 -0.00000000000E+00 -0.45593999997E+02  0.45594000000E+02  0.51100000000E-03 0. -1.
    9900012    2    1    2    0    0 -0.25159397667E+02 -0.27697654417E+02 -0.21987904384E+02  0.47787270854E+02  0.19999999134E+02 0.  0.
        -12    1    1    2    0    0  0.25159397667E+02  0.27697654417E+02  0.21987904384E+02  0.43400729146E+02  0.00000000000E+00 0.  1.
         11    1    3    3    0    0 -0.17759727766E+02 -0.25550379449E+02 -0.15563468164E+02  0.34791541528E+02  0.51100000000E-03 0. -1.
        -11    1    3    3    0    0 -0.89554150267E+01 -0.67611224957E+00 -0.60328049634E+01  0.10819025929E+02  0.51100000000E-03 0.  1.
        -12    1    3    3    0    0  0.15557451254E+01 -0.14711627185E+01 -0.39163125592E+00  0.21767033974E+01  0.00000000000E+00 0.  1.
</event>
<event>
 7    1  0.2950722E-010  0.4778727E+02  0.7816164E-02  0.1312668E+00
        -11   -1    0    0    0    0  0.00000000000E+00  0.00000000000E+00  0.45593999997E+02  0.45594000000E+02  0.51100000000E-03 0.  1.
         11   -1    0    0    0    0 -0.00000000000E+00 -0.00000000000E+00 -0.45593999997E+02  0.45594000000E+02  0.51100000000E-03 0. -1.
    9900012    2    1    2    0    0 -0.74015473768E+01  0.33212692328E+01 -0.42635777722E+02  0.47787271034E+02  0.19999999951E+02 0.  0.
        -12    1    1    2    0    0  0.74015473768E+01 -0.33212692328E+01  0.42635777722E+02  0.43400728966E+02  0.00000000000E+00 0.  1.
         11    1    3    3    0    0  0.65296162079E+01 -0.78628879276E+00 -0.10054693610E+02  0.12014616171E+02  0.51100000000E-03 0. -1.
        -11    1    3    3    0    0 -0.67928359578E+01  0.64507008260E+00 -0.14320468655E+02  0.15862993366E+02  0.51100000000E-03 0.  1.
         12    1    3    3    0    0 -0.71383276268E+01  0.34624879430E+01 -0.18260615457E+02  0.19909661497E+02  0.00000000000E+00 0. -1.
</event>
<event>
 7    1  0.2950722E-010  0.4778727E+02  0.7816164E-02  0.1312668E+00
        -11   -1    0    0    0    0  0.00000000000E+00  0.00000000000E+00  0.45593999997E+02  0.45594000000E+02  0.51100000000E-03 0.  1.
         11   -1    0    0    0    0 -0.00000000000E+00 -0.00000000000E+00 -0.45593999997E+02  0.45594000000E+02  0.51100000000E-03 0. -1.
    9900012    2    1    2    0    0  0.33100638666E+02 -0.22862936885E+02 -0.16286718695E+02  0.47787269949E+02  0.19999995006E+02 0.  0.
        -12    1    1    2    0    0 -0.33100638666E+02  0.22862936885E+02  0.16286718695E+02  0.43400730051E+02  0.00000000000E+00 0.  1.
         11    1    3    3    0    0  0.76422255048E+01  0.54950405934E+00 -0.75441893383E+01  0.10752690752E+02  0.51100000000E-03 0. -1.
        -11    1    3    3    0    0  0.65880299206E+01 -0.96299532606E+00 -0.14348891477E+01  0.68109034174E+01  0.51100000000E-03 0.  1.
         12    1    3    3    0    0  0.18870383241E+02 -0.22449445618E+02 -0.73076402090E+01  0.30223675780E+02  0.00000000000E+00 0. -1.
</event>
<event>
 7    1  0.2950722E-010  0.4778727E+02  0.7816164E-02  0.1312668E+00
        -11   -1    0    0    0    0  0.00000000000E+00  0.00000000000E+00  0.45593999997E+02  0.45594000000E+02  0.51100000000E-03 0.  1.
         11   -1    0    0    0    0 -0.00000000000E+00 -0.00000000000E+00 -0.45593999997E+02  0.45594000000E+02  0.51100000000E-03 0. -1.
    9900012    2    1    2    0    0  0.25040110014E+01 -0.37274864580E+02 -0.22089304323E+02  0.47787274591E+02  0.20000016171E+02 0.  0.
        -12    1    1    2    0    0 -0.25040110014E+01  0.37274864580E+02  0.22089304323E+02  0.43400725409E+02  0.00000000000E+00 0.  1.
         11    1    3    3    0    0  0.60053199274E+01 -0.24442664723E+02 -0.15375960095E+02  0.29494539754E+02  0.51100000000E-03 0. -1.
        -11    1    3    3    0    0 -0.55814895388E+01 -0.53390030982E+01  0.42650388204E+00  0.77356244336E+01  0.51100000000E-03 0.  1.
         12    1    3    3    0    0  0.20801806128E+01 -0.74931967583E+01 -0.71398481098E+01  0.10557110404E+02  0.00000000000E+00 0. -1.
</event>
<event>
 7    1  0.2950722E-010  0.4778727E+02  0.7816164E-02  0.1312668E+00
        -11   -1    0    0    0    0  0.00000000000E+00  0.00000000000E+00  0.45593999997E+02  0.45594000000E+02  0.51100000000E-03 0.  1.
         11   -1    0    0    0    0 -0.00000000000E+00 -0.00000000000E+00 -0.45593999997E+02  0.45594000000E+02  0.51100000000E-03 0. -1.
    9900012    2    1    2    0    0 -0.20278212285E+02  0.29209699814E+02 -0.24883949428E+02  0.47787269639E+02  0.19999993592E+02 0.  0.
        -12    1    1    2    0    0  0.20278212285E+02 -0.29209699814E+02  0.24883949428E+02  0.43400730361E+02  0.00000000000E+00 0.  1.
         11    1    3    3    0    0 -0.13623619556E+02  0.23225846147E+02 -0.22467464657E+02  0.35068930799E+02  0.51100000000E-03 0. -1.
        -11    1    3    3    0    0 -0.14941184701E+01  0.64546683687E+01  0.71486323712E+00  0.66637949745E+01  0.51100000000E-03 0.  1.
         12    1    3    3    0    0 -0.51604742590E+01 -0.47081470147E+00 -0.31313480086E+01  0.60545438650E+01  0.00000000000E+00 0. -1.
</event>
<event>
 7    1  0.2950722E-010  0.4778727E+02  0.7816164E-02  0.1312668E+00
        -11   -1    0    0    0    0  0.00000000000E+00  0.00000000000E+00  0.45593999997E+02  0.45594000000E+02  0.51100000000E-03 0.  1.
         11   -1    0    0    0    0 -0.00000000000E+00 -0.00000000000E+00 -0.45593999997E+02  0.45594000000E+02  0.51100000000E-03 0. -1.
    9900012    2    1    2    0    0  0.14042791426E+02  0.49215871080E+01 -0.40770103486E+02  0.47787270180E+02  0.19999996057E+02 0.  0.
        -12    1    1    2    0    0 -0.14042791426E+02 -0.49215871080E+01  0.40770103486E+02  0.43400729820E+02  0.00000000000E+00 0.  1.
         11    1    3    3    0    0  0.94187745167E+01  0.13807145645E+01 -0.18119392636E+02  0.20467830268E+02  0.51100000000E-03 0. -1.
        -11    1    3    3    0    0 -0.20545005419E+01 -0.10951713167E+01 -0.17589337202E+02  0.17742749397E+02  0.51100000000E-03 0.  1.
        -12    1    3    3    0    0  0.66785174515E+01  0.46360438602E+01 -0.50613736476E+01  0.95766905152E+01  0.00000000000E+00 0.  1.
</event>
<event>
 7    1  0.2950722E-010  0.4778727E+02  0.7816164E-02  0.1312668E+00
        -11   -1    0    0    0    0  0.00000000000E+00  0.00000000000E+00  0.45593999997E+02  0.45594000000E+02  0.51100000000E-03 0.  1.
         11   -1    0    0    0    0 -0.00000000000E+00 -0.00000000000E+00 -0.45593999997E+02  0.45594000000E+02  0.51100000000E-03 0. -1.
    9900012    2    1    2    0    0 -0.28542513515E+02 -0.13848686591E+02 -0.29616926533E+02  0.47787268032E+02  0.19999986265E+02 0.  0.
        -12    1    1    2    0    0  0.28542513515E+02  0.13848686591E+02  0.29616926533E+02  0.43400731968E+02  0.00000000000E+00 0.  1.
         11    1    3    3    0    0 -0.17811017026E+02 -0.11586721906E+02 -0.28639363945E+02  0.35660869584E+02  0.51100000000E-03 0. -1.
        -11    1    3    3    0    0 -0.75415808216E+01  0.34961847917E+00 -0.21324796355E+01  0.78450713207E+01  0.51100000000E-03 0.  1.
         12    1    3    3    0    0 -0.31899156674E+01 -0.26115831644E+01  0.11549170468E+01  0.42813271277E+01  0.00000000000E+00 0. -1.
</event>
<event>
 7    1  0.2950722E-010  0.4778728E+02  0.7816164E-02  0.1312668E+00
        -11   -1    0    0    0    0  0.00000000000E+00  0.00000000000E+00  0.45593999997E+02  0.45594000000E+02  0.51100000000E-03 0.  1.
         11   -1    0    0    0    0 -0.00000000000E+00 -0.00000000000E+00 -0.45593999997E+02  0.45594000000E+02  0.51100000000E-03 0. -1.
    9900012    2    1    2    0    0  0.26158677309E+02  0.28654560473E+02 -0.19448975593E+02  0.47787275512E+02  0.20000020371E+02 0.  0.
        -12    1    1    2    0    0 -0.26158677309E+02 -0.28654560473E+02  0.19448975593E+02  0.43400724488E+02  0.00000000000E+00 0.  1.
         11    1    3    3    0    0  0.21091320848E+02  0.26592972635E+02 -0.23128410931E+02  0.41072538285E+02  0.51100000000E-03 0. -1.
        -11    1    3    3    0    0  0.24664693816E+00 -0.17094775719E+00  0.25789943566E+00  0.39568955992E+00  0.51100000000E-03 0.  1.
         12    1    3    3    0    0  0.48207095231E+01  0.22325355946E+01  0.34215359030E+01  0.63190476674E+01  0.00000000000E+00 0. -1.
</event>
<event>
 7    1  0.2950722E-010  0.4778727E+02  0.7816164E-02  0.1312668E+00
        -11   -1    0    0    0    0  0.00000000000E+00  0.00000000000E+00  0.45593999997E+02  0.45594000000E+02  0.51100000000E-03 0.  1.
         11   -1    0    0    0    0 -0.00000000000E+00 -0.00000000000E+00 -0.45593999997E+02  0.45594000000E+02  0.51100000000E-03 0. -1.
    9900012    2    1    2    0    0 -0.38147029422E+01 -0.38780683425E+02  0.19108375978E+02  0.47787269615E+02  0.19999993480E+02 0.  0.
        -12    1    1    2    0    0  0.38147029422E+01  0.38780683425E+02 -0.19108375978E+02  0.43400730385E+02  0.00000000000E+00 0.  1.
         11    1    3    3    0    0 -0.53185718212E+01 -0.26820920355E+01  0.27378582730E+01  0.65556610718E+01  0.51100000000E-03 0. -1.
        -11    1    3    3    0    0 -0.73318130021E+00 -0.26427286578E+02  0.16751239686E+02  0.31297652659E+02  0.51100000000E-03 0.  1.
         12    1    3    3    0    0  0.22370501792E+01 -0.96713048120E+01 -0.38072198110E+00  0.99339558837E+01  0.00000000000E+00 0. -1.
</event>
<event>
 7    1  0.2950722E-010  0.4778728E+02  0.7816164E-02  0.1312668E+00
        -11   -1    0    0    0    0  0.00000000000E+00  0.00000000000E+00  0.45593999997E+02  0.45594000000E+02  0.51100000000E-03 0. -1.
         11   -1    0    0    0    0 -0.00000000000E+00 -0.00000000000E+00 -0.45593999997E+02  0.45594000000E+02  0.51100000000E-03 0.  1.
    9900012    2    1    2    0    0 -0.27720746265E+02 -0.22507077064E+01  0.33318425401E+02  0.47787275008E+02  0.20000018069E+02 0.  0.
        -12    1    1    2    0    0  0.27720746265E+02  0.22507077064E+01 -0.33318425401E+02  0.43400724992E+02  0.00000000000E+00 0.  1.
         11    1    3    3    0    0 -0.13416829989E+01  0.42997218046E+01  0.85173673073E+01  0.96350021783E+01  0.51100000000E-03 0. -1.
        -11    1    3    3    0    0 -0.20427091170E+01 -0.56027686590E+00  0.72555274029E+01  0.75583893032E+01  0.51100000000E-03 0.  1.
         12    1    3    3    0    0 -0.24336354149E+02 -0.59901526452E+01  0.17545530691E+02  0.30593883526E+02  0.00000000000E+00 0. -1.
</event>
<event>
 7    1  0.2950722E-010  0.4778727E+02  0.7816164E-02  0.1312668E+00
        -11   -1    0    0    0    0  0.00000000000E+00  0.00000000000E+00  0.45593999997E+02  0.45594000000E+02  0.51100000000E-03 0.  1.
         11   -1    0    0    0    0 -0.00000000000E+00 -0.00000000000E+00 -0.45593999997E+02  0.45594000000E+02  0.51100000000E-03 0. -1.
    9900012    2    1    2    0    0 -0.31888965553E+02 -0.80202026327E+01 -0.28326548740E+02  0.47787272612E+02  0.20000007146E+02 0.  0.
        -12    1    1    2    0    0  0.31888965553E+02  0.80202026327E+01  0.28326548740E+02  0.43400727388E+02  0.00000000000E+00 0.  1.
         11    1    3    3    0    0 -0.11581460943E+02 -0.21153960470E+01 -0.19122123532E+02  0.22455750859E+02  0.51100000000E-03 0. -1.
        -11    1    3    3    0    0 -0.17411305649E+02 -0.11031741445E+01 -0.45133133668E+01  0.18020559242E+02  0.51100000000E-03 0.  1.
         12    1    3    3    0    0 -0.28961989607E+01 -0.48016324411E+01 -0.46911118416E+01  0.73109625105E+01  0.00000000000E+00 0. -1.
</event>
<event>
 7    1  0.2950722E-010  0.4778726E+02  0.7816164E-02  0.1312668E+00
        -11   -1    0    0    0    0  0.00000000000E+00  0.00000000000E+00  0.45593999997E+02  0.45594000000E+02  0.51100000000E-03 0.  1.
         11   -1    0    0    0    0 -0.00000000000E+00 -0.00000000000E+00 -0.45593999997E+02  0.45594000000E+02  0.51100000000E-03 0. -1.
    9900012    2    1    2    0    0 -0.33272522794E+02  0.93796474619E+01 -0.26240916507E+02  0.47787259698E+02  0.19999948268E+02 0.  0.
        -12    1    1    2    0    0  0.33272522794E+02 -0.93796474619E+01  0.26240916507E+02  0.43400740302E+02  0.00000000000E+00 0.  1.
         11    1    3    3    0    0  0.10236178532E+01 -0.16021185249E+01 -0.24157049405E+00  0.19164899797E+01  0.51100000000E-03 0. -1.
        -11    1    3    3    0    0 -0.13156781972E+01  0.85063022464E+00 -0.55443282500E+01  0.57614370518E+01  0.51100000000E-03 0.  1.
         12    1    3    3    0    0 -0.32980462450E+02  0.10131135762E+02 -0.20455017763E+02  0.40109332667E+02  0.00000000000E+00 0. -1.
</event>
<event>
 7    1  0.2950722E-010  0.4778727E+02  0.7816164E-02  0.1312668E+00
        -11   -1    0    0    0    0  0.00000000000E+00  0.00000000000E+00  0.45593999997E+02  0.45594000000E+02  0.51100000000E-03 0.  1.
         11   -1    0    0    0    0 -0.00000000000E+00 -0.00000000000E+00 -0.45593999997E+02  0.45594000000E+02  0.51100000000E-03 0. -1.
    9900012    2    1    2    0    0 -0.34158976758E+02  0.25384908390E+02 -0.85084686149E+01  0.47787270683E+02  0.19999998350E+02 0.  0.
        -12    1    1    2    0    0  0.34158976758E+02 -0.25384908390E+02  0.85084686149E+01  0.43400729317E+02  0.00000000000E+00 0.  1.
         11    1    3    3    0    0 -0.28297513677E+01  0.22907998787E+01 -0.30483172894E+01  0.47484203105E+01  0.51100000000E-03 0.  1.
        -11    1    3    3    0    0 -0.25839724378E+02  0.93960214247E+01 -0.64740800538E+01  0.28246951824E+02  0.51100000000E-03 0. -1.
        -12    1    3    3    0    0 -0.54895010121E+01  0.13698087086E+02  0.10139287284E+01  0.14791898548E+02  0.00000000000E+00 0.  1.
</event>
<event>
 7    1  0.2950722E-010  0.4778727E+02  0.7816164E-02  0.1312668E+00
        -11   -1    0    0    0    0  0.00000000000E+00  0.00000000000E+00  0.45593999997E+02  0.45594000000E+02  0.51100000000E-03 0.  1.
         11   -1    0    0    0    0 -0.00000000000E+00 -0.00000000000E+00 -0.45593999997E+02  0.45594000000E+02  0.51100000000E-03 0. -1.
    9900012    2    1    2    0    0  0.36405529485E+01 -0.27374641935E+02 -0.33481318636E+02  0.47787270231E+02  0.19999996291E+02 0.  0.
        -12    1    1    2    0    0 -0.36405529485E+01  0.27374641935E+02  0.33481318636E+02  0.43400729769E+02  0.00000000000E+00 0.  1.
         11    1    3    3    0    0  0.16061180327E+01 -0.16817346450E+02 -0.28134394043E+02  0.32816868912E+02  0.51100000000E-03 0. -1.
        -11    1    3    3    0    0 -0.11234339056E+01  0.12394046700E+01 -0.12542951865E+01  0.20908094969E+01  0.51100000000E-03 0.  1.
         12    1    3    3    0    0  0.31578688214E+01 -0.11796700155E+02 -0.40926294067E+01  0.12879591822E+02  0.00000000000E+00 0. -1.
</event>
<event>
 7    1  0.2950722E-010  0.4778727E+02  0.7816164E-02  0.1312668E+00
        -11   -1    0    0    0    0  0.00000000000E+00  0.00000000000E+00  0.45593999997E+02  0.45594000000E+02  0.51100000000E-03 0.  1.
         11   -1    0    0    0    0 -0.00000000000E+00 -0.00000000000E+00 -0.45593999997E+02  0.45594000000E+02  0.51100000000E-03 0. -1.
    9900012    2    1    2    0    0  0.33994466743E+02 -0.54530807027E+01 -0.26424670669E+02  0.47787273298E+02  0.20000010276E+02 0.  0.
        -12    1    1    2    0    0 -0.33994466743E+02  0.54530807027E+01  0.26424670669E+02  0.43400726702E+02  0.00000000000E+00 0.  1.
         11    1    3    3    0    0 -0.69679427688E+00  0.22269935835E+01 -0.53074687641E+01  0.57977795429E+01  0.51100000000E-03 0. -1.
        -11    1    3    3    0    0  0.20209474327E+02 -0.21238274921E+01 -0.86333696252E+01  0.22078690340E+02  0.51100000000E-03 0.  1.
        -12    1    3    3    0    0  0.14481786693E+02 -0.55562467941E+01 -0.12483832280E+02  0.19910803415E+02  0.00000000000E+00 0.  1.
</event>
<event>
 7    1  0.2950722E-010  0.4778727E+02  0.7816164E-02  0.1312668E+00
        -11   -1    0    0    0    0  0.00000000000E+00  0.00000000000E+00  0.45593999997E+02  0.45594000000E+02  0.51100000000E-03 0.  1.
         11   -1    0    0    0    0 -0.00000000000E+00 -0.00000000000E+00 -0.45593999997E+02  0.45594000000E+02  0.51100000000E-03 0. -1.
    9900012    2    1    2    0    0  0.34478888085E+02 -0.54057434358E+01 -0.25799366596E+02  0.47787273020E+02  0.20000009007E+02 0.  0.
        -12    1    1    2    0    0 -0.34478888085E+02  0.54057434358E+01  0.25799366596E+02  0.43400726980E+02  0.00000000000E+00 0.  1.
         11    1    3    3    0    0 -0.25445830516E+00 -0.30741805566E+01 -0.54809597109E+01  0.62893763393E+01  0.51100000000E-03 0.  1.
        -11    1    3    3    0    0  0.20392074729E+02 -0.56374630368E+01 -0.14614653021E+02  0.25713921996E+02  0.51100000000E-03 0. -1.
         12    1    3    3    0    0  0.14341271661E+02  0.33059001576E+01 -0.57037538641E+01  0.15783974685E+02  0.00000000000E+00 0. -1.
</event>
<event>
 7    1  0.2950722E-010  0.4778727E+02  0.7816164E-02  0.1312668E+00
        -11   -1    0    0    0    0  0.00000000000E+00  0.00000000000E+00  0.45593999997E+02  0.45594000000E+02  0.51100000000E-03 0.  1.
         11   -1    0    0    0    0 -0.00000000000E+00 -0.00000000000E+00 -0.45593999997E+02  0.45594000000E+02  0.51100000000E-03 0. -1.
    9900012    2    1    2    0    0 -0.31947587071E+02  0.20603122149E+02 -0.20940063689E+02  0.47787271559E+02  0.20000002344E+02 0.  0.
        -12    1    1    2    0    0  0.31947587071E+02 -0.20603122149E+02  0.20940063689E+02  0.43400728441E+02  0.00000000000E+00 0.  1.
         11    1    3    3    0    0 -0.18687712562E+02  0.19704610408E+02 -0.92594639131E+01  0.28692158238E+02  0.51100000000E-03 0. -1.
        -11    1    3    3    0    0 -0.39470728647E+01 -0.29472567216E+01 -0.49155477810E+01  0.69590456695E+01  0.51100000000E-03 0.  1.
        -12    1    3    3    0    0 -0.93128016445E+01  0.38457684626E+01 -0.67650519948E+01  0.12136067651E+02  0.00000000000E+00 0.  1.
</event>
<event>
 7    1  0.2950722E-010  0.4778727E+02  0.7816164E-02  0.1312668E+00
        -11   -1    0    0    0    0  0.00000000000E+00  0.00000000000E+00  0.45593999997E+02  0.45594000000E+02  0.51100000000E-03 0.  1.
         11   -1    0    0    0    0 -0.00000000000E+00 -0.00000000000E+00 -0.45593999997E+02  0.45594000000E+02  0.51100000000E-03 0. -1.
    9900012    2    1    2    0    0  0.16265672430E+02  0.13442956501E+02 -0.37925426041E+02  0.47787272823E+02  0.20000008108E+02 0.  0.
        -12    1    1    2    0    0 -0.16265672430E+02 -0.13442956501E+02  0.37925426041E+02  0.43400727177E+02  0.00000000000E+00 0.  1.
         11    1    3    3    0    0  0.10841842153E+02  0.11545666932E+02 -0.12557448952E+02  0.20212310373E+02  0.51100000000E-03 0. -1.
        -11    1    3    3    0    0  0.97988736949E+00 -0.60996338022E+00  0.46391173672E+00  0.12439650086E+01  0.51100000000E-03 0.  1.
         12    1    3    3    0    0  0.44439429072E+01  0.25072529499E+01 -0.25831888826E+02  0.26330997441E+02  0.00000000000E+00 0. -1.
</event>
<event>
 7    1  0.2950722E-010  0.4778727E+02  0.7816164E-02  0.1312668E+00
        -11   -1    0    0    0    0  0.00000000000E+00  0.00000000000E+00  0.45593999997E+02  0.45594000000E+02  0.51100000000E-03 0.  1.
         11   -1    0    0    0    0 -0.00000000000E+00 -0.00000000000E+00 -0.45593999997E+02  0.45594000000E+02  0.51100000000E-03 0. -1.
    9900012    2    1    2    0    0 -0.23858875193E+02 -0.34596953944E+01 -0.36088888940E+02  0.47787270483E+02  0.19999997441E+02 0.  0.
        -12    1    1    2    0    0  0.23858875193E+02  0.34596953944E+01  0.36088888940E+02  0.43400729517E+02  0.00000000000E+00 0.  1.
         11    1    3    3    0    0  0.20122559702E-01  0.22251921215E+01 -0.77612869803E+01  0.80739990554E+01  0.51100000000E-03 0. -1.
        -11    1    3    3    0    0 -0.20979615230E+02 -0.67986167623E+01 -0.16659391151E+02  0.27638754655E+02  0.51100000000E-03 0.  1.
        -12    1    3    3    0    0 -0.28993825229E+01  0.11137292464E+01 -0.11668210808E+02  0.12074516773E+02  0.00000000000E+00 0.  1.
</event>
<event>
 7    1  0.2950722E-010  0.4778727E+02  0.7816164E-02  0.1312668E+00
        -11   -1    0    0    0    0  0.00000000000E+00  0.00000000000E+00  0.45593999997E+02  0.45594000000E+02  0.51100000000E-03 0. -1.
         11   -1    0    0    0    0 -0.00000000000E+00 -0.00000000000E+00 -0.45593999997E+02  0.45594000000E+02  0.51100000000E-03 0.  1.
    9900012    2    1    2    0    0 -0.15992736560E+01 -0.14817390403E+01  0.43345934679E+02  0.47787270973E+02  0.19999999676E+02 0.  0.
        -12    1    1    2    0    0  0.15992736560E+01  0.14817390403E+01 -0.43345934679E+02  0.43400729027E+02  0.00000000000E+00 0.  1.
         11    1    3    3    0    0 -0.21153109743E+01  0.12157728657E+01  0.53129985470E+01  0.58464175356E+01  0.51100000000E-03 0. -1.
        -11    1    3    3    0    0 -0.14581716699E+01  0.63182896139E+01  0.25883425208E+02  0.26683304687E+02  0.51100000000E-03 0.  1.
        -12    1    3    3    0    0  0.19742089883E+01 -0.90158015199E+01  0.12149510925E+02  0.15257548751E+02  0.00000000000E+00 0.  1.
</event>
<event>
 7    1  0.2950722E-010  0.4778730E+02  0.7816164E-02  0.1312668E+00
        -11   -1    0    0    0    0  0.00000000000E+00  0.00000000000E+00  0.45593999997E+02  0.45594000000E+02  0.51100000000E-03 0. -1.
         11   -1    0    0    0    0 -0.00000000000E+00 -0.00000000000E+00 -0.45593999997E+02  0.45594000000E+02  0.51100000000E-03 0.  1.
    9900012    2    1    2    0    0 -0.90176686850E+01 -0.42381046080E+02  0.24798701811E+01  0.47787295265E+02  0.20000110432E+02 0.  0.
        -12    1    1    2    0    0  0.90176686850E+01  0.42381046080E+02 -0.24798701811E+01  0.43400704735E+02  0.00000000000E+00 0.  1.
         11    1    3    3    0    0  0.28188696779E+00 -0.19140857952E+02  0.25548305555E+01  0.19312665866E+02  0.51100000000E-03 0. -1.
        -11    1    3    3    0    0 -0.12215102491E+02 -0.13076803974E+02 -0.34711815964E+00  0.17897821721E+02  0.51100000000E-03 0.  1.
        -12    1    3    3    0    0  0.29155468386E+01 -0.10163384154E+02  0.27215778522E+00  0.10576807679E+02  0.00000000000E+00 0.  1.
</event>
<event>
 7    1  0.2950722E-010  0.4778727E+02  0.7816164E-02  0.1312668E+00
        -11   -1    0    0    0    0  0.00000000000E+00  0.00000000000E+00  0.45593999997E+02  0.45594000000E+02  0.51100000000E-03 0. -1.
         11   -1    0    0    0    0 -0.00000000000E+00 -0.00000000000E+00 -0.45593999997E+02  0.45594000000E+02  0.51100000000E-03 0.  1.
    9900012    2    1    2    0    0 -0.37450500348E+02 -0.73106668364E+01  0.20679393143E+02  0.47787272740E+02  0.20000007730E+02 0.  0.
        -12    1    1    2    0    0  0.37450500348E+02  0.73106668364E+01 -0.20679393143E+02  0.43400727260E+02  0.00000000000E+00 0.  1.
         11    1    3    3    0    0 -0.16650711222E+02 -0.82765261549E+01  0.16775161229E+02  0.25043025055E+02  0.51100000000E-03 0. -1.
        -11    1    3    3    0    0 -0.42086834701E+00 -0.17740156294E+01  0.59164899192E+00  0.19168490837E+01  0.51100000000E-03 0.  1.
         12    1    3    3    0    0 -0.20378920779E+02  0.27398749480E+01  0.33125829223E+01  0.20827398601E+02  0.00000000000E+00 0. -1.
</event>
<event>
 7    1  0.2950722E-010  0.4778727E+02  0.7816164E-02  0.1312668E+00
        -11   -1    0    0    0    0  0.00000000000E+00  0.00000000000E+00  0.45593999997E+02  0.45594000000E+02  0.51100000000E-03 0.  1.
         11   -1    0    0    0    0 -0.00000000000E+00 -0.00000000000E+00 -0.45593999997E+02  0.45594000000E+02  0.51100000000E-03 0. -1.
    9900012    2    1    2    0    0  0.52693734317E+01  0.34909700713E+01 -0.42937980113E+02  0.47787270691E+02  0.19999998386E+02 0.  0.
        -12    1    1    2    0    0 -0.52693734317E+01 -0.34909700713E+01  0.42937980113E+02  0.43400729309E+02  0.00000000000E+00 0.  1.
         11    1    3    3    0    0 -0.83850382078E+00 -0.50566359196E+01 -0.13382593063E+02  0.14330612438E+02  0.51100000000E-03 0.  1.
        -11    1    3    3    0    0  0.63732909753E+01  0.10742671957E+02 -0.28251787318E+02  0.30889922719E+02  0.51100000000E-03 0. -1.
         12    1    3    3    0    0 -0.26541372287E+00 -0.21950659665E+01 -0.13035997318E+01  0.25667355342E+01  0.00000000000E+00 0. -1.
</event>
<event>
 7    1  0.2950722E-010  0.4778727E+02  0.7816164E-02  0.1312668E+00
        -11   -1    0    0    0    0  0.00000000000E+00  0.00000000000E+00  0.45593999997E+02  0.45594000000E+02  0.51100000000E-03 0.  1.
         11   -1    0    0    0    0 -0.00000000000E+00 -0.00000000000E+00 -0.45593999997E+02  0.45594000000E+02  0.51100000000E-03 0. -1.
    9900012    2    1    2    0    0  0.38969057222E+02  0.13505438522E+02  0.13514406101E+02  0.47787268869E+02  0.19999990082E+02 0.  0.
        -12    1    1    2    0    0 -0.38969057222E+02 -0.13505438522E+02 -0.13514406101E+02  0.43400731131E+02  0.00000000000E+00 0.  1.
         11    1    3    3    0    0  0.35434437251E+02  0.42867251794E+01  0.97315672624E+01  0.36995658634E+02  0.51100000000E-03 0. -1.
        -11    1    3    3    0    0  0.33523707299E+01  0.59405782272E+01  0.26651951556E+01  0.73233957057E+01  0.51100000000E-03 0.  1.
         12    1    3    3    0    0  0.18224924030E+00  0.32781351158E+01  0.11176436829E+01  0.34682145299E+01  0.00000000000E+00 0. -1.
</event>
<event>
 7    1  0.2950722E-010  0.4778727E+02  0.7816164E-02  0.1312668E+00
        -11   -1    0    0    0    0  0.00000000000E+00  0.00000000000E+00  0.45593999997E+02  0.45594000000E+02  0.51100000000E-03 0. -1.
         11   -1    0    0    0    0 -0.00000000000E+00 -0.00000000000E+00 -0.45593999997E+02  0.45594000000E+02  0.51100000000E-03 0.  1.
    9900012    2    1    2    0    0  0.41920460449E+02 -0.11090417167E+02  0.18168276534E+01  0.47787271666E+02  0.20000002833E+02 0.  0.
        -12    1    1    2    0    0 -0.41920460449E+02  0.11090417167E+02 -0.18168276534E+01  0.43400728334E+02  0.00000000000E+00 0.  1.
         11    1    3    3    0    0  0.11372177113E+02  0.40400461221E+01 -0.22355914626E+00  0.12070557730E+02  0.51100000000E-03 0. -1.
        -11    1    3    3    0    0  0.61368052500E+01 -0.71107460232E+00 -0.30846857184E+01  0.69051641552E+01  0.51100000000E-03 0.  1.
         12    1    3    3    0    0  0.24411478086E+02 -0.14419388687E+02  0.51250725181E+01  0.28811549781E+02  0.00000000000E+00 0. -1.
</event>
<event>
 7    1  0.2950722E-010  0.4778727E+02  0.7816164E-02  0.1312668E+00
        -11   -1    0    0    0    0  0.00000000000E+00  0.00000000000E+00  0.45593999997E+02  0.45594000000E+02  0.51100000000E-03 0. -1.
         11   -1    0    0    0    0 -0.00000000000E+00 -0.00000000000E+00 -0.45593999997E+02  0.45594000000E+02  0.51100000000E-03 0.  1.
    9900012    2    1    2    0    0  0.42280302505E+02 -0.92509780604E+01 -0.32278000901E+01  0.47787271108E+02  0.20000000289E+02 0.  0.
        -12    1    1    2    0    0 -0.42280302505E+02  0.92509780604E+01  0.32278000901E+01  0.43400728892E+02  0.00000000000E+00 0.  1.
         11    1    3    3    0    0  0.26650220114E+02 -0.36471762383E+00  0.16183421908E+01  0.26701802988E+02  0.51100000000E-03 0. -1.
        -11    1    3    3    0    0  0.42503375977E+01 -0.77360043995E+01 -0.37669783544E+01  0.95969401346E+01  0.51100000000E-03 0.  1.
        -12    1    3    3    0    0  0.11379744793E+02 -0.11502560370E+01 -0.10791639265E+01  0.11488527986E+02  0.00000000000E+00 0.  1.
</event>
<event>
 7    1  0.2950722E-010  0.4778727E+02  0.7816164E-02  0.1312668E+00
        -11   -1    0    0    0    0  0.00000000000E+00  0.00000000000E+00  0.45593999997E+02  0.45594000000E+02  0.51100000000E-03 0.  1.
         11   -1    0    0    0    0 -0.00000000000E+00 -0.00000000000E+00 -0.45593999997E+02  0.45594000000E+02  0.51100000000E-03 0. -1.
    9900012    2    1    2    0    0 -0.21296254464E+02  0.10876951615E+01 -0.37800921420E+02  0.47787271952E+02  0.20000004136E+02 0.  0.
        -12    1    1    2    0    0  0.21296254464E+02 -0.10876951615E+01  0.37800921420E+02  0.43400728048E+02  0.00000000000E+00 0.  1.
         11    1    3    3    0    0 -0.36225322654E+01  0.10914187144E+01 -0.45224694667E+01  0.58963264124E+01  0.51100000000E-03 0. -1.
        -11    1    3    3    0    0 -0.10405733734E+02 -0.22249338288E+00 -0.31161705786E+01  0.10864590061E+02  0.51100000000E-03 0.  1.
        -12    1    3    3    0    0 -0.72679884641E+01  0.21876983006E+00 -0.30162281374E+02  0.31026355478E+02  0.00000000000E+00 0.  1.
</event>
<event>
 7    1  0.2950722E-010  0.4778728E+02  0.7816164E-02  0.1312668E+00
        -11   -1    0    0    0    0  0.00000000000E+00  0.00000000000E+00  0.45593999997E+02  0.45594000000E+02  0.51100000000E-03 0.  1.
         11   -1    0    0    0    0 -0.00000000000E+00 -0.00000000000E+00 -0.45593999997E+02  0.45594000000E+02  0.51100000000E-03 0. -1.
    9900012    2    1    2    0    0  0.21550567366E+02  0.73470098324E+01 -0.36948841217E+02  0.47787281405E+02  0.20000047240E+02 0.  0.
        -12    1    1    2    0    0 -0.21550567366E+02 -0.73470098324E+01  0.36948841217E+02  0.43400718595E+02  0.00000000000E+00 0.  1.
         11    1    3    3    0    0  0.38018002795E+01  0.83850248112E+01 -0.14226312010E+02  0.16945509143E+02  0.51100000000E-03 0. -1.
        -11    1    3    3    0    0  0.71203626154E+01 -0.58144429473E+01 -0.10475696197E+02  0.13937270953E+02  0.51100000000E-03 0.  1.
        -12    1    3    3    0    0  0.10628404471E+02  0.47764279684E+01 -0.12246833010E+02  0.16904501309E+02  0.00000000000E+00 0.  1.
</event>
<event>
 7    1  0.2950722E-010  0.4778727E+02  0.7816164E-02  0.1312668E+00
        -11   -1    0    0    0    0  0.00000000000E+00  0.00000000000E+00  0.45593999997E+02  0.45594000000E+02  0.51100000000E-03 0. -1.
         11   -1    0    0    0    0 -0.00000000000E+00 -0.00000000000E+00 -0.45593999997E+02  0.45594000000E+02  0.51100000000E-03 0.  1.
    9900012    2    1    2    0    0  0.40086918801E+02 -0.15867247503E+02 -0.49892712228E+01  0.47787269250E+02  0.19999991821E+02 0.  0.
        -12    1    1    2    0    0 -0.40086918801E+02  0.15867247503E+02  0.49892712228E+01  0.43400730750E+02  0.00000000000E+00 0.  1.
         11    1    3    3    0    0  0.29867344734E+02 -0.13001394418E+02  0.47184640648E+01  0.32914410851E+02  0.51100000000E-03 0. -1.
        -11    1    3    3    0    0 -0.25999830470E+00 -0.15078571646E+00  0.42697625459E-01  0.30357667743E+00  0.51100000000E-03 0.  1.
         12    1    3    3    0    0  0.10479572371E+02 -0.27150673685E+01 -0.97504329130E+01  0.14569281722E+02  0.00000000000E+00 0. -1.
</event>
<event>
 7    1  0.2950722E-010  0.4778727E+02  0.7816164E-02  0.1312668E+00
        -11   -1    0    0    0    0  0.00000000000E+00  0.00000000000E+00  0.45593999997E+02  0.45594000000E+02  0.51100000000E-03 0. -1.
         11   -1    0    0    0    0 -0.00000000000E+00 -0.00000000000E+00 -0.45593999997E+02  0.45594000000E+02  0.51100000000E-03 0.  1.
    9900012    2    1    2    0    0 -0.42929558291E+02 -0.33860431319E+01  0.54047187028E+01  0.47787271349E+02  0.20000001389E+02 0.  0.
        -12    1    1    2    0    0  0.42929558291E+02  0.33860431319E+01 -0.54047187028E+01  0.43400728651E+02  0.00000000000E+00 0.  1.
         11    1    3    3    0    0 -0.26050163076E+02  0.23688118862E+01 -0.27316413545E+01  0.26299888418E+02  0.51100000000E-03 0. -1.
        -11    1    3    3    0    0 -0.30888810158E+01  0.23154313293E-01 -0.17616561753E+01  0.35560026425E+01  0.51100000000E-03 0.  1.
         12    1    3    3    0    0 -0.13790514199E+02 -0.57780093314E+01  0.98980162326E+01  0.17931380288E+02  0.00000000000E+00 0. -1.
</event>
<event>
 7    1  0.2950722E-010  0.4778728E+02  0.7816164E-02  0.1312668E+00
        -11   -1    0    0    0    0  0.00000000000E+00  0.00000000000E+00  0.45593999997E+02  0.45594000000E+02  0.51100000000E-03 0.  1.
         11   -1    0    0    0    0 -0.00000000000E+00 -0.00000000000E+00 -0.45593999997E+02  0.45594000000E+02  0.51100000000E-03 0. -1.
    9900012    2    1    2    0    0  0.37823462778E+02 -0.53012359441E+01 -0.20613225008E+02  0.47787280141E+02  0.20000041476E+02 0.  0.
        -12    1    1    2    0    0 -0.37823462778E+02  0.53012359441E+01  0.20613225008E+02  0.43400719859E+02  0.00000000000E+00 0.  1.
         11    1    3    3    0    0  0.36952992520E+02 -0.76315857178E+01 -0.14892174446E+02  0.40565275997E+02  0.51100000000E-03 0. -1.
        -11    1    3    3    0    0  0.26711775627E+00  0.26738041269E+01 -0.17867710874E+01  0.32269384228E+01  0.51100000000E-03 0.  1.
         12    1    3    3    0    0  0.60335250163E+00 -0.34345435320E+00 -0.39342794746E+01  0.39950657214E+01  0.00000000000E+00 0. -1.
</event>
<event>
 7    1  0.2950722E-010  0.4778727E+02  0.7816164E-02  0.1312668E+00
        -11   -1    0    0    0    0  0.00000000000E+00  0.00000000000E+00  0.45593999997E+02  0.45594000000E+02  0.51100000000E-03 0. -1.
         11   -1    0    0    0    0 -0.00000000000E+00 -0.00000000000E+00 -0.45593999997E+02  0.45594000000E+02  0.51100000000E-03 0.  1.
    9900012    2    1    2    0    0 -0.28441678071E+01  0.32284342440E+01  0.43186931079E+02  0.47787273114E+02  0.20000009437E+02 0.  0.
        -12    1    1    2    0    0  0.28441678071E+01 -0.32284342440E+01 -0.43186931079E+02  0.43400726886E+02  0.00000000000E+00 0.  1.
         11    1    3    3    0    0 -0.16987372650E+01 -0.11682868961E+01  0.12729703536E+02  0.12895578891E+02  0.51100000000E-03 0. -1.
        -11    1    3    3    0    0 -0.65318826204E+01 -0.16895127320E+01  0.22606032135E+02  0.23591367764E+02  0.51100000000E-03 0.  1.
        -12    1    3    3    0    0  0.53864520783E+01  0.60862338722E+01  0.78511954086E+01  0.11300326459E+02  0.00000000000E+00 0.  1.
</event>
<event>
 7    1  0.2950722E-010  0.4778727E+02  0.7816164E-02  0.1312668E+00
        -11   -1    0    0    0    0  0.00000000000E+00  0.00000000000E+00  0.45593999997E+02  0.45594000000E+02  0.51100000000E-03 0.  1.
         11   -1    0    0    0    0 -0.00000000000E+00 -0.00000000000E+00 -0.45593999997E+02  0.45594000000E+02  0.51100000000E-03 0. -1.
    9900012    2    1    2    0    0 -0.30979153155E+02 -0.18672418830E+02 -0.23984497471E+02  0.47787271042E+02  0.19999999987E+02 0.  0.
        -12    1    1    2    0    0  0.30979153155E+02  0.18672418830E+02  0.23984497471E+02  0.43400728958E+02  0.00000000000E+00 0.  1.
         11    1    3    3    0    0 -0.17441867181E+02 -0.11428230375E+02 -0.18735208888E+02  0.28032681509E+02  0.51100000000E-03 0. -1.
        -11    1    3    3    0    0 -0.13122611781E+02 -0.57799238838E+01 -0.52152772675E-01  0.14339218257E+02  0.51100000000E-03 0.  1.
        -12    1    3    3    0    0 -0.41467419377E+00 -0.14642645713E+01 -0.51971358104E+01  0.54153712757E+01  0.00000000000E+00 0.  1.
</event>
<event>
 7    1  0.2950722E-010  0.4778727E+02  0.7816164E-02  0.1312668E+00
        -11   -1    0    0    0    0  0.00000000000E+00  0.00000000000E+00  0.45593999997E+02  0.45594000000E+02  0.51100000000E-03 0.  1.
         11   -1    0    0    0    0 -0.00000000000E+00 -0.00000000000E+00 -0.45593999997E+02  0.45594000000E+02  0.51100000000E-03 0. -1.
    9900012    2    1    2    0    0 -0.35155289884E+02 -0.24976817249E+02 -0.48874953848E+01  0.47787269386E+02  0.19999992438E+02 0.  0.
        -12    1    1    2    0    0  0.35155289884E+02  0.24976817249E+02  0.48874953848E+01  0.43400730614E+02  0.00000000000E+00 0.  1.
         11    1    3    3    0    0 -0.29453876230E+02 -0.24885431130E+02 -0.10274923736E+02  0.39904756177E+02  0.51100000000E-03 0. -1.
        -11    1    3    3    0    0 -0.39602149707E+01  0.11862560879E+00  0.41397189619E+01  0.57301525279E+01  0.51100000000E-03 0.  1.
         12    1    3    3    0    0 -0.17411986828E+01 -0.21001172755E+00  0.12477093896E+01  0.21523606806E+01  0.00000000000E+00 0. -1.
</event>
<event>
 7    1  0.2950722E-010  0.4778728E+02  0.7816164E-02  0.1312668E+00
        -11   -1    0    0    0    0  0.00000000000E+00  0.00000000000E+00  0.45593999997E+02  0.45594000000E+02  0.51100000000E-03 0.  1.
         11   -1    0    0    0    0 -0.00000000000E+00 -0.00000000000E+00 -0.45593999997E+02  0.45594000000E+02  0.51100000000E-03 0. -1.
    9900012    2    1    2    0    0  0.43288544463E+02  0.79513354208E+00  0.30152626655E+01  0.47787284246E+02  0.20000060189E+02 0.  0.
        -12    1    1    2    0    0 -0.43288544463E+02 -0.79513354208E+00 -0.30152626655E+01  0.43400715754E+02  0.00000000000E+00 0.  1.
         11    1    3    3    0    0  0.29746929188E+02 -0.40400474053E+01 -0.40316725809E+01  0.30289538842E+02  0.51100000000E-03 0. -1.
        -11    1    3    3    0    0  0.38737805862E+01  0.18357392406E+01  0.59252914541E+01  0.73133572090E+01  0.51100000000E-03 0.  1.
         12    1    3    3    0    0  0.96678346882E+01  0.29994417067E+01  0.11216437922E+01  0.10184388195E+02  0.00000000000E+00 0. -1.
</event>
<event>
 7    1  0.2950722E-010  0.4778727E+02  0.7816164E-02  0.1312668E+00
        -11   -1    0    0    0    0  0.00000000000E+00  0.00000000000E+00  0.45593999997E+02  0.45594000000E+02  0.51100000000E-03 0.  1.
         11   -1    0    0    0    0 -0.00000000000E+00 -0.00000000000E+00 -0.45593999997E+02  0.45594000000E+02  0.51100000000E-03 0. -1.
    9900012    2    1    2    0    0 -0.78494578249E+01  0.32687370251E+02 -0.27450770580E+02  0.47787274573E+02  0.20000016090E+02 0.  0.
        -12    1    1    2    0    0  0.78494578249E+01 -0.32687370251E+02  0.27450770580E+02  0.43400725427E+02  0.00000000000E+00 0.  1.
         11    1    3    3    0    0 -0.28639655350E+00  0.16567215366E+02 -0.10299603723E+02  0.19509907357E+02  0.51100000000E-03 0. -1.
        -11    1    3    3    0    0 -0.91924888390E+01  0.64034591322E+01 -0.14005750179E+02  0.17935082332E+02  0.51100000000E-03 0.  1.
        -12    1    3    3    0    0  0.16294275676E+01  0.97166957527E+01 -0.31454166788E+01  0.10342284885E+02  0.00000000000E+00 0.  1.
</event>
<event>
 7    1  0.2950722E-010  0.4778727E+02  0.7816164E-02  0.1312668E+00
        -11   -1    0    0    0    0  0.00000000000E+00  0.00000000000E+00  0.45593999997E+02  0.45594000000E+02  0.51100000000E-03 0. -1.
         11   -1    0    0    0    0 -0.00000000000E+00 -0.00000000000E+00 -0.45593999997E+02  0.45594000000E+02  0.51100000000E-03 0.  1.
    9900012    2    1    2    0    0  0.41364460055E+02 -0.13133978850E+02 -0.32128767177E+00  0.47787272105E+02  0.20000004835E+02 0.  0.
        -12    1    1    2    0    0 -0.41364460055E+02  0.13133978850E+02  0.32128767177E+00  0.43400727895E+02  0.00000000000E+00 0.  1.
         11    1    3    3    0    0  0.12355502312E+02  0.92715879125E+00  0.47363043996E+01  0.13264638722E+02  0.51100000000E-03 0. -1.
        -11    1    3    3    0    0  0.30733312504E+01  0.39827152734E-01  0.25986300892E+01  0.40249012135E+01  0.51100000000E-03 0.  1.
         12    1    3    3    0    0  0.25935626493E+02 -0.14100964794E+02 -0.76562221606E+01  0.30497732169E+02  0.00000000000E+00 0. -1.
</event>
<event>
 7    1  0.2950722E-010  0.4778727E+02  0.7816164E-02  0.1312668E+00
        -11   -1    0    0    0    0  0.00000000000E+00  0.00000000000E+00  0.45593999997E+02  0.45594000000E+02  0.51100000000E-03 0. -1.
         11   -1    0    0    0    0 -0.00000000000E+00 -0.00000000000E+00 -0.45593999997E+02  0.45594000000E+02  0.51100000000E-03 0.  1.
    9900012    2    1    2    0    0 -0.22279612308E+02 -0.25805455695E+02  0.26857415038E+02  0.47787269468E+02  0.19999992811E+02 0.  0.
        -12    1    1    2    0    0  0.22279612308E+02  0.25805455695E+02 -0.26857415038E+02  0.43400730532E+02  0.00000000000E+00 0.  1.
         11    1    3    3    0    0 -0.19933417004E+01  0.26318006787E+01  0.79116021779E+00  0.33949551836E+01  0.51100000000E-03 0.  1.
        -11    1    3    3    0    0 -0.15132696454E+02 -0.14428601684E+02  0.16813898229E+02  0.26830770068E+02  0.51100000000E-03 0. -1.
        -12    1    3    3    0    0 -0.51535741534E+01 -0.14008654689E+02  0.92523565908E+01  0.17561544216E+02  0.00000000000E+00 0.  1.
</event>
<event>
 7    1  0.2950722E-010  0.4778728E+02  0.7816164E-02  0.1312668E+00
        -11   -1    0    0    0    0  0.00000000000E+00  0.00000000000E+00  0.45593999997E+02  0.45594000000E+02  0.51100000000E-03 0.  1.
         11   -1    0    0    0    0 -0.00000000000E+00 -0.00000000000E+00 -0.45593999997E+02  0.45594000000E+02  0.51100000000E-03 0. -1.
    9900012    2    1    2    0    0 -0.12485180573E+02 -0.20078863354E+02 -0.36394801644E+02  0.47787284865E+02  0.20000063016E+02 0.  0.
        -12    1    1    2    0    0  0.12485180573E+02  0.20078863354E+02  0.36394801644E+02  0.43400715135E+02  0.00000000000E+00 0.  1.
         11    1    3    3    0    0  0.14593338536E+01 -0.48382208069E+01 -0.67597098955E+01  0.84398882697E+01  0.51100000000E-03 0. -1.
        -11    1    3    3    0    0 -0.52602741918E+01 -0.97083895289E+01 -0.40382164773E+01  0.11757146950E+02  0.51100000000E-03 0.  1.
        -12    1    3    3    0    0 -0.86842402349E+01 -0.55322530177E+01 -0.25596875271E+02  0.27590249646E+02  0.00000000000E+00 0.  1.
</event>
<event>
 7    1  0.2950722E-010  0.4778727E+02  0.7816164E-02  0.1312668E+00
        -11   -1    0    0    0    0  0.00000000000E+00  0.00000000000E+00  0.45593999997E+02  0.45594000000E+02  0.51100000000E-03 0.  1.
         11   -1    0    0    0    0 -0.00000000000E+00 -0.00000000000E+00 -0.45593999997E+02  0.45594000000E+02  0.51100000000E-03 0. -1.
    9900012    2    1    2    0    0 -0.33559395881E+02 -0.15111789286E+02 -0.23000520984E+02  0.47787271978E+02  0.20000004258E+02 0.  0.
        -12    1    1    2    0    0  0.33559395881E+02  0.15111789286E+02  0.23000520984E+02  0.43400728022E+02  0.00000000000E+00 0.  1.
         11    1    3    3    0    0 -0.25779698880E+02 -0.11958256465E+02 -0.99345848036E+01  0.30104630002E+02  0.51100000000E-03 0. -1.
        -11    1    3    3    0    0 -0.90689772846E+01 -0.30270401422E+01 -0.13286136462E+02  0.16368590146E+02  0.51100000000E-03 0.  1.
         12    1    3    3    0    0  0.12892802845E+01 -0.12649267885E+00  0.22020028245E+00  0.13140518308E+01  0.00000000000E+00 0. -1.
</event>
<event>
 7    1  0.2950722E-010  0.4778727E+02  0.7816164E-02  0.1312668E+00
        -11   -1    0    0    0    0  0.00000000000E+00  0.00000000000E+00  0.45593999997E+02  0.45594000000E+02  0.51100000000E-03 0. -1.
         11   -1    0    0    0    0 -0.00000000000E+00 -0.00000000000E+00 -0.45593999997E+02  0.45594000000E+02  0.51100000000E-03 0.  1.
    9900012    2    1    2    0    0  0.53285191849E+01 -0.26904528771E+02  0.33635943400E+02  0.47787268745E+02  0.19999989515E+02 0.  0.
        -12    1    1    2    0    0 -0.53285191849E+01  0.26904528771E+02 -0.33635943400E+02  0.43400731255E+02  0.00000000000E+00 0.  1.
         11    1    3    3    0    0  0.75989122726E+01 -0.10885782994E+02  0.67369307021E+01  0.14887242010E+02  0.51100000000E-03 0. -1.
        -11    1    3    3    0    0 -0.47555929242E+01 -0.30916104440E+01  0.65539615658E+01  0.86676485661E+01  0.51100000000E-03 0.  1.
        -12    1    3    3    0    0  0.24851998365E+01 -0.12927135332E+02  0.20345051132E+02  0.24232378168E+02  0.00000000000E+00 0.  1.
</event>
<event>
 7    1  0.2950722E-010  0.4778728E+02  0.7816164E-02  0.1312668E+00
        -11   -1    0    0    0    0  0.00000000000E+00  0.00000000000E+00  0.45593999997E+02  0.45594000000E+02  0.51100000000E-03 0. -1.
         11   -1    0    0    0    0 -0.00000000000E+00 -0.00000000000E+00 -0.45593999997E+02  0.45594000000E+02  0.51100000000E-03 0.  1.
    9900012    2    1    2    0    0  0.17672588636E+02  0.37928258932E+02  0.11521704023E+02  0.47787275601E+02  0.20000020777E+02 0.  0.
        -12    1    1    2    0    0 -0.17672588636E+02 -0.37928258932E+02 -0.11521704023E+02  0.43400724399E+02  0.00000000000E+00 0.  1.
         11    1    3    3    0    0  0.19284355070E+02  0.34051518777E+02  0.12258936156E+02  0.41008216219E+02  0.51100000000E-03 0. -1.
        -11    1    3    3    0    0 -0.13052513159E+01  0.46593750565E+01 -0.20216285158E+01  0.52440861007E+01  0.51100000000E-03 0.  1.
        -12    1    3    3    0    0 -0.30651511893E+00 -0.78263490138E+00  0.12843963831E+01  0.15349732818E+01  0.00000000000E+00 0.  1.
</event>
<event>
 7    1  0.2950722E-010  0.4778727E+02  0.7816164E-02  0.1312668E+00
        -11   -1    0    0    0    0  0.00000000000E+00  0.00000000000E+00  0.45593999997E+02  0.45594000000E+02  0.51100000000E-03 0.  1.
         11   -1    0    0    0    0 -0.00000000000E+00 -0.00000000000E+00 -0.45593999997E+02  0.45594000000E+02  0.51100000000E-03 0. -1.
    9900012    2    1    2    0    0 -0.26174177255E+02  0.11540784090E+02 -0.32639634489E+02  0.47787274292E+02  0.20000014809E+02 0.  0.
        -12    1    1    2    0    0  0.26174177255E+02 -0.11540784090E+02  0.32639634489E+02  0.43400725708E+02  0.00000000000E+00 0.  1.
         11    1    3    3    0    0 -0.16709089783E+02  0.70704696976E+01 -0.95941437294E+01  0.20523957155E+02  0.51100000000E-03 0. -1.
        -11    1    3    3    0    0 -0.65994152998E-01  0.29295396528E+01 -0.75914880565E+00  0.30270224604E+01  0.51100000000E-03 0.  1.
         12    1    3    3    0    0 -0.93990933189E+01  0.15407747393E+01 -0.22286341954E+02  0.24236294677E+02  0.00000000000E+00 0. -1.
</event>
<event>
 7    1  0.2950722E-010  0.4778727E+02  0.7816164E-02  0.1312668E+00
        -11   -1    0    0    0    0  0.00000000000E+00  0.00000000000E+00  0.45593999997E+02  0.45594000000E+02  0.51100000000E-03 0.  1.
         11   -1    0    0    0    0 -0.00000000000E+00 -0.00000000000E+00 -0.45593999997E+02  0.45594000000E+02  0.51100000000E-03 0. -1.
    9900012    2    1    2    0    0 -0.48908827858E+01 -0.11595505218E+02 -0.41536092802E+02  0.47787268659E+02  0.19999989123E+02 0.  0.
        -12    1    1    2    0    0  0.48908827858E+01  0.11595505218E+02  0.41536092802E+02  0.43400731341E+02  0.00000000000E+00 0.  1.
         11    1    3    3    0    0  0.11766343071E+01 -0.47822761712E+01 -0.29757789085E+00  0.49338814875E+01  0.51100000000E-03 0. -1.
        -11    1    3    3    0    0  0.54222564888E+00  0.11666663357E+01 -0.41789164309E+01  0.43724663282E+01  0.51100000000E-03 0.  1.
         12    1    3    3    0    0 -0.66097427418E+01 -0.79798953823E+01 -0.37059598480E+02  0.38480920843E+02  0.00000000000E+00 0. -1.
</event>
<event>
 7    1  0.2950722E-010  0.4778725E+02  0.7816164E-02  0.1312668E+00
        -11   -1    0    0    0    0  0.00000000000E+00  0.00000000000E+00  0.45593999997E+02  0.45594000000E+02  0.51100000000E-03 0.  1.
         11   -1    0    0    0    0 -0.00000000000E+00 -0.00000000000E+00 -0.45593999997E+02  0.45594000000E+02  0.51100000000E-03 0. -1.
    9900012    2    1    2    0    0  0.67833113327E+01  0.14543938674E+02 -0.40324747019E+02  0.47787254765E+02  0.19999925776E+02 0.  0.
        -12    1    1    2    0    0 -0.67833113327E+01 -0.14543938674E+02  0.40324747019E+02  0.43400745235E+02  0.00000000000E+00 0.  1.
         11    1    3    3    0    0 -0.14346244559E+01  0.13809906574E+02 -0.15704767531E+02  0.20962141837E+02  0.51100000000E-03 0.  1.
        -11    1    3    3    0    0 -0.10543992643E+01  0.85382555612E+00 -0.37434467562E+01  0.39817294943E+01  0.51100000000E-03 0. -1.
         12    1    3    3    0    0  0.92723350529E+01 -0.11979345695E+00 -0.20876532732E+02  0.22843383434E+02  0.00000000000E+00 0. -1.
</event>
<event>
 7    1  0.2950722E-010  0.4778727E+02  0.7816164E-02  0.1312668E+00
        -11   -1    0    0    0    0  0.00000000000E+00  0.00000000000E+00  0.45593999997E+02  0.45594000000E+02  0.51100000000E-03 0.  1.
         11   -1    0    0    0    0 -0.00000000000E+00 -0.00000000000E+00 -0.45593999997E+02  0.45594000000E+02  0.51100000000E-03 0. -1.
    9900012    2    1    2    0    0  0.22181529407E+02  0.10316289841E+02 -0.35849372126E+02  0.47787267693E+02  0.19999984721E+02 0.  0.
        -12    1    1    2    0    0 -0.22181529407E+02 -0.10316289841E+02  0.35849372126E+02  0.43400732307E+02  0.00000000000E+00 0.  1.
         11    1    3    3    0    0  0.91176702280E+01  0.33877434741E+01 -0.24199740009E+02  0.26081336871E+02  0.51100000000E-03 0. -1.
        -11    1    3    3    0    0  0.49154899053E+01  0.24267460610E+01  0.14171901290E+01  0.56621167046E+01  0.51100000000E-03 0.  1.
        -12    1    3    3    0    0  0.81483692732E+01  0.45018003063E+01 -0.13066822247E+02  0.16043814117E+02  0.00000000000E+00 0.  1.
</event>
<event>
 7    1  0.2950722E-010  0.4778727E+02  0.7816164E-02  0.1312668E+00
        -11   -1    0    0    0    0  0.00000000000E+00  0.00000000000E+00  0.45593999997E+02  0.45594000000E+02  0.51100000000E-03 0.  1.
         11   -1    0    0    0    0 -0.00000000000E+00 -0.00000000000E+00 -0.45593999997E+02  0.45594000000E+02  0.51100000000E-03 0. -1.
    9900012    2    1    2    0    0  0.22999990673E+02 -0.11654039406E+02 -0.34911418809E+02  0.47787269952E+02  0.19999995018E+02 0.  0.
        -12    1    1    2    0    0 -0.22999990673E+02  0.11654039406E+02  0.34911418809E+02  0.43400730048E+02  0.00000000000E+00 0.  1.
         11    1    3    3    0    0  0.64606484054E+01 -0.10625834297E+02 -0.98416194003E+01  0.15858934548E+02  0.51100000000E-03 0. -1.
        -11    1    3    3    0    0  0.14291446534E+02  0.13711666908E+01 -0.12829437673E+02  0.19254090822E+02  0.51100000000E-03 0.  1.
        -12    1    3    3    0    0  0.22478957335E+01 -0.23993717997E+01 -0.12240361736E+02  0.12674244581E+02  0.00000000000E+00 0.  1.
</event>
<event>
 7    1  0.2950722E-010  0.4778728E+02  0.7816164E-02  0.1312668E+00
        -11   -1    0    0    0    0  0.00000000000E+00  0.00000000000E+00  0.45593999997E+02  0.45594000000E+02  0.51100000000E-03 0.  1.
         11   -1    0    0    0    0 -0.00000000000E+00 -0.00000000000E+00 -0.45593999997E+02  0.45594000000E+02  0.51100000000E-03 0. -1.
    9900012    2    1    2    0    0  0.24871818252E+02  0.31685015358E+02 -0.16157820230E+02  0.47787277702E+02  0.20000030355E+02 0.  0.
        -12    1    1    2    0    0 -0.24871818252E+02 -0.31685015358E+02  0.16157820230E+02  0.43400722298E+02  0.00000000000E+00 0.  1.
         11    1    3    3    0    0  0.92492821602E+00 -0.23176057710E+01 -0.36253760883E+00  0.25215516043E+01  0.51100000000E-03 0. -1.
        -11    1    3    3    0    0  0.66040199889E+01  0.75459825987E+01 -0.28035763742E+00  0.10031626691E+02  0.51100000000E-03 0.  1.
         12    1    3    3    0    0  0.17342870047E+02  0.26456638531E+02 -0.15514924984E+02  0.35234099407E+02  0.00000000000E+00 0. -1.
</event>
<event>
 7    1  0.2950722E-010  0.4778727E+02  0.7816164E-02  0.1312668E+00
        -11   -1    0    0    0    0  0.00000000000E+00  0.00000000000E+00  0.45593999997E+02  0.45594000000E+02  0.51100000000E-03 0.  1.
         11   -1    0    0    0    0 -0.00000000000E+00 -0.00000000000E+00 -0.45593999997E+02  0.45594000000E+02  0.51100000000E-03 0. -1.
    9900012    2    1    2    0    0 -0.29980693945E+01 -0.90526836177E+01 -0.42340096344E+02  0.47787271214E+02  0.20000000773E+02 0.  0.
        -12    1    1    2    0    0  0.29980693945E+01  0.90526836177E+01  0.42340096344E+02  0.43400728786E+02  0.00000000000E+00 0.  1.
         11    1    3    3    0    0  0.53954772384E+00  0.16789920046E+01 -0.44898869342E+01  0.48238170406E+01  0.51100000000E-03 0. -1.
        -11    1    3    3    0    0  0.44017790862E+01  0.19656626877E+01 -0.54895562900E+01  0.73058002606E+01  0.51100000000E-03 0.  1.
        -12    1    3    3    0    0 -0.79393962046E+01 -0.12697338310E+02 -0.32360653119E+02  0.35657653913E+02  0.00000000000E+00 0.  1.
</event>
<event>
 7    1  0.2950722E-010  0.4778727E+02  0.7816164E-02  0.1312668E+00
        -11   -1    0    0    0    0  0.00000000000E+00  0.00000000000E+00  0.45593999997E+02  0.45594000000E+02  0.51100000000E-03 0. -1.
         11   -1    0    0    0    0 -0.00000000000E+00 -0.00000000000E+00 -0.45593999997E+02  0.45594000000E+02  0.51100000000E-03 0.  1.
    9900012    2    1    2    0    0  0.26491934195E+02  0.75110632275E+01  0.33546757766E+02  0.47787267232E+02  0.19999982620E+02 0.  0.
        -12    1    1    2    0    0 -0.26491934195E+02 -0.75110632275E+01 -0.33546757766E+02  0.43400732768E+02  0.00000000000E+00 0.  1.
         11    1    3    3    0    0  0.20467886135E+02  0.71560023906E+00  0.15481759311E+02  0.25673552893E+02  0.51100000000E-03 0. -1.
        -11    1    3    3    0    0  0.68962272721E+01  0.67161138780E+01  0.18699817565E+02  0.21032054428E+02  0.51100000000E-03 0.  1.
        -12    1    3    3    0    0 -0.87217921293E+00  0.79349110455E-01 -0.63481911049E+00  0.10816599114E+01  0.00000000000E+00 0.  1.
</event>
<event>
 7    1  0.2950722E-010  0.4778727E+02  0.7816164E-02  0.1312668E+00
        -11   -1    0    0    0    0  0.00000000000E+00  0.00000000000E+00  0.45593999997E+02  0.45594000000E+02  0.51100000000E-03 0.  1.
         11   -1    0    0    0    0 -0.00000000000E+00 -0.00000000000E+00 -0.45593999997E+02  0.45594000000E+02  0.51100000000E-03 0. -1.
    9900012    2    1    2    0    0  0.19428942344E+02  0.10000298338E+02 -0.37498445841E+02  0.47787271805E+02  0.20000003466E+02 0.  0.
        -12    1    1    2    0    0 -0.19428942344E+02 -0.10000298338E+02  0.37498445841E+02  0.43400728195E+02  0.00000000000E+00 0.  1.
         11    1    3    3    0    0  0.12740839802E+02  0.55118323140E+01 -0.34670232381E+02  0.37346141808E+02  0.51100000000E-03 0. -1.
        -11    1    3    3    0    0  0.46702741915E+01 -0.46536794469E+00 -0.11095028347E+01  0.48227611540E+01  0.51100000000E-03 0.  1.
         12    1    3    3    0    0  0.20178283503E+01  0.49538339685E+01 -0.17187106244E+01  0.56183688424E+01  0.00000000000E+00 0. -1.
</event>
<event>
 7    1  0.2950722E-010  0.4778727E+02  0.7816164E-02  0.1312668E+00
        -11   -1    0    0    0    0  0.00000000000E+00  0.00000000000E+00  0.45593999997E+02  0.45594000000E+02  0.51100000000E-03 0.  1.
         11   -1    0    0    0    0 -0.00000000000E+00 -0.00000000000E+00 -0.45593999997E+02  0.45594000000E+02  0.51100000000E-03 0. -1.
    9900012    2    1    2    0    0  0.97098712666E+01  0.28839154131E+02 -0.30945833807E+02  0.47787273727E+02  0.20000012231E+02 0.  0.
        -12    1    1    2    0    0 -0.97098712666E+01 -0.28839154131E+02  0.30945833807E+02  0.43400726273E+02  0.00000000000E+00 0.  1.
         11    1    3    3    0    0  0.41146570048E+01  0.14886070035E+01 -0.41185672920E+01  0.60090722976E+01  0.51100000000E-03 0. -1.
        -11    1    3    3    0    0  0.10128221214E+02  0.19630644311E+02 -0.23434934195E+02  0.32204645658E+02  0.51100000000E-03 0.  1.
        -12    1    3    3    0    0 -0.45330069524E+01  0.77199028165E+01 -0.33923323205E+01  0.95735557710E+01  0.00000000000E+00 0.  1.
</event>
<event>
 7    1  0.2950722E-010  0.4778727E+02  0.7816164E-02  0.1312668E+00
        -11   -1    0    0    0    0  0.00000000000E+00  0.00000000000E+00  0.45593999997E+02  0.45594000000E+02  0.51100000000E-03 0.  1.
         11   -1    0    0    0    0 -0.00000000000E+00 -0.00000000000E+00 -0.45593999997E+02  0.45594000000E+02  0.51100000000E-03 0. -1.
    9900012    2    1    2    0    0 -0.11081615157E+02 -0.26416917197E+02 -0.32603179132E+02  0.47787274220E+02  0.20000014480E+02 0.  0.
        -12    1    1    2    0    0  0.11081615157E+02  0.26416917197E+02  0.32603179132E+02  0.43400725780E+02  0.00000000000E+00 0.  1.
         11    1    3    3    0    0 -0.55359505351E+01 -0.13937435038E+02 -0.25571203870E+02  0.29644313306E+02  0.51100000000E-03 0. -1.
        -11    1    3    3    0    0  0.14587598905E+01 -0.23160622542E+01 -0.49059974496E+01  0.56179120695E+01  0.51100000000E-03 0.  1.
         12    1    3    3    0    0 -0.70044245127E+01 -0.10163419905E+02 -0.21259778128E+01  0.12525048845E+02  0.00000000000E+00 0. -1.
</event>
<event>
 7    1  0.2950722E-010  0.4778727E+02  0.7816164E-02  0.1312668E+00
        -11   -1    0    0    0    0  0.00000000000E+00  0.00000000000E+00  0.45593999997E+02  0.45594000000E+02  0.51100000000E-03 0.  1.
         11   -1    0    0    0    0 -0.00000000000E+00 -0.00000000000E+00 -0.45593999997E+02  0.45594000000E+02  0.51100000000E-03 0. -1.
    9900012    2    1    2    0    0 -0.14863443392E+02 -0.69795454963E+01 -0.40174463989E+02  0.47787267730E+02  0.19999984888E+02 0.  0.
        -12    1    1    2    0    0  0.14863443392E+02  0.69795454963E+01  0.40174463989E+02  0.43400732270E+02  0.00000000000E+00 0.  1.
         11    1    3    3    0    0 -0.17314713717E+02 -0.62539747475E+01 -0.30690463926E+02  0.35788490992E+02  0.51100000000E-03 0. -1.
        -11    1    3    3    0    0  0.97763297455E+00 -0.12741545776E+01  0.65802539805E+00  0.17355788101E+01  0.51100000000E-03 0.  1.
         12    1    3    3    0    0  0.14736373505E+01  0.54858382880E+00 -0.10142025460E+02  0.10263197927E+02  0.00000000000E+00 0. -1.
</event>
<event>
 7    1  0.2950722E-010  0.4778727E+02  0.7816164E-02  0.1312668E+00
        -11   -1    0    0    0    0  0.00000000000E+00  0.00000000000E+00  0.45593999997E+02  0.45594000000E+02  0.51100000000E-03 0. -1.
         11   -1    0    0    0    0 -0.00000000000E+00 -0.00000000000E+00 -0.45593999997E+02  0.45594000000E+02  0.51100000000E-03 0.  1.
    9900012    2    1    2    0    0 -0.16569070484E+02 -0.21257013479E+02  0.34018061214E+02  0.47787271809E+02  0.20000003486E+02 0.  0.
        -12    1    1    2    0    0  0.16569070484E+02  0.21257013479E+02 -0.34018061214E+02  0.43400728191E+02  0.00000000000E+00 0.  1.
         11    1    3    3    0    0  0.40259668458E+00 -0.63118802863E+01  0.76722068868E+01  0.99430717393E+01  0.51100000000E-03 0. -1.
        -11    1    3    3    0    0 -0.27292714933E+01  0.10235943186E+01 -0.10359566842E+01  0.30935214119E+01  0.51100000000E-03 0.  1.
        -12    1    3    3    0    0 -0.14242395676E+02 -0.15968727512E+02  0.27381811011E+02  0.34750678658E+02  0.00000000000E+00 0.  1.
</event>
<event>
 7    1  0.2950722E-010  0.4778727E+02  0.7816164E-02  0.1312668E+00
        -11   -1    0    0    0    0  0.00000000000E+00  0.00000000000E+00  0.45593999997E+02  0.45594000000E+02  0.51100000000E-03 0.  1.
         11   -1    0    0    0    0 -0.00000000000E+00 -0.00000000000E+00 -0.45593999997E+02  0.45594000000E+02  0.51100000000E-03 0. -1.
    9900012    2    1    2    0    0 -0.41848036032E+02 -0.77645333394E+01  0.84898339425E+01  0.47787269844E+02  0.19999994527E+02 0.  0.
        -12    1    1    2    0    0  0.41848036032E+02  0.77645333394E+01 -0.84898339425E+01  0.43400730156E+02  0.00000000000E+00 0.  1.
         11    1    3    3    0    0 -0.34558192446E+02 -0.14275129869E+00  0.44163605079E+01  0.34839536212E+02  0.51100000000E-03 0. -1.
        -11    1    3    3    0    0 -0.35590105501E+01 -0.33579803661E+01  0.52334400682E+01  0.71645993219E+01  0.51100000000E-03 0.  1.
         12    1    3    3    0    0 -0.37308330362E+01 -0.42638016746E+01 -0.11599666336E+01  0.57831343107E+01  0.00000000000E+00 0. -1.
</event>
<event>
 7    1  0.2950722E-010  0.4778727E+02  0.7816164E-02  0.1312668E+00
        -11   -1    0    0    0    0  0.00000000000E+00  0.00000000000E+00  0.45593999997E+02  0.45594000000E+02  0.51100000000E-03 0. -1.
         11   -1    0    0    0    0 -0.00000000000E+00 -0.00000000000E+00 -0.45593999997E+02  0.45594000000E+02  0.51100000000E-03 0.  1.
    9900012    2    1    2    0    0 -0.29199592449E+02  0.20074482247E+02  0.25060365240E+02  0.47787274861E+02  0.20000017401E+02 0.  0.
        -12    1    1    2    0    0  0.29199592449E+02 -0.20074482247E+02 -0.25060365240E+02  0.43400725139E+02  0.00000000000E+00 0.  1.
         11    1    3    3    0    0 -0.27465659465E+02  0.87805169176E+01  0.19905945244E+02  0.35038644144E+02  0.51100000000E-03 0. -1.
        -11    1    3    3    0    0 -0.15415714947E+00  0.66367241345E+01  0.21148961755E+01  0.69672561140E+01  0.51100000000E-03 0.  1.
         12    1    3    3    0    0 -0.15797758344E+01  0.46572411954E+01  0.30395238203E+01  0.57813746024E+01  0.00000000000E+00 0. -1.
</event>
<event>
 7    1  0.2950722E-010  0.4778727E+02  0.7816164E-02  0.1312668E+00
        -11   -1    0    0    0    0  0.00000000000E+00  0.00000000000E+00  0.45593999997E+02  0.45594000000E+02  0.51100000000E-03 0.  1.
         11   -1    0    0    0    0 -0.00000000000E+00 -0.00000000000E+00 -0.45593999997E+02  0.45594000000E+02  0.51100000000E-03 0. -1.
    9900012    2    1    2    0    0  0.25349781076E+01 -0.40088947924E+02 -0.16433905925E+02  0.47787272776E+02  0.20000007894E+02 0.  0.
        -12    1    1    2    0    0 -0.25349781076E+01  0.40088947924E+02  0.16433905925E+02  0.43400727224E+02  0.00000000000E+00 0.  1.
         11    1    3    3    0    0 -0.26933369371E+01 -0.17740478336E+02 -0.10393890010E+02  0.20736720697E+02  0.51100000000E-03 0. -1.
        -11    1    3    3    0    0  0.93740189190E+01 -0.16956876974E+02 -0.30215441867E+01  0.19609631229E+02  0.51100000000E-03 0.  1.
        -12    1    3    3    0    0 -0.41457038743E+01 -0.53915926134E+01 -0.30184717290E+01  0.74409208503E+01  0.00000000000E+00 0.  1.
</event>
<event>
 7    1  0.2950722E-010  0.4778727E+02  0.7816164E-02  0.1312668E+00
        -11   -1    0    0    0    0  0.00000000000E+00  0.00000000000E+00  0.45593999997E+02  0.45594000000E+02  0.51100000000E-03 0.  1.
         11   -1    0    0    0    0 -0.00000000000E+00 -0.00000000000E+00 -0.45593999997E+02  0.45594000000E+02  0.51100000000E-03 0. -1.
    9900012    2    1    2    0    0  0.20734684701E+02  0.96155925853E+01 -0.36894937859E+02  0.47787271779E+02  0.20000003351E+02 0.  0.
        -12    1    1    2    0    0 -0.20734684701E+02 -0.96155925853E+01  0.36894937859E+02  0.43400728221E+02  0.00000000000E+00 0.  1.
         11    1    3    3    0    0  0.55906946857E+01  0.10341719520E+01 -0.10185136404E+02  0.11664578111E+02  0.51100000000E-03 0. -1.
        -11    1    3    3    0    0 -0.14825749389E+01  0.48869294369E+01 -0.13907930106E+02  0.14815891058E+02  0.51100000000E-03 0.  1.
        -12    1    3    3    0    0  0.16626564954E+02  0.36944911963E+01 -0.12801871350E+02  0.21306802610E+02  0.00000000000E+00 0.  1.
</event>
<event>
 7    1  0.2950722E-010  0.4778727E+02  0.7816164E-02  0.1312668E+00
        -11   -1    0    0    0    0  0.00000000000E+00  0.00000000000E+00  0.45593999997E+02  0.45594000000E+02  0.51100000000E-03 0.  1.
         11   -1    0    0    0    0 -0.00000000000E+00 -0.00000000000E+00 -0.45593999997E+02  0.45594000000E+02  0.51100000000E-03 0. -1.
    9900012    2    1    2    0    0  0.28975527416E+02  0.25088247332E+02 -0.20362275434E+02  0.47787267240E+02  0.19999982654E+02 0.  0.
        -12    1    1    2    0    0 -0.28975527416E+02 -0.25088247332E+02  0.20362275434E+02  0.43400732760E+02  0.00000000000E+00 0.  1.
         11    1    3    3    0    0  0.13470278247E+02  0.17817738876E+02 -0.16410734899E+02  0.27717006239E+02  0.51100000000E-03 0. -1.
        -11    1    3    3    0    0  0.23466894097E+01  0.59809374172E+01 -0.76617393279E+00  0.64703621484E+01  0.51100000000E-03 0.  1.
         12    1    3    3    0    0  0.13158559759E+02  0.12895710394E+01 -0.31853666024E+01  0.13599898852E+02  0.00000000000E+00 0. -1.
</event>
<event>
 7    1  0.2950722E-010  0.4778727E+02  0.7816164E-02  0.1312668E+00
        -11   -1    0    0    0    0  0.00000000000E+00  0.00000000000E+00  0.45593999997E+02  0.45594000000E+02  0.51100000000E-03 0.  1.
         11   -1    0    0    0    0 -0.00000000000E+00 -0.00000000000E+00 -0.45593999997E+02  0.45594000000E+02  0.51100000000E-03 0. -1.
    9900012    2    1    2    0    0  0.42126146237E+01 -0.32420166096E+02 -0.28544882773E+02  0.47787267008E+02  0.19999981599E+02 0.  0.
        -12    1    1    2    0    0 -0.42126146237E+01  0.32420166096E+02  0.28544882773E+02  0.43400732992E+02  0.00000000000E+00 0.  1.
         11    1    3    3    0    0 -0.36079211794E+01 -0.57224677238E+01 -0.36629489866E+01  0.76929141180E+01  0.51100000000E-03 0. -1.
        -11    1    3    3    0    0  0.11863252456E+02 -0.19547502094E+02 -0.15496365925E+02  0.27622073675E+02  0.51100000000E-03 0.  1.
        -12    1    3    3    0    0 -0.40427166531E+01 -0.71501962787E+01 -0.93855678608E+01  0.12472279216E+02  0.00000000000E+00 0.  1.
</event>
<event>
 7    1  0.2950722E-010  0.4778727E+02  0.7816164E-02  0.1312668E+00
        -11   -1    0    0    0    0  0.00000000000E+00  0.00000000000E+00  0.45593999997E+02  0.45594000000E+02  0.51100000000E-03 0.  1.
         11   -1    0    0    0    0 -0.00000000000E+00 -0.00000000000E+00 -0.45593999997E+02  0.45594000000E+02  0.51100000000E-03 0. -1.
    9900012    2    1    2    0    0 -0.63614983122E+01 -0.27126111262E+02 -0.33276547430E+02  0.47787272105E+02  0.20000004835E+02 0.  0.
        -12    1    1    2    0    0  0.63614983122E+01  0.27126111262E+02  0.33276547430E+02  0.43400727895E+02  0.00000000000E+00 0.  1.
         11    1    3    3    0    0 -0.20966640648E+01 -0.19567813704E+02 -0.24855518302E+02  0.31703187910E+02  0.51100000000E-03 0. -1.
        -11    1    3    3    0    0 -0.36161893991E+01 -0.22408359508E+01  0.17409316616E+01  0.45966308140E+01  0.51100000000E-03 0.  1.
        -12    1    3    3    0    0 -0.64864484828E+00 -0.53174616070E+01 -0.10161960790E+02  0.11487453381E+02  0.00000000000E+00 0.  1.
</event>
<event>
 7    1  0.2950722E-010  0.4778727E+02  0.7816164E-02  0.1312668E+00
        -11   -1    0    0    0    0  0.00000000000E+00  0.00000000000E+00  0.45593999997E+02  0.45594000000E+02  0.51100000000E-03 0.  1.
         11   -1    0    0    0    0 -0.00000000000E+00 -0.00000000000E+00 -0.45593999997E+02  0.45594000000E+02  0.51100000000E-03 0. -1.
    9900012    2    1    2    0    0 -0.11187735519E+02  0.15168066728E+02 -0.39094596599E+02  0.47787272384E+02  0.20000006109E+02 0.  0.
        -12    1    1    2    0    0  0.11187735519E+02 -0.15168066728E+02  0.39094596599E+02  0.43400727616E+02  0.00000000000E+00 0.  1.
         11    1    3    3    0    0 -0.84969400180E+01  0.16024004547E+02 -0.33899057193E+02  0.38446232458E+02  0.51100000000E-03 0. -1.
        -11    1    3    3    0    0 -0.20000633137E+01 -0.29132064924E+01  0.18582321389E+00  0.35385810510E+01  0.51100000000E-03 0.  1.
        -12    1    3    3    0    0 -0.69073218730E+00  0.20572686736E+01 -0.53813626199E+01  0.58024588751E+01  0.00000000000E+00 0.  1.
</event>
<event>
 7    1  0.2950722E-010  0.4778727E+02  0.7816164E-02  0.1312668E+00
        -11   -1    0    0    0    0  0.00000000000E+00  0.00000000000E+00  0.45593999997E+02  0.45594000000E+02  0.51100000000E-03 0. -1.
         11   -1    0    0    0    0 -0.00000000000E+00 -0.00000000000E+00 -0.45593999997E+02  0.45594000000E+02  0.51100000000E-03 0.  1.
    9900012    2    1    2    0    0 -0.21121562336E+02 -0.36037933458E+02  0.11780091399E+02  0.47787267324E+02  0.19999983038E+02 0.  0.
        -12    1    1    2    0    0  0.21121562336E+02  0.36037933458E+02 -0.11780091399E+02  0.43400732676E+02  0.00000000000E+00 0.  1.
         11    1    3    3    0    0 -0.67626952380E+01 -0.20982803465E+02  0.10813778820E+02  0.24555038195E+02  0.51100000000E-03 0. -1.
        -11    1    3    3    0    0 -0.13432825266E+02 -0.16063708615E+02 -0.85046800990E+00  0.20957261872E+02  0.51100000000E-03 0.  1.
         12    1    3    3    0    0 -0.92604183183E+00  0.10085786218E+01  0.18167805893E+01  0.22749672570E+01  0.00000000000E+00 0. -1.
</event>
<event>
 7    1  0.2950722E-010  0.4778727E+02  0.7816164E-02  0.1312668E+00
        -11   -1    0    0    0    0  0.00000000000E+00  0.00000000000E+00  0.45593999997E+02  0.45594000000E+02  0.51100000000E-03 0.  1.
         11   -1    0    0    0    0 -0.00000000000E+00 -0.00000000000E+00 -0.45593999997E+02  0.45594000000E+02  0.51100000000E-03 0. -1.
    9900012    2    1    2    0    0 -0.13049222114E+02 -0.35099003789E+02 -0.21940860832E+02  0.47787266840E+02  0.19999980830E+02 0.  0.
        -12    1    1    2    0    0  0.13049222114E+02  0.35099003789E+02  0.21940860832E+02  0.43400733160E+02  0.00000000000E+00 0.  1.
         11    1    3    3    0    0 -0.15211856934E+02 -0.19093336146E+02 -0.16959278898E+02  0.29724959505E+02  0.51100000000E-03 0. -1.
        -11    1    3    3    0    0  0.14066372323E+01 -0.12410512776E+00 -0.79624083135E+00  0.16211200167E+01  0.51100000000E-03 0.  1.
         12    1    3    3    0    0  0.75599758803E+00 -0.15881562515E+02 -0.41853411034E+01  0.16441187318E+02  0.00000000000E+00 0. -1.
</event>
<event>
 7    1  0.2950722E-010  0.4778728E+02  0.7816164E-02  0.1312668E+00
        -11   -1    0    0    0    0  0.00000000000E+00  0.00000000000E+00  0.45593999997E+02  0.45594000000E+02  0.51100000000E-03 0.  1.
         11   -1    0    0    0    0 -0.00000000000E+00 -0.00000000000E+00 -0.45593999997E+02  0.45594000000E+02  0.51100000000E-03 0. -1.
    9900012    2    1    2    0    0  0.12038808914E+02  0.25953023114E+02  0.32636336043E+02  0.47787276975E+02  0.20000027039E+02 0.  0.
        -12    1    1    2    0    0 -0.12038808914E+02 -0.25953023114E+02 -0.32636336043E+02  0.43400723025E+02  0.00000000000E+00 0.  1.
         11    1    3    3    0    0  0.10074304137E+02  0.14926443908E+02  0.12581984505E+02  0.21968082892E+02  0.51100000000E-03 0. -1.
        -11    1    3    3    0    0 -0.45901506694E+01  0.73828045887E+01  0.11947232776E+02  0.14775373364E+02  0.51100000000E-03 0.  1.
        -12    1    3    3    0    0  0.65546554459E+01  0.36437746175E+01  0.81071187612E+01  0.11043820720E+02  0.00000000000E+00 0.  1.
</event>
<event>
 7    1  0.2950722E-010  0.4778728E+02  0.7816164E-02  0.1312668E+00
        -11   -1    0    0    0    0  0.00000000000E+00  0.00000000000E+00  0.45593999997E+02  0.45594000000E+02  0.51100000000E-03 0.  1.
         11   -1    0    0    0    0 -0.00000000000E+00 -0.00000000000E+00 -0.45593999997E+02  0.45594000000E+02  0.51100000000E-03 0. -1.
    9900012    2    1    2    0    0  0.23991225979E+02 -0.39542258949E+01 -0.35950073154E+02  0.47787278967E+02  0.20000036121E+02 0.  0.
        -12    1    1    2    0    0 -0.23991225979E+02  0.39542258949E+01  0.35950073154E+02  0.43400721033E+02  0.00000000000E+00 0.  1.
         11    1    3    3    0    0  0.73176091254E+01 -0.27820566063E+00 -0.64526675174E+01  0.97602110660E+01  0.51100000000E-03 0. -1.
        -11    1    3    3    0    0  0.13386393876E+02 -0.99756996483E+01 -0.22831622196E+02  0.28284149215E+02  0.51100000000E-03 0.  1.
        -12    1    3    3    0    0  0.32872229781E+01  0.62996794141E+01 -0.66657834407E+01  0.97429186852E+01  0.00000000000E+00 0.  1.
</event>
<event>
 7    1  0.2950722E-010  0.4778727E+02  0.7816164E-02  0.1312668E+00
        -11   -1    0    0    0    0  0.00000000000E+00  0.00000000000E+00  0.45593999997E+02  0.45594000000E+02  0.51100000000E-03 0. -1.
         11   -1    0    0    0    0 -0.00000000000E+00 -0.00000000000E+00 -0.45593999997E+02  0.45594000000E+02  0.51100000000E-03 0.  1.
    9900012    2    1    2    0    0  0.40508375708E+02 -0.13891441954E+02  0.70514290184E+01  0.47787270590E+02  0.19999997929E+02 0.  0.
        -12    1    1    2    0    0 -0.40508375708E+02  0.13891441954E+02 -0.70514290184E+01  0.43400729410E+02  0.00000000000E+00 0.  1.
         11    1    3    3    0    0  0.38529537518E+02 -0.15335023694E+02  0.34472492625E+01  0.41612158570E+02  0.51100000000E-03 0. -1.
        -11    1    3    3    0    0  0.11834165436E+01  0.28346257196E+01  0.33629209492E+01  0.45546476546E+01  0.51100000000E-03 0.  1.
        -12    1    3    3    0    0  0.79542164634E+00 -0.13910439798E+01  0.24125880669E+00  0.16204643659E+01  0.00000000000E+00 0.  1.
</event>
<event>
 7    1  0.2950722E-010  0.4778728E+02  0.7816164E-02  0.1312668E+00
        -11   -1    0    0    0    0  0.00000000000E+00  0.00000000000E+00  0.45593999997E+02  0.45594000000E+02  0.51100000000E-03 0. -1.
         11   -1    0    0    0    0 -0.00000000000E+00 -0.00000000000E+00 -0.45593999997E+02  0.45594000000E+02  0.51100000000E-03 0.  1.
    9900012    2    1    2    0    0  0.55281466443E+01 -0.46939277994E+01  0.42790528116E+02  0.47787278117E+02  0.20000032248E+02 0.  0.
        -12    1    1    2    0    0 -0.55281466443E+01  0.46939277994E+01 -0.42790528116E+02  0.43400721883E+02  0.00000000000E+00 0.  1.
         11    1    3    3    0    0 -0.32822831587E+01  0.16283383474E+01  0.19457078075E+02  0.19799059472E+02  0.51100000000E-03 0. -1.
        -11    1    3    3    0    0  0.29381118592E+01 -0.24233606237E+01  0.21008436715E+00  0.38143562645E+01  0.51100000000E-03 0.  1.
        -12    1    3    3    0    0  0.58723179438E+01 -0.38989055230E+01  0.23123365674E+02  0.24173862380E+02  0.00000000000E+00 0.  1.
</event>
<event>
 7    1  0.2950722E-010  0.4778727E+02  0.7816164E-02  0.1312668E+00
        -11   -1    0    0    0    0  0.00000000000E+00  0.00000000000E+00  0.45593999997E+02  0.45594000000E+02  0.51100000000E-03 0.  1.
         11   -1    0    0    0    0 -0.00000000000E+00 -0.00000000000E+00 -0.45593999997E+02  0.45594000000E+02  0.51100000000E-03 0. -1.
    9900012    2    1    2    0    0 -0.25210297358E+00  0.12913883358E+02 -0.41434181856E+02  0.47787269991E+02  0.19999995195E+02 0.  0.
        -12    1    1    2    0    0  0.25210297358E+00 -0.12913883358E+02  0.41434181856E+02  0.43400730009E+02  0.00000000000E+00 0.  1.
         11    1    3    3    0    0 -0.17642652140E+01  0.26384072101E+01 -0.69307671995E+00  0.32487197405E+01  0.51100000000E-03 0. -1.
        -11    1    3    3    0    0 -0.22340238039E+01  0.57488724203E+01 -0.37136694221E+02  0.37645377597E+02  0.51100000000E-03 0.  1.
        -12    1    3    3    0    0  0.37461860442E+01  0.45266037278E+01 -0.36044109145E+01  0.68931726532E+01  0.00000000000E+00 0.  1.
</event>
<event>
 7    1  0.2950722E-010  0.4778728E+02  0.7816164E-02  0.1312668E+00
        -11   -1    0    0    0    0  0.00000000000E+00  0.00000000000E+00  0.45593999997E+02  0.45594000000E+02  0.51100000000E-03 0.  1.
         11   -1    0    0    0    0 -0.00000000000E+00 -0.00000000000E+00 -0.45593999997E+02  0.45594000000E+02  0.51100000000E-03 0. -1.
    9900012    2    1    2    0    0  0.13355426902E+02  0.37534455982E+02 -0.17216846319E+02  0.47787278684E+02  0.20000034830E+02 0.  0.
        -12    1    1    2    0    0 -0.13355426902E+02 -0.37534455982E+02  0.17216846319E+02  0.43400721316E+02  0.00000000000E+00 0.  1.
         11    1    3    3    0    0  0.64380598840E+01  0.24998252668E+01 -0.54627954637E+00  0.69279263158E+01  0.51100000000E-03 0. -1.
        -11    1    3    3    0    0 -0.13138661358E+01  0.24906098108E+01  0.91803857033E+00  0.29617860372E+01  0.51100000000E-03 0.  1.
         12    1    3    3    0    0  0.82312331541E+01  0.32544020904E+02 -0.17588605343E+02  0.37897566331E+02  0.00000000000E+00 0. -1.
</event>
<event>
 7    1  0.2950722E-010  0.4778727E+02  0.7816164E-02  0.1312668E+00
        -11   -1    0    0    0    0  0.00000000000E+00  0.00000000000E+00  0.45593999997E+02  0.45594000000E+02  0.51100000000E-03 0.  1.
         11   -1    0    0    0    0 -0.00000000000E+00 -0.00000000000E+00 -0.45593999997E+02  0.45594000000E+02  0.51100000000E-03 0. -1.
    9900012    2    1    2    0    0 -0.13150768225E+02 -0.36786403558E+02 -0.18906116280E+02  0.47787269309E+02  0.19999992089E+02 0.  0.
        -12    1    1    2    0    0  0.13150768225E+02  0.36786403558E+02  0.18906116280E+02  0.43400730691E+02  0.00000000000E+00 0.  1.
         11    1    3    3    0    0 -0.89125066088E+01 -0.21819166139E+02 -0.74512421209E+01  0.24719016859E+02  0.51100000000E-03 0. -1.
        -11    1    3    3    0    0  0.29131412573E+01 -0.77898230933E+01 -0.97138229341E+01  0.12787732092E+02  0.51100000000E-03 0.  1.
        -12    1    3    3    0    0 -0.71514028736E+01 -0.71774143260E+01 -0.17410512254E+01  0.10280520358E+02  0.00000000000E+00 0.  1.
</event>
<event>
 7    1  0.2950722E-010  0.4778728E+02  0.7816164E-02  0.1312668E+00
        -11   -1    0    0    0    0  0.00000000000E+00  0.00000000000E+00  0.45593999997E+02  0.45594000000E+02  0.51100000000E-03 0.  1.
         11   -1    0    0    0    0 -0.00000000000E+00 -0.00000000000E+00 -0.45593999997E+02  0.45594000000E+02  0.51100000000E-03 0. -1.
    9900012    2    1    2    0    0 -0.39774576823E+02 -0.41273419672E+01 -0.16869224225E+02  0.47787278357E+02  0.20000033341E+02 0.  0.
        -12    1    1    2    0    0  0.39774576823E+02  0.41273419672E+01  0.16869224225E+02  0.43400721643E+02  0.00000000000E+00 0.  1.
         11    1    3    3    0    0 -0.13325398980E+02 -0.24422065618E+01  0.14244442697E+01  0.13622028946E+02  0.51100000000E-03 0. -1.
        -11    1    3    3    0    0 -0.67439141527E+01  0.15322428875E+00 -0.11328002437E+02  0.13184365562E+02  0.51100000000E-03 0.  1.
        -12    1    3    3    0    0 -0.19705263690E+02 -0.18383596942E+01 -0.69656660576E+01  0.20980883849E+02  0.00000000000E+00 0.  1.
</event>
<event>
 7    1  0.2950722E-010  0.4778723E+02  0.7816164E-02  0.1312668E+00
        -11   -1    0    0    0    0  0.00000000000E+00  0.00000000000E+00  0.45593999997E+02  0.45594000000E+02  0.51100000000E-03 0.  1.
         11   -1    0    0    0    0 -0.00000000000E+00 -0.00000000000E+00 -0.45593999997E+02  0.45594000000E+02  0.51100000000E-03 0. -1.
    9900012    2    1    2    0    0  0.19829887258E+02  0.38544147467E+02  0.21797359532E+01  0.47787228331E+02  0.19999805250E+02 0.  0.
        -12    1    1    2    0    0 -0.19829887258E+02 -0.38544147467E+02 -0.21797359532E+01  0.43400771669E+02  0.00000000000E+00 0.  1.
         11    1    3    3    0    0  0.67634459697E+01  0.12737113979E+02 -0.79117385180E+01  0.16449130084E+02  0.51100000000E-03 0. -1.
        -11    1    3    3    0    0  0.43661061769E+01  0.83701693922E+01  0.66552353561E+01  0.11550531447E+02  0.51100000000E-03 0.  1.
         12    1    3    3    0    0  0.87003351117E+01  0.17436864097E+02  0.34362391152E+01  0.19787566799E+02  0.00000000000E+00 0. -1.
</event>
<event>
 7    1  0.2950722E-010  0.4778727E+02  0.7816164E-02  0.1312668E+00
        -11   -1    0    0    0    0  0.00000000000E+00  0.00000000000E+00  0.45593999997E+02  0.45594000000E+02  0.51100000000E-03 0.  1.
         11   -1    0    0    0    0 -0.00000000000E+00 -0.00000000000E+00 -0.45593999997E+02  0.45594000000E+02  0.51100000000E-03 0. -1.
    9900012    2    1    2    0    0 -0.41865993587E+02  0.10432509276E+02 -0.46930240715E+01  0.47787272544E+02  0.20000006836E+02 0.  0.
        -12    1    1    2    0    0  0.41865993587E+02 -0.10432509276E+02  0.46930240715E+01  0.43400727456E+02  0.00000000000E+00 0.  1.
         11    1    3    3    0    0 -0.51767472918E+01  0.44605522647E+00 -0.12201069636E+00  0.51973613170E+01  0.51100000000E-03 0. -1.
        -11    1    3    3    0    0 -0.14073886199E+02  0.84451918948E+01  0.61332662672E+01  0.17521772007E+02  0.51100000000E-03 0.  1.
        -12    1    3    3    0    0 -0.22615360096E+02  0.15412621543E+01 -0.10704279642E+02  0.25068139220E+02  0.00000000000E+00 0.  1.
</event>
<event>
 7    1  0.2950722E-010  0.4778727E+02  0.7816164E-02  0.1312668E+00
        -11   -1    0    0    0    0  0.00000000000E+00  0.00000000000E+00  0.45593999997E+02  0.45594000000E+02  0.51100000000E-03 0. -1.
         11   -1    0    0    0    0 -0.00000000000E+00 -0.00000000000E+00 -0.45593999997E+02  0.45594000000E+02  0.51100000000E-03 0.  1.
    9900012    2    1    2    0    0 -0.39190918636E+02  0.47656372735E+01  0.18027316478E+02  0.47787267961E+02  0.19999985941E+02 0.  0.
        -12    1    1    2    0    0  0.39190918636E+02 -0.47656372735E+01 -0.18027316478E+02  0.43400732039E+02  0.00000000000E+00 0.  1.
         11    1    3    3    0    0 -0.30180697080E+02  0.34646075736E+01  0.10530102347E+02  0.32152154478E+02  0.51100000000E-03 0. -1.
        -11    1    3    3    0    0  0.22629731339E+01  0.73394278255E+00  0.18507727212E+01  0.30141465358E+01  0.51100000000E-03 0.  1.
        -12    1    3    3    0    0 -0.11273194689E+02  0.56708691735E+00  0.56464414104E+01  0.12620966947E+02  0.00000000000E+00 0.  1.
</event>
<event>
 7    1  0.2950722E-010  0.4778727E+02  0.7816164E-02  0.1312668E+00
        -11   -1    0    0    0    0  0.00000000000E+00  0.00000000000E+00  0.45593999997E+02  0.45594000000E+02  0.51100000000E-03 0.  1.
         11   -1    0    0    0    0 -0.00000000000E+00 -0.00000000000E+00 -0.45593999997E+02  0.45594000000E+02  0.51100000000E-03 0. -1.
    9900012    2    1    2    0    0 -0.16178481469E+02 -0.31799479781E+02  0.24711797673E+02  0.47787272803E+02  0.20000008020E+02 0.  0.
        -12    1    1    2    0    0  0.16178481469E+02  0.31799479781E+02 -0.24711797673E+02  0.43400727197E+02  0.00000000000E+00 0.  1.
         11    1    3    3    0    0 -0.15852488804E+02 -0.12133466906E+02  0.84467305360E+01  0.21676477515E+02  0.51100000000E-03 0. -1.
        -11    1    3    3    0    0  0.18408092030E+01 -0.77079450646E+01  0.41285503024E+01  0.89356546207E+01  0.51100000000E-03 0.  1.
         12    1    3    3    0    0 -0.21668018682E+01 -0.11958067810E+02  0.12136516834E+02  0.17175140668E+02  0.00000000000E+00 0. -1.
</event>
<event>
 7    1  0.2950722E-010  0.4778728E+02  0.7816164E-02  0.1312668E+00
        -11   -1    0    0    0    0  0.00000000000E+00  0.00000000000E+00  0.45593999997E+02  0.45594000000E+02  0.51100000000E-03 0.  1.
         11   -1    0    0    0    0 -0.00000000000E+00 -0.00000000000E+00 -0.45593999997E+02  0.45594000000E+02  0.51100000000E-03 0. -1.
    9900012    2    1    2    0    0  0.29252268840E+02 -0.11302457811E+02 -0.30003034948E+02  0.47787275456E+02  0.20000020116E+02 0.  0.
        -12    1    1    2    0    0 -0.29252268840E+02  0.11302457811E+02  0.30003034948E+02  0.43400724544E+02  0.00000000000E+00 0.  1.
         11    1    3    3    0    0  0.91120331132E+01 -0.74220500221E+01 -0.22437955038E+02  0.25329386106E+02  0.51100000000E-03 0. -1.
        -11    1    3    3    0    0  0.12671305359E+02 -0.48244572881E+01 -0.56572286553E+01  0.14691548725E+02  0.51100000000E-03 0.  1.
         12    1    3    3    0    0  0.74689303673E+01  0.94404949925E+00 -0.19078512543E+01  0.77663406246E+01  0.00000000000E+00 0. -1.
</event>
<event>
 7    1  0.2950722E-010  0.4778727E+02  0.7816164E-02  0.1312668E+00
        -11   -1    0    0    0    0  0.00000000000E+00  0.00000000000E+00  0.45593999997E+02  0.45594000000E+02  0.51100000000E-03 0.  1.
         11   -1    0    0    0    0 -0.00000000000E+00 -0.00000000000E+00 -0.45593999997E+02  0.45594000000E+02  0.51100000000E-03 0. -1.
    9900012    2    1    2    0    0 -0.11136775071E+02 -0.23399805136E+02 -0.34814435297E+02  0.47787267928E+02  0.19999985789E+02 0.  0.
        -12    1    1    2    0    0  0.11136775071E+02  0.23399805136E+02  0.34814435297E+02  0.43400732072E+02  0.00000000000E+00 0.  1.
         11    1    3    3    0    0 -0.59490466425E+01 -0.12651789510E+02 -0.69588362112E+01  0.15616796580E+02  0.51100000000E-03 0. -1.
        -11    1    3    3    0    0 -0.43797442748E+00 -0.42840903053E+01 -0.21525978630E+02  0.21952517113E+02  0.51100000000E-03 0.  1.
        -12    1    3    3    0    0 -0.47497540012E+01 -0.64639253209E+01 -0.63296204556E+01  0.10217954235E+02  0.00000000000E+00 0.  1.
</event>
<event>
 7    1  0.2950722E-010  0.4778728E+02  0.7816164E-02  0.1312668E+00
        -11   -1    0    0    0    0  0.00000000000E+00  0.00000000000E+00  0.45593999997E+02  0.45594000000E+02  0.51100000000E-03 0.  1.
         11   -1    0    0    0    0 -0.00000000000E+00 -0.00000000000E+00 -0.45593999997E+02  0.45594000000E+02  0.51100000000E-03 0. -1.
    9900012    2    1    2    0    0  0.49245935285E+01 -0.38448303942E+02 -0.19521750056E+02  0.47787280850E+02  0.20000044708E+02 0.  0.
        -12    1    1    2    0    0 -0.49245935285E+01  0.38448303942E+02  0.19521750056E+02  0.43400719150E+02  0.00000000000E+00 0.  1.
         11    1    3    3    0    0  0.27238449762E+01 -0.33709748941E+02 -0.22685641462E+02  0.40723516964E+02  0.51100000000E-03 0. -1.
        -11    1    3    3    0    0  0.20738578778E+01 -0.51532195914E+01  0.34548049226E+01  0.65415774832E+01  0.51100000000E-03 0.  1.
         12    1    3    3    0    0  0.12689067455E+00  0.41466458978E+00 -0.29091351664E+00  0.52218640299E+00  0.00000000000E+00 0. -1.
</event>
<event>
 7    1  0.2950722E-010  0.4778727E+02  0.7816164E-02  0.1312668E+00
        -11   -1    0    0    0    0  0.00000000000E+00  0.00000000000E+00  0.45593999997E+02  0.45594000000E+02  0.51100000000E-03 0.  1.
         11   -1    0    0    0    0 -0.00000000000E+00 -0.00000000000E+00 -0.45593999997E+02  0.45594000000E+02  0.51100000000E-03 0. -1.
    9900012    2    1    2    0    0 -0.79198114514E+01 -0.51178472772E-01 -0.42671971434E+02  0.47787272140E+02  0.20000004996E+02 0.  0.
        -12    1    1    2    0    0  0.79198114514E+01  0.51178472772E-01  0.42671971434E+02  0.43400727860E+02  0.00000000000E+00 0.  1.
         11    1    3    3    0    0 -0.42911499080E+01  0.18121290754E+01 -0.33685537383E+02  0.34006076050E+02  0.51100000000E-03 0. -1.
        -11    1    3    3    0    0  0.25934285023E+01  0.46515610759E+00 -0.36571431694E-01  0.26350672348E+01  0.51100000000E-03 0.  1.
        -12    1    3    3    0    0 -0.62220900457E+01 -0.23284636557E+01 -0.89498626199E+01  0.11146128855E+02  0.00000000000E+00 0.  1.
</event>
<event>
 7    1  0.2950722E-010  0.4778727E+02  0.7816164E-02  0.1312668E+00
        -11   -1    0    0    0    0  0.00000000000E+00  0.00000000000E+00  0.45593999997E+02  0.45594000000E+02  0.51100000000E-03 0. -1.
         11   -1    0    0    0    0 -0.00000000000E+00 -0.00000000000E+00 -0.45593999997E+02  0.45594000000E+02  0.51100000000E-03 0.  1.
    9900012    2    1    2    0    0 -0.23146292858E+02  0.31197939356E+02  0.19353582227E+02  0.47787269151E+02  0.19999991368E+02 0.  0.
        -12    1    1    2    0    0  0.23146292858E+02 -0.31197939356E+02 -0.19353582227E+02  0.43400730849E+02  0.00000000000E+00 0.  1.
         11    1    3    3    0    0 -0.65245878138E+01  0.10141791897E+02  0.77413607686E+01  0.14330207808E+02  0.51100000000E-03 0. -1.
        -11    1    3    3    0    0 -0.18279433008E+02  0.17133992840E+02  0.13870250318E+02  0.28637304794E+02  0.51100000000E-03 0.  1.
        -12    1    3    3    0    0  0.16577279630E+01  0.39221546200E+01 -0.22580288595E+01  0.48197565492E+01  0.00000000000E+00 0.  1.
</event>
<event>
 7    1  0.2950722E-010  0.4778728E+02  0.7816164E-02  0.1312668E+00
        -11   -1    0    0    0    0  0.00000000000E+00  0.00000000000E+00  0.45593999997E+02  0.45594000000E+02  0.51100000000E-03 0.  1.
         11   -1    0    0    0    0 -0.00000000000E+00 -0.00000000000E+00 -0.45593999997E+02  0.45594000000E+02  0.51100000000E-03 0. -1.
    9900012    2    1    2    0    0 -0.26041395045E+01 -0.37575987179E+02 -0.21561228382E+02  0.47787275071E+02  0.20000018358E+02 0.  0.
        -12    1    1    2    0    0  0.26041395045E+01  0.37575987179E+02  0.21561228382E+02  0.43400724929E+02  0.00000000000E+00 0.  1.
         11    1    3    3    0    0  0.58595895631E+00 -0.17297953011E+02 -0.13527800431E+02  0.21967337368E+02  0.51100000000E-03 0. -1.
        -11    1    3    3    0    0 -0.38506985697E+01 -0.80218406434E+01  0.29241951392E+01  0.93663613135E+01  0.51100000000E-03 0.  1.
        -12    1    3    3    0    0  0.66060010888E+00 -0.12256193524E+02 -0.10957623090E+02  0.16453576389E+02  0.00000000000E+00 0.  1.
</event>
<event>
 7    1  0.2950722E-010  0.4778727E+02  0.7816164E-02  0.1312668E+00
        -11   -1    0    0    0    0  0.00000000000E+00  0.00000000000E+00  0.45593999997E+02  0.45594000000E+02  0.51100000000E-03 0.  1.
         11   -1    0    0    0    0 -0.00000000000E+00 -0.00000000000E+00 -0.45593999997E+02  0.45594000000E+02  0.51100000000E-03 0. -1.
    9900012    2    1    2    0    0  0.18270944836E+01 -0.16838916800E+02 -0.39959176303E+02  0.47787272310E+02  0.20000005768E+02 0.  0.
        -12    1    1    2    0    0 -0.18270944836E+01  0.16838916800E+02  0.39959176303E+02  0.43400727690E+02  0.00000000000E+00 0.  1.
         11    1    3    3    0    0  0.59916979863E+00  0.33383370399E+01 -0.13608256570E+01  0.36544965958E+01  0.51100000000E-03 0. -1.
        -11    1    3    3    0    0  0.12188770942E+01 -0.14861539415E+01 -0.10515260972E+01  0.21908953199E+01  0.51100000000E-03 0.  1.
         12    1    3    3    0    0  0.90475907748E-02 -0.18691099898E+02 -0.37546824549E+02  0.41941880394E+02  0.00000000000E+00 0. -1.
</event>
<event>
 7    1  0.2950722E-010  0.4778730E+02  0.7816164E-02  0.1312668E+00
        -11   -1    0    0    0    0  0.00000000000E+00  0.00000000000E+00  0.45593999997E+02  0.45594000000E+02  0.51100000000E-03 0.  1.
         11   -1    0    0    0    0 -0.00000000000E+00 -0.00000000000E+00 -0.45593999997E+02  0.45594000000E+02  0.51100000000E-03 0. -1.
    9900012    2    1    2    0    0 -0.28906243904E+02 -0.31285658048E+02  0.83221010525E+01  0.47787300674E+02  0.20000135090E+02 0.  0.
        -12    1    1    2    0    0  0.28906243904E+02  0.31285658048E+02 -0.83221010525E+01  0.43400699326E+02  0.00000000000E+00 0.  1.
         11    1    3    3    0    0 -0.14094688701E+02 -0.63127646258E+01  0.25123706172E+01  0.15646828853E+02  0.51100000000E-03 0. -1.
        -11    1    3    3    0    0 -0.78814648472E+01 -0.33060707572E+01  0.36382280201E+01  0.92889340280E+01  0.51100000000E-03 0.  1.
         12    1    3    3    0    0 -0.69300903559E+01 -0.21666822665E+02  0.21715024151E+01  0.22851537792E+02  0.00000000000E+00 0. -1.
</event>
<event>
 7    1  0.2950722E-010  0.4778724E+02  0.7816164E-02  0.1312668E+00
        -11   -1    0    0    0    0  0.00000000000E+00  0.00000000000E+00  0.45593999997E+02  0.45594000000E+02  0.51100000000E-03 0. -1.
         11   -1    0    0    0    0 -0.00000000000E+00 -0.00000000000E+00 -0.45593999997E+02  0.45594000000E+02  0.51100000000E-03 0.  1.
    9900012    2    1    2    0    0  0.30811231006E+02 -0.29335128236E+02 -0.85874732110E+01  0.47787235020E+02  0.19999835748E+02 0.  0.
        -12    1    1    2    0    0 -0.30811231006E+02  0.29335128236E+02  0.85874732110E+01  0.43400764980E+02  0.00000000000E+00 0.  1.
         11    1    3    3    0    0  0.34232404120E+01  0.18952168383E+01 -0.23831657868E+01  0.45814736943E+01  0.51100000000E-03 0. -1.
        -11    1    3    3    0    0  0.67424619308E+01 -0.14949435184E+02 -0.12209365767E+01  0.16444971620E+02  0.51100000000E-03 0.  1.
         12    1    3    3    0    0  0.20645528663E+02 -0.16280909891E+02 -0.49833708475E+01  0.26760789705E+02  0.00000000000E+00 0. -1.
</event>
<event>
 7    1  0.2950722E-010  0.4778727E+02  0.7816164E-02  0.1312668E+00
        -11   -1    0    0    0    0  0.00000000000E+00  0.00000000000E+00  0.45593999997E+02  0.45594000000E+02  0.51100000000E-03 0. -1.
         11   -1    0    0    0    0 -0.00000000000E+00 -0.00000000000E+00 -0.45593999997E+02  0.45594000000E+02  0.51100000000E-03 0.  1.
    9900012    2    1    2    0    0 -0.11461520283E+02 -0.39393021156E+02  0.14157919463E+02  0.47787271359E+02  0.20000001436E+02 0.  0.
        -12    1    1    2    0    0  0.11461520283E+02  0.39393021156E+02 -0.14157919463E+02  0.43400728641E+02  0.00000000000E+00 0.  1.
         11    1    3    3    0    0 -0.13043829750E+02 -0.20663933111E+02  0.14572824373E+02  0.28451833625E+02  0.51100000000E-03 0. -1.
        -11    1    3    3    0    0 -0.15693274476E+01 -0.48279210104E+01 -0.16734930885E+00  0.50793322369E+01  0.51100000000E-03 0.  1.
         12    1    3    3    0    0  0.31516369149E+01 -0.13901167035E+02 -0.24755560077E+00  0.14256105497E+02  0.00000000000E+00 0. -1.
</event>
<event>
 7    1  0.2950722E-010  0.4778726E+02  0.7816164E-02  0.1312668E+00
        -11   -1    0    0    0    0  0.00000000000E+00  0.00000000000E+00  0.45593999997E+02  0.45594000000E+02  0.51100000000E-03 0.  1.
         11   -1    0    0    0    0 -0.00000000000E+00 -0.00000000000E+00 -0.45593999997E+02  0.45594000000E+02  0.51100000000E-03 0. -1.
    9900012    2    1    2    0    0  0.48632596243E+00  0.15465208829E+00 -0.43397740306E+02  0.47787259293E+02  0.19999946421E+02 0.  0.
        -12    1    1    2    0    0 -0.48632596243E+00 -0.15465208829E+00  0.43397740306E+02  0.43400740707E+02  0.00000000000E+00 0.  1.
         11    1    3    3    0    0 -0.66517776649E+01 -0.92674103301E+00 -0.27185804341E+02  0.28003088276E+02  0.51100000000E-03 0. -1.
        -11    1    3    3    0    0  0.71042161967E+01  0.41191796659E+01 -0.10671065298E+02  0.13465109125E+02  0.51100000000E-03 0.  1.
        -12    1    3    3    0    0  0.33887430663E-01 -0.30377865446E+01 -0.55408706679E+01  0.63190618929E+01  0.00000000000E+00 0.  1.
</event>
<event>
 7    1  0.2950722E-010  0.4778727E+02  0.7816164E-02  0.1312668E+00
        -11   -1    0    0    0    0  0.00000000000E+00  0.00000000000E+00  0.45593999997E+02  0.45594000000E+02  0.51100000000E-03 0.  1.
         11   -1    0    0    0    0 -0.00000000000E+00 -0.00000000000E+00 -0.45593999997E+02  0.45594000000E+02  0.51100000000E-03 0. -1.
    9900012    2    1    2    0    0  0.11234044836E+02  0.41416559349E+02 -0.64875170556E+01  0.47787273863E+02  0.20000012849E+02 0.  0.
        -12    1    1    2    0    0 -0.11234044836E+02 -0.41416559349E+02  0.64875170556E+01  0.43400726137E+02  0.00000000000E+00 0.  1.
         11    1    3    3    0    0  0.11943506836E+02  0.32027296537E+02 -0.91620116101E+01  0.35388381371E+02  0.51100000000E-03 0. -1.
        -11    1    3    3    0    0  0.14570239484E+01  0.73403401461E+01  0.46605485250E+01  0.88161343604E+01  0.51100000000E-03 0.  1.
         12    1    3    3    0    0 -0.21664859484E+01  0.20489226657E+01 -0.19860539705E+01  0.35827581314E+01  0.00000000000E+00 0. -1.
</event>
<event>
 7    1  0.2950722E-010  0.4778728E+02  0.7816164E-02  0.1312668E+00
        -11   -1    0    0    0    0  0.00000000000E+00  0.00000000000E+00  0.45593999997E+02  0.45594000000E+02  0.51100000000E-03 0. -1.
         11   -1    0    0    0    0 -0.00000000000E+00 -0.00000000000E+00 -0.45593999997E+02  0.45594000000E+02  0.51100000000E-03 0.  1.
    9900012    2    1    2    0    0  0.39786687775E+02 -0.16631940365E+02 -0.49010567201E+01  0.47787282018E+02  0.20000050032E+02 0.  0.
        -12    1    1    2    0    0 -0.39786687775E+02  0.16631940365E+02  0.49010567201E+01  0.43400717982E+02  0.00000000000E+00 0.  1.
         11    1    3    3    0    0  0.23867165571E+02 -0.56576909502E+01  0.59931552642E+01  0.25250128110E+02  0.51100000000E-03 0. -1.
        -11    1    3    3    0    0  0.61872172794E+01 -0.45093789793E+01 -0.65372851591E+01  0.10067385656E+02  0.51100000000E-03 0.  1.
         12    1    3    3    0    0  0.97323049243E+01 -0.64648704351E+01 -0.43569268252E+01  0.12469768251E+02  0.00000000000E+00 0. -1.
</event>
<event>
 7    1  0.2950722E-010  0.4778727E+02  0.7816164E-02  0.1312668E+00
        -11   -1    0    0    0    0  0.00000000000E+00  0.00000000000E+00  0.45593999997E+02  0.45594000000E+02  0.51100000000E-03 0.  1.
         11   -1    0    0    0    0 -0.00000000000E+00 -0.00000000000E+00 -0.45593999997E+02  0.45594000000E+02  0.51100000000E-03 0. -1.
    9900012    2    1    2    0    0 -0.20897944893E+00  0.18784400059E+02 -0.39124490874E+02  0.47787272539E+02  0.20000006814E+02 0.  0.
        -12    1    1    2    0    0  0.20897944893E+00 -0.18784400059E+02  0.39124490874E+02  0.43400727461E+02  0.00000000000E+00 0.  1.
         11    1    3    3    0    0 -0.32107355078E+01  0.58681332539E+00 -0.11556485128E+02  0.12008560328E+02  0.51100000000E-03 0. -1.
        -11    1    3    3    0    0 -0.14464794022E+00  0.46809870443E+01  0.25127428486E+00  0.46899575438E+01  0.51100000000E-03 0.  1.
        -12    1    3    3    0    0  0.31464039991E+01  0.13516599689E+02 -0.27819280031E+02  0.31088754667E+02  0.00000000000E+00 0.  1.
</event>
<event>
 7    1  0.2950722E-010  0.4778727E+02  0.7816164E-02  0.1312668E+00
        -11   -1    0    0    0    0  0.00000000000E+00  0.00000000000E+00  0.45593999997E+02  0.45594000000E+02  0.51100000000E-03 0.  1.
         11   -1    0    0    0    0 -0.00000000000E+00 -0.00000000000E+00 -0.45593999997E+02  0.45594000000E+02  0.51100000000E-03 0. -1.
    9900012    2    1    2    0    0 -0.41605669237E+02  0.33945884739E+01 -0.11877210874E+02  0.47787273258E+02  0.20000010093E+02 0.  0.
        -12    1    1    2    0    0  0.41605669237E+02 -0.33945884739E+01  0.11877210874E+02  0.43400726742E+02  0.00000000000E+00 0.  1.
         11    1    3    3    0    0 -0.28910804977E+02 -0.37537881146E+01 -0.10885203799E+02  0.31119338547E+02  0.51100000000E-03 0. -1.
        -11    1    3    3    0    0 -0.85254880195E+01  0.66324325421E+01 -0.39811866607E+01  0.11511861487E+02  0.51100000000E-03 0.  1.
        -12    1    3    3    0    0 -0.41693762407E+01  0.51594404640E+00  0.29891795859E+01  0.51560732241E+01  0.00000000000E+00 0.  1.
</event>
<event>
 7    1  0.2950722E-010  0.4778728E+02  0.7816164E-02  0.1312668E+00
        -11   -1    0    0    0    0  0.00000000000E+00  0.00000000000E+00  0.45593999997E+02  0.45594000000E+02  0.51100000000E-03 0.  1.
         11   -1    0    0    0    0 -0.00000000000E+00 -0.00000000000E+00 -0.45593999997E+02  0.45594000000E+02  0.51100000000E-03 0. -1.
    9900012    2    1    2    0    0 -0.26549358403E+01  0.38089362075E+02  0.20634309510E+02  0.47787275161E+02  0.20000018770E+02 0.  0.
        -12    1    1    2    0    0  0.26549358403E+01 -0.38089362075E+02 -0.20634309510E+02  0.43400724839E+02  0.00000000000E+00 0.  1.
         11    1    3    3    0    0  0.16960488863E+01  0.79496844670E+00 -0.21708498976E+01  0.28672541211E+01  0.51100000000E-03 0. -1.
        -11    1    3    3    0    0 -0.69473221098E+01  0.29236235209E+02  0.19548119157E+02  0.35849012490E+02  0.51100000000E-03 0.  1.
         12    1    3    3    0    0  0.25963373832E+01  0.80581584192E+01  0.32570402505E+01  0.90710085498E+01  0.00000000000E+00 0. -1.
</event>
<event>
 7    1  0.2950722E-010  0.4778727E+02  0.7816164E-02  0.1312668E+00
        -11   -1    0    0    0    0  0.00000000000E+00  0.00000000000E+00  0.45593999997E+02  0.45594000000E+02  0.51100000000E-03 0. -1.
         11   -1    0    0    0    0 -0.00000000000E+00 -0.00000000000E+00 -0.45593999997E+02  0.45594000000E+02  0.51100000000E-03 0.  1.
    9900012    2    1    2    0    0  0.37127593954E+02  0.60954408300E+01  0.21633550470E+02  0.47787272613E+02  0.20000007153E+02 0.  0.
        -12    1    1    2    0    0 -0.37127593954E+02 -0.60954408300E+01 -0.21633550470E+02  0.43400727387E+02  0.00000000000E+00 0.  1.
         11    1    3    3    0    0  0.15675728436E+02  0.11475809245E+01  0.14853711713E+00  0.15718379927E+02  0.51100000000E-03 0. -1.
        -11    1    3    3    0    0  0.17215739278E+02  0.71292164165E+01  0.14485997966E+02  0.23601939389E+02  0.51100000000E-03 0.  1.
        -12    1    3    3    0    0  0.42361262397E+01 -0.21813565111E+01  0.69990153872E+01  0.84669532972E+01  0.00000000000E+00 0.  1.
</event>
<event>
 7    1  0.2950722E-010  0.4778727E+02  0.7816164E-02  0.1312668E+00
        -11   -1    0    0    0    0  0.00000000000E+00  0.00000000000E+00  0.45593999997E+02  0.45594000000E+02  0.51100000000E-03 0.  1.
         11   -1    0    0    0    0 -0.00000000000E+00 -0.00000000000E+00 -0.45593999997E+02  0.45594000000E+02  0.51100000000E-03 0. -1.
    9900012    2    1    2    0    0  0.10526989143E+02 -0.28950271121E+02 -0.30572664743E+02  0.47787268118E+02  0.19999986656E+02 0.  0.
        -12    1    1    2    0    0 -0.10526989143E+02  0.28950271121E+02  0.30572664743E+02  0.43400731882E+02  0.00000000000E+00 0.  1.
         11    1    3    3    0    0  0.67755256301E+01 -0.50987447364E+01 -0.19133618055E+02  0.20928456359E+02  0.51100000000E-03 0. -1.
        -11    1    3    3    0    0  0.17778875179E+01 -0.14276375917E+02 -0.53950618133E+01  0.15364975938E+02  0.51100000000E-03 0.  1.
         12    1    3    3    0    0  0.19735759949E+01 -0.95751504683E+01 -0.60439848752E+01  0.11493835821E+02  0.00000000000E+00 0. -1.
</event>
<event>
 7    1  0.2950722E-010  0.4778727E+02  0.7816164E-02  0.1312668E+00
        -11   -1    0    0    0    0  0.00000000000E+00  0.00000000000E+00  0.45593999997E+02  0.45594000000E+02  0.51100000000E-03 0.  1.
         11   -1    0    0    0    0 -0.00000000000E+00 -0.00000000000E+00 -0.45593999997E+02  0.45594000000E+02  0.51100000000E-03 0. -1.
    9900012    2    1    2    0    0 -0.13187864944E+02  0.21578572561E+02 -0.35271357433E+02  0.47787271542E+02  0.20000002267E+02 0.  0.
        -12    1    1    2    0    0  0.13187864944E+02 -0.21578572561E+02  0.35271357433E+02  0.43400728458E+02  0.00000000000E+00 0.  1.
         11    1    3    3    0    0 -0.37711590278E+00  0.24860912443E+01 -0.91771573485E+01  0.95154129358E+01  0.51100000000E-03 0. -1.
        -11    1    3    3    0    0 -0.74167595248E+01  0.13407291579E+01 -0.18816593960E+01  0.77683021869E+01  0.51100000000E-03 0.  1.
        -12    1    3    3    0    0 -0.53939895165E+01  0.17751752158E+02 -0.24212540689E+02  0.30503556419E+02  0.00000000000E+00 0.  1.
</event>
<event>
 7    1  0.2950722E-010  0.4778727E+02  0.7816164E-02  0.1312668E+00
        -11   -1    0    0    0    0  0.00000000000E+00  0.00000000000E+00  0.45593999997E+02  0.45594000000E+02  0.51100000000E-03 0.  1.
         11   -1    0    0    0    0 -0.00000000000E+00 -0.00000000000E+00 -0.45593999997E+02  0.45594000000E+02  0.51100000000E-03 0. -1.
    9900012    2    1    2    0    0 -0.12059820813E+01  0.25212674104E+02 -0.35305668127E+02  0.47787268092E+02  0.19999986540E+02 0.  0.
        -12    1    1    2    0    0  0.12059820813E+01 -0.25212674104E+02  0.35305668127E+02  0.43400731908E+02  0.00000000000E+00 0.  1.
         11    1    3    3    0    0  0.51391008598E+00  0.12444565346E+02 -0.25105357111E+02  0.28025172009E+02  0.51100000000E-03 0. -1.
        -11    1    3    3    0    0 -0.10848619228E+01  0.73362692613E+00  0.21428902454E+01  0.25113965683E+01  0.51100000000E-03 0.  1.
         12    1    3    3    0    0 -0.63503024452E+00  0.12034481831E+02 -0.12343201261E+02  0.17250699514E+02  0.00000000000E+00 0. -1.
</event>
<event>
 7    1  0.2950722E-010  0.4778727E+02  0.7816164E-02  0.1312668E+00
        -11   -1    0    0    0    0  0.00000000000E+00  0.00000000000E+00  0.45593999997E+02  0.45594000000E+02  0.51100000000E-03 0.  1.
         11   -1    0    0    0    0 -0.00000000000E+00 -0.00000000000E+00 -0.45593999997E+02  0.45594000000E+02  0.51100000000E-03 0. -1.
    9900012    2    1    2    0    0 -0.22196503235E+02  0.76820312878E+01 -0.36495548858E+02  0.47787269050E+02  0.19999990906E+02 0.  0.
        -12    1    1    2    0    0  0.22196503235E+02 -0.76820312878E+01  0.36495548858E+02  0.43400730950E+02  0.00000000000E+00 0.  1.
         11    1    3    3    0    0 -0.13786455442E+02  0.32251052614E+01 -0.19807432127E+02  0.24347526062E+02  0.51100000000E-03 0. -1.
        -11    1    3    3    0    0 -0.42671916339E+01  0.82683645091E+01 -0.52306412753E+01  0.10674005083E+02  0.51100000000E-03 0.  1.
        -12    1    3    3    0    0 -0.41428561600E+01 -0.38114384827E+01 -0.11457475455E+02  0.12765737905E+02  0.00000000000E+00 0.  1.
</event>
<event>
 7    1  0.2950722E-010  0.4778728E+02  0.7816164E-02  0.1312668E+00
        -11   -1    0    0    0    0  0.00000000000E+00  0.00000000000E+00  0.45593999997E+02  0.45594000000E+02  0.51100000000E-03 0. -1.
         11   -1    0    0    0    0 -0.00000000000E+00 -0.00000000000E+00 -0.45593999997E+02  0.45594000000E+02  0.51100000000E-03 0.  1.
    9900012    2    1    2    0    0  0.28350084593E+02  0.14821689535E+02  0.29329389992E+02  0.47787275416E+02  0.20000019933E+02 0.  0.
        -12    1    1    2    0    0 -0.28350084593E+02 -0.14821689535E+02 -0.29329389992E+02  0.43400724584E+02  0.00000000000E+00 0.  1.
         11    1    3    3    0    0  0.87743556036E+01  0.11471990917E+02  0.58556443044E+01  0.15584750955E+02  0.51100000000E-03 0.  1.
        -11    1    3    3    0    0  0.18772897438E+02  0.52980233147E+01  0.22765798867E+02  0.29979531811E+02  0.51100000000E-03 0. -1.
        -12    1    3    3    0    0  0.80283155173E+00 -0.19483246964E+01  0.70794681982E+00  0.22229926502E+01  0.00000000000E+00 0.  1.
</event>
<event>
 7    1  0.2950722E-010  0.4778727E+02  0.7816164E-02  0.1312668E+00
        -11   -1    0    0    0    0  0.00000000000E+00  0.00000000000E+00  0.45593999997E+02  0.45594000000E+02  0.51100000000E-03 0.  1.
         11   -1    0    0    0    0 -0.00000000000E+00 -0.00000000000E+00 -0.45593999997E+02  0.45594000000E+02  0.51100000000E-03 0. -1.
    9900012    2    1    2    0    0 -0.38962666009E+02  0.41156481892E+01 -0.18670712293E+02  0.47787269590E+02  0.19999993370E+02 0.  0.
        -12    1    1    2    0    0  0.38962666009E+02 -0.41156481892E+01  0.18670712293E+02  0.43400730410E+02  0.00000000000E+00 0.  1.
         11    1    3    3    0    0 -0.10402059300E+02  0.84009020857E+01 -0.10909023624E+01  0.13415217544E+02  0.51100000000E-03 0. -1.
        -11    1    3    3    0    0 -0.13127640168E+02 -0.37025522348E+01 -0.52701505402E+01  0.14622527703E+02  0.51100000000E-03 0.  1.
         12    1    3    3    0    0 -0.15432966541E+02 -0.58270166173E+00 -0.12309659390E+02  0.19749524344E+02  0.00000000000E+00 0. -1.
</event>
<event>
 7    1  0.2950722E-010  0.4778728E+02  0.7816164E-02  0.1312668E+00
        -11   -1    0    0    0    0  0.00000000000E+00  0.00000000000E+00  0.45593999997E+02  0.45594000000E+02  0.51100000000E-03 0.  1.
         11   -1    0    0    0    0 -0.00000000000E+00 -0.00000000000E+00 -0.45593999997E+02  0.45594000000E+02  0.51100000000E-03 0. -1.
    9900012    2    1    2    0    0 -0.35408733992E+02  0.24721991343E+02 -0.43205711428E+01  0.47787278417E+02  0.20000033616E+02 0.  0.
        -12    1    1    2    0    0  0.35408733992E+02 -0.24721991343E+02  0.43205711428E+01  0.43400721583E+02  0.00000000000E+00 0.  1.
         11    1    3    3    0    0 -0.53811587942E+01  0.12154899864E+02 -0.35501070289E+01  0.13758696190E+02  0.51100000000E-03 0. -1.
        -11    1    3    3    0    0 -0.79962951130E+01  0.79717125293E+01 -0.20966005979E+01  0.11484105125E+02  0.51100000000E-03 0.  1.
         12    1    3    3    0    0 -0.22031280085E+02  0.45953789502E+01  0.13261364840E+01  0.22544477103E+02  0.00000000000E+00 0. -1.
</event>
<event>
 7    1  0.3274410E-010  0.4778728E+02  0.7816164E-02  0.1312668E+00
        -11   -1    0    0    0    0  0.00000000000E+00  0.00000000000E+00  0.45593999997E+02  0.45594000000E+02  0.51100000000E-03 0.  1.
         11   -1    0    0    0    0 -0.00000000000E+00 -0.00000000000E+00 -0.45593999997E+02  0.45594000000E+02  0.51100000000E-03 0. -1.
    9900012    2    1    2    0    0 -0.25732671050E+01 -0.69295109106E+01 -0.42766606044E+02  0.47787280909E+02  0.20000044976E+02 0.  0.
        -12    1    1    2    0    0  0.25732671050E+01  0.69295109106E+01  0.42766606044E+02  0.43400719091E+02  0.00000000000E+00 0.  1.
         11    1    3    3    0    0 -0.97753611175E+00 -0.10121101829E+02 -0.31385692693E+02  0.32991726011E+02  0.51100000000E-03 0. -1.
        -11    1    3    3    0    0  0.65126849794E+00  0.19306938937E+01 -0.11978500305E+02  0.12150563748E+02  0.51100000000E-03 0.  1.
         12    1    3    3    0    0 -0.22469994912E+01  0.12608970249E+01  0.59758695337E+00  0.26449911508E+01  0.00000000000E+00 0. -1.
</event>
<event>
 7    1  0.2950722E-010  0.4778728E+02  0.7816164E-02  0.1312668E+00
        -11   -1    0    0    0    0  0.00000000000E+00  0.00000000000E+00  0.45593999997E+02  0.45594000000E+02  0.51100000000E-03 0.  1.
         11   -1    0    0    0    0 -0.00000000000E+00 -0.00000000000E+00 -0.45593999997E+02  0.45594000000E+02  0.51100000000E-03 0. -1.
    9900012    2    1    2    0    0 -0.35833843415E+02  0.20200313679E+02 -0.13838561985E+02  0.47787276453E+02  0.20000024658E+02 0.  0.
        -12    1    1    2    0    0  0.35833843415E+02 -0.20200313679E+02  0.13838561985E+02  0.43400723547E+02  0.00000000000E+00 0.  1.
         11    1    3    3    0    0 -0.26119491660E+02  0.15169921582E+02 -0.17740891559E+01  0.30257259592E+02  0.51100000000E-03 0. -1.
        -11    1    3    3    0    0 -0.39215524161E+01 -0.87947016235E+00 -0.61947857932E+01  0.73842678990E+01  0.51100000000E-03 0.  1.
         12    1    3    3    0    0 -0.57927993384E+01  0.59098622592E+01 -0.58696870362E+01  0.10145748962E+02  0.00000000000E+00 0. -1.
</event>
<event>
 7    1  0.2950722E-010  0.4778728E+02  0.7816164E-02  0.1312668E+00
        -11   -1    0    0    0    0  0.00000000000E+00  0.00000000000E+00  0.45593999997E+02  0.45594000000E+02  0.51100000000E-03 0. -1.
         11   -1    0    0    0    0 -0.00000000000E+00 -0.00000000000E+00 -0.45593999997E+02  0.45594000000E+02  0.51100000000E-03 0.  1.
    9900012    2    1    2    0    0 -0.19794283793E+02  0.36808840728E+02  0.11701183602E+02  0.47787284288E+02  0.20000060383E+02 0.  0.
        -12    1    1    2    0    0  0.19794283793E+02 -0.36808840728E+02 -0.11701183602E+02  0.43400715712E+02  0.00000000000E+00 0.  1.
         11    1    3    3    0    0 -0.18921841857E+02  0.32007657979E+02  0.95449176486E+01  0.38387911141E+02  0.51100000000E-03 0. -1.
        -11    1    3    3    0    0  0.31093434632E+01  0.10841291020E+01  0.21854844734E+01  0.39521760242E+01  0.51100000000E-03 0.  1.
        -12    1    3    3    0    0 -0.39817853989E+01  0.37170536471E+01 -0.29218519831E-01  0.54471971233E+01  0.00000000000E+00 0.  1.
</event>
<event>
 7    1  0.2950722E-010  0.4778728E+02  0.7816164E-02  0.1312668E+00
        -11   -1    0    0    0    0  0.00000000000E+00  0.00000000000E+00  0.45593999997E+02  0.45594000000E+02  0.51100000000E-03 0.  1.
         11   -1    0    0    0    0 -0.00000000000E+00 -0.00000000000E+00 -0.45593999997E+02  0.45594000000E+02  0.51100000000E-03 0. -1.
    9900012    2    1    2    0    0  0.40353069234E+02  0.12197095442E+01 -0.15929990850E+02  0.47787280001E+02  0.20000040838E+02 0.  0.
        -12    1    1    2    0    0 -0.40353069234E+02 -0.12197095442E+01  0.15929990850E+02  0.43400719999E+02  0.00000000000E+00 0.  1.
         11    1    3    3    0    0  0.87350685732E+01  0.17664148167E+01  0.29063216621E+01  0.93738119326E+01  0.51100000000E-03 0. -1.
        -11    1    3    3    0    0  0.14711062342E+02  0.31013787918E+01 -0.13778286488E+02  0.20393015580E+02  0.51100000000E-03 0.  1.
         12    1    3    3    0    0  0.16906938318E+02 -0.36480840643E+01 -0.50580260237E+01  0.18020452488E+02  0.00000000000E+00 0. -1.
</event>
<event>
 7    1  0.2950722E-010  0.4778727E+02  0.7816164E-02  0.1312668E+00
        -11   -1    0    0    0    0  0.00000000000E+00  0.00000000000E+00  0.45593999997E+02  0.45594000000E+02  0.51100000000E-03 0. -1.
         11   -1    0    0    0    0 -0.00000000000E+00 -0.00000000000E+00 -0.45593999997E+02  0.45594000000E+02  0.51100000000E-03 0.  1.
    9900012    2    1    2    0    0 -0.27279108583E+01  0.30157239588E+02  0.31092159190E+02  0.47787274657E+02  0.20000016470E+02 0.  0.
        -12    1    1    2    0    0  0.27279108583E+01 -0.30157239588E+02 -0.31092159190E+02  0.43400725343E+02  0.00000000000E+00 0.  1.
         11    1    3    3    0    0  0.70004419063E+01  0.47116910286E+01  0.50481172904E+01  0.98330924775E+01  0.51100000000E-03 0.  1.
        -11    1    3    3    0    0 -0.82777208882E+01  0.22302915254E+02  0.20425684857E+02  0.31355211594E+02  0.51100000000E-03 0. -1.
        -12    1    3    3    0    0 -0.14506318764E+01  0.31426333048E+01  0.56183570425E+01  0.65989705854E+01  0.00000000000E+00 0.  1.
</event>
<event>
 7    1  0.2950722E-010  0.4778727E+02  0.7816164E-02  0.1312668E+00
        -11   -1    0    0    0    0  0.00000000000E+00  0.00000000000E+00  0.45593999997E+02  0.45594000000E+02  0.51100000000E-03 0.  1.
         11   -1    0    0    0    0 -0.00000000000E+00 -0.00000000000E+00 -0.45593999997E+02  0.45594000000E+02  0.51100000000E-03 0. -1.
    9900012    2    1    2    0    0  0.72013442115E+01  0.34923896568E+02 -0.24740360306E+02  0.47787270306E+02  0.19999996631E+02 0.  0.
        -12    1    1    2    0    0 -0.72013442115E+01 -0.34923896568E+02  0.24740360306E+02  0.43400729694E+02  0.00000000000E+00 0.  1.
         11    1    3    3    0    0 -0.18901309206E+01  0.56026050895E+01 -0.13272449694E+02  0.14529958700E+02  0.51100000000E-03 0. -1.
        -11    1    3    3    0    0  0.54250894483E+01  0.14429774627E+02 -0.28876487719E+01  0.15684020754E+02  0.51100000000E-03 0.  1.
         12    1    3    3    0    0  0.36663856838E+01  0.14891516852E+02 -0.85802618399E+01  0.17573290852E+02  0.00000000000E+00 0. -1.
</event>
<event>
 7    1  0.3424693E-010  0.4778727E+02  0.7816164E-02  0.1312668E+00
        -11   -1    0    0    0    0  0.00000000000E+00  0.00000000000E+00  0.45593999997E+02  0.45594000000E+02  0.51100000000E-03 0. -1.
         11   -1    0    0    0    0 -0.00000000000E+00 -0.00000000000E+00 -0.45593999997E+02  0.45594000000E+02  0.51100000000E-03 0.  1.
    9900012    2    1    2    0    0  0.37772636259E+02 -0.11990929956E+02  0.17693750085E+02  0.47787271397E+02  0.20000001608E+02 0.  0.
        -12    1    1    2    0    0 -0.37772636259E+02  0.11990929956E+02 -0.17693750085E+02  0.43400728603E+02  0.00000000000E+00 0.  1.
         11    1    3    3    0    0  0.77983565064E+01 -0.61711651339E+01  0.11415783729E+02  0.15139939291E+02  0.51100000000E-03 0. -1.
        -11    1    3    3    0    0  0.83027581164E+01  0.47129786818E+00 -0.20982432762E+01  0.85767440866E+01  0.51100000000E-03 0.  1.
         12    1    3    3    0    0  0.21671521637E+02 -0.62910626905E+01  0.83762096316E+01  0.24070588020E+02  0.00000000000E+00 0. -1.
</event>
<event>
 7    1  0.2950722E-010  0.4778726E+02  0.7816164E-02  0.1312668E+00
        -11   -1    0    0    0    0  0.00000000000E+00  0.00000000000E+00  0.45593999997E+02  0.45594000000E+02  0.51100000000E-03 0.  1.
         11   -1    0    0    0    0 -0.00000000000E+00 -0.00000000000E+00 -0.45593999997E+02  0.45594000000E+02  0.51100000000E-03 0. -1.
    9900012    2    1    2    0    0 -0.24830991862E+02 -0.29138082997E+02 -0.20445490240E+02  0.47787261426E+02  0.19999956146E+02 0.  0.
        -12    1    1    2    0    0  0.24830991862E+02  0.29138082997E+02  0.20445490240E+02  0.43400738574E+02  0.00000000000E+00 0.  1.
         11    1    3    3    0    0 -0.31201958282E+01 -0.13732502694E+01 -0.73916549378E+00  0.34882379789E+01  0.51100000000E-03 0. -1.
        -11    1    3    3    0    0 -0.21195265230E+02 -0.25263550178E+02 -0.22945329963E+02  0.40174300282E+02  0.51100000000E-03 0.  1.
        -12    1    3    3    0    0 -0.51553080375E+00 -0.25012825496E+01  0.32390052160E+01  0.41247231655E+01  0.00000000000E+00 0.  1.
</event>
<event>
 7    1  0.2950722E-010  0.4778727E+02  0.7816164E-02  0.1312668E+00
        -11   -1    0    0    0    0  0.00000000000E+00  0.00000000000E+00  0.45593999997E+02  0.45594000000E+02  0.51100000000E-03 0. -1.
         11   -1    0    0    0    0 -0.00000000000E+00 -0.00000000000E+00 -0.45593999997E+02  0.45594000000E+02  0.51100000000E-03 0.  1.
    9900012    2    1    2    0    0 -0.35608316882E+02  0.12150744918E+02  0.21634012018E+02  0.47787270637E+02  0.19999998144E+02 0.  0.
        -12    1    1    2    0    0  0.35608316882E+02 -0.12150744918E+02 -0.21634012018E+02  0.43400729363E+02  0.00000000000E+00 0.  1.
         11    1    3    3    0    0 -0.16630759843E+02  0.10359687038E+02  0.11571589608E+02  0.22755372438E+02  0.51100000000E-03 0. -1.
        -11    1    3    3    0    0 -0.13008983437E+02 -0.32948367707E+01  0.16324679390E+01  0.13518674167E+02  0.51100000000E-03 0.  1.
        -12    1    3    3    0    0 -0.59685736029E+01  0.50858946503E+01  0.84299544707E+01  0.11513224033E+02  0.00000000000E+00 0.  1.
</event>
<event>
 7    1  0.2950722E-010  0.4778727E+02  0.7816164E-02  0.1312668E+00
        -11   -1    0    0    0    0  0.00000000000E+00  0.00000000000E+00  0.45593999997E+02  0.45594000000E+02  0.51100000000E-03 0.  1.
         11   -1    0    0    0    0 -0.00000000000E+00 -0.00000000000E+00 -0.45593999997E+02  0.45594000000E+02  0.51100000000E-03 0. -1.
    9900012    2    1    2    0    0 -0.41323385934E+02  0.65326309196E+01 -0.11546669411E+02  0.47787273436E+02  0.20000010904E+02 0.  0.
        -12    1    1    2    0    0  0.41323385934E+02 -0.65326309196E+01  0.11546669411E+02  0.43400726564E+02  0.00000000000E+00 0.  1.
         11    1    3    3    0    0 -0.23823813400E+02  0.12087895720E+02 -0.10363140589E+02  0.28654598078E+02  0.51100000000E-03 0. -1.
        -11    1    3    3    0    0 -0.44393431547E+01 -0.39237377573E+01 -0.88813050160E-01  0.59254850985E+01  0.51100000000E-03 0.  1.
         12    1    3    3    0    0 -0.13060229379E+02 -0.16315270433E+01 -0.10947157714E+01  0.13207190260E+02  0.00000000000E+00 0. -1.
</event>
<event>
 7    1  0.2950722E-010  0.4778730E+02  0.7816164E-02  0.1312668E+00
        -11   -1    0    0    0    0  0.00000000000E+00  0.00000000000E+00  0.45593999997E+02  0.45594000000E+02  0.51100000000E-03 0.  1.
         11   -1    0    0    0    0 -0.00000000000E+00 -0.00000000000E+00 -0.45593999997E+02  0.45594000000E+02  0.51100000000E-03 0. -1.
    9900012    2    1    2    0    0 -0.42468331946E+02 -0.78097798914E+01 -0.43668055867E+01  0.47787298724E+02  0.20000126201E+02 0.  0.
        -12    1    1    2    0    0  0.42468331946E+02  0.78097798914E+01  0.43668055867E+01  0.43400701276E+02  0.00000000000E+00 0.  1.
         11    1    3    3    0    0 -0.25655361959E+02 -0.11560922256E+02 -0.62187986705E+01  0.28818847614E+02  0.51100000000E-03 0. -1.
        -11    1    3    3    0    0 -0.73897776787E+01  0.45402256264E+01  0.35311066927E+01  0.93643567647E+01  0.51100000000E-03 0.  1.
        -12    1    3    3    0    0 -0.94231923083E+01 -0.78908326220E+00 -0.16791136089E+01  0.96040943449E+01  0.00000000000E+00 0.  1.
</event>
<event>
 7    1  0.2950722E-010  0.4778727E+02  0.7816164E-02  0.1312668E+00
        -11   -1    0    0    0    0  0.00000000000E+00  0.00000000000E+00  0.45593999997E+02  0.45594000000E+02  0.51100000000E-03 0.  1.
         11   -1    0    0    0    0 -0.00000000000E+00 -0.00000000000E+00 -0.45593999997E+02  0.45594000000E+02  0.51100000000E-03 0. -1.
    9900012    2    1    2    0    0 -0.41591612562E+01 -0.23862960687E+02 -0.36012272931E+02  0.47787270550E+02  0.19999997746E+02 0.  0.
        -12    1    1    2    0    0  0.41591612562E+01  0.23862960687E+02  0.36012272931E+02  0.43400729450E+02  0.00000000000E+00 0.  1.
         11    1    3    3    0    0 -0.54767931451E+00 -0.53143920133E+01 -0.17673828010E+01  0.56272868533E+01  0.51100000000E-03 0. -1.
        -11    1    3    3    0    0 -0.35577788626E+01 -0.15782068550E+01  0.53877799886E-01  0.38924838331E+01  0.51100000000E-03 0.  1.
         12    1    3    3    0    0 -0.53703079004E-01 -0.16970361819E+02 -0.34298767930E+02  0.38267499864E+02  0.00000000000E+00 0. -1.
</event>
<event>
 7    1  0.2950722E-010  0.4778728E+02  0.7816164E-02  0.1312668E+00
        -11   -1    0    0    0    0  0.00000000000E+00  0.00000000000E+00  0.45593999997E+02  0.45594000000E+02  0.51100000000E-03 0.  1.
         11   -1    0    0    0    0 -0.00000000000E+00 -0.00000000000E+00 -0.45593999997E+02  0.45594000000E+02  0.51100000000E-03 0. -1.
    9900012    2    1    2    0    0  0.22940583460E+02 -0.26499090837E+02  0.25595909713E+02  0.47787276749E+02  0.20000026010E+02 0.  0.
        -12    1    1    2    0    0 -0.22940583460E+02  0.26499090837E+02 -0.25595909713E+02  0.43400723251E+02  0.00000000000E+00 0.  1.
         11    1    3    3    0    0  0.35111564042E+01 -0.12981104095E+02  0.86850936694E+01  0.16008377030E+02  0.51100000000E-03 0. -1.
        -11    1    3    3    0    0  0.17625844581E+02 -0.12114325684E+02  0.84190140849E+01  0.22984931638E+02  0.51100000000E-03 0.  1.
        -12    1    3    3    0    0  0.18035824742E+01 -0.14036610573E+01  0.84918019586E+01  0.87939680810E+01  0.00000000000E+00 0.  1.
</event>
<event>
 7    1  0.2950722E-010  0.4778728E+02  0.7816164E-02  0.1312668E+00
        -11   -1    0    0    0    0  0.00000000000E+00  0.00000000000E+00  0.45593999997E+02  0.45594000000E+02  0.51100000000E-03 0. -1.
         11   -1    0    0    0    0 -0.00000000000E+00 -0.00000000000E+00 -0.45593999997E+02  0.45594000000E+02  0.51100000000E-03 0.  1.
    9900012    2    1    2    0    0 -0.34757249924E+02  0.24255979797E+02  0.93383001489E+01  0.47787276183E+02  0.20000023427E+02 0.  0.
        -12    1    1    2    0    0  0.34757249924E+02 -0.24255979797E+02 -0.93383001489E+01  0.43400723817E+02  0.00000000000E+00 0.  1.
         11    1    3    3    0    0 -0.14858618671E+02  0.11189362173E+02  0.66874550707E+01  0.19766194126E+02  0.51100000000E-03 0. -1.
        -11    1    3    3    0    0 -0.18607420165E+02  0.12219700421E+02 -0.27255318089E+01  0.22427342408E+02  0.51100000000E-03 0.  1.
        -12    1    3    3    0    0 -0.12912110877E+01  0.84691720333E+00  0.53763768871E+01  0.55937396484E+01  0.00000000000E+00 0.  1.
</event>
<event>
 7    1  0.2950722E-010  0.4778727E+02  0.7816164E-02  0.1312668E+00
        -11   -1    0    0    0    0  0.00000000000E+00  0.00000000000E+00  0.45593999997E+02  0.45594000000E+02  0.51100000000E-03 0.  1.
         11   -1    0    0    0    0 -0.00000000000E+00 -0.00000000000E+00 -0.45593999997E+02  0.45594000000E+02  0.51100000000E-03 0. -1.
    9900012    2    1    2    0    0 -0.26188333064E+02  0.27146090477E+02 -0.21468209949E+02  0.47787273563E+02  0.20000011481E+02 0.  0.
        -12    1    1    2    0    0  0.26188333064E+02 -0.27146090477E+02  0.21468209949E+02  0.43400726437E+02  0.00000000000E+00 0.  1.
         11    1    3    3    0    0 -0.66726160123E+01  0.21403340223E+01 -0.10712290971E+02  0.12800703585E+02  0.51100000000E-03 0. -1.
        -11    1    3    3    0    0 -0.87272766809E+01  0.12405252920E+02  0.89291102046E-01  0.15167848610E+02  0.51100000000E-03 0.  1.
         12    1    3    3    0    0 -0.10788440371E+02  0.12600503534E+02 -0.10845210080E+02  0.19818721368E+02  0.00000000000E+00 0. -1.
</event>
<event>
 7    1  0.2950722E-010  0.4778727E+02  0.7816164E-02  0.1312668E+00
        -11   -1    0    0    0    0  0.00000000000E+00  0.00000000000E+00  0.45593999997E+02  0.45594000000E+02  0.51100000000E-03 0.  1.
         11   -1    0    0    0    0 -0.00000000000E+00 -0.00000000000E+00 -0.45593999997E+02  0.45594000000E+02  0.51100000000E-03 0. -1.
    9900012    2    1    2    0    0  0.68914549567E+01 -0.20493903409E+02 -0.37631514940E+02  0.47787272529E+02  0.20000006767E+02 0.  0.
        -12    1    1    2    0    0 -0.68914549567E+01  0.20493903409E+02  0.37631514940E+02  0.43400727471E+02  0.00000000000E+00 0.  1.
         11    1    3    3    0    0 -0.10836005329E+01 -0.11178518223E+02 -0.29712077779E+02  0.31763832042E+02  0.51100000000E-03 0. -1.
        -11    1    3    3    0    0  0.29615763326E+01 -0.11595178879E+01  0.56623095428E+00  0.32304850813E+01  0.51100000000E-03 0.  1.
         12    1    3    3    0    0  0.50134791570E+01 -0.81558672980E+01 -0.84856681154E+01  0.12792955405E+02  0.00000000000E+00 0. -1.
</event>
<event>
 7    1  0.2950722E-010  0.4778724E+02  0.7816164E-02  0.1312668E+00
        -11   -1    0    0    0    0  0.00000000000E+00  0.00000000000E+00  0.45593999997E+02  0.45594000000E+02  0.51100000000E-03 0.  1.
         11   -1    0    0    0    0 -0.00000000000E+00 -0.00000000000E+00 -0.45593999997E+02  0.45594000000E+02  0.51100000000E-03 0. -1.
    9900012    2    1    2    0    0  0.13699023144E+02 -0.43650465183E+01 -0.40950082716E+02  0.47787238018E+02  0.19999849419E+02 0.  0.
        -12    1    1    2    0    0 -0.13699023144E+02  0.43650465183E+01  0.40950082716E+02  0.43400761982E+02  0.00000000000E+00 0.  1.
         11    1    3    3    0    0  0.93087300805E+01  0.34552545473E-01 -0.66659360821E+01  0.11449382241E+02  0.51100000000E-03 0. -1.
        -11    1    3    3    0    0 -0.11216772488E+00 -0.46110002078E+01 -0.29121107356E+02  0.29484110949E+02  0.51100000000E-03 0.  1.
        -12    1    3    3    0    0  0.45024607884E+01  0.21140114396E+00 -0.51630392772E+01  0.68537448284E+01  0.00000000000E+00 0.  1.
</event>
<event>
 7    1  0.2950722E-010  0.4778727E+02  0.7816164E-02  0.1312668E+00
        -11   -1    0    0    0    0  0.00000000000E+00  0.00000000000E+00  0.45593999997E+02  0.45594000000E+02  0.51100000000E-03 0. -1.
         11   -1    0    0    0    0 -0.00000000000E+00 -0.00000000000E+00 -0.45593999997E+02  0.45594000000E+02  0.51100000000E-03 0.  1.
    9900012    2    1    2    0    0  0.34097641007E+02  0.22565321763E+02 -0.14552676333E+02  0.47787271239E+02  0.20000000887E+02 0.  0.
        -12    1    1    2    0    0 -0.34097641007E+02 -0.22565321763E+02  0.14552676333E+02  0.43400728761E+02  0.00000000000E+00 0.  1.
         11    1    3    3    0    0  0.95921003799E+01  0.10682853151E+02 -0.57930546345E+01  0.15481964456E+02  0.51100000000E-03 0. -1.
        -11    1    3    3    0    0  0.10677921359E+02 -0.25261494806E+01 -0.15911735389E+01  0.11087437452E+02  0.51100000000E-03 0.  1.
        -12    1    3    3    0    0  0.13827619268E+02  0.14408618093E+02 -0.71684481591E+01  0.21217869332E+02  0.00000000000E+00 0.  1.
</event>
<event>
 7    1  0.2950722E-010  0.4778728E+02  0.7816164E-02  0.1312668E+00
        -11   -1    0    0    0    0  0.00000000000E+00  0.00000000000E+00  0.45593999997E+02  0.45594000000E+02  0.51100000000E-03 0.  1.
         11   -1    0    0    0    0 -0.00000000000E+00 -0.00000000000E+00 -0.45593999997E+02  0.45594000000E+02  0.51100000000E-03 0. -1.
    9900012    2    1    2    0    0  0.13571275739E+02 -0.18176368282E+01 -0.41184215308E+02  0.47787275128E+02  0.20000018620E+02 0.  0.
        -12    1    1    2    0    0 -0.13571275739E+02  0.18176368282E+01  0.41184215308E+02  0.43400724872E+02  0.00000000000E+00 0.  1.
         11    1    3    3    0    0  0.32824858243E+00 -0.14669656140E+01 -0.43038959624E+01  0.45588656441E+01  0.51100000000E-03 0. -1.
        -11    1    3    3    0    0 -0.36019871588E-01 -0.44591813540E+01 -0.23553081657E+02  0.23971509164E+02  0.51100000000E-03 0.  1.
        -12    1    3    3    0    0  0.13279047028E+02  0.41085101397E+01 -0.13327237689E+02  0.19256900320E+02  0.00000000000E+00 0.  1.
</event>
<event>
 7    1  0.2950722E-010  0.4778724E+02  0.7816164E-02  0.1312668E+00
        -11   -1    0    0    0    0  0.00000000000E+00  0.00000000000E+00  0.45593999997E+02  0.45594000000E+02  0.51100000000E-03 0.  1.
         11   -1    0    0    0    0 -0.00000000000E+00 -0.00000000000E+00 -0.45593999997E+02  0.45594000000E+02  0.51100000000E-03 0. -1.
    9900012    2    1    2    0    0  0.15134859949E+02 -0.10544359728E+02 -0.39285850452E+02  0.47787244783E+02  0.19999880261E+02 0.  0.
        -12    1    1    2    0    0 -0.15134859949E+02  0.10544359728E+02  0.39285850452E+02  0.43400755217E+02  0.00000000000E+00 0.  1.
         11    1    3    3    0    0  0.12187291344E+00  0.30612307667E+01 -0.47254502460E+00  0.30998848165E+01  0.51100000000E-03 0.  1.
        -11    1    3    3    0    0  0.58914838315E+01 -0.11280194443E+02 -0.22889173556E+02  0.26189055629E+02  0.51100000000E-03 0. -1.
        -12    1    3    3    0    0  0.91215032036E+01 -0.23253960513E+01 -0.15924131872E+02  0.18498304337E+02  0.00000000000E+00 0.  1.
</event>
<event>
 7    1  0.2950722E-010  0.4778727E+02  0.7816164E-02  0.1312668E+00
        -11   -1    0    0    0    0  0.00000000000E+00  0.00000000000E+00  0.45593999997E+02  0.45594000000E+02  0.51100000000E-03 0.  1.
         11   -1    0    0    0    0 -0.00000000000E+00 -0.00000000000E+00 -0.45593999997E+02  0.45594000000E+02  0.51100000000E-03 0. -1.
    9900012    2    1    2    0    0  0.17365386532E+02 -0.37959519968E+02  0.11880305170E+02  0.47787268940E+02  0.19999990405E+02 0.  0.
        -12    1    1    2    0    0 -0.17365386532E+02  0.37959519968E+02 -0.11880305170E+02  0.43400731060E+02  0.00000000000E+00 0.  1.
         11    1    3    3    0    0  0.35524781661E+01 -0.14727792359E+02  0.69870279989E+01  0.16683720491E+02  0.51100000000E-03 0. -1.
        -11    1    3    3    0    0  0.81095324738E+01 -0.39178500151E+01  0.61821487933E+01  0.10923965839E+02  0.51100000000E-03 0.  1.
        -12    1    3    3    0    0  0.57033758923E+01 -0.19313877594E+02 -0.12888716221E+01  0.20179582610E+02  0.00000000000E+00 0.  1.
</event>
<event>
 7    1  0.2950722E-010  0.4778727E+02  0.7816164E-02  0.1312668E+00
        -11   -1    0    0    0    0  0.00000000000E+00  0.00000000000E+00  0.45593999997E+02  0.45594000000E+02  0.51100000000E-03 0. -1.
         11   -1    0    0    0    0 -0.00000000000E+00 -0.00000000000E+00 -0.45593999997E+02  0.45594000000E+02  0.51100000000E-03 0.  1.
    9900012    2    1    2    0    0 -0.28678153483E+02 -0.28548957801E+02  0.15688959977E+02  0.47787274846E+02  0.20000017332E+02 0.  0.
        -12    1    1    2    0    0  0.28678153483E+02  0.28548957801E+02 -0.15688959977E+02  0.43400725154E+02  0.00000000000E+00 0.  1.
         11    1    3    3    0    0 -0.17367035521E+02 -0.13815485143E+02  0.12435676130E+02  0.25438702671E+02  0.51100000000E-03 0. -1.
        -11    1    3    3    0    0  0.17343189119E+01 -0.33568294001E-01  0.20107295807E+01  0.26555644647E+01  0.51100000000E-03 0.  1.
         12    1    3    3    0    0 -0.13045436874E+02 -0.14699904364E+02  0.12425542662E+01  0.19693007710E+02  0.00000000000E+00 0. -1.
</event>
<event>
 7    1  0.2950722E-010  0.4778727E+02  0.7816164E-02  0.1312668E+00
        -11   -1    0    0    0    0  0.00000000000E+00  0.00000000000E+00  0.45593999997E+02  0.45594000000E+02  0.51100000000E-03 0. -1.
         11   -1    0    0    0    0 -0.00000000000E+00 -0.00000000000E+00 -0.45593999997E+02  0.45594000000E+02  0.51100000000E-03 0.  1.
    9900012    2    1    2    0    0 -0.72290228328E+01  0.41628968781E+02  0.99193461600E+01  0.47787271422E+02  0.20000001721E+02 0.  0.
        -12    1    1    2    0    0  0.72290228328E+01 -0.41628968781E+02 -0.99193461600E+01  0.43400728578E+02  0.00000000000E+00 0.  1.
         11    1    3    3    0    0 -0.28347232641E+01  0.22155186144E+02 -0.33165780428E+01  0.22580691292E+02  0.51100000000E-03 0. -1.
        -11    1    3    3    0    0  0.18165972001E+01  0.13987846335E+01  0.92394817220E+00  0.24719029763E+01  0.51100000000E-03 0.  1.
         12    1    3    3    0    0 -0.62108967689E+01  0.18074998004E+02  0.12311976031E+02  0.22734677154E+02  0.00000000000E+00 0. -1.
</event>
<event>
 7    1  0.2950722E-010  0.4778727E+02  0.7816164E-02  0.1312668E+00
        -11   -1    0    0    0    0  0.00000000000E+00  0.00000000000E+00  0.45593999997E+02  0.45594000000E+02  0.51100000000E-03 0.  1.
         11   -1    0    0    0    0 -0.00000000000E+00 -0.00000000000E+00 -0.45593999997E+02  0.45594000000E+02  0.51100000000E-03 0. -1.
    9900012    2    1    2    0    0  0.41397388916E+01 -0.41130955932E+02 -0.13218558595E+02  0.47787271143E+02  0.20000000448E+02 0.  0.
        -12    1    1    2    0    0 -0.41397388916E+01  0.41130955932E+02  0.13218558595E+02  0.43400728857E+02  0.00000000000E+00 0.  1.
         11    1    3    3    0    0 -0.56842277009E+01 -0.94239116984E+01  0.24533109930E+00  0.11008212564E+02  0.51100000000E-03 0. -1.
        -11    1    3    3    0    0 -0.84296199564E+00 -0.40969327127E+00 -0.11774440306E+01  0.15049279746E+01  0.51100000000E-03 0.  1.
         12    1    3    3    0    0  0.10666928588E+02 -0.31297350963E+02 -0.12286445664E+02  0.35274130604E+02  0.00000000000E+00 0. -1.
</event>
<event>
 7    1  0.2950722E-010  0.4778727E+02  0.7816164E-02  0.1312668E+00
        -11   -1    0    0    0    0  0.00000000000E+00  0.00000000000E+00  0.45593999997E+02  0.45594000000E+02  0.51100000000E-03 0. -1.
         11   -1    0    0    0    0 -0.00000000000E+00 -0.00000000000E+00 -0.45593999997E+02  0.45594000000E+02  0.51100000000E-03 0.  1.
    9900012    2    1    2    0    0 -0.34869878393E+02  0.23249866270E+02  0.11276468974E+02  0.47787268978E+02  0.19999990578E+02 0.  0.
        -12    1    1    2    0    0  0.34869878393E+02 -0.23249866270E+02 -0.11276468974E+02  0.43400731022E+02  0.00000000000E+00 0.  1.
         11    1    3    3    0    0 -0.33861293200E+02  0.23305285469E+02  0.14162358759E+02  0.43477533438E+02  0.51100000000E-03 0. -1.
        -11    1    3    3    0    0 -0.20063365501E+01  0.19903352871E+00 -0.24962835986E+01  0.32088055042E+01  0.51100000000E-03 0.  1.
         12    1    3    3    0    0  0.99775135753E+00 -0.25445272767E+00 -0.38960618654E+00  0.11009300353E+01  0.00000000000E+00 0. -1.
</event>
<event>
 7    1  0.2950722E-010  0.4778726E+02  0.7816164E-02  0.1312668E+00
        -11   -1    0    0    0    0  0.00000000000E+00  0.00000000000E+00  0.45593999997E+02  0.45594000000E+02  0.51100000000E-03 0. -1.
         11   -1    0    0    0    0 -0.00000000000E+00 -0.00000000000E+00 -0.45593999997E+02  0.45594000000E+02  0.51100000000E-03 0.  1.
    9900012    2    1    2    0    0  0.40775587902E+02  0.27683765305E+01 -0.14605208397E+02  0.47787255886E+02  0.19999930885E+02 0.  0.
        -12    1    1    2    0    0 -0.40775587902E+02 -0.27683765305E+01  0.14605208397E+02  0.43400744114E+02  0.00000000000E+00 0.  1.
         11    1    3    3    0    0  0.37323441164E+01 -0.49255159313E+01 -0.23598136571E+00  0.61843986982E+01  0.51100000000E-03 0. -1.
        -11    1    3    3    0    0  0.14090086761E+02  0.71454531049E+01 -0.34122307816E+01  0.16162653377E+02  0.51100000000E-03 0.  1.
         12    1    3    3    0    0  0.22953157024E+02  0.54843935679E+00 -0.10956996250E+02  0.25440203811E+02  0.00000000000E+00 0. -1.
</event>
<event>
 7    1  0.2950722E-010  0.4778727E+02  0.7816164E-02  0.1312668E+00
        -11   -1    0    0    0    0  0.00000000000E+00  0.00000000000E+00  0.45593999997E+02  0.45594000000E+02  0.51100000000E-03 0.  1.
         11   -1    0    0    0    0 -0.00000000000E+00 -0.00000000000E+00 -0.45593999997E+02  0.45594000000E+02  0.51100000000E-03 0. -1.
    9900012    2    1    2    0    0 -0.39888460893E+02  0.16252725557E+02 -0.53275887844E+01  0.47787267256E+02  0.19999982728E+02 0.  0.
        -12    1    1    2    0    0  0.39888460893E+02 -0.16252725557E+02  0.53275887844E+01  0.43400732744E+02  0.00000000000E+00 0.  1.
         11    1    3    3    0    0 -0.27752937604E+02  0.10448491790E+02 -0.28409122425E+01  0.29790389541E+02  0.51100000000E-03 0. -1.
        -11    1    3    3    0    0  0.97449587891E+00 -0.13101585529E+01  0.18458363609E+01  0.24644004918E+01  0.51100000000E-03 0.  1.
        -12    1    3    3    0    0 -0.13110019167E+02  0.71143923201E+01 -0.43325129028E+01  0.15532477224E+02  0.00000000000E+00 0.  1.
</event>
<event>
 7    1  0.2950722E-010  0.4778727E+02  0.7816164E-02  0.1312668E+00
        -11   -1    0    0    0    0  0.00000000000E+00  0.00000000000E+00  0.45593999997E+02  0.45594000000E+02  0.51100000000E-03 0. -1.
         11   -1    0    0    0    0 -0.00000000000E+00 -0.00000000000E+00 -0.45593999997E+02  0.45594000000E+02  0.51100000000E-03 0.  1.
    9900012    2    1    2    0    0  0.39800285938E+02 -0.21353208336E+01  0.17175594378E+02  0.47787269614E+02  0.19999993480E+02 0.  0.
        -12    1    1    2    0    0 -0.39800285938E+02  0.21353208336E+01 -0.17175594378E+02  0.43400730386E+02  0.00000000000E+00 0.  1.
         11    1    3    3    0    0  0.34030845528E+02 -0.40453358834E+00  0.19214031903E+02  0.39082491183E+02  0.51100000000E-03 0. -1.
        -11    1    3    3    0    0  0.45683672801E+01 -0.18082410440E+01 -0.40455604778E+01  0.63644540316E+01  0.51100000000E-03 0.  1.
        -12    1    3    3    0    0  0.12010731292E+01  0.77453798773E-01  0.20071229522E+01  0.23403244001E+01  0.00000000000E+00 0.  1.
</event>
<event>
 7    1  0.2950722E-010  0.4778727E+02  0.7816164E-02  0.1312668E+00
        -11   -1    0    0    0    0  0.00000000000E+00  0.00000000000E+00  0.45593999997E+02  0.45594000000E+02  0.51100000000E-03 0.  1.
         11   -1    0    0    0    0 -0.00000000000E+00 -0.00000000000E+00 -0.45593999997E+02  0.45594000000E+02  0.51100000000E-03 0. -1.
    9900012    2    1    2    0    0  0.40044232378E+02 -0.15909987784E+02  0.51918149246E+01  0.47787271892E+02  0.20000003866E+02 0.  0.
        -12    1    1    2    0    0 -0.40044232378E+02  0.15909987784E+02 -0.51918149246E+01  0.43400728108E+02  0.00000000000E+00 0.  1.
         11    1    3    3    0    0  0.16001184041E+02 -0.58906900200E+01  0.82017804019E+01  0.18921081408E+02  0.51100000000E-03 0. -1.
        -11    1    3    3    0    0  0.21350311722E+02 -0.73306541521E+01 -0.67189003601E+01  0.23552450472E+02  0.51100000000E-03 0.  1.
        -12    1    3    3    0    0  0.26927366145E+01 -0.26886436123E+01  0.37089348829E+01  0.53137400120E+01  0.00000000000E+00 0.  1.
</event>
<event>
 7    1  0.2950722E-010  0.4778727E+02  0.7816164E-02  0.1312668E+00
        -11   -1    0    0    0    0  0.00000000000E+00  0.00000000000E+00  0.45593999997E+02  0.45594000000E+02  0.51100000000E-03 0.  1.
         11   -1    0    0    0    0 -0.00000000000E+00 -0.00000000000E+00 -0.45593999997E+02  0.45594000000E+02  0.51100000000E-03 0. -1.
    9900012    2    1    2    0    0  0.97669491793E+01  0.93282256173E+01 -0.41245778040E+02  0.47787270794E+02  0.19999998860E+02 0.  0.
        -12    1    1    2    0    0 -0.97669491793E+01 -0.93282256173E+01  0.41245778040E+02  0.43400729206E+02  0.00000000000E+00 0.  1.
         11    1    3    3    0    0  0.85622095626E+01  0.12250898545E+02 -0.17438548923E+02  0.22967345005E+02  0.51100000000E-03 0.  1.
        -11    1    3    3    0    0  0.81338995443E+00 -0.48644355185E+01 -0.14897587074E+02  0.15692751098E+02  0.51100000000E-03 0. -1.
        -12    1    3    3    0    0  0.39134966226E+00  0.19417625904E+01 -0.89096420432E+01  0.91271746917E+01  0.00000000000E+00 0.  1.
</event>
<event>
 7    1  0.2950722E-010  0.4778727E+02  0.7816164E-02  0.1312668E+00
        -11   -1    0    0    0    0  0.00000000000E+00  0.00000000000E+00  0.45593999997E+02  0.45594000000E+02  0.51100000000E-03 0.  1.
         11   -1    0    0    0    0 -0.00000000000E+00 -0.00000000000E+00 -0.45593999997E+02  0.45594000000E+02  0.51100000000E-03 0. -1.
    9900012    2    1    2    0    0  0.27147978902E+02 -0.33801336771E+02 -0.20198967155E+01  0.47787272947E+02  0.20000008676E+02 0.  0.
        -12    1    1    2    0    0 -0.27147978902E+02  0.33801336771E+02  0.20198967155E+01  0.43400727053E+02  0.00000000000E+00 0.  1.
         11    1    3    3    0    0  0.85959306894E+01 -0.32554034824E+01 -0.14440629462E+01  0.93044609894E+01  0.51100000000E-03 0. -1.
        -11    1    3    3    0    0  0.27209951472E+01 -0.15935582745E+02  0.35431640311E+01  0.16549943312E+02  0.51100000000E-03 0.  1.
        -12    1    3    3    0    0  0.15831053065E+02 -0.14610350543E+02 -0.41189978005E+01  0.21932868646E+02  0.00000000000E+00 0.  1.
</event>
<event>
 7    1  0.2950722E-010  0.4778728E+02  0.7816164E-02  0.1312668E+00
        -11   -1    0    0    0    0  0.00000000000E+00  0.00000000000E+00  0.45593999997E+02  0.45594000000E+02  0.51100000000E-03 0. -1.
         11   -1    0    0    0    0 -0.00000000000E+00 -0.00000000000E+00 -0.45593999997E+02  0.45594000000E+02  0.51100000000E-03 0.  1.
    9900012    2    1    2    0    0  0.23282536473E+02 -0.25650933442E+02  0.26145282399E+02  0.47787277855E+02  0.20000031050E+02 0.  0.
        -12    1    1    2    0    0 -0.23282536473E+02  0.25650933442E+02 -0.26145282399E+02  0.43400722145E+02  0.00000000000E+00 0.  1.
         11    1    3    3    0    0  0.68514530461E+01 -0.13317580544E+02  0.16145664686E+02  0.22022326144E+02  0.51100000000E-03 0. -1.
        -11    1    3    3    0    0  0.73029075389E+01 -0.22008860863E+01 -0.16790421947E+01  0.78099642150E+01  0.51100000000E-03 0.  1.
        -12    1    3    3    0    0  0.91281758878E+01 -0.10132466812E+02  0.11678659907E+02  0.17954987495E+02  0.00000000000E+00 0.  1.
</event>
<event>
 7    1  0.2950722E-010  0.4778728E+02  0.7816164E-02  0.1312668E+00
        -11   -1    0    0    0    0  0.00000000000E+00  0.00000000000E+00  0.45593999997E+02  0.45594000000E+02  0.51100000000E-03 0.  1.
         11   -1    0    0    0    0 -0.00000000000E+00 -0.00000000000E+00 -0.45593999997E+02  0.45594000000E+02  0.51100000000E-03 0. -1.
    9900012    2    1    2    0    0  0.29525910724E+02  0.31800342457E+02 -0.76252104495E+00  0.47787278545E+02  0.20000034198E+02 0.  0.
        -12    1    1    2    0    0 -0.29525910724E+02 -0.31800342457E+02  0.76252104495E+00  0.43400721455E+02  0.00000000000E+00 0.  1.
         11    1    3    3    0    0  0.10281786812E+02  0.24265476789E+02 -0.21440107293E+01  0.26440977405E+02  0.51100000000E-03 0. -1.
        -11    1    3    3    0    0  0.89050279350E+01  0.12633629507E+01 -0.90469364682E+00  0.90395840239E+01  0.51100000000E-03 0.  1.
         12    1    3    3    0    0  0.10339095977E+02  0.62715027169E+01  0.22861833312E+01  0.12306717116E+02  0.00000000000E+00 0. -1.
</event>
<event>
 7    1  0.2950722E-010  0.4778727E+02  0.7816164E-02  0.1312668E+00
        -11   -1    0    0    0    0  0.00000000000E+00  0.00000000000E+00  0.45593999997E+02  0.45594000000E+02  0.51100000000E-03 0.  1.
         11   -1    0    0    0    0 -0.00000000000E+00 -0.00000000000E+00 -0.45593999997E+02  0.45594000000E+02  0.51100000000E-03 0. -1.
    9900012    2    1    2    0    0  0.23993000305E+01  0.32595717646E+02 -0.28554958050E+02  0.47787273292E+02  0.20000010250E+02 0.  0.
        -12    1    1    2    0    0 -0.23993000305E+01 -0.32595717646E+02  0.28554958050E+02  0.43400726708E+02  0.00000000000E+00 0.  1.
         11    1    3    3    0    0  0.47398010343E+01  0.12982798349E+02 -0.13168749457E+02  0.19090173633E+02  0.51100000000E-03 0. -1.
        -11    1    3    3    0    0 -0.15096665047E+01  0.12013856391E+02 -0.68559981057E+00  0.12127732092E+02  0.51100000000E-03 0.  1.
        -12    1    3    3    0    0 -0.83083449899E+00  0.75990629070E+01 -0.14700608782E+02  0.16569367568E+02  0.00000000000E+00 0.  1.
</event>
<event>
 7    1  0.2950722E-010  0.4778727E+02  0.7816164E-02  0.1312668E+00
        -11   -1    0    0    0    0  0.00000000000E+00  0.00000000000E+00  0.45593999997E+02  0.45594000000E+02  0.51100000000E-03 0. -1.
         11   -1    0    0    0    0 -0.00000000000E+00 -0.00000000000E+00 -0.45593999997E+02  0.45594000000E+02  0.51100000000E-03 0.  1.
    9900012    2    1    2    0    0  0.16996613107E+02 -0.17203516050E+02  0.36038556337E+02  0.47787270001E+02  0.19999995242E+02 0.  0.
        -12    1    1    2    0    0 -0.16996613107E+02  0.17203516050E+02 -0.36038556337E+02  0.43400729999E+02  0.00000000000E+00 0.  1.
         11    1    3    3    0    0  0.73932114932E+01 -0.14341104375E+02  0.23091443962E+02  0.28169871058E+02  0.51100000000E-03 0. -1.
        -11    1    3    3    0    0  0.13894137755E+01 -0.56599728174E+01  0.35378425233E+01  0.68177777108E+01  0.51100000000E-03 0.  1.
         12    1    3    3    0    0  0.82139878379E+01  0.27975611424E+01  0.94092698516E+01  0.12799621232E+02  0.00000000000E+00 0. -1.
</event>
<event>
 7    1  0.2950722E-010  0.4778727E+02  0.7816164E-02  0.1312668E+00
        -11   -1    0    0    0    0  0.00000000000E+00  0.00000000000E+00  0.45593999997E+02  0.45594000000E+02  0.51100000000E-03 0.  1.
         11   -1    0    0    0    0 -0.00000000000E+00 -0.00000000000E+00 -0.45593999997E+02  0.45594000000E+02  0.51100000000E-03 0. -1.
    9900012    2    1    2    0    0  0.28146309883E+02  0.33023719253E+02  0.91799499371E+00  0.47787268345E+02  0.19999987693E+02 0.  0.
        -12    1    1    2    0    0 -0.28146309883E+02 -0.33023719253E+02 -0.91799499371E+00  0.43400731655E+02  0.00000000000E+00 0.  1.
         11    1    3    3    0    0  0.14557363087E+01  0.52960986984E+01 -0.75781246892E+00  0.55445567563E+01  0.51100000000E-03 0. -1.
        -11    1    3    3    0    0  0.10095592290E+02  0.91381837284E+01 -0.76700199205E+01  0.15628710484E+02  0.51100000000E-03 0.  1.
        -12    1    3    3    0    0  0.16594981284E+02  0.18589436826E+02  0.93458273831E+01  0.26614001105E+02  0.00000000000E+00 0.  1.
</event>
<event>
 7    1  0.2950722E-010  0.4778726E+02  0.7816164E-02  0.1312668E+00
        -11   -1    0    0    0    0  0.00000000000E+00  0.00000000000E+00  0.45593999997E+02  0.45594000000E+02  0.51100000000E-03 0.  1.
         11   -1    0    0    0    0 -0.00000000000E+00 -0.00000000000E+00 -0.45593999997E+02  0.45594000000E+02  0.51100000000E-03 0. -1.
    9900012    2    1    2    0    0  0.14677047521E+02 -0.16174437634E+02 -0.37504609649E+02  0.47787263812E+02  0.19999967024E+02 0.  0.
        -12    1    1    2    0    0 -0.14677047521E+02  0.16174437634E+02  0.37504609649E+02  0.43400736188E+02  0.00000000000E+00 0.  1.
         11    1    3    3    0    0  0.10224736053E+02 -0.10064052877E+02 -0.29930708183E+02  0.33191530249E+02  0.51100000000E-03 0. -1.
        -11    1    3    3    0    0  0.33798537613E+01 -0.10145153912E+01  0.17326946980E+01  0.39312700370E+01  0.51100000000E-03 0.  1.
        -12    1    3    3    0    0  0.10724577069E+01 -0.50958693657E+01 -0.93065961648E+01  0.10664463526E+02  0.00000000000E+00 0.  1.
</event>
<event>
 7    1  0.2950722E-010  0.4778726E+02  0.7816164E-02  0.1312668E+00
        -11   -1    0    0    0    0  0.00000000000E+00  0.00000000000E+00  0.45593999997E+02  0.45594000000E+02  0.51100000000E-03 0. -1.
         11   -1    0    0    0    0 -0.00000000000E+00 -0.00000000000E+00 -0.45593999997E+02  0.45594000000E+02  0.51100000000E-03 0.  1.
    9900012    2    1    2    0    0 -0.40630958453E+02 -0.60378508470E+00  0.15244168829E+02  0.47787262397E+02  0.19999960571E+02 0.  0.
        -12    1    1    2    0    0  0.40630958453E+02  0.60378508470E+00 -0.15244168829E+02  0.43400737603E+02  0.00000000000E+00 0.  1.
         11    1    3    3    0    0 -0.64500678952E+01  0.64246581738E+01  0.45770883995E+01  0.10189668639E+02  0.51100000000E-03 0. -1.
        -11    1    3    3    0    0 -0.45046862144E+01  0.80802489768E+00 -0.11317995856E+01  0.47144535938E+01  0.51100000000E-03 0.  1.
         12    1    3    3    0    0 -0.29676204343E+02 -0.78364681562E+01  0.11798880015E+02  0.32883140163E+02  0.00000000000E+00 0. -1.
</event>
<event>
 7    1  0.2950722E-010  0.4778727E+02  0.7816164E-02  0.1312668E+00
        -11   -1    0    0    0    0  0.00000000000E+00  0.00000000000E+00  0.45593999997E+02  0.45594000000E+02  0.51100000000E-03 0. -1.
         11   -1    0    0    0    0 -0.00000000000E+00 -0.00000000000E+00 -0.45593999997E+02  0.45594000000E+02  0.51100000000E-03 0.  1.
    9900012    2    1    2    0    0  0.35211170887E+02 -0.60221979037E+01  0.24648120638E+02  0.47787271045E+02  0.20000000004E+02 0.  0.
        -12    1    1    2    0    0 -0.35211170887E+02  0.60221979037E+01 -0.24648120638E+02  0.43400728955E+02  0.00000000000E+00 0.  1.
         11    1    3    3    0    0  0.95384318812E+01 -0.70437618978E+01  0.16028239121E+02  0.19937419943E+02  0.51100000000E-03 0. -1.
        -11    1    3    3    0    0  0.13031874667E+02  0.83743721195E+00  0.77328574628E+01  0.15176565594E+02  0.51100000000E-03 0.  1.
         12    1    3    3    0    0  0.12640864339E+02  0.18412678217E+00  0.88702405473E+00  0.12673285508E+02  0.00000000000E+00 0. -1.
</event>
<event>
 7    1  0.2950722E-010  0.4778730E+02  0.7816164E-02  0.1312668E+00
        -11   -1    0    0    0    0  0.00000000000E+00  0.00000000000E+00  0.45593999997E+02  0.45594000000E+02  0.51100000000E-03 0.  1.
         11   -1    0    0    0    0 -0.00000000000E+00 -0.00000000000E+00 -0.45593999997E+02  0.45594000000E+02  0.51100000000E-03 0. -1.
    9900012    2    1    2    0    0  0.28531970525E+02  0.10763858267E+02 -0.30881821969E+02  0.47787298221E+02  0.20000123908E+02 0.  0.
        -12    1    1    2    0    0 -0.28531970525E+02 -0.10763858267E+02  0.30881821969E+02  0.43400701779E+02  0.00000000000E+00 0.  1.
         11    1    3    3    0    0  0.76225387896E+01  0.71296870374E+01 -0.21416369605E+02  0.23824282196E+02  0.51100000000E-03 0. -1.
        -11    1    3    3    0    0  0.16573252357E+02  0.13983879639E+01 -0.50472853686E+01  0.17381118273E+02  0.51100000000E-03 0.  1.
        -12    1    3    3    0    0  0.43361793783E+01  0.22357832656E+01 -0.44181669951E+01  0.65818977512E+01  0.00000000000E+00 0.  1.
</event>
<event>
 7    1  0.2950722E-010  0.4778727E+02  0.7816164E-02  0.1312668E+00
        -11   -1    0    0    0    0  0.00000000000E+00  0.00000000000E+00  0.45593999997E+02  0.45594000000E+02  0.51100000000E-03 0.  1.
         11   -1    0    0    0    0 -0.00000000000E+00 -0.00000000000E+00 -0.45593999997E+02  0.45594000000E+02  0.51100000000E-03 0. -1.
    9900012    2    1    2    0    0 -0.19427885409E+01 -0.17149124317E+02 -0.39821558621E+02  0.47787269325E+02  0.19999992158E+02 0.  0.
        -12    1    1    2    0    0  0.19427885409E+01  0.17149124317E+02  0.39821558621E+02  0.43400730675E+02  0.00000000000E+00 0.  1.
         11    1    3    3    0    0 -0.50293201082E+00 -0.12494237296E+02 -0.67424755419E+01  0.14206332494E+02  0.51100000000E-03 0. -1.
        -11    1    3    3    0    0 -0.42819796134E+00 -0.91546915028E-01 -0.11180687480E+02  0.11189258560E+02  0.51100000000E-03 0.  1.
         12    1    3    3    0    0 -0.10116585688E+01 -0.45633401058E+01 -0.21898395599E+02  0.22391678271E+02  0.00000000000E+00 0. -1.
</event>
<event>
 7    1  0.2950722E-010  0.4778728E+02  0.7816164E-02  0.1312668E+00
        -11   -1    0    0    0    0  0.00000000000E+00  0.00000000000E+00  0.45593999997E+02  0.45594000000E+02  0.51100000000E-03 0.  1.
         11   -1    0    0    0    0 -0.00000000000E+00 -0.00000000000E+00 -0.45593999997E+02  0.45594000000E+02  0.51100000000E-03 0. -1.
    9900012    2    1    2    0    0  0.39812994209E+02  0.28496115458E+01 -0.17041939983E+02  0.47787279819E+02  0.20000040009E+02 0.  0.
        -12    1    1    2    0    0 -0.39812994209E+02 -0.28496115458E+01  0.17041939983E+02  0.43400720181E+02  0.00000000000E+00 0.  1.
         11    1    3    3    0    0  0.31155268607E+02  0.58542827415E+01 -0.49938756478E+01  0.32091465885E+02  0.51100000000E-03 0. -1.
        -11    1    3    3    0    0  0.39762748848E+01 -0.31729694538E+01 -0.81223499613E+01  0.95838961947E+01  0.51100000000E-03 0.  1.
         12    1    3    3    0    0  0.46814507167E+01  0.16829825817E+00 -0.39257143734E+01  0.61119177398E+01  0.00000000000E+00 0. -1.
</event>
<event>
 7    1  0.2950722E-010  0.4778727E+02  0.7816164E-02  0.1312668E+00
        -11   -1    0    0    0    0  0.00000000000E+00  0.00000000000E+00  0.45593999997E+02  0.45594000000E+02  0.51100000000E-03 0.  1.
         11   -1    0    0    0    0 -0.00000000000E+00 -0.00000000000E+00 -0.45593999997E+02  0.45594000000E+02  0.51100000000E-03 0. -1.
    9900012    2    1    2    0    0  0.52934605077E+01 -0.97349531400E+01 -0.41962285333E+02  0.47787269279E+02  0.19999991949E+02 0.  0.
        -12    1    1    2    0    0 -0.52934605077E+01  0.97349531400E+01  0.41962285333E+02  0.43400730721E+02  0.00000000000E+00 0.  1.
         11    1    3    3    0    0  0.26248370661E+01 -0.48069662508E+01 -0.24527113137E+02  0.25131175326E+02  0.51100000000E-03 0. -1.
        -11    1    3    3    0    0  0.45231460264E+01  0.20468251059E+01 -0.15381911258E+01  0.51975354920E+01  0.51100000000E-03 0.  1.
         12    1    3    3    0    0 -0.18545225849E+01 -0.69748119951E+01 -0.15896981070E+02  0.17458558461E+02  0.00000000000E+00 0. -1.
</event>
<event>
 7    1  0.2950722E-010  0.4778727E+02  0.7816164E-02  0.1312668E+00
        -11   -1    0    0    0    0  0.00000000000E+00  0.00000000000E+00  0.45593999997E+02  0.45594000000E+02  0.51100000000E-03 0.  1.
         11   -1    0    0    0    0 -0.00000000000E+00 -0.00000000000E+00 -0.45593999997E+02  0.45594000000E+02  0.51100000000E-03 0. -1.
    9900012    2    1    2    0    0  0.10419006285E+01 -0.11816356250E+02 -0.41748188212E+02  0.47787273612E+02  0.20000011708E+02 0.  0.
        -12    1    1    2    0    0 -0.10419006285E+01  0.11816356250E+02  0.41748188212E+02  0.43400726388E+02  0.00000000000E+00 0.  1.
         11    1    3    3    0    0  0.56362702522E+00  0.19725423164E+01  0.86016836358E-01  0.20532895000E+01  0.51100000000E-03 0.  1.
        -11    1    3    3    0    0  0.41872636709E+01 -0.72300233846E+01 -0.33377880421E+02  0.34407692699E+02  0.51100000000E-03 0. -1.
         12    1    3    3    0    0 -0.37089900676E+01 -0.65588751822E+01 -0.84563246278E+01  0.11326291414E+02  0.00000000000E+00 0. -1.
</event>
<event>
 7    1  0.2950722E-010  0.4778727E+02  0.7816164E-02  0.1312668E+00
        -11   -1    0    0    0    0  0.00000000000E+00  0.00000000000E+00  0.45593999997E+02  0.45594000000E+02  0.51100000000E-03 0.  1.
         11   -1    0    0    0    0 -0.00000000000E+00 -0.00000000000E+00 -0.45593999997E+02  0.45594000000E+02  0.51100000000E-03 0. -1.
    9900012    2    1    2    0    0 -0.23664310507E+02  0.76353776025E+00 -0.36373629025E+02  0.47787268783E+02  0.19999989691E+02 0.  0.
        -12    1    1    2    0    0  0.23664310507E+02 -0.76353776025E+00  0.36373629025E+02  0.43400731217E+02  0.00000000000E+00 0.  1.
         11    1    3    3    0    0 -0.20572349051E+02 -0.34515435809E+01 -0.26778125376E+02  0.33944111381E+02  0.51100000000E-03 0. -1.
        -11    1    3    3    0    0 -0.14713927529E+01  0.29419879004E+01  0.68343290040E+00  0.33596681726E+01  0.51100000000E-03 0.  1.
         12    1    3    3    0    0 -0.16205687029E+01  0.12730934408E+01 -0.10278936550E+02  0.10483489230E+02  0.00000000000E+00 0. -1.
</event>
<event>
 7    1  0.2950722E-010  0.4778727E+02  0.7816164E-02  0.1312668E+00
        -11   -1    0    0    0    0  0.00000000000E+00  0.00000000000E+00  0.45593999997E+02  0.45594000000E+02  0.51100000000E-03 0.  1.
         11   -1    0    0    0    0 -0.00000000000E+00 -0.00000000000E+00 -0.45593999997E+02  0.45594000000E+02  0.51100000000E-03 0. -1.
    9900012    2    1    2    0    0 -0.93742329407E+01 -0.21958079390E+02 -0.36243478284E+02  0.47787271759E+02  0.20000003257E+02 0.  0.
        -12    1    1    2    0    0  0.93742329407E+01  0.21958079390E+02  0.36243478284E+02  0.43400728241E+02  0.00000000000E+00 0.  1.
         11    1    3    3    0    0 -0.10304853918E+02 -0.59092610789E+01 -0.25747216218E+02  0.28355396735E+02  0.51100000000E-03 0. -1.
        -11    1    3    3    0    0 -0.14231818335E+00 -0.14246814542E+02 -0.89369593878E+01  0.16818478600E+02  0.51100000000E-03 0.  1.
         12    1    3    3    0    0  0.10729391602E+01 -0.18020037688E+01 -0.15593026784E+01  0.26133964237E+01  0.00000000000E+00 0. -1.
</event>
<event>
 7    1  0.2950722E-010  0.4778728E+02  0.7816164E-02  0.1312668E+00
        -11   -1    0    0    0    0  0.00000000000E+00  0.00000000000E+00  0.45593999997E+02  0.45594000000E+02  0.51100000000E-03 0. -1.
         11   -1    0    0    0    0 -0.00000000000E+00 -0.00000000000E+00 -0.45593999997E+02  0.45594000000E+02  0.51100000000E-03 0.  1.
    9900012    2    1    2    0    0  0.25309973958E+02 -0.26274606248E+02  0.23508997656E+02  0.47787277817E+02  0.20000030879E+02 0.  0.
        -12    1    1    2    0    0 -0.25309973958E+02  0.26274606248E+02 -0.23508997656E+02  0.43400722183E+02  0.00000000000E+00 0.  1.
         11    1    3    3    0    0  0.10009321959E+02 -0.28080562850E+00  0.30491831508E+01  0.10467229626E+02  0.51100000000E-03 0. -1.
        -11    1    3    3    0    0  0.46464072309E+01 -0.13164847402E+02  0.58046546938E+01  0.15119402225E+02  0.51100000000E-03 0.  1.
        -12    1    3    3    0    0  0.10654244767E+02 -0.12828953218E+02  0.14655159811E+02  0.22200645966E+02  0.00000000000E+00 0.  1.
</event>
<event>
 7    1  0.2950722E-010  0.4778728E+02  0.7816164E-02  0.1312668E+00
        -11   -1    0    0    0    0  0.00000000000E+00  0.00000000000E+00  0.45593999997E+02  0.45594000000E+02  0.51100000000E-03 0.  1.
         11   -1    0    0    0    0 -0.00000000000E+00 -0.00000000000E+00 -0.45593999997E+02  0.45594000000E+02  0.51100000000E-03 0. -1.
    9900012    2    1    2    0    0  0.14773773227E+02 -0.78291853646E+00 -0.40801287713E+02  0.47787280930E+02  0.20000045071E+02 0.  0.
        -12    1    1    2    0    0 -0.14773773227E+02  0.78291853646E+00  0.40801287713E+02  0.43400719070E+02  0.00000000000E+00 0.  1.
         11    1    3    3    0    0  0.94341549071E+01  0.48931083218E+01 -0.27155278489E+02  0.29160845975E+02  0.51100000000E-03 0. -1.
        -11    1    3    3    0    0  0.34071078770E+01 -0.85547774819E+01 -0.10074253279E+02  0.13648559676E+02  0.51100000000E-03 0.  1.
         12    1    3    3    0    0  0.19325104434E+01  0.28787506235E+01 -0.35717559441E+01  0.49778752788E+01  0.00000000000E+00 0. -1.
</event>
<event>
 7    1  0.2950722E-010  0.4778727E+02  0.7816164E-02  0.1312668E+00
        -11   -1    0    0    0    0  0.00000000000E+00  0.00000000000E+00  0.45593999997E+02  0.45594000000E+02  0.51100000000E-03 0. -1.
         11   -1    0    0    0    0 -0.00000000000E+00 -0.00000000000E+00 -0.45593999997E+02  0.45594000000E+02  0.51100000000E-03 0.  1.
    9900012    2    1    2    0    0  0.26448302585E+02 -0.91095368801E+00  0.34398849165E+02  0.47787269936E+02  0.19999994946E+02 0.  0.
        -12    1    1    2    0    0 -0.26448302585E+02  0.91095368801E+00 -0.34398849165E+02  0.43400730064E+02  0.00000000000E+00 0.  1.
         11    1    3    3    0    0  0.30236057442E+01 -0.25492719912E+01  0.13464665084E+02  0.14033466623E+02  0.51100000000E-03 0. -1.
        -11    1    3    3    0    0  0.94286932840E+01  0.22466318608E+00  0.11831374370E+01  0.95052903715E+01  0.51100000000E-03 0.  1.
         12    1    3    3    0    0  0.13996003557E+02  0.14136551171E+01  0.19751046644E+02  0.24248512941E+02  0.00000000000E+00 0. -1.
</event>
<event>
 7    1  0.2950722E-010  0.4778727E+02  0.7816164E-02  0.1312668E+00
        -11   -1    0    0    0    0  0.00000000000E+00  0.00000000000E+00  0.45593999997E+02  0.45594000000E+02  0.51100000000E-03 0. -1.
         11   -1    0    0    0    0 -0.00000000000E+00 -0.00000000000E+00 -0.45593999997E+02  0.45594000000E+02  0.51100000000E-03 0.  1.
    9900012    2    1    2    0    0 -0.29070093542E+02  0.32225457897E+02 -0.26932587674E+00  0.47787274065E+02  0.20000013774E+02 0.  0.
        -12    1    1    2    0    0  0.29070093542E+02 -0.32225457897E+02  0.26932587674E+00  0.43400725935E+02  0.00000000000E+00 0.  1.
         11    1    3    3    0    0 -0.13679725599E+02  0.13658657264E+02  0.61305820816E+01  0.20279986382E+02  0.51100000000E-03 0. -1.
        -11    1    3    3    0    0 -0.88981086116E+01  0.81570728414E+01 -0.88865446319E+01  0.14989491318E+02  0.51100000000E-03 0.  1.
         12    1    3    3    0    0 -0.64922593319E+01  0.10409727791E+02  0.24866366736E+01  0.12517796366E+02  0.00000000000E+00 0. -1.
</event>
<event>
 7    1  0.2950722E-010  0.4778728E+02  0.7816164E-02  0.1312668E+00
        -11   -1    0    0    0    0  0.00000000000E+00  0.00000000000E+00  0.45593999997E+02  0.45594000000E+02  0.51100000000E-03 0.  1.
         11   -1    0    0    0    0 -0.00000000000E+00 -0.00000000000E+00 -0.45593999997E+02  0.45594000000E+02  0.51100000000E-03 0. -1.
    9900012    2    1    2    0    0  0.75517905939E+01 -0.41634400661E+02 -0.96524429650E+01  0.47787279790E+02  0.20000039875E+02 0.  0.
        -12    1    1    2    0    0 -0.75517905939E+01  0.41634400661E+02  0.96524429650E+01  0.43400720210E+02  0.00000000000E+00 0.  1.
         11    1    3    3    0    0  0.15656549576E+01 -0.38580380713E+01 -0.73459308708E+01  0.84438399929E+01  0.51100000000E-03 0. -1.
        -11    1    3    3    0    0  0.48314561367E+01 -0.82889787548E+01 -0.21538266133E+01  0.98330619107E+01  0.51100000000E-03 0.  1.
         12    1    3    3    0    0  0.11546794997E+01 -0.29487383834E+02 -0.15268548091E+00  0.29510377887E+02  0.00000000000E+00 0. -1.
</event>
<event>
 7    1  0.2950722E-010  0.4778728E+02  0.7816164E-02  0.1312668E+00
        -11   -1    0    0    0    0  0.00000000000E+00  0.00000000000E+00  0.45593999997E+02  0.45594000000E+02  0.51100000000E-03 0. -1.
         11   -1    0    0    0    0 -0.00000000000E+00 -0.00000000000E+00 -0.45593999997E+02  0.45594000000E+02  0.51100000000E-03 0.  1.
    9900012    2    1    2    0    0 -0.22618506096E+02  0.13552378780E+02  0.34472584877E+02  0.47787275389E+02  0.20000019810E+02 0.  0.
        -12    1    1    2    0    0  0.22618506096E+02 -0.13552378780E+02 -0.34472584877E+02  0.43400724611E+02  0.00000000000E+00 0.  1.
         11    1    3    3    0    0 -0.15220282963E+02  0.60551990235E+01  0.98474778665E+01  0.19112699162E+02  0.51100000000E-03 0. -1.
        -11    1    3    3    0    0 -0.67814713342E+01  0.78143782038E+00  0.17869160476E+02  0.19128666836E+02  0.51100000000E-03 0.  1.
         12    1    3    3    0    0 -0.61675179955E+00  0.67157419363E+01  0.67559465342E+01  0.95459093915E+01  0.00000000000E+00 0. -1.
</event>
<event>
 7    1  0.2950722E-010  0.4778727E+02  0.7816164E-02  0.1312668E+00
        -11   -1    0    0    0    0  0.00000000000E+00  0.00000000000E+00  0.45593999997E+02  0.45594000000E+02  0.51100000000E-03 0.  1.
         11   -1    0    0    0    0 -0.00000000000E+00 -0.00000000000E+00 -0.45593999997E+02  0.45594000000E+02  0.51100000000E-03 0. -1.
    9900012    2    1    2    0    0 -0.32859471086E+02  0.13926534870E+02 -0.24696762053E+02  0.47787271096E+02  0.20000000234E+02 0.  0.
        -12    1    1    2    0    0  0.32859471086E+02 -0.13926534870E+02  0.24696762053E+02  0.43400728904E+02  0.00000000000E+00 0.  1.
         11    1    3    3    0    0 -0.13663957732E+01  0.55623997805E+01 -0.62670724515E+01  0.84902017703E+01  0.51100000000E-03 0. -1.
        -11    1    3    3    0    0 -0.23305274151E+02  0.26796511969E+01 -0.77916139923E+01  0.24718931665E+02  0.51100000000E-03 0.  1.
        -12    1    3    3    0    0 -0.81878011618E+01  0.56844838923E+01 -0.10638075609E+02  0.14578137660E+02  0.00000000000E+00 0.  1.
</event>
<event>
 7    1  0.2950722E-010  0.4778727E+02  0.7816164E-02  0.1312668E+00
        -11   -1    0    0    0    0  0.00000000000E+00  0.00000000000E+00  0.45593999997E+02  0.45594000000E+02  0.51100000000E-03 0. -1.
         11   -1    0    0    0    0 -0.00000000000E+00 -0.00000000000E+00 -0.45593999997E+02  0.45594000000E+02  0.51100000000E-03 0.  1.
    9900012    2    1    2    0    0  0.37091511370E+02  0.20382606709E+01  0.22443004345E+02  0.47787272284E+02  0.20000005651E+02 0.  0.
        -12    1    1    2    0    0 -0.37091511370E+02 -0.20382606709E+01 -0.22443004345E+02  0.43400727716E+02  0.00000000000E+00 0.  1.
         11    1    3    3    0    0  0.66193146067E+01 -0.44482293283E+01  0.10970128732E+02  0.13562661785E+02  0.51100000000E-03 0. -1.
        -11    1    3    3    0    0  0.65598077665E+01  0.46324437192E+01  0.11470389445E+01  0.81121089333E+01  0.51100000000E-03 0.  1.
         12    1    3    3    0    0  0.23912388997E+02  0.18540462800E+01  0.10325836668E+02  0.26112501566E+02  0.00000000000E+00 0. -1.
</event>
<event>
 7    1  0.2950722E-010  0.4778727E+02  0.7816164E-02  0.1312668E+00
        -11   -1    0    0    0    0  0.00000000000E+00  0.00000000000E+00  0.45593999997E+02  0.45594000000E+02  0.51100000000E-03 0. -1.
         11   -1    0    0    0    0 -0.00000000000E+00 -0.00000000000E+00 -0.45593999997E+02  0.45594000000E+02  0.51100000000E-03 0.  1.
    9900012    2    1    2    0    0  0.17261286531E+02 -0.32074189378E+02  0.23599107042E+02  0.47787268553E+02  0.19999988641E+02 0.  0.
        -12    1    1    2    0    0 -0.17261286531E+02  0.32074189378E+02 -0.23599107042E+02  0.43400731447E+02  0.00000000000E+00 0.  1.
         11    1    3    3    0    0  0.15307326211E+02 -0.29684687691E+02  0.20285729666E+02  0.39076920905E+02  0.51100000000E-03 0. -1.
        -11    1    3    3    0    0 -0.24652726772E+01 -0.63195714931E+00  0.30143906222E+01  0.39450589725E+01  0.51100000000E-03 0.  1.
         12    1    3    3    0    0  0.44192329969E+01 -0.17575445375E+01  0.29898675298E+00  0.47652886755E+01  0.00000000000E+00 0. -1.
</event>
<event>
 7    1  0.2950722E-010  0.4778727E+02  0.7816164E-02  0.1312668E+00
        -11   -1    0    0    0    0  0.00000000000E+00  0.00000000000E+00  0.45593999997E+02  0.45594000000E+02  0.51100000000E-03 0.  1.
         11   -1    0    0    0    0 -0.00000000000E+00 -0.00000000000E+00 -0.45593999997E+02  0.45594000000E+02  0.51100000000E-03 0. -1.
    9900012    2    1    2    0    0  0.33973814518E+02  0.24382730754E+02 -0.11614013707E+02  0.47787274818E+02  0.20000017205E+02 0.  0.
        -12    1    1    2    0    0 -0.33973814518E+02 -0.24382730754E+02  0.11614013707E+02  0.43400725182E+02  0.00000000000E+00 0.  1.
         11    1    3    3    0    0  0.16045831290E+01  0.24816305711E+01 -0.71516234116E+01  0.77381454491E+01  0.51100000000E-03 0. -1.
        -11    1    3    3    0    0  0.23219069490E+02  0.11744766794E+02 -0.43295347028E+01  0.26378203238E+02  0.51100000000E-03 0.  1.
        -12    1    3    3    0    0  0.91501618984E+01  0.10156333389E+02 -0.13285559303E+00  0.13670926131E+02  0.00000000000E+00 0.  1.
</event>
<event>
 7    1  0.2950722E-010  0.4778727E+02  0.7816164E-02  0.1312668E+00
        -11   -1    0    0    0    0  0.00000000000E+00  0.00000000000E+00  0.45593999997E+02  0.45594000000E+02  0.51100000000E-03 0.  1.
         11   -1    0    0    0    0 -0.00000000000E+00 -0.00000000000E+00 -0.45593999997E+02  0.45594000000E+02  0.51100000000E-03 0. -1.
    9900012    2    1    2    0    0 -0.11929710439E+02  0.36676145382E+02  0.19903921540E+02  0.47787265860E+02  0.19999976362E+02 0.  0.
        -12    1    1    2    0    0  0.11929710439E+02 -0.36676145382E+02 -0.19903921540E+02  0.43400734140E+02  0.00000000000E+00 0.  1.
         11    1    3    3    0    0 -0.17033178873E+02  0.24403100027E+02  0.14203910250E+02  0.32975620389E+02  0.51100000000E-03 0. -1.
        -11    1    3    3    0    0  0.33423180373E+01  0.10862946173E+02  0.42735089135E+01  0.12142387249E+02  0.51100000000E-03 0.  1.
         12    1    3    3    0    0  0.17611503962E+01  0.14100991825E+01  0.14265023766E+01  0.26692582215E+01  0.00000000000E+00 0. -1.
</event>
<event>
 7    1  0.2950722E-010  0.4778727E+02  0.7816164E-02  0.1312668E+00
        -11   -1    0    0    0    0  0.00000000000E+00  0.00000000000E+00  0.45593999997E+02  0.45594000000E+02  0.51100000000E-03 0.  1.
         11   -1    0    0    0    0 -0.00000000000E+00 -0.00000000000E+00 -0.45593999997E+02  0.45594000000E+02  0.51100000000E-03 0. -1.
    9900012    2    1    2    0    0 -0.35993450928E+02 -0.23441121767E+02  0.62135674241E+01  0.47787272822E+02  0.20000008106E+02 0.  0.
        -12    1    1    2    0    0  0.35993450928E+02  0.23441121767E+02 -0.62135674241E+01  0.43400727178E+02  0.00000000000E+00 0.  1.
         11    1    3    3    0    0 -0.52210599940E+01 -0.19592197023E+01 -0.29691961010E+01  0.63177634531E+01  0.51100000000E-03 0. -1.
        -11    1    3    3    0    0 -0.11568988926E+01 -0.73525965096E+01  0.32611480386E+01  0.81261415980E+01  0.51100000000E-03 0.  1.
        -12    1    3    3    0    0 -0.29615492042E+02 -0.14129305555E+02  0.59216154865E+01  0.33343367771E+02  0.00000000000E+00 0.  1.
</event>
<event>
 7    1  0.2950722E-010  0.4778727E+02  0.7816164E-02  0.1312668E+00
        -11   -1    0    0    0    0  0.00000000000E+00  0.00000000000E+00  0.45593999997E+02  0.45594000000E+02  0.51100000000E-03 0.  1.
         11   -1    0    0    0    0 -0.00000000000E+00 -0.00000000000E+00 -0.45593999997E+02  0.45594000000E+02  0.51100000000E-03 0. -1.
    9900012    2    1    2    0    0  0.25800150378E+00  0.41400880778E+02 -0.13020124350E+02  0.47787272679E+02  0.20000007451E+02 0.  0.
        -12    1    1    2    0    0 -0.25800150378E+00 -0.41400880778E+02  0.13020124350E+02  0.43400727321E+02  0.00000000000E+00 0.  1.
         11    1    3    3    0    0 -0.45444971168E+01  0.22364570478E+02 -0.22880923501E+01  0.22936037879E+02  0.51100000000E-03 0. -1.
        -11    1    3    3    0    0  0.25327426299E+01 -0.32000031868E+00  0.99057298861E-01  0.25547990220E+01  0.51100000000E-03 0.  1.
        -12    1    3    3    0    0  0.22697559907E+01  0.19356310618E+02 -0.10831089299E+02  0.22296435778E+02  0.00000000000E+00 0.  1.
</event>
<event>
 7    1  0.2950722E-010  0.4778727E+02  0.7816164E-02  0.1312668E+00
        -11   -1    0    0    0    0  0.00000000000E+00  0.00000000000E+00  0.45593999997E+02  0.45594000000E+02  0.51100000000E-03 0.  1.
         11   -1    0    0    0    0 -0.00000000000E+00 -0.00000000000E+00 -0.45593999997E+02  0.45594000000E+02  0.51100000000E-03 0. -1.
    9900012    2    1    2    0    0  0.23732225881E+02  0.17960902172E+02 -0.31588139606E+02  0.47787272865E+02  0.20000008299E+02 0.  0.
        -12    1    1    2    0    0 -0.23732225881E+02 -0.17960902172E+02  0.31588139606E+02  0.43400727135E+02  0.00000000000E+00 0.  1.
         11    1    3    3    0    0  0.66245558772E+01  0.68693674922E+00 -0.13290416607E+02  0.14865792832E+02  0.51100000000E-03 0. -1.
        -11    1    3    3    0    0  0.10895528743E+02  0.18030170514E+02 -0.13309972886E+02  0.24918968153E+02  0.51100000000E-03 0.  1.
        -12    1    3    3    0    0  0.62121412609E+01 -0.75620509102E+00 -0.49877501132E+01  0.80025118791E+01  0.00000000000E+00 0.  1.
</event>
<event>
 7    1  0.2950722E-010  0.4778727E+02  0.7816164E-02  0.1312668E+00
        -11   -1    0    0    0    0  0.00000000000E+00  0.00000000000E+00  0.45593999997E+02  0.45594000000E+02  0.51100000000E-03 0. -1.
         11   -1    0    0    0    0 -0.00000000000E+00 -0.00000000000E+00 -0.45593999997E+02  0.45594000000E+02  0.51100000000E-03 0.  1.
    9900012    2    1    2    0    0  0.31308791318E+02  0.39198532957E+01  0.29799624131E+02  0.47787271181E+02  0.20000000624E+02 0.  0.
        -12    1    1    2    0    0 -0.31308791318E+02 -0.39198532957E+01 -0.29799624131E+02  0.43400728819E+02  0.00000000000E+00 0.  1.
         11    1    3    3    0    0  0.18424433474E+02 -0.10585127943E+00  0.23866468804E+02  0.30150941723E+02  0.51100000000E-03 0. -1.
        -11    1    3    3    0    0  0.84697327547E+01  0.68433137129E+01  0.59306064832E+01  0.12399169691E+02  0.51100000000E-03 0.  1.
         12    1    3    3    0    0  0.44146250888E+01 -0.28176091378E+01  0.25488433199E-02  0.52371597670E+01  0.00000000000E+00 0. -1.
</event>
<event>
 7    1  0.2950722E-010  0.4778727E+02  0.7816164E-02  0.1312668E+00
        -11   -1    0    0    0    0  0.00000000000E+00  0.00000000000E+00  0.45593999997E+02  0.45594000000E+02  0.51100000000E-03 0.  1.
         11   -1    0    0    0    0 -0.00000000000E+00 -0.00000000000E+00 -0.45593999997E+02  0.45594000000E+02  0.51100000000E-03 0. -1.
    9900012    2    1    2    0    0 -0.58958460613E+01  0.40118923643E+02 -0.15470433526E+02  0.47787270185E+02  0.19999996080E+02 0.  0.
        -12    1    1    2    0    0  0.58958460613E+01 -0.40118923643E+02  0.15470433526E+02  0.43400729815E+02  0.00000000000E+00 0.  1.
         11    1    3    3    0    0  0.14749799854E+01  0.29336213946E+02 -0.79479920525E+01  0.30429584167E+02  0.51100000000E-03 0. -1.
        -11    1    3    3    0    0 -0.83519584700E+01  0.11215025699E+02 -0.54186752130E+01  0.14996468019E+02  0.51100000000E-03 0.  1.
        -12    1    3    3    0    0  0.98113242332E+00 -0.43231600241E+00 -0.21037662608E+01  0.23612179988E+01  0.00000000000E+00 0.  1.
</event>
<event>
 7    1  0.2950722E-010  0.4778727E+02  0.7816164E-02  0.1312668E+00
        -11   -1    0    0    0    0  0.00000000000E+00  0.00000000000E+00  0.45593999997E+02  0.45594000000E+02  0.51100000000E-03 0. -1.
         11   -1    0    0    0    0 -0.00000000000E+00 -0.00000000000E+00 -0.45593999997E+02  0.45594000000E+02  0.51100000000E-03 0.  1.
    9900012    2    1    2    0    0 -0.10767662386E+02  0.13625014761E+02  0.39774867592E+02  0.47787266452E+02  0.19999979063E+02 0.  0.
        -12    1    1    2    0    0  0.10767662386E+02 -0.13625014761E+02 -0.39774867592E+02  0.43400733548E+02  0.00000000000E+00 0.  1.
         11    1    3    3    0    0 -0.55055560180E+01  0.17735822056E+02  0.24153389056E+02  0.30467305988E+02  0.51100000000E-03 0. -1.
        -11    1    3    3    0    0 -0.23793190453E+01 -0.28774281524E+01  0.49680549923E+01  0.62146860386E+01  0.51100000000E-03 0.  1.
         12    1    3    3    0    0 -0.28827873231E+01 -0.12333791418E+01  0.10653423544E+02  0.11105274426E+02  0.00000000000E+00 0. -1.
</event>
<event>
 7    1  0.2950722E-010  0.4778727E+02  0.7816164E-02  0.1312668E+00
        -11   -1    0    0    0    0  0.00000000000E+00  0.00000000000E+00  0.45593999997E+02  0.45594000000E+02  0.51100000000E-03 0.  1.
         11   -1    0    0    0    0 -0.00000000000E+00 -0.00000000000E+00 -0.45593999997E+02  0.45594000000E+02  0.51100000000E-03 0. -1.
    9900012    2    1    2    0    0 -0.21578032434E+01 -0.37534528210E+02 -0.21682404211E+02  0.47787267574E+02  0.19999984177E+02 0.  0.
        -12    1    1    2    0    0  0.21578032434E+01  0.37534528210E+02  0.21682404211E+02  0.43400732426E+02  0.00000000000E+00 0.  1.
         11    1    3    3    0    0 -0.64447298182E+01 -0.35548944951E+02 -0.22948008206E+02  0.42800386803E+02  0.51100000000E-03 0. -1.
        -11    1    3    3    0    0  0.22237890973E+01 -0.51603670676E+00  0.45912116500E+00  0.23285884861E+01  0.51100000000E-03 0.  1.
         12    1    3    3    0    0  0.20631374775E+01 -0.14695465517E+01  0.80648283040E+00  0.26582922854E+01  0.00000000000E+00 0. -1.
</event>
<event>
 7    1  0.2950722E-010  0.4778727E+02  0.7816164E-02  0.1312668E+00
        -11   -1    0    0    0    0  0.00000000000E+00  0.00000000000E+00  0.45593999997E+02  0.45594000000E+02  0.51100000000E-03 0.  1.
         11   -1    0    0    0    0 -0.00000000000E+00 -0.00000000000E+00 -0.45593999997E+02  0.45594000000E+02  0.51100000000E-03 0. -1.
    9900012    2    1    2    0    0  0.51676622625E+01 -0.76547931664E+00 -0.43085179924E+02  0.47787269350E+02  0.19999992276E+02 0.  0.
        -12    1    1    2    0    0 -0.51676622625E+01  0.76547931664E+00  0.43085179924E+02  0.43400730650E+02  0.00000000000E+00 0.  1.
         11    1    3    3    0    0  0.20180286153E+01 -0.47372953244E+01 -0.13152116347E+02  0.14124183911E+02  0.51100000000E-03 0. -1.
        -11    1    3    3    0    0  0.31494410373E+01  0.17075357703E+01  0.61600079014E-01  0.35830785764E+01  0.51100000000E-03 0.  1.
        -12    1    3    3    0    0  0.19260989617E-03  0.22642802375E+01 -0.29994663656E+02  0.30080006863E+02  0.00000000000E+00 0.  1.
</event>
<event>
 7    1  0.2950722E-010  0.4778728E+02  0.7816164E-02  0.1312668E+00
        -11   -1    0    0    0    0  0.00000000000E+00  0.00000000000E+00  0.45593999997E+02  0.45594000000E+02  0.51100000000E-03 0. -1.
         11   -1    0    0    0    0 -0.00000000000E+00 -0.00000000000E+00 -0.45593999997E+02  0.45594000000E+02  0.51100000000E-03 0.  1.
    9900012    2    1    2    0    0 -0.36182273880E+02 -0.20676885540E+02  0.12121538324E+02  0.47787283069E+02  0.20000054824E+02 0.  0.
        -12    1    1    2    0    0  0.36182273880E+02  0.20676885540E+02 -0.12121538324E+02  0.43400716931E+02  0.00000000000E+00 0.  1.
         11    1    3    3    0    0 -0.16462473131E+02 -0.77241144576E+01  0.11637590042E+02  0.21589545340E+02  0.51100000000E-03 0. -1.
        -11    1    3    3    0    0 -0.21077436360E+02 -0.11560323378E+02 -0.44243404560E+00  0.24043609302E+02  0.51100000000E-03 0.  1.
        -12    1    3    3    0    0  0.13576356109E+01 -0.13924477046E+01  0.92638232725E+00  0.21541284266E+01  0.00000000000E+00 0.  1.
</event>
<event>
 7    1  0.2950722E-010  0.4778727E+02  0.7816164E-02  0.1312668E+00
        -11   -1    0    0    0    0  0.00000000000E+00  0.00000000000E+00  0.45593999997E+02  0.45594000000E+02  0.51100000000E-03 0. -1.
         11   -1    0    0    0    0 -0.00000000000E+00 -0.00000000000E+00 -0.45593999997E+02  0.45594000000E+02  0.51100000000E-03 0.  1.
    9900012    2    1    2    0    0 -0.35954300697E+02 -0.22253837539E+02 -0.97815218418E+01  0.47787271972E+02  0.20000004230E+02 0.  0.
        -12    1    1    2    0    0  0.35954300697E+02  0.22253837539E+02  0.97815218418E+01  0.43400728028E+02  0.00000000000E+00 0.  1.
         11    1    3    3    0    0 -0.22596777215E+02 -0.10456519239E+02 -0.10618754405E+02  0.27068636473E+02  0.51100000000E-03 0. -1.
        -11    1    3    3    0    0 -0.98829794107E+00 -0.67360646125E+01  0.24962902264E+01  0.72513974129E+01  0.51100000000E-03 0.  1.
        -12    1    3    3    0    0 -0.12369225540E+02 -0.50612536877E+01 -0.16590576630E+01  0.13467238087E+02  0.00000000000E+00 0.  1.
</event>
<event>
 7    1  0.2950722E-010  0.4778727E+02  0.7816164E-02  0.1312668E+00
        -11   -1    0    0    0    0  0.00000000000E+00  0.00000000000E+00  0.45593999997E+02  0.45594000000E+02  0.51100000000E-03 0. -1.
         11   -1    0    0    0    0 -0.00000000000E+00 -0.00000000000E+00 -0.45593999997E+02  0.45594000000E+02  0.51100000000E-03 0.  1.
    9900012    2    1    2    0    0  0.17809184617E+02  0.37738481302E+02 -0.11927418136E+02  0.47787270385E+02  0.19999996994E+02 0.  0.
        -12    1    1    2    0    0 -0.17809184617E+02 -0.37738481302E+02  0.11927418136E+02  0.43400729615E+02  0.00000000000E+00 0.  1.
         11    1    3    3    0    0  0.10012540865E+02  0.32635898936E+02 -0.11079268582E+02  0.35890152779E+02  0.51100000000E-03 0. -1.
        -11    1    3    3    0    0  0.83669903018E+01  0.49989958624E+01  0.11521885382E+01  0.98144803750E+01  0.51100000000E-03 0.  1.
         12    1    3    3    0    0 -0.57034655055E+00  0.10358650371E+00 -0.20003380921E+01  0.20826372306E+01  0.00000000000E+00 0. -1.
</event>
<event>
 7    1  0.2950722E-010  0.4778725E+02  0.7816164E-02  0.1312668E+00
        -11   -1    0    0    0    0  0.00000000000E+00  0.00000000000E+00  0.45593999997E+02  0.45594000000E+02  0.51100000000E-03 0. -1.
         11   -1    0    0    0    0 -0.00000000000E+00 -0.00000000000E+00 -0.45593999997E+02  0.45594000000E+02  0.51100000000E-03 0.  1.
    9900012    2    1    2    0    0 -0.32043309485E+02  0.16863995987E+02 -0.23926076733E+02  0.47787248955E+02  0.19999899285E+02 0.  0.
        -12    1    1    2    0    0  0.32043309485E+02 -0.16863995987E+02  0.23926076733E+02  0.43400751045E+02  0.00000000000E+00 0.  1.
         11    1    3    3    0    0 -0.28082131225E+02  0.17740468765E+02 -0.24321406118E+02  0.41168691040E+02  0.51100000000E-03 0. -1.
        -11    1    3    3    0    0 -0.26542116009E+01 -0.28525497038E+01 -0.78024801236E+00  0.39737471305E+01  0.51100000000E-03 0.  1.
         12    1    3    3    0    0 -0.13069666593E+01  0.19760769262E+01  0.11755773972E+01  0.26448107841E+01  0.00000000000E+00 0. -1.
</event>
<event>
 7    1  0.2950722E-010  0.4778727E+02  0.7816164E-02  0.1312668E+00
        -11   -1    0    0    0    0  0.00000000000E+00  0.00000000000E+00  0.45593999997E+02  0.45594000000E+02  0.51100000000E-03 0.  1.
         11   -1    0    0    0    0 -0.00000000000E+00 -0.00000000000E+00 -0.45593999997E+02  0.45594000000E+02  0.51100000000E-03 0. -1.
    9900012    2    1    2    0    0  0.22007182150E+02 -0.86818457895E+00 -0.37397242009E+02  0.47787268203E+02  0.19999987044E+02 0.  0.
        -12    1    1    2    0    0 -0.22007182150E+02  0.86818457895E+00  0.37397242009E+02  0.43400731797E+02  0.00000000000E+00 0.  1.
         11    1    3    3    0    0  0.23263068678E+02  0.31649236030E+01 -0.26901823777E+02  0.35705675019E+02  0.51100000000E-03 0. -1.
        -11    1    3    3    0    0 -0.98197679737E+00 -0.14919109236E+01 -0.63547419874E+00  0.18957595715E+01  0.51100000000E-03 0.  1.
         12    1    3    3    0    0 -0.27390973104E+00 -0.25411972584E+01 -0.98599440334E+01  0.10185833613E+02  0.00000000000E+00 0. -1.
</event>
<event>
 7    1  0.2950722E-010  0.4778727E+02  0.7816164E-02  0.1312668E+00
        -11   -1    0    0    0    0  0.00000000000E+00  0.00000000000E+00  0.45593999997E+02  0.45594000000E+02  0.51100000000E-03 0.  1.
         11   -1    0    0    0    0 -0.00000000000E+00 -0.00000000000E+00 -0.45593999997E+02  0.45594000000E+02  0.51100000000E-03 0. -1.
    9900012    2    1    2    0    0 -0.78483457603E+01  0.27513631846E+02 -0.32634744589E+02  0.47787273935E+02  0.20000013181E+02 0.  0.
        -12    1    1    2    0    0  0.78483457603E+01 -0.27513631846E+02  0.32634744589E+02  0.43400726065E+02  0.00000000000E+00 0.  1.
         11    1    3    3    0    0  0.30582395902E+01  0.12495056842E+02 -0.11200989985E+02  0.17057005945E+02  0.51100000000E-03 0. -1.
        -11    1    3    3    0    0 -0.92355745720E+01  0.16020460531E+02 -0.21963263038E+02  0.28711250702E+02  0.51100000000E-03 0.  1.
        -12    1    3    3    0    0 -0.16710107785E+01 -0.10018855272E+01  0.52950843448E+00  0.20190172891E+01  0.00000000000E+00 0.  1.
</event>
<event>
 7    1  0.2950722E-010  0.4778727E+02  0.7816164E-02  0.1312668E+00
        -11   -1    0    0    0    0  0.00000000000E+00  0.00000000000E+00  0.45593999997E+02  0.45594000000E+02  0.51100000000E-03 0.  1.
         11   -1    0    0    0    0 -0.00000000000E+00 -0.00000000000E+00 -0.45593999997E+02  0.45594000000E+02  0.51100000000E-03 0. -1.
    9900012    2    1    2    0    0 -0.20224264852E+02 -0.16724449386E+02 -0.34567255529E+02  0.47787271309E+02  0.20000001206E+02 0.  0.
        -12    1    1    2    0    0  0.20224264852E+02  0.16724449386E+02  0.34567255529E+02  0.43400728691E+02  0.00000000000E+00 0.  1.
         11    1    3    3    0    0  0.46051933338E+00 -0.22489015001E+01 -0.51672979924E+01  0.56542554609E+01  0.51100000000E-03 0. -1.
        -11    1    3    3    0    0 -0.33597342266E+01  0.37490441847E+01 -0.49833848075E+01  0.70835916577E+01  0.51100000000E-03 0.  1.
        -12    1    3    3    0    0 -0.17325049959E+02 -0.18224592071E+02 -0.24416572730E+02  0.35049424190E+02  0.00000000000E+00 0.  1.
</event>
<event>
 7    1  0.2950722E-010  0.4778727E+02  0.7816164E-02  0.1312668E+00
        -11   -1    0    0    0    0  0.00000000000E+00  0.00000000000E+00  0.45593999997E+02  0.45594000000E+02  0.51100000000E-03 0. -1.
         11   -1    0    0    0    0 -0.00000000000E+00 -0.00000000000E+00 -0.45593999997E+02  0.45594000000E+02  0.51100000000E-03 0.  1.
    9900012    2    1    2    0    0 -0.39942980991E+02 -0.25300675605E+01  0.16786313567E+02  0.47787270795E+02  0.19999998864E+02 0.  0.
        -12    1    1    2    0    0  0.39942980991E+02  0.25300675605E+01 -0.16786313567E+02  0.43400729205E+02  0.00000000000E+00 0.  1.
         11    1    3    3    0    0 -0.16886470457E+02 -0.45550055596E+01  0.16576083943E+02  0.24097043788E+02  0.51100000000E-03 0. -1.
        -11    1    3    3    0    0 -0.15856626030E+02  0.43867080860E+00  0.22967497451E+01  0.16028102844E+02  0.51100000000E-03 0.  1.
         12    1    3    3    0    0 -0.71998845041E+01  0.15862671906E+01 -0.20865201218E+01  0.76621241631E+01  0.00000000000E+00 0. -1.
</event>
<event>
 7    1  0.2950722E-010  0.4778727E+02  0.7816164E-02  0.1312668E+00
        -11   -1    0    0    0    0  0.00000000000E+00  0.00000000000E+00  0.45593999997E+02  0.45594000000E+02  0.51100000000E-03 0. -1.
         11   -1    0    0    0    0 -0.00000000000E+00 -0.00000000000E+00 -0.45593999997E+02  0.45594000000E+02  0.51100000000E-03 0.  1.
    9900012    2    1    2    0    0  0.48769631259E+01 -0.25575075291E+02  0.34723971238E+02  0.47787269315E+02  0.19999992113E+02 0.  0.
        -12    1    1    2    0    0 -0.48769631259E+01  0.25575075291E+02 -0.34723971238E+02  0.43400730685E+02  0.00000000000E+00 0.  1.
         11    1    3    3    0    0 -0.26822803808E+01 -0.12095467933E+01 -0.95476657473E+00  0.30934141268E+01  0.51100000000E-03 0. -1.
        -11    1    3    3    0    0  0.66809939989E+01 -0.15272534598E+02  0.16522230940E+02  0.23470622261E+02  0.51100000000E-03 0.  1.
         12    1    3    3    0    0  0.87824950785E+00 -0.90929939000E+01  0.19156506873E+02  0.21223232926E+02  0.00000000000E+00 0. -1.
</event>
<event>
 7    1  0.2950722E-010  0.4778727E+02  0.7816164E-02  0.1312668E+00
        -11   -1    0    0    0    0  0.00000000000E+00  0.00000000000E+00  0.45593999997E+02  0.45594000000E+02  0.51100000000E-03 0.  1.
         11   -1    0    0    0    0 -0.00000000000E+00 -0.00000000000E+00 -0.45593999997E+02  0.45594000000E+02  0.51100000000E-03 0. -1.
    9900012    2    1    2    0    0 -0.29789071392E+02  0.29530578775E+02 -0.11143579659E+02  0.47787271610E+02  0.20000002580E+02 0.  0.
        -12    1    1    2    0    0  0.29789071392E+02 -0.29530578775E+02  0.11143579659E+02  0.43400728390E+02  0.00000000000E+00 0.  1.
         11    1    3    3    0    0 -0.11723307700E+02  0.26073381471E+01 -0.54611307067E+01  0.13193108220E+02  0.51100000000E-03 0.  1.
        -11    1    3    3    0    0 -0.17406618333E+02  0.22418472455E+02 -0.79957027591E+01  0.29487447022E+02  0.51100000000E-03 0. -1.
         12    1    3    3    0    0 -0.65914535862E+00  0.45047681728E+01  0.23132538067E+01  0.51067163686E+01  0.00000000000E+00 0. -1.
</event>
<event>
 7    1  0.2950722E-010  0.4778726E+02  0.7816164E-02  0.1312668E+00
        -11   -1    0    0    0    0  0.00000000000E+00  0.00000000000E+00  0.45593999997E+02  0.45594000000E+02  0.51100000000E-03 0.  1.
         11   -1    0    0    0    0 -0.00000000000E+00 -0.00000000000E+00 -0.45593999997E+02  0.45594000000E+02  0.51100000000E-03 0. -1.
    9900012    2    1    2    0    0  0.41214061916E+02 -0.10074565301E+02  0.91394102008E+01  0.47787255946E+02  0.19999931159E+02 0.  0.
        -12    1    1    2    0    0 -0.41214061916E+02  0.10074565301E+02 -0.91394102008E+01  0.43400744054E+02  0.00000000000E+00 0.  1.
         11    1    3    3    0    0  0.18323172124E+02 -0.41477553607E+01 -0.24292924636E+00  0.18788334841E+02  0.51100000000E-03 0.  1.
        -11    1    3    3    0    0  0.55834765174E+01  0.25249114199E+01 -0.22152853360E+01  0.65159709238E+01  0.51100000000E-03 0. -1.
        -12    1    3    3    0    0  0.17307413275E+02 -0.84517213604E+01  0.11597624783E+02  0.22482950181E+02  0.00000000000E+00 0.  1.
</event>
<event>
 7    1  0.2950722E-010  0.4778728E+02  0.7816164E-02  0.1312668E+00
        -11   -1    0    0    0    0  0.00000000000E+00  0.00000000000E+00  0.45593999997E+02  0.45594000000E+02  0.51100000000E-03 0.  1.
         11   -1    0    0    0    0 -0.00000000000E+00 -0.00000000000E+00 -0.45593999997E+02  0.45594000000E+02  0.51100000000E-03 0. -1.
    9900012    2    1    2    0    0 -0.35715261195E+02  0.11426069671E+02 -0.21851495957E+02  0.47787276205E+02  0.20000023530E+02 0.  0.
        -12    1    1    2    0    0  0.35715261195E+02 -0.11426069671E+02  0.21851495957E+02  0.43400723795E+02  0.00000000000E+00 0.  1.
         11    1    3    3    0    0 -0.20814229621E+02  0.67944556616E+01 -0.66556054170E+01  0.22884358548E+02  0.51100000000E-03 0. -1.
        -11    1    3    3    0    0 -0.98914956893E+01  0.47863565690E+01 -0.16406837130E+02  0.19746776979E+02  0.51100000000E-03 0.  1.
        -12    1    3    3    0    0 -0.50095358852E+01 -0.15474255996E+00  0.12109465905E+01  0.51561406779E+01  0.00000000000E+00 0.  1.
</event>
<event>
 7    1  0.2950722E-010  0.4778727E+02  0.7816164E-02  0.1312668E+00
        -11   -1    0    0    0    0  0.00000000000E+00  0.00000000000E+00  0.45593999997E+02  0.45594000000E+02  0.51100000000E-03 0.  1.
         11   -1    0    0    0    0 -0.00000000000E+00 -0.00000000000E+00 -0.45593999997E+02  0.45594000000E+02  0.51100000000E-03 0. -1.
    9900012    2    1    2    0    0 -0.15267025578E+02 -0.22211462008E+02 -0.34017529978E+02  0.47787268897E+02  0.19999990208E+02 0.  0.
        -12    1    1    2    0    0  0.15267025578E+02  0.22211462008E+02  0.34017529978E+02  0.43400731103E+02  0.00000000000E+00 0.  1.
         11    1    3    3    0    0  0.41070341858E+01 -0.55327268451E+01 -0.92010679687E+01  0.11495148897E+02  0.51100000000E-03 0. -1.
        -11    1    3    3    0    0 -0.11143663419E+02 -0.71709857771E+01 -0.16725475641E+02  0.21338833311E+02  0.51100000000E-03 0.  1.
         12    1    3    3    0    0 -0.82303963446E+01 -0.95077493857E+01 -0.80909863681E+01  0.14953286688E+02  0.00000000000E+00 0. -1.
</event>
<event>
 7    1  0.2950722E-010  0.4778727E+02  0.7816164E-02  0.1312668E+00
        -11   -1    0    0    0    0  0.00000000000E+00  0.00000000000E+00  0.45593999997E+02  0.45594000000E+02  0.51100000000E-03 0.  1.
         11   -1    0    0    0    0 -0.00000000000E+00 -0.00000000000E+00 -0.45593999997E+02  0.45594000000E+02  0.51100000000E-03 0. -1.
    9900012    2    1    2    0    0 -0.27193071541E+01  0.27278022111E+02 -0.33647258326E+02  0.47787272880E+02  0.20000008369E+02 0.  0.
        -12    1    1    2    0    0  0.27193071541E+01 -0.27278022111E+02  0.33647258326E+02  0.43400727120E+02  0.00000000000E+00 0.  1.
         11    1    3    3    0    0 -0.57590427912E+01  0.23993429683E+01 -0.53427894295E+01  0.82139405707E+01  0.51100000000E-03 0. -1.
        -11    1    3    3    0    0 -0.24191791061E+01  0.87926631812E+00 -0.52625595392E+01  0.58583333783E+01  0.51100000000E-03 0.  1.
         12    1    3    3    0    0  0.54589147432E+01  0.23999412824E+02 -0.23041909357E+02  0.33714998931E+02  0.00000000000E+00 0. -1.
</event>
<event>
 7    1  0.2950722E-010  0.4778727E+02  0.7816164E-02  0.1312668E+00
        -11   -1    0    0    0    0  0.00000000000E+00  0.00000000000E+00  0.45593999997E+02  0.45594000000E+02  0.51100000000E-03 0.  1.
         11   -1    0    0    0    0 -0.00000000000E+00 -0.00000000000E+00 -0.45593999997E+02  0.45594000000E+02  0.51100000000E-03 0. -1.
    9900012    2    1    2    0    0  0.45546316079E+01  0.25929832222E+01 -0.43083118151E+02  0.47787270735E+02  0.19999998590E+02 0.  0.
        -12    1    1    2    0    0 -0.45546316079E+01 -0.25929832222E+01  0.43083118151E+02  0.43400729265E+02  0.00000000000E+00 0.  1.
         11    1    3    3    0    0 -0.63689108053E+00  0.33753692850E+01 -0.21783675641E+02  0.22052829133E+02  0.51100000000E-03 0. -1.
        -11    1    3    3    0    0  0.91823246396E+01  0.19651030601E+01 -0.11890355774E+02  0.15151147697E+02  0.51100000000E-03 0.  1.
        -12    1    3    3    0    0 -0.39908019511E+01 -0.27474891229E+01 -0.94090867359E+01  0.10583293906E+02  0.00000000000E+00 0.  1.
</event>
<event>
 7    1  0.2950722E-010  0.4778727E+02  0.7816164E-02  0.1312668E+00
        -11   -1    0    0    0    0  0.00000000000E+00  0.00000000000E+00  0.45593999997E+02  0.45594000000E+02  0.51100000000E-03 0. -1.
         11   -1    0    0    0    0 -0.00000000000E+00 -0.00000000000E+00 -0.45593999997E+02  0.45594000000E+02  0.51100000000E-03 0.  1.
    9900012    2    1    2    0    0  0.12262997269E+02  0.27629780491E+02  0.31142213378E+02  0.47787270443E+02  0.19999997256E+02 0.  0.
        -12    1    1    2    0    0 -0.12262997269E+02 -0.27629780491E+02 -0.31142213378E+02  0.43400729557E+02  0.00000000000E+00 0.  1.
         11    1    3    3    0    0  0.14305627907E+00 -0.11300219862E+01  0.61636048152E+01  0.62679693177E+01  0.51100000000E-03 0. -1.
        -11    1    3    3    0    0  0.64638809182E+01  0.14829072582E+02  0.58788290775E+01  0.17211733839E+02  0.51100000000E-03 0.  1.
        -12    1    3    3    0    0  0.56560600716E+01  0.13930729896E+02  0.19099779485E+02  0.24307567286E+02  0.00000000000E+00 0.  1.
</event>
<event>
 7    1  0.2950722E-010  0.4778726E+02  0.7816164E-02  0.1312668E+00
        -11   -1    0    0    0    0  0.00000000000E+00  0.00000000000E+00  0.45593999997E+02  0.45594000000E+02  0.51100000000E-03 0.  1.
         11   -1    0    0    0    0 -0.00000000000E+00 -0.00000000000E+00 -0.45593999997E+02  0.45594000000E+02  0.51100000000E-03 0. -1.
    9900012    2    1    2    0    0  0.29961837086E+02  0.16051474596E+02 -0.26986338981E+02  0.47787262566E+02  0.19999961343E+02 0.  0.
        -12    1    1    2    0    0 -0.29961837086E+02 -0.16051474596E+02  0.26986338981E+02  0.43400737434E+02  0.00000000000E+00 0.  1.
         11    1    3    3    0    0  0.13758863990E+01  0.84921368771E+01 -0.87132251764E+01  0.12244580244E+02  0.51100000000E-03 0. -1.
        -11    1    3    3    0    0  0.90266192788E+01  0.21259148790E+01 -0.19083886272E+01  0.94679098586E+01  0.51100000000E-03 0.  1.
         12    1    3    3    0    0  0.19559331408E+02  0.54334228395E+01 -0.16364725177E+02  0.26074772463E+02  0.00000000000E+00 0. -1.
</event>
<event>
 7    1  0.2950722E-010  0.4778727E+02  0.7816164E-02  0.1312668E+00
        -11   -1    0    0    0    0  0.00000000000E+00  0.00000000000E+00  0.45593999997E+02  0.45594000000E+02  0.51100000000E-03 0. -1.
         11   -1    0    0    0    0 -0.00000000000E+00 -0.00000000000E+00 -0.45593999997E+02  0.45594000000E+02  0.51100000000E-03 0.  1.
    9900012    2    1    2    0    0 -0.28307955785E+02 -0.10604762388E+02  0.31141964379E+02  0.47787270842E+02  0.19999999078E+02 0.  0.
        -12    1    1    2    0    0  0.28307955785E+02  0.10604762388E+02 -0.31141964379E+02  0.43400729158E+02  0.00000000000E+00 0.  1.
         11    1    3    3    0    0 -0.94984631222E+01 -0.75091801619E+00  0.10558786930E+02  0.14222259358E+02  0.51100000000E-03 0. -1.
        -11    1    3    3    0    0 -0.15184111031E+02 -0.10504402275E+02  0.22743850481E+02  0.29294750893E+02  0.51100000000E-03 0.  1.
        -12    1    3    3    0    0 -0.36253816319E+01  0.65055790365E+00 -0.21606730317E+01  0.42702605907E+01  0.00000000000E+00 0.  1.
</event>
<event>
 7    1  0.2950722E-010  0.4778727E+02  0.7816164E-02  0.1312668E+00
        -11   -1    0    0    0    0  0.00000000000E+00  0.00000000000E+00  0.45593999997E+02  0.45594000000E+02  0.51100000000E-03 0. -1.
         11   -1    0    0    0    0 -0.00000000000E+00 -0.00000000000E+00 -0.45593999997E+02  0.45594000000E+02  0.51100000000E-03 0.  1.
    9900012    2    1    2    0    0  0.71939463975E+01  0.19180967139E+02  0.38261740392E+02  0.47787272553E+02  0.20000006876E+02 0.  0.
        -12    1    1    2    0    0 -0.71939463975E+01 -0.19180967139E+02 -0.38261740392E+02  0.43400727447E+02  0.00000000000E+00 0.  1.
         11    1    3    3    0    0  0.52866795953E+00 -0.22629666736E+01  0.76325346593E+01  0.79784768950E+01  0.51100000000E-03 0. -1.
        -11    1    3    3    0    0  0.81970937707E+00  0.15879666170E+02  0.13442370983E+02  0.20821456699E+02  0.51100000000E-03 0.  1.
         12    1    3    3    0    0  0.58455690609E+01  0.55642676420E+01  0.17186834749E+02  0.18987338959E+02  0.00000000000E+00 0. -1.
</event>
<event>
 7    1  0.2950722E-010  0.4778727E+02  0.7816164E-02  0.1312668E+00
        -11   -1    0    0    0    0  0.00000000000E+00  0.00000000000E+00  0.45593999997E+02  0.45594000000E+02  0.51100000000E-03 0. -1.
         11   -1    0    0    0    0 -0.00000000000E+00 -0.00000000000E+00 -0.45593999997E+02  0.45594000000E+02  0.51100000000E-03 0.  1.
    9900012    2    1    2    0    0 -0.27391039851E+02 -0.33126573165E+02  0.59986998551E+01  0.47787270586E+02  0.19999997908E+02 0.  0.
        -12    1    1    2    0    0  0.27391039851E+02  0.33126573165E+02 -0.59986998551E+01  0.43400729414E+02  0.00000000000E+00 0.  1.
         11    1    3    3    0    0 -0.27603429055E+02 -0.29672819739E+02  0.30009483067E+00  0.40527960521E+02  0.51100000000E-03 0. -1.
        -11    1    3    3    0    0 -0.32585552383E+00 -0.22466219033E+01  0.54641788497E+01  0.59169876256E+01  0.51100000000E-03 0.  1.
         12    1    3    3    0    0  0.53824472731E+00 -0.12071315218E+01  0.23442617473E+00  0.13423224385E+01  0.00000000000E+00 0. -1.
</event>
<event>
 7    1  0.2950722E-010  0.4778727E+02  0.7816164E-02  0.1312668E+00
        -11   -1    0    0    0    0  0.00000000000E+00  0.00000000000E+00  0.45593999997E+02  0.45594000000E+02  0.51100000000E-03 0. -1.
         11   -1    0    0    0    0 -0.00000000000E+00 -0.00000000000E+00 -0.45593999997E+02  0.45594000000E+02  0.51100000000E-03 0.  1.
    9900012    2    1    2    0    0 -0.46416735550E+01  0.43113727717E+02 -0.18123594910E+01  0.47787270766E+02  0.19999998732E+02 0.  0.
        -12    1    1    2    0    0  0.46416735550E+01 -0.43113727717E+02  0.18123594910E+01  0.43400729234E+02  0.00000000000E+00 0.  1.
         11    1    3    3    0    0 -0.13909610472E+01  0.68708874478E+01  0.33091573506E+01  0.77520571197E+01  0.51100000000E-03 0. -1.
        -11    1    3    3    0    0  0.52315623391E+01  0.61395718978E+01  0.11182890816E+01  0.81433505591E+01  0.51100000000E-03 0.  1.
        -12    1    3    3    0    0 -0.84822748469E+01  0.30103268372E+02 -0.62398059232E+01  0.31891863088E+02  0.00000000000E+00 0.  1.
</event>
<event>
 7    1  0.2950722E-010  0.4778728E+02  0.7816164E-02  0.1312668E+00
        -11   -1    0    0    0    0  0.00000000000E+00  0.00000000000E+00  0.45593999997E+02  0.45594000000E+02  0.51100000000E-03 0. -1.
         11   -1    0    0    0    0 -0.00000000000E+00 -0.00000000000E+00 -0.45593999997E+02  0.45594000000E+02  0.51100000000E-03 0.  1.
    9900012    2    1    2    0    0  0.26409685346E+02  0.34723770780E+01  0.34265055208E+02  0.47787275455E+02  0.20000020108E+02 0.  0.
        -12    1    1    2    0    0 -0.26409685346E+02 -0.34723770780E+01 -0.34265055208E+02  0.43400724545E+02  0.00000000000E+00 0.  1.
         11    1    3    3    0    0  0.54178159629E+01  0.17705545490E+01  0.61876578136E+01  0.84127702155E+01  0.51100000000E-03 0. -1.
        -11    1    3    3    0    0  0.19289034448E+02  0.79948373015E+01  0.23333102449E+02  0.31311626332E+02  0.51100000000E-03 0.  1.
        -12    1    3    3    0    0  0.17028349351E+01 -0.62930147724E+01  0.47442949454E+01  0.80628789071E+01  0.00000000000E+00 0.  1.
</event>
<event>
 7    1  0.2950722E-010  0.4778727E+02  0.7816164E-02  0.1312668E+00
        -11   -1    0    0    0    0  0.00000000000E+00  0.00000000000E+00  0.45593999997E+02  0.45594000000E+02  0.51100000000E-03 0. -1.
         11   -1    0    0    0    0 -0.00000000000E+00 -0.00000000000E+00 -0.45593999997E+02  0.45594000000E+02  0.51100000000E-03 0.  1.
    9900012    2    1    2    0    0  0.29981121659E+02  0.96646150614E+01  0.29855496565E+02  0.47787272871E+02  0.20000008327E+02 0.  0.
        -12    1    1    2    0    0 -0.29981121659E+02 -0.96646150614E+01 -0.29855496565E+02  0.43400727129E+02  0.00000000000E+00 0.  1.
         11    1    3    3    0    0  0.79747660776E+01 -0.32209993170E+01  0.95458472000E+00  0.86534942562E+01  0.51100000000E-03 0. -1.
        -11    1    3    3    0    0  0.18245203517E+01  0.18075933680E+01  0.57497803576E+00  0.26318944319E+01  0.51100000000E-03 0.  1.
         12    1    3    3    0    0  0.20181835230E+02  0.11078021010E+02  0.28325933809E+02  0.36501884183E+02  0.00000000000E+00 0. -1.
</event>
<event>
 7    1  0.2950722E-010  0.4778728E+02  0.7816164E-02  0.1312668E+00
        -11   -1    0    0    0    0  0.00000000000E+00  0.00000000000E+00  0.45593999997E+02  0.45594000000E+02  0.51100000000E-03 0.  1.
         11   -1    0    0    0    0 -0.00000000000E+00 -0.00000000000E+00 -0.45593999997E+02  0.45594000000E+02  0.51100000000E-03 0. -1.
    9900012    2    1    2    0    0 -0.19206223615E+02  0.24085642402E+02 -0.30571649013E+02  0.47787275135E+02  0.20000018650E+02 0.  0.
        -12    1    1    2    0    0  0.19206223615E+02 -0.24085642402E+02  0.30571649013E+02  0.43400724865E+02  0.00000000000E+00 0.  1.
         11    1    3    3    0    0 -0.13340772121E+02  0.63683193958E+01 -0.72059332696E+01  0.16445581999E+02  0.51100000000E-03 0. -1.
        -11    1    3    3    0    0 -0.14349462288E+01  0.58760395217E+01 -0.17444354200E+01  0.62952336205E+01  0.51100000000E-03 0.  1.
         12    1    3    3    0    0 -0.44305052644E+01  0.11841283485E+02 -0.21621280323E+02  0.25046459516E+02  0.00000000000E+00 0. -1.
</event>
<event>
 7    1  0.2950722E-010  0.4778728E+02  0.7816164E-02  0.1312668E+00
        -11   -1    0    0    0    0  0.00000000000E+00  0.00000000000E+00  0.45593999997E+02  0.45594000000E+02  0.51100000000E-03 0. -1.
         11   -1    0    0    0    0 -0.00000000000E+00 -0.00000000000E+00 -0.45593999997E+02  0.45594000000E+02  0.51100000000E-03 0.  1.
    9900012    2    1    2    0    0 -0.40000293402E+01  0.87681287322E+01  0.42317162377E+02  0.47787279409E+02  0.20000038138E+02 0.  0.
        -12    1    1    2    0    0  0.40000293402E+01 -0.87681287322E+01 -0.42317162377E+02  0.43400720591E+02  0.00000000000E+00 0.  1.
         11    1    3    3    0    0  0.17693244430E+01  0.14314013528E+01  0.21357205918E+02  0.21478120581E+02  0.51100000000E-03 0. -1.
        -11    1    3    3    0    0 -0.93479669552E+01  0.79152384233E+01  0.16801821478E+02  0.20792707633E+02  0.51100000000E-03 0.  1.
        -12    1    3    3    0    0  0.35786131721E+01 -0.57851104395E+00  0.41581349811E+01  0.55164511948E+01  0.00000000000E+00 0.  1.
</event>
<event>
 7    1  0.2950722E-010  0.4778727E+02  0.7816164E-02  0.1312668E+00
        -11   -1    0    0    0    0  0.00000000000E+00  0.00000000000E+00  0.45593999997E+02  0.45594000000E+02  0.51100000000E-03 0. -1.
         11   -1    0    0    0    0 -0.00000000000E+00 -0.00000000000E+00 -0.45593999997E+02  0.45594000000E+02  0.51100000000E-03 0.  1.
    9900012    2    1    2    0    0 -0.20437259748E+01  0.23053693400E+02  0.36714758151E+02  0.47787273493E+02  0.20000011164E+02 0.  0.
        -12    1    1    2    0    0  0.20437259748E+01 -0.23053693400E+02 -0.36714758151E+02  0.43400726507E+02  0.00000000000E+00 0.  1.
         11    1    3    3    0    0  0.14634535059E+01  0.85534106947E+01  0.25200902326E+02  0.26653105053E+02  0.51100000000E-03 0. -1.
        -11    1    3    3    0    0  0.24936286986E+00  0.13552132027E+02  0.72446574018E+01  0.15369044389E+02  0.51100000000E-03 0.  1.
        -12    1    3    3    0    0 -0.37565423505E+01  0.94815067849E+00  0.42691984235E+01  0.57651240506E+01  0.00000000000E+00 0.  1.
</event>
<event>
 7    1  0.2950722E-010  0.4778727E+02  0.7816164E-02  0.1312668E+00
        -11   -1    0    0    0    0  0.00000000000E+00  0.00000000000E+00  0.45593999997E+02  0.45594000000E+02  0.51100000000E-03 0.  1.
         11   -1    0    0    0    0 -0.00000000000E+00 -0.00000000000E+00 -0.45593999997E+02  0.45594000000E+02  0.51100000000E-03 0. -1.
    9900012    2    1    2    0    0 -0.28031754020E+02 -0.33121396300E+02 -0.90400143883E+00  0.47787270226E+02  0.19999996268E+02 0.  0.
        -12    1    1    2    0    0  0.28031754020E+02  0.33121396300E+02  0.90400143883E+00  0.43400729774E+02  0.00000000000E+00 0.  1.
         11    1    3    3    0    0 -0.16102706489E+02 -0.19883032342E+02  0.37755561548E+01  0.25862848952E+02  0.51100000000E-03 0. -1.
        -11    1    3    3    0    0 -0.30439917797E+01  0.20631832591E+01 -0.25871365640E+00  0.36863998878E+01  0.51100000000E-03 0.  1.
         12    1    3    3    0    0 -0.88850557519E+01 -0.15301547217E+02 -0.44208439372E+01  0.18238021386E+02  0.00000000000E+00 0. -1.
</event>
<event>
 7    1  0.2950722E-010  0.4778727E+02  0.7816164E-02  0.1312668E+00
        -11   -1    0    0    0    0  0.00000000000E+00  0.00000000000E+00  0.45593999997E+02  0.45594000000E+02  0.51100000000E-03 0.  1.
         11   -1    0    0    0    0 -0.00000000000E+00 -0.00000000000E+00 -0.45593999997E+02  0.45594000000E+02  0.51100000000E-03 0. -1.
    9900012    2    1    2    0    0 -0.40522040400E+01 -0.26556674943E+01 -0.43129461433E+02  0.47787269926E+02  0.19999994901E+02 0.  0.
        -12    1    1    2    0    0  0.40522040400E+01  0.26556674943E+01  0.43129461433E+02  0.43400730074E+02  0.00000000000E+00 0.  1.
         11    1    3    3    0    0 -0.40158408973E+01  0.41592359393E+01 -0.11191449279E+02  0.12596616964E+02  0.51100000000E-03 0.  1.
        -11    1    3    3    0    0  0.54325106788E+01 -0.75009586447E+01 -0.20375598886E+02  0.22381724310E+02  0.51100000000E-03 0. -1.
         12    1    3    3    0    0 -0.54688738215E+01  0.68605521117E+00 -0.11562413268E+02  0.12808928652E+02  0.00000000000E+00 0. -1.
</event>
<event>
 7    1  0.2950722E-010  0.4778727E+02  0.7816164E-02  0.1312668E+00
        -11   -1    0    0    0    0  0.00000000000E+00  0.00000000000E+00  0.45593999997E+02  0.45594000000E+02  0.51100000000E-03 0.  1.
         11   -1    0    0    0    0 -0.00000000000E+00 -0.00000000000E+00 -0.45593999997E+02  0.45594000000E+02  0.51100000000E-03 0. -1.
    9900012    2    1    2    0    0 -0.11025474326E+02 -0.22067338703E+02 -0.35708468074E+02  0.47787271737E+02  0.20000003159E+02 0.  0.
        -12    1    1    2    0    0  0.11025474326E+02  0.22067338703E+02  0.35708468074E+02  0.43400728263E+02  0.00000000000E+00 0.  1.
         11    1    3    3    0    0  0.44255169484E+01 -0.47848127359E+01 -0.57374240872E+01  0.86831830913E+01  0.51100000000E-03 0. -1.
        -11    1    3    3    0    0  0.12343010540E+01 -0.25818171125E+01 -0.39016077359E+01  0.48385764311E+01  0.51100000000E-03 0.  1.
         12    1    3    3    0    0 -0.16685292328E+02 -0.14700708854E+02 -0.26069436251E+02  0.34265512215E+02  0.00000000000E+00 0. -1.
</event>
<event>
 7    1  0.2950722E-010  0.4778727E+02  0.7816164E-02  0.1312668E+00
        -11   -1    0    0    0    0  0.00000000000E+00  0.00000000000E+00  0.45593999997E+02  0.45594000000E+02  0.51100000000E-03 0. -1.
         11   -1    0    0    0    0 -0.00000000000E+00 -0.00000000000E+00 -0.45593999997E+02  0.45594000000E+02  0.51100000000E-03 0.  1.
    9900012    2    1    2    0    0 -0.11956556633E+02 -0.19598388724E+02  0.36831605074E+02  0.47787271672E+02  0.20000002861E+02 0.  0.
        -12    1    1    2    0    0  0.11956556633E+02  0.19598388724E+02 -0.36831605074E+02  0.43400728328E+02  0.00000000000E+00 0.  1.
         11    1    3    3    0    0 -0.46945555010E+01  0.19374607316E+01  0.47830335588E+01  0.69763898776E+01  0.51100000000E-03 0.  1.
        -11    1    3    3    0    0 -0.44778036513E+01 -0.13564552222E+02  0.28029721674E+02  0.31459705973E+02  0.51100000000E-03 0. -1.
        -12    1    3    3    0    0 -0.27841974803E+01 -0.79712972333E+01  0.40188498408E+01  0.93511758209E+01  0.00000000000E+00 0.  1.
</event>
<event>
 7    1  0.2950722E-010  0.4778727E+02  0.7816164E-02  0.1312668E+00
        -11   -1    0    0    0    0  0.00000000000E+00  0.00000000000E+00  0.45593999997E+02  0.45594000000E+02  0.51100000000E-03 0.  1.
         11   -1    0    0    0    0 -0.00000000000E+00 -0.00000000000E+00 -0.45593999997E+02  0.45594000000E+02  0.51100000000E-03 0. -1.
    9900012    2    1    2    0    0  0.28661394447E+02 -0.17676305987E+02 -0.27380574051E+02  0.47787272352E+02  0.20000005963E+02 0.  0.
        -12    1    1    2    0    0 -0.28661394447E+02  0.17676305987E+02  0.27380574051E+02  0.43400727648E+02  0.00000000000E+00 0.  1.
         11    1    3    3    0    0  0.17508843808E+02 -0.13720124354E+02 -0.75666174720E+01  0.23495853336E+02  0.51100000000E-03 0. -1.
        -11    1    3    3    0    0  0.95557294492E+01 -0.58888185675E+01 -0.17937500537E+02  0.21159963969E+02  0.51100000000E-03 0.  1.
         12    1    3    3    0    0  0.15968211905E+01  0.19326369340E+01 -0.18764560420E+01  0.31314550469E+01  0.00000000000E+00 0. -1.
</event>
<event>
 7    1  0.2950722E-010  0.4778727E+02  0.7816164E-02  0.1312668E+00
        -11   -1    0    0    0    0  0.00000000000E+00  0.00000000000E+00  0.45593999997E+02  0.45594000000E+02  0.51100000000E-03 0. -1.
         11   -1    0    0    0    0 -0.00000000000E+00 -0.00000000000E+00 -0.45593999997E+02  0.45594000000E+02  0.51100000000E-03 0.  1.
    9900012    2    1    2    0    0 -0.48298570235E+00  0.43397143216E+02 -0.27893302403E+00  0.47787272839E+02  0.20000008182E+02 0.  0.
        -12    1    1    2    0    0  0.48298570235E+00 -0.43397143216E+02  0.27893302403E+00  0.43400727161E+02  0.00000000000E+00 0.  1.
         11    1    3    3    0    0 -0.13974485590E+00  0.20316849073E+01  0.48597675852E+01  0.52692137393E+01  0.51100000000E-03 0. -1.
        -11    1    3    3    0    0  0.23347792966E+01  0.40889382245E+01 -0.16231308180E+01  0.49804782984E+01  0.51100000000E-03 0.  1.
         12    1    3    3    0    0 -0.26780201430E+01  0.37276520084E+02 -0.35155697912E+01  0.37537580801E+02  0.00000000000E+00 0. -1.
</event>
<event>
 7    1  0.2950722E-010  0.4778727E+02  0.7816164E-02  0.1312668E+00
        -11   -1    0    0    0    0  0.00000000000E+00  0.00000000000E+00  0.45593999997E+02  0.45594000000E+02  0.51100000000E-03 0.  1.
         11   -1    0    0    0    0 -0.00000000000E+00 -0.00000000000E+00 -0.45593999997E+02  0.45594000000E+02  0.51100000000E-03 0. -1.
    9900012    2    1    2    0    0  0.19093631605E+01  0.31068751406E+02 -0.30244183791E+02  0.47787266886E+02  0.19999981041E+02 0.  0.
        -12    1    1    2    0    0 -0.19093631605E+01 -0.31068751406E+02  0.30244183791E+02  0.43400733114E+02  0.00000000000E+00 0.  1.
         11    1    3    3    0    0  0.29343115289E+01  0.23655669175E+02 -0.13992318435E+02  0.27640293843E+02  0.51100000000E-03 0. -1.
        -11    1    3    3    0    0  0.11988324284E+01 -0.19073585510E+01 -0.22817724168E+01  0.32065092322E+01  0.51100000000E-03 0.  1.
         12    1    3    3    0    0 -0.22237807968E+01  0.93204407818E+01 -0.13970092940E+02  0.16940463811E+02  0.00000000000E+00 0. -1.
</event>
<event>
 7    1  0.2950722E-010  0.4778727E+02  0.7816164E-02  0.1312668E+00
        -11   -1    0    0    0    0  0.00000000000E+00  0.00000000000E+00  0.45593999997E+02  0.45594000000E+02  0.51100000000E-03 0. -1.
         11   -1    0    0    0    0 -0.00000000000E+00 -0.00000000000E+00 -0.45593999997E+02  0.45594000000E+02  0.51100000000E-03 0.  1.
    9900012    2    1    2    0    0  0.14535524356E+02 -0.17707343628E+02  0.36861788942E+02  0.47787274538E+02  0.20000015928E+02 0.  0.
        -12    1    1    2    0    0 -0.14535524356E+02  0.17707343628E+02 -0.36861788942E+02  0.43400725462E+02  0.00000000000E+00 0.  1.
         11    1    3    3    0    0  0.14903563384E+02 -0.12421206657E+02  0.35585673231E+02  0.40530762588E+02  0.51100000000E-03 0. -1.
        -11    1    3    3    0    0 -0.92917081831E+00  0.10736754537E-01 -0.10863817803E+01  0.14295801206E+01  0.51100000000E-03 0.  1.
         12    1    3    3    0    0  0.56113178952E+00 -0.52968737258E+01  0.23624974909E+01  0.58269318296E+01  0.00000000000E+00 0. -1.
</event>
<event>
 7    1  0.2950722E-010  0.4778729E+02  0.7816164E-02  0.1312668E+00
        -11   -1    0    0    0    0  0.00000000000E+00  0.00000000000E+00  0.45593999997E+02  0.45594000000E+02  0.51100000000E-03 0. -1.
         11   -1    0    0    0    0 -0.00000000000E+00 -0.00000000000E+00 -0.45593999997E+02  0.45594000000E+02  0.51100000000E-03 0.  1.
    9900012    2    1    2    0    0  0.34490769786E+02 -0.22131959612E+02 -0.14289327410E+02  0.47787289009E+02  0.20000081909E+02 0.  0.
        -12    1    1    2    0    0 -0.34490769786E+02  0.22131959612E+02  0.14289327410E+02  0.43400710991E+02  0.00000000000E+00 0.  1.
         11    1    3    3    0    0  0.21853480555E+01 -0.29007978569E+01  0.41403305600E+01  0.55075141160E+01  0.51100000000E-03 0. -1.
        -11    1    3    3    0    0  0.29766209473E+02 -0.19134889192E+02 -0.18005720896E+02  0.39703616913E+02  0.51100000000E-03 0.  1.
         12    1    3    3    0    0  0.25392122575E+01 -0.96272562297E-01 -0.42393707416E+00  0.25761579800E+01  0.00000000000E+00 0. -1.
</event>
<event>
 7    1  0.2950722E-010  0.4778727E+02  0.7816164E-02  0.1312668E+00
        -11   -1    0    0    0    0  0.00000000000E+00  0.00000000000E+00  0.45593999997E+02  0.45594000000E+02  0.51100000000E-03 0.  1.
         11   -1    0    0    0    0 -0.00000000000E+00 -0.00000000000E+00 -0.45593999997E+02  0.45594000000E+02  0.51100000000E-03 0. -1.
    9900012    2    1    2    0    0 -0.42256675437E+02 -0.97343117230E+01 -0.17999131456E+01  0.47787272690E+02  0.20000007502E+02 0.  0.
        -12    1    1    2    0    0  0.42256675437E+02  0.97343117230E+01  0.17999131456E+01  0.43400727310E+02  0.00000000000E+00 0.  1.
         11    1    3    3    0    0 -0.12163648378E+02  0.38805134594E+01  0.46946752231E+00  0.12776272015E+02  0.51100000000E-03 0.  1.
        -11    1    3    3    0    0 -0.28200931392E+02 -0.10214593783E+02 -0.47911476837E+01  0.30374093466E+02  0.51100000000E-03 0. -1.
         12    1    3    3    0    0 -0.18920956674E+01 -0.34002313991E+01  0.25217670158E+01  0.46369072089E+01  0.00000000000E+00 0. -1.
</event>
<event>
 7    1  0.2950722E-010  0.4778727E+02  0.7816164E-02  0.1312668E+00
        -11   -1    0    0    0    0  0.00000000000E+00  0.00000000000E+00  0.45593999997E+02  0.45594000000E+02  0.51100000000E-03 0. -1.
         11   -1    0    0    0    0 -0.00000000000E+00 -0.00000000000E+00 -0.45593999997E+02  0.45594000000E+02  0.51100000000E-03 0.  1.
    9900012    2    1    2    0    0  0.18129953902E+02  0.35634571060E+02 -0.16885064662E+02  0.47787270838E+02  0.19999999060E+02 0.  0.
        -12    1    1    2    0    0 -0.18129953902E+02 -0.35634571060E+02  0.16885064662E+02  0.43400729162E+02  0.00000000000E+00 0.  1.
         11    1    3    3    0    0  0.40093086010E+01  0.44048960373E+01  0.30690090791E+01  0.67004836800E+01  0.51100000000E-03 0. -1.
        -11    1    3    3    0    0  0.88863875631E+01  0.11091526844E+02 -0.12674325440E+02  0.19042803819E+02  0.51100000000E-03 0.  1.
         12    1    3    3    0    0  0.52342577380E+01  0.20138148179E+02 -0.72797483004E+01  0.22043983339E+02  0.00000000000E+00 0. -1.
</event>
<event>
 7    1  0.2950722E-010  0.4778727E+02  0.7816164E-02  0.1312668E+00
        -11   -1    0    0    0    0  0.00000000000E+00  0.00000000000E+00  0.45593999997E+02  0.45594000000E+02  0.51100000000E-03 0. -1.
         11   -1    0    0    0    0 -0.00000000000E+00 -0.00000000000E+00 -0.45593999997E+02  0.45594000000E+02  0.51100000000E-03 0.  1.
    9900012    2    1    2    0    0  0.39917361316E+02 -0.11215756166E+02  0.12823191340E+02  0.47787272392E+02  0.20000006143E+02 0.  0.
        -12    1    1    2    0    0 -0.39917361316E+02  0.11215756166E+02 -0.12823191340E+02  0.43400727608E+02  0.00000000000E+00 0.  1.
         11    1    3    3    0    0  0.20987463935E+02 -0.60188794586E+01  0.64795683286E+01  0.22774664835E+02  0.51100000000E-03 0. -1.
        -11    1    3    3    0    0  0.75836375300E+00 -0.58525907065E+01  0.54304023239E+00  0.59264514269E+01  0.51100000000E-03 0.  1.
        -12    1    3    3    0    0  0.18171533628E+02  0.65571399909E+00  0.58005827792E+01  0.19086156130E+02  0.00000000000E+00 0.  1.
</event>
<event>
 7    1  0.2950722E-010  0.4778727E+02  0.7816164E-02  0.1312668E+00
        -11   -1    0    0    0    0  0.00000000000E+00  0.00000000000E+00  0.45593999997E+02  0.45594000000E+02  0.51100000000E-03 0. -1.
         11   -1    0    0    0    0 -0.00000000000E+00 -0.00000000000E+00 -0.45593999997E+02  0.45594000000E+02  0.51100000000E-03 0.  1.
    9900012    2    1    2    0    0  0.17896973522E+01 -0.39530831895E+02  0.17825097154E+02  0.47787265266E+02  0.19999973652E+02 0.  0.
        -12    1    1    2    0    0 -0.17896973522E+01  0.39530831895E+02 -0.17825097154E+02  0.43400734734E+02  0.00000000000E+00 0.  1.
         11    1    3    3    0    0 -0.53235378956E+01 -0.33778298061E+02  0.15795884579E+02  0.37667272871E+02  0.51100000000E-03 0. -1.
        -11    1    3    3    0    0  0.51630610384E+01 -0.43458288672E+01  0.31729276883E+01  0.74572714988E+01  0.51100000000E-03 0.  1.
         12    1    3    3    0    0  0.19501742093E+01 -0.14067049670E+01 -0.11437151130E+01  0.26627208961E+01  0.00000000000E+00 0. -1.
</event>
<event>
 7    1  0.2950722E-010  0.4778722E+02  0.7816164E-02  0.1312668E+00
        -11   -1    0    0    0    0  0.00000000000E+00  0.00000000000E+00  0.45593999997E+02  0.45594000000E+02  0.51100000000E-03 0. -1.
         11   -1    0    0    0    0 -0.00000000000E+00 -0.00000000000E+00 -0.45593999997E+02  0.45594000000E+02  0.51100000000E-03 0.  1.
    9900012    2    1    2    0    0  0.33352788285E+02  0.24815515310E+02  0.12466328732E+02  0.47787220761E+02  0.19999770737E+02 0.  0.
        -12    1    1    2    0    0 -0.33352788285E+02 -0.24815515310E+02 -0.12466328732E+02  0.43400779239E+02  0.00000000000E+00 0.  1.
         11    1    3    3    0    0  0.18427223421E+01  0.43973779010E+01  0.11920664716E+01  0.49146292605E+01  0.51100000000E-03 0. -1.
        -11    1    3    3    0    0  0.20719164969E+02  0.17085374744E+02 -0.83841567312E-01  0.26855183053E+02  0.51100000000E-03 0.  1.
        -12    1    3    3    0    0  0.10790900974E+02  0.33327626652E+01  0.11358103828E+02  0.16017408448E+02  0.00000000000E+00 0.  1.
</event>
<event>
 7    1  0.2950722E-010  0.4778727E+02  0.7816164E-02  0.1312668E+00
        -11   -1    0    0    0    0  0.00000000000E+00  0.00000000000E+00  0.45593999997E+02  0.45594000000E+02  0.51100000000E-03 0.  1.
         11   -1    0    0    0    0 -0.00000000000E+00 -0.00000000000E+00 -0.45593999997E+02  0.45594000000E+02  0.51100000000E-03 0. -1.
    9900012    2    1    2    0    0 -0.40044368561E+01 -0.29986332020E+02 -0.31119247696E+02  0.47787271899E+02  0.20000003896E+02 0.  0.
        -12    1    1    2    0    0  0.40044368561E+01  0.29986332020E+02  0.31119247696E+02  0.43400728101E+02  0.00000000000E+00 0.  1.
         11    1    3    3    0    0 -0.50562612212E-01 -0.15919907978E+02 -0.13143267418E+02  0.20644406150E+02  0.51100000000E-03 0. -1.
        -11    1    3    3    0    0 -0.69595859678E+01 -0.27347892994E+01 -0.11590169556E+02  0.13793003297E+02  0.51100000000E-03 0.  1.
        -12    1    3    3    0    0  0.30057117239E+01 -0.11331634743E+02 -0.63858107225E+01  0.13349862452E+02  0.00000000000E+00 0.  1.
</event>
<event>
 7    1  0.2950722E-010  0.4778727E+02  0.7816164E-02  0.1312668E+00
        -11   -1    0    0    0    0  0.00000000000E+00  0.00000000000E+00  0.45593999997E+02  0.45594000000E+02  0.51100000000E-03 0.  1.
         11   -1    0    0    0    0 -0.00000000000E+00 -0.00000000000E+00 -0.45593999997E+02  0.45594000000E+02  0.51100000000E-03 0. -1.
    9900012    2    1    2    0    0  0.26807149073E+02  0.80620789119E+00 -0.34122579762E+02  0.47787266570E+02  0.19999979601E+02 0.  0.
        -12    1    1    2    0    0 -0.26807149073E+02 -0.80620789119E+00  0.34122579762E+02  0.43400733430E+02  0.00000000000E+00 0.  1.
         11    1    3    3    0    0  0.17191112425E+02 -0.69596660711E+01 -0.16879003309E+02  0.25077321452E+02  0.51100000000E-03 0. -1.
        -11    1    3    3    0    0  0.10266191554E+02  0.87012180739E+01 -0.14739357400E+02  0.19958821153E+02  0.51100000000E-03 0.  1.
         12    1    3    3    0    0 -0.65015490571E+00 -0.93534411161E+00 -0.25042190529E+01  0.27511239655E+01  0.00000000000E+00 0. -1.
</event>
<event>
 7    1  0.2950722E-010  0.4778727E+02  0.7816164E-02  0.1312668E+00
        -11   -1    0    0    0    0  0.00000000000E+00  0.00000000000E+00  0.45593999997E+02  0.45594000000E+02  0.51100000000E-03 0.  1.
         11   -1    0    0    0    0 -0.00000000000E+00 -0.00000000000E+00 -0.45593999997E+02  0.45594000000E+02  0.51100000000E-03 0. -1.
    9900012    2    1    2    0    0 -0.18836715967E+02  0.42933800795E+01 -0.38863458834E+02  0.47787269436E+02  0.19999992668E+02 0.  0.
        -12    1    1    2    0    0  0.18836715967E+02 -0.42933800795E+01  0.38863458834E+02  0.43400730564E+02  0.00000000000E+00 0.  1.
         11    1    3    3    0    0 -0.18778628719E+02  0.50138752676E+01 -0.20261342414E+02  0.28076642222E+02  0.51100000000E-03 0. -1.
        -11    1    3    3    0    0  0.15454589190E+01  0.18515986371E+01 -0.13958571374E+02  0.14165400660E+02  0.51100000000E-03 0.  1.
         12    1    3    3    0    0 -0.16035461675E+01 -0.25720938252E+01 -0.46435450450E+01  0.55452265546E+01  0.00000000000E+00 0. -1.
</event>
<event>
 7    1  0.2950722E-010  0.4778727E+02  0.7816164E-02  0.1312668E+00
        -11   -1    0    0    0    0  0.00000000000E+00  0.00000000000E+00  0.45593999997E+02  0.45594000000E+02  0.51100000000E-03 0.  1.
         11   -1    0    0    0    0 -0.00000000000E+00 -0.00000000000E+00 -0.45593999997E+02  0.45594000000E+02  0.51100000000E-03 0. -1.
    9900012    2    1    2    0    0 -0.34111475549E+02  0.16849742133E+02 -0.20883409439E+02  0.47787270008E+02  0.19999995273E+02 0.  0.
        -12    1    1    2    0    0  0.34111475549E+02 -0.16849742133E+02  0.20883409439E+02  0.43400729992E+02  0.00000000000E+00 0.  1.
         11    1    3    3    0    0  0.12342126260E+01  0.25025728139E+01 -0.44472450890E+00  0.28255851862E+01  0.51100000000E-03 0. -1.
        -11    1    3    3    0    0 -0.19064426137E+02  0.27530788324E+01 -0.14502367921E+02  0.24111210310E+02  0.51100000000E-03 0.  1.
        -12    1    3    3    0    0 -0.16281262037E+02  0.11594090487E+02 -0.59363170088E+01  0.20850474512E+02  0.00000000000E+00 0.  1.
</event>
<event>
 7    1  0.2950722E-010  0.4778727E+02  0.7816164E-02  0.1312668E+00
        -11   -1    0    0    0    0  0.00000000000E+00  0.00000000000E+00  0.45593999997E+02  0.45594000000E+02  0.51100000000E-03 0.  1.
         11   -1    0    0    0    0 -0.00000000000E+00 -0.00000000000E+00 -0.45593999997E+02  0.45594000000E+02  0.51100000000E-03 0. -1.
    9900012    2    1    2    0    0  0.37862168842E+02  0.67992361352E+01 -0.20096009590E+02  0.47787273706E+02  0.20000012134E+02 0.  0.
        -12    1    1    2    0    0 -0.37862168842E+02 -0.67992361352E+01  0.20096009590E+02  0.43400726294E+02  0.00000000000E+00 0.  1.
         11    1    3    3    0    0 -0.28068908429E+00  0.28970650677E+01  0.78180077287E+00  0.30137991104E+01  0.51100000000E-03 0. -1.
        -11    1    3    3    0    0  0.10829362710E+02  0.34717776220E+01 -0.19459840461E+01  0.11537555666E+02  0.51100000000E-03 0.  1.
         12    1    3    3    0    0  0.27313495216E+02  0.43039344555E+00 -0.18931826317E+02  0.33235918930E+02  0.00000000000E+00 0. -1.
</event>
<event>
 7    1  0.2950722E-010  0.4778728E+02  0.7816164E-02  0.1312668E+00
        -11   -1    0    0    0    0  0.00000000000E+00  0.00000000000E+00  0.45593999997E+02  0.45594000000E+02  0.51100000000E-03 0.  1.
         11   -1    0    0    0    0 -0.00000000000E+00 -0.00000000000E+00 -0.45593999997E+02  0.45594000000E+02  0.51100000000E-03 0. -1.
    9900012    2    1    2    0    0 -0.52448074411E+01  0.35045305208E+02 -0.25058751537E+02  0.47787280527E+02  0.20000043233E+02 0.  0.
        -12    1    1    2    0    0  0.52448074411E+01 -0.35045305208E+02  0.25058751537E+02  0.43400719473E+02  0.00000000000E+00 0.  1.
         11    1    3    3    0    0 -0.70523909426E+00  0.87136370350E+01 -0.93634140637E+01  0.12810088046E+02  0.51100000000E-03 0. -1.
        -11    1    3    3    0    0  0.34394274800E+01  0.18656309928E+02 -0.14427209993E+02  0.23833420861E+02  0.51100000000E-03 0.  1.
        -12    1    3    3    0    0 -0.79789958269E+01  0.76753582451E+01 -0.12681274802E+01  0.11143771619E+02  0.00000000000E+00 0.  1.
</event>
<event>
 7    1  0.2950722E-010  0.4778729E+02  0.7816164E-02  0.1312668E+00
        -11   -1    0    0    0    0  0.00000000000E+00  0.00000000000E+00  0.45593999997E+02  0.45594000000E+02  0.51100000000E-03 0.  1.
         11   -1    0    0    0    0 -0.00000000000E+00 -0.00000000000E+00 -0.45593999997E+02  0.45594000000E+02  0.51100000000E-03 0. -1.
    9900012    2    1    2    0    0 -0.83995993734E-02  0.74364230235E+01 -0.42758876924E+02  0.47787285562E+02  0.20000066192E+02 0.  0.
        -12    1    1    2    0    0  0.83995993734E-02 -0.74364230235E+01  0.42758876924E+02  0.43400714438E+02  0.00000000000E+00 0.  1.
         11    1    3    3    0    0 -0.76210639403E+00  0.68386677668E+01 -0.10630476656E+02  0.12663144048E+02  0.51100000000E-03 0. -1.
        -11    1    3    3    0    0 -0.23782393478E+00 -0.43577942954E+00 -0.33281622085E+02  0.33285324586E+02  0.51100000000E-03 0.  1.
        -12    1    3    3    0    0  0.99153072943E+00  0.10335346863E+01  0.11532218173E+01  0.18388169281E+01  0.00000000000E+00 0.  1.
</event>
<event>
 7    1  0.2950722E-010  0.4778727E+02  0.7816164E-02  0.1312668E+00
        -11   -1    0    0    0    0  0.00000000000E+00  0.00000000000E+00  0.45593999997E+02  0.45594000000E+02  0.51100000000E-03 0.  1.
         11   -1    0    0    0    0 -0.00000000000E+00 -0.00000000000E+00 -0.45593999997E+02  0.45594000000E+02  0.51100000000E-03 0. -1.
    9900012    2    1    2    0    0 -0.40703655597E+01  0.24768425614E+02 -0.35405938012E+02  0.47787271553E+02  0.20000002320E+02 0.  0.
        -12    1    1    2    0    0  0.40703655597E+01 -0.24768425614E+02  0.35405938012E+02  0.43400728447E+02  0.00000000000E+00 0.  1.
         11    1    3    3    0    0  0.52020159123E+01  0.34044429438E+01 -0.70757505069E+01  0.94189939381E+01  0.51100000000E-03 0. -1.
        -11    1    3    3    0    0 -0.99253085353E+01  0.92759767589E+01 -0.12686524760E+02  0.18587721891E+02  0.51100000000E-03 0.  1.
        -12    1    3    3    0    0  0.65292706334E+00  0.12088005911E+02 -0.15643662745E+02  0.19780555724E+02  0.00000000000E+00 0.  1.
</event>
<event>
 7    1  0.2950722E-010  0.4778727E+02  0.7816164E-02  0.1312668E+00
        -11   -1    0    0    0    0  0.00000000000E+00  0.00000000000E+00  0.45593999997E+02  0.45594000000E+02  0.51100000000E-03 0.  1.
         11   -1    0    0    0    0 -0.00000000000E+00 -0.00000000000E+00 -0.45593999997E+02  0.45594000000E+02  0.51100000000E-03 0. -1.
    9900012    2    1    2    0    0  0.11452071033E+02  0.32302499502E+02 -0.26627471959E+02  0.47787266505E+02  0.19999979304E+02 0.  0.
        -12    1    1    2    0    0 -0.11452071033E+02 -0.32302499502E+02  0.26627471959E+02  0.43400733495E+02  0.00000000000E+00 0.  1.
         11    1    3    3    0    0  0.13080796231E+02  0.12741764854E+02 -0.19477269050E+02  0.26698760487E+02  0.51100000000E-03 0. -1.
        -11    1    3    3    0    0 -0.17956372764E+01  0.61302044906E+01 -0.18645642427E+01  0.66543459785E+01  0.51100000000E-03 0.  1.
         12    1    3    3    0    0  0.16691207788E+00  0.13430530157E+02 -0.52856386659E+01  0.14434160040E+02  0.00000000000E+00 0. -1.
</event>
<event>
 7    1  0.2950722E-010  0.4778728E+02  0.7816164E-02  0.1312668E+00
        -11   -1    0    0    0    0  0.00000000000E+00  0.00000000000E+00  0.45593999997E+02  0.45594000000E+02  0.51100000000E-03 0. -1.
         11   -1    0    0    0    0 -0.00000000000E+00 -0.00000000000E+00 -0.45593999997E+02  0.45594000000E+02  0.51100000000E-03 0.  1.
    9900012    2    1    2    0    0  0.27116989175E+02 -0.33849142574E+02 -0.15897086417E+01  0.47787277328E+02  0.20000028647E+02 0.  0.
        -12    1    1    2    0    0 -0.27116989175E+02  0.33849142574E+02  0.15897086417E+01  0.43400722672E+02  0.00000000000E+00 0.  1.
         11    1    3    3    0    0  0.70961100139E+01 -0.11195553987E+02 -0.88056243838E+01  0.15913334894E+02  0.51100000000E-03 0.  1.
        -11    1    3    3    0    0  0.63172917491E+01 -0.42572686428E+01  0.43063205031E+01  0.87508232686E+01  0.51100000000E-03 0. -1.
         12    1    3    3    0    0  0.13703587412E+02 -0.18396319945E+02  0.29095952389E+01  0.23123119165E+02  0.00000000000E+00 0. -1.
</event>
<event>
 7    1  0.2950722E-010  0.4778727E+02  0.7816164E-02  0.1312668E+00
        -11   -1    0    0    0    0  0.00000000000E+00  0.00000000000E+00  0.45593999997E+02  0.45594000000E+02  0.51100000000E-03 0.  1.
         11   -1    0    0    0    0 -0.00000000000E+00 -0.00000000000E+00 -0.45593999997E+02  0.45594000000E+02  0.51100000000E-03 0. -1.
    9900012    2    1    2    0    0 -0.27063738785E+02  0.33708198268E+02 -0.38645201304E+01  0.47787273009E+02  0.20000008958E+02 0.  0.
        -12    1    1    2    0    0  0.27063738785E+02 -0.33708198268E+02  0.38645201304E+01  0.43400726991E+02  0.00000000000E+00 0.  1.
         11    1    3    3    0    0 -0.10328581624E+02  0.19237168178E+02  0.40205389813E+00  0.21838266540E+02  0.51100000000E-03 0. -1.
        -11    1    3    3    0    0  0.90494133423E+00 -0.13366838081E+01  0.67964496370E+00  0.17514451059E+01  0.51100000000E-03 0.  1.
        -12    1    3    3    0    0 -0.17640098495E+02  0.15807713898E+02 -0.49462189923E+01  0.24197561363E+02  0.00000000000E+00 0.  1.
</event>
<event>
 7    1  0.2950722E-010  0.4778727E+02  0.7816164E-02  0.1312668E+00
        -11   -1    0    0    0    0  0.00000000000E+00  0.00000000000E+00  0.45593999997E+02  0.45594000000E+02  0.51100000000E-03 0.  1.
         11   -1    0    0    0    0 -0.00000000000E+00 -0.00000000000E+00 -0.45593999997E+02  0.45594000000E+02  0.51100000000E-03 0. -1.
    9900012    2    1    2    0    0 -0.23844580231E+02 -0.27406340729E+02 -0.23747671024E+02  0.47787269619E+02  0.19999993500E+02 0.  0.
        -12    1    1    2    0    0  0.23844580231E+02  0.27406340729E+02  0.23747671024E+02  0.43400730381E+02  0.00000000000E+00 0.  1.
         11    1    3    3    0    0 -0.17873388909E+02 -0.24281183961E+02 -0.11856688623E+02  0.32397762130E+02  0.51100000000E-03 0. -1.
        -11    1    3    3    0    0 -0.47448308996E+01  0.12146387312E+01 -0.40997754260E+01  0.63872471628E+01  0.51100000000E-03 0.  1.
         12    1    3    3    0    0 -0.12263604226E+01 -0.43397954996E+01 -0.77912069745E+01  0.90022603264E+01  0.00000000000E+00 0. -1.
</event>
<event>
 7    1  0.2950722E-010  0.4778727E+02  0.7816164E-02  0.1312668E+00
        -11   -1    0    0    0    0  0.00000000000E+00  0.00000000000E+00  0.45593999997E+02  0.45594000000E+02  0.51100000000E-03 0.  1.
         11   -1    0    0    0    0 -0.00000000000E+00 -0.00000000000E+00 -0.45593999997E+02  0.45594000000E+02  0.51100000000E-03 0. -1.
    9900012    2    1    2    0    0  0.55785970595E+01  0.19741465399E+02 -0.38246267055E+02  0.47787272531E+02  0.20000006776E+02 0.  0.
        -12    1    1    2    0    0 -0.55785970595E+01 -0.19741465399E+02  0.38246267055E+02  0.43400727469E+02  0.00000000000E+00 0.  1.
         11    1    3    3    0    0 -0.12075114682E+01  0.17342174111E+02 -0.31831161858E+02  0.36268884079E+02  0.51100000000E-03 0. -1.
        -11    1    3    3    0    0  0.24563892002E+01  0.41416766641E+01 -0.40187226206E+01  0.62719586458E+01  0.51100000000E-03 0.  1.
         12    1    3    3    0    0  0.43297193276E+01 -0.17423853765E+01 -0.23963825764E+01  0.52464298059E+01  0.00000000000E+00 0. -1.
</event>
<event>
 7    1  0.2950722E-010  0.4778727E+02  0.7816164E-02  0.1312668E+00
        -11   -1    0    0    0    0  0.00000000000E+00  0.00000000000E+00  0.45593999997E+02  0.45594000000E+02  0.51100000000E-03 0.  1.
         11   -1    0    0    0    0 -0.00000000000E+00 -0.00000000000E+00 -0.45593999997E+02  0.45594000000E+02  0.51100000000E-03 0. -1.
    9900012    2    1    2    0    0  0.68771521187E+01 -0.91570559625E+01 -0.41862589764E+02  0.47787270548E+02  0.19999997738E+02 0.  0.
        -12    1    1    2    0    0 -0.68771521187E+01  0.91570559625E+01  0.41862589764E+02  0.43400729452E+02  0.00000000000E+00 0.  1.
         11    1    3    3    0    0  0.10687491062E+02 -0.10123329041E+02 -0.24489409184E+02  0.28573334046E+02  0.51100000000E-03 0. -1.
        -11    1    3    3    0    0 -0.31643636784E+01 -0.23858838937E+01 -0.13409107562E+02  0.13982482087E+02  0.51100000000E-03 0.  1.
         12    1    3    3    0    0 -0.64597526442E+00  0.33521569720E+01 -0.39640730187E+01  0.52314544158E+01  0.00000000000E+00 0. -1.
</event>
<event>
 7    1  0.2950722E-010  0.4778727E+02  0.7816164E-02  0.1312668E+00
        -11   -1    0    0    0    0  0.00000000000E+00  0.00000000000E+00  0.45593999997E+02  0.45594000000E+02  0.51100000000E-03 0. -1.
         11   -1    0    0    0    0 -0.00000000000E+00 -0.00000000000E+00 -0.45593999997E+02  0.45594000000E+02  0.51100000000E-03 0.  1.
    9900012    2    1    2    0    0 -0.22995879201E+02 -0.36800990084E+02 -0.70713034994E+00  0.47787269998E+02  0.19999995227E+02 0.  0.
        -12    1    1    2    0    0  0.22995879201E+02  0.36800990084E+02  0.70713034994E+00  0.43400730002E+02  0.00000000000E+00 0.  1.
         11    1    3    3    0    0 -0.19208558192E+01 -0.76129890804E+01  0.61393386631E+01  0.99668836302E+01  0.51100000000E-03 0. -1.
        -11    1    3    3    0    0 -0.36557050763E+01 -0.12252272177E+02 -0.37766257471E+01  0.13332113688E+02  0.51100000000E-03 0.  1.
         12    1    3    3    0    0 -0.17419318306E+02 -0.16935728827E+02 -0.30698432659E+01  0.24488272679E+02  0.00000000000E+00 0. -1.
</event>
<event>
 7    1  0.2950722E-010  0.4778727E+02  0.7816164E-02  0.1312668E+00
        -11   -1    0    0    0    0  0.00000000000E+00  0.00000000000E+00  0.45593999997E+02  0.45594000000E+02  0.51100000000E-03 0.  1.
         11   -1    0    0    0    0 -0.00000000000E+00 -0.00000000000E+00 -0.45593999997E+02  0.45594000000E+02  0.51100000000E-03 0. -1.
    9900012    2    1    2    0    0  0.20889233151E+02  0.13216870459E+02 -0.35673204114E+02  0.47787271686E+02  0.20000002927E+02 0.  0.
        -12    1    1    2    0    0 -0.20889233151E+02 -0.13216870459E+02  0.35673204114E+02  0.43400728314E+02  0.00000000000E+00 0.  1.
         11    1    3    3    0    0  0.18415775748E+01  0.62627153583E+01 -0.18211050087E+02  0.19345680582E+02  0.51100000000E-03 0. -1.
        -11    1    3    3    0    0 -0.90228149337E-01  0.27744607284E+01 -0.30361022649E+01  0.41138413528E+01  0.51100000000E-03 0.  1.
         12    1    3    3    0    0  0.19137883726E+02  0.41796943719E+01 -0.14426051762E+02  0.24327749752E+02  0.00000000000E+00 0. -1.
</event>
<event>
 7    1  0.2950722E-010  0.4778727E+02  0.7816164E-02  0.1312668E+00
        -11   -1    0    0    0    0  0.00000000000E+00  0.00000000000E+00  0.45593999997E+02  0.45594000000E+02  0.51100000000E-03 0.  1.
         11   -1    0    0    0    0 -0.00000000000E+00 -0.00000000000E+00 -0.45593999997E+02  0.45594000000E+02  0.51100000000E-03 0. -1.
    9900012    2    1    2    0    0 -0.41088337331E+02 -0.83723006417E+01  0.11192690554E+02  0.47787271843E+02  0.20000003643E+02 0.  0.
        -12    1    1    2    0    0  0.41088337331E+02  0.83723006417E+01 -0.11192690554E+02  0.43400728157E+02  0.00000000000E+00 0.  1.
         11    1    3    3    0    0 -0.24882508774E+02 -0.56624845470E+01  0.48670061270E+01  0.25978658992E+02  0.51100000000E-03 0. -1.
        -11    1    3    3    0    0 -0.84384655499E+01  0.41184286033E+01 -0.52321469158E+00  0.94044090124E+01  0.51100000000E-03 0.  1.
        -12    1    3    3    0    0 -0.77673630077E+01 -0.68282446980E+01  0.68488991186E+01  0.12404203839E+02  0.00000000000E+00 0.  1.
</event>
<event>
 7    1  0.2950722E-010  0.4778727E+02  0.7816164E-02  0.1312668E+00
        -11   -1    0    0    0    0  0.00000000000E+00  0.00000000000E+00  0.45593999997E+02  0.45594000000E+02  0.51100000000E-03 0. -1.
         11   -1    0    0    0    0 -0.00000000000E+00 -0.00000000000E+00 -0.45593999997E+02  0.45594000000E+02  0.51100000000E-03 0.  1.
    9900012    2    1    2    0    0 -0.39791387477E+02 -0.37021838409E+01  0.16928160757E+02  0.47787270638E+02  0.19999998147E+02 0.  0.
        -12    1    1    2    0    0  0.39791387477E+02  0.37021838409E+01 -0.16928160757E+02  0.43400729362E+02  0.00000000000E+00 0.  1.
         11    1    3    3    0    0 -0.40924836397E+01  0.39662883769E+01 -0.18969580232E+01  0.60065227739E+01  0.51100000000E-03 0.  1.
        -11    1    3    3    0    0 -0.13840463163E+02 -0.63392880329E+01  0.97382344530E+01  0.18071474867E+02  0.51100000000E-03 0. -1.
         12    1    3    3    0    0 -0.21858440674E+02 -0.13291841849E+01  0.90868843270E+01  0.23709272997E+02  0.00000000000E+00 0. -1.
</event>
<event>
 7    1  0.2950722E-010  0.4778724E+02  0.7816164E-02  0.1312668E+00
        -11   -1    0    0    0    0  0.00000000000E+00  0.00000000000E+00  0.45593999997E+02  0.45594000000E+02  0.51100000000E-03 0. -1.
         11   -1    0    0    0    0 -0.00000000000E+00 -0.00000000000E+00 -0.45593999997E+02  0.45594000000E+02  0.51100000000E-03 0.  1.
    9900012    2    1    2    0    0 -0.35816314667E+02 -0.36745296918E+01  0.24234593035E+02  0.47787238897E+02  0.19999853426E+02 0.  0.
        -12    1    1    2    0    0  0.35816314667E+02  0.36745296918E+01 -0.24234593035E+02  0.43400761103E+02  0.00000000000E+00 0.  1.
         11    1    3    3    0    0 -0.13991305905E+02 -0.62981443038E+01  0.29293078491E+01  0.15620630824E+02  0.51100000000E-03 0. -1.
        -11    1    3    3    0    0 -0.41933109761E+00  0.15547786313E+01  0.49536944243E+01  0.52088639714E+01  0.51100000000E-03 0.  1.
         12    1    3    3    0    0 -0.21405677664E+02  0.10688359807E+01  0.16351590761E+02  0.26957744102E+02  0.00000000000E+00 0. -1.
</event>
<event>
 7    1  0.2950722E-010  0.4778727E+02  0.7816164E-02  0.1312668E+00
        -11   -1    0    0    0    0  0.00000000000E+00  0.00000000000E+00  0.45593999997E+02  0.45594000000E+02  0.51100000000E-03 0. -1.
         11   -1    0    0    0    0 -0.00000000000E+00 -0.00000000000E+00 -0.45593999997E+02  0.45594000000E+02  0.51100000000E-03 0.  1.
    9900012    2    1    2    0    0  0.30419591836E+02  0.14962190503E+02 -0.27099897602E+02  0.47787272332E+02  0.20000005868E+02 0.  0.
        -12    1    1    2    0    0 -0.30419591836E+02 -0.14962190503E+02  0.27099897602E+02  0.43400727668E+02  0.00000000000E+00 0.  1.
         11    1    3    3    0    0  0.10754565136E+02 -0.26202395720E+01 -0.51003648755E+01  0.12187700718E+02  0.51100000000E-03 0. -1.
        -11    1    3    3    0    0  0.81845547505E+00  0.53137718633E+01 -0.56283047211E+01  0.77835631349E+01  0.51100000000E-03 0.  1.
         12    1    3    3    0    0  0.18846571225E+02  0.12268658212E+02 -0.16371228006E+02  0.27816008478E+02  0.00000000000E+00 0. -1.
</event>
<event>
 7    1  0.2950722E-010  0.4778727E+02  0.7816164E-02  0.1312668E+00
        -11   -1    0    0    0    0  0.00000000000E+00  0.00000000000E+00  0.45593999997E+02  0.45594000000E+02  0.51100000000E-03 0.  1.
         11   -1    0    0    0    0 -0.00000000000E+00 -0.00000000000E+00 -0.45593999997E+02  0.45594000000E+02  0.51100000000E-03 0. -1.
    9900012    2    1    2    0    0  0.15828447371E+02  0.15619758308E+02 -0.37270724356E+02  0.47787268557E+02  0.19999988657E+02 0.  0.
        -12    1    1    2    0    0 -0.15828447371E+02 -0.15619758308E+02  0.37270724356E+02  0.43400731443E+02  0.00000000000E+00 0.  1.
         11    1    3    3    0    0  0.84257594512E+01  0.14014460120E+02 -0.22439745973E+02  0.27765819174E+02  0.51100000000E-03 0. -1.
        -11    1    3    3    0    0  0.93037314340E+01 -0.15766530971E+00 -0.66435804834E+01  0.11433347666E+02  0.51100000000E-03 0.  1.
        -12    1    3    3    0    0 -0.19010435138E+01  0.17629634975E+01 -0.81873978997E+01  0.85881017171E+01  0.00000000000E+00 0.  1.
</event>
<event>
 7    1  0.2950722E-010  0.4778727E+02  0.7816164E-02  0.1312668E+00
        -11   -1    0    0    0    0  0.00000000000E+00  0.00000000000E+00  0.45593999997E+02  0.45594000000E+02  0.51100000000E-03 0.  1.
         11   -1    0    0    0    0 -0.00000000000E+00 -0.00000000000E+00 -0.45593999997E+02  0.45594000000E+02  0.51100000000E-03 0. -1.
    9900012    2    1    2    0    0  0.36215350285E+02  0.60353114111E+01  0.23144038075E+02  0.47787273295E+02  0.20000010262E+02 0.  0.
        -12    1    1    2    0    0 -0.36215350285E+02 -0.60353114111E+01 -0.23144038075E+02  0.43400726705E+02  0.00000000000E+00 0.  1.
         11    1    3    3    0    0  0.12518022807E+02  0.18106248165E+01  0.97183771627E+01  0.15950740176E+02  0.51100000000E-03 0. -1.
        -11    1    3    3    0    0  0.95081724836E+01  0.54861692763E+01  0.13741585560E+02  0.17587909803E+02  0.51100000000E-03 0.  1.
        -12    1    3    3    0    0  0.14189154994E+02 -0.12614826817E+01 -0.31592464690E+00  0.14248623316E+02  0.00000000000E+00 0.  1.
</event>
<event>
 7    1  0.2950722E-010  0.4778727E+02  0.7816164E-02  0.1312668E+00
        -11   -1    0    0    0    0  0.00000000000E+00  0.00000000000E+00  0.45593999997E+02  0.45594000000E+02  0.51100000000E-03 0. -1.
         11   -1    0    0    0    0 -0.00000000000E+00 -0.00000000000E+00 -0.45593999997E+02  0.45594000000E+02  0.51100000000E-03 0.  1.
    9900012    2    1    2    0    0  0.41697374059E+02  0.40918912644E+01  0.11322928117E+02  0.47787270989E+02  0.19999999748E+02 0.  0.
        -12    1    1    2    0    0 -0.41697374059E+02 -0.40918912644E+01 -0.11322928117E+02  0.43400729011E+02  0.00000000000E+00 0.  1.
         11    1    3    3    0    0  0.40505644333E+02  0.74399278023E+01  0.10773706355E+02  0.42569149597E+02  0.51100000000E-03 0. -1.
        -11    1    3    3    0    0 -0.11388706393E+01 -0.14210830729E+00 -0.25045499694E+00  0.11747123353E+01  0.51100000000E-03 0.  1.
         12    1    3    3    0    0  0.23306003650E+01 -0.32059282306E+01  0.79967675912E+00  0.40434090567E+01  0.00000000000E+00 0. -1.
</event>
<event>
 7    1  0.2950722E-010  0.4778727E+02  0.7816164E-02  0.1312668E+00
        -11   -1    0    0    0    0  0.00000000000E+00  0.00000000000E+00  0.45593999997E+02  0.45594000000E+02  0.51100000000E-03 0.  1.
         11   -1    0    0    0    0 -0.00000000000E+00 -0.00000000000E+00 -0.45593999997E+02  0.45594000000E+02  0.51100000000E-03 0. -1.
    9900012    2    1    2    0    0  0.20711113489E+02  0.33492186961E+02 -0.18246833418E+02  0.47787265684E+02  0.19999975559E+02 0.  0.
        -12    1    1    2    0    0 -0.20711113489E+02 -0.33492186961E+02  0.18246833418E+02  0.43400734316E+02  0.00000000000E+00 0.  1.
         11    1    3    3    0    0  0.10119671267E+02  0.21614708386E+02 -0.17163540410E+02  0.29397116947E+02  0.51100000000E-03 0. -1.
        -11    1    3    3    0    0  0.75933039749E+00  0.24276042629E+01  0.32077796125E+01  0.40938606978E+01  0.51100000000E-03 0.  1.
        -12    1    3    3    0    0  0.98321118243E+01  0.94498743127E+01 -0.42910726212E+01  0.14296288039E+02  0.00000000000E+00 0.  1.
</event>
<event>
 7    1  0.2950722E-010  0.4778727E+02  0.7816164E-02  0.1312668E+00
        -11   -1    0    0    0    0  0.00000000000E+00  0.00000000000E+00  0.45593999997E+02  0.45594000000E+02  0.51100000000E-03 0. -1.
         11   -1    0    0    0    0 -0.00000000000E+00 -0.00000000000E+00 -0.45593999997E+02  0.45594000000E+02  0.51100000000E-03 0.  1.
    9900012    2    1    2    0    0  0.39524301241E+02  0.17924190080E+02  0.42037672147E+00  0.47787266190E+02  0.19999977868E+02 0.  0.
        -12    1    1    2    0    0 -0.39524301241E+02 -0.17924190080E+02 -0.42037672147E+00  0.43400733810E+02  0.00000000000E+00 0.  1.
         11    1    3    3    0    0  0.19446651974E+02  0.40800170038E+01 -0.41657223459E+00  0.19874414317E+02  0.51100000000E-03 0. -1.
        -11    1    3    3    0    0  0.76296852653E+01  0.13066767728E+02 -0.15634876440E+01  0.15211739216E+02  0.51100000000E-03 0.  1.
        -12    1    3    3    0    0  0.12447964002E+02  0.77740534875E+00  0.24004366001E+01  0.12701112658E+02  0.00000000000E+00 0.  1.
</event>
<event>
 7    1  0.2950722E-010  0.4778727E+02  0.7816164E-02  0.1312668E+00
        -11   -1    0    0    0    0  0.00000000000E+00  0.00000000000E+00  0.45593999997E+02  0.45594000000E+02  0.51100000000E-03 0. -1.
         11   -1    0    0    0    0 -0.00000000000E+00 -0.00000000000E+00 -0.45593999997E+02  0.45594000000E+02  0.51100000000E-03 0.  1.
    9900012    2    1    2    0    0  0.11136507428E+02 -0.38699978424E+02  0.16183733334E+02  0.47787270141E+02  0.19999995879E+02 0.  0.
        -12    1    1    2    0    0 -0.11136507428E+02  0.38699978424E+02 -0.16183733334E+02  0.43400729859E+02  0.00000000000E+00 0.  1.
         11    1    3    3    0    0  0.10801114940E+02 -0.25056634679E+02  0.49282604347E+01  0.27727004464E+02  0.51100000000E-03 0. -1.
        -11    1    3    3    0    0 -0.43532236415E+01 -0.52682124257E+01  0.61236675102E+01  0.91762695183E+01  0.51100000000E-03 0.  1.
        -12    1    3    3    0    0  0.46886161295E+01 -0.83751313194E+01  0.51318053893E+01  0.10883996159E+02  0.00000000000E+00 0.  1.
</event>
<event>
 7    1  0.2950722E-010  0.4778727E+02  0.7816164E-02  0.1312668E+00
        -11   -1    0    0    0    0  0.00000000000E+00  0.00000000000E+00  0.45593999997E+02  0.45594000000E+02  0.51100000000E-03 0.  1.
         11   -1    0    0    0    0 -0.00000000000E+00 -0.00000000000E+00 -0.45593999997E+02  0.45594000000E+02  0.51100000000E-03 0. -1.
    9900012    2    1    2    0    0 -0.32628741892E+02  0.37170838552E+01 -0.28375549891E+02  0.47787270266E+02  0.19999996450E+02 0.  0.
        -12    1    1    2    0    0  0.32628741892E+02 -0.37170838552E+01  0.28375549891E+02  0.43400729734E+02  0.00000000000E+00 0.  1.
         11    1    3    3    0    0 -0.68112927733E+01  0.83688310960E+01 -0.10755728894E+02  0.15235378153E+02  0.51100000000E-03 0.  1.
        -11    1    3    3    0    0 -0.26191448744E+02 -0.51828997178E+01 -0.16987673375E+02  0.31645465453E+02  0.51100000000E-03 0. -1.
         12    1    3    3    0    0  0.37399962538E+00  0.53115247707E+00 -0.63214762221E+00  0.90642665999E+00  0.00000000000E+00 0. -1.
</event>
<event>
 7    1  0.2950722E-010  0.4778728E+02  0.7816164E-02  0.1312668E+00
        -11   -1    0    0    0    0  0.00000000000E+00  0.00000000000E+00  0.45593999997E+02  0.45594000000E+02  0.51100000000E-03 0.  1.
         11   -1    0    0    0    0 -0.00000000000E+00 -0.00000000000E+00 -0.45593999997E+02  0.45594000000E+02  0.51100000000E-03 0. -1.
    9900012    2    1    2    0    0  0.76595025933E+01 -0.50548296426E+01 -0.42419376423E+02  0.47787276748E+02  0.20000026005E+02 0.  0.
        -12    1    1    2    0    0 -0.76595025933E+01  0.50548296426E+01  0.42419376423E+02  0.43400723252E+02  0.00000000000E+00 0.  1.
         11    1    3    3    0    0  0.35325450925E+00 -0.10391786984E+02 -0.24579123154E+02  0.26687962094E+02  0.51100000000E-03 0. -1.
        -11    1    3    3    0    0  0.83470502535E+01  0.33267940525E+01 -0.14686983040E+02  0.17217673411E+02  0.51100000000E-03 0.  1.
        -12    1    3    3    0    0 -0.10408021694E+01  0.20101632886E+01 -0.31532702284E+01  0.38816412426E+01  0.00000000000E+00 0.  1.
</event>
<event>
 7    1  0.2950722E-010  0.4778727E+02  0.7816164E-02  0.1312668E+00
        -11   -1    0    0    0    0  0.00000000000E+00  0.00000000000E+00  0.45593999997E+02  0.45594000000E+02  0.51100000000E-03 0.  1.
         11   -1    0    0    0    0 -0.00000000000E+00 -0.00000000000E+00 -0.45593999997E+02  0.45594000000E+02  0.51100000000E-03 0. -1.
    9900012    2    1    2    0    0  0.31620051220E+02  0.23668632899E+02 -0.17988652093E+02  0.47787269284E+02  0.19999991976E+02 0.  0.
        -12    1    1    2    0    0 -0.31620051220E+02 -0.23668632899E+02  0.17988652093E+02  0.43400730716E+02  0.00000000000E+00 0.  1.
         11    1    3    3    0    0  0.27397212626E+02  0.16005209417E+02 -0.62907873535E+01  0.32347302730E+02  0.51100000000E-03 0. -1.
        -11    1    3    3    0    0  0.51874860977E+01  0.69365847115E+01 -0.11135493449E+02  0.14107637438E+02  0.51100000000E-03 0.  1.
         12    1    3    3    0    0 -0.96464750309E+00  0.72683877132E+00 -0.56237129101E+00  0.13323291161E+01  0.00000000000E+00 0. -1.
</event>
<event>
 7    1  0.2950722E-010  0.4778728E+02  0.7816164E-02  0.1312668E+00
        -11   -1    0    0    0    0  0.00000000000E+00  0.00000000000E+00  0.45593999997E+02  0.45594000000E+02  0.51100000000E-03 0.  1.
         11   -1    0    0    0    0 -0.00000000000E+00 -0.00000000000E+00 -0.45593999997E+02  0.45594000000E+02  0.51100000000E-03 0. -1.
    9900012    2    1    2    0    0  0.37243340104E+02  0.15200467018E+01 -0.22231627743E+02  0.47787283460E+02  0.20000056609E+02 0.  0.
        -12    1    1    2    0    0 -0.37243340104E+02 -0.15200467018E+01  0.22231627743E+02  0.43400716540E+02  0.00000000000E+00 0.  1.
         11    1    3    3    0    0  0.14869025640E+02  0.25866494826E+01 -0.20023491555E+02  0.25074267554E+02  0.51100000000E-03 0. -1.
        -11    1    3    3    0    0  0.14996149909E+02 -0.20175557815E+01 -0.20729274653E+01  0.15272592182E+02  0.51100000000E-03 0.  1.
         12    1    3    3    0    0  0.73781645545E+01  0.95095300064E+00 -0.13520872260E+00  0.74404237246E+01  0.00000000000E+00 0. -1.
</event>
<event>
 7    1  0.2950722E-010  0.4778725E+02  0.7816164E-02  0.1312668E+00
        -11   -1    0    0    0    0  0.00000000000E+00  0.00000000000E+00  0.45593999997E+02  0.45594000000E+02  0.51100000000E-03 0.  1.
         11   -1    0    0    0    0 -0.00000000000E+00 -0.00000000000E+00 -0.45593999997E+02  0.45594000000E+02  0.51100000000E-03 0. -1.
    9900012    2    1    2    0    0 -0.42985652407E+02 -0.45391773960E+01 -0.39057310513E+01  0.47787249092E+02  0.19999899910E+02 0.  0.
        -12    1    1    2    0    0  0.42985652407E+02  0.45391773960E+01  0.39057310513E+01  0.43400750908E+02  0.00000000000E+00 0.  1.
         11    1    3    3    0    0 -0.16091680339E+02  0.56151734870E+01 -0.17206370702E+01  0.17129884460E+02  0.51100000000E-03 0. -1.
        -11    1    3    3    0    0 -0.35654441062E+01  0.20235888797E+01 -0.13921698504E+01  0.43296005338E+01  0.51100000000E-03 0.  1.
         12    1    3    3    0    0 -0.23328527962E+02 -0.12177939763E+02 -0.79292413064E+00  0.26327764099E+02  0.00000000000E+00 0. -1.
</event>
<event>
 7    1  0.2950722E-010  0.4778727E+02  0.7816164E-02  0.1312668E+00
        -11   -1    0    0    0    0  0.00000000000E+00  0.00000000000E+00  0.45593999997E+02  0.45594000000E+02  0.51100000000E-03 0.  1.
         11   -1    0    0    0    0 -0.00000000000E+00 -0.00000000000E+00 -0.45593999997E+02  0.45594000000E+02  0.51100000000E-03 0. -1.
    9900012    2    1    2    0    0  0.38837701652E+02 -0.62362712961E+01 -0.18340256706E+02  0.47787272295E+02  0.20000005701E+02 0.  0.
        -12    1    1    2    0    0 -0.38837701652E+02  0.62362712961E+01  0.18340256706E+02  0.43400727705E+02  0.00000000000E+00 0.  1.
         11    1    3    3    0    0  0.30388336059E+02 -0.81675382929E+01 -0.13394519420E+02  0.34199017543E+02  0.51100000000E-03 0. -1.
        -11    1    3    3    0    0  0.17642209737E+01  0.20937856565E+01 -0.62062599500E+01  0.67833676627E+01  0.51100000000E-03 0.  1.
         12    1    3    3    0    0  0.66851446198E+01 -0.16251865962E+00  0.12605226644E+01  0.68048870887E+01  0.00000000000E+00 0. -1.
</event>
<event>
 7    1  0.2950722E-010  0.4778727E+02  0.7816164E-02  0.1312668E+00
        -11   -1    0    0    0    0  0.00000000000E+00  0.00000000000E+00  0.45593999997E+02  0.45594000000E+02  0.51100000000E-03 0.  1.
         11   -1    0    0    0    0 -0.00000000000E+00 -0.00000000000E+00 -0.45593999997E+02  0.45594000000E+02  0.51100000000E-03 0. -1.
    9900012    2    1    2    0    0  0.26322817016E+02  0.28417929988E+02 -0.19574315146E+02  0.47787271274E+02  0.20000001049E+02 0.  0.
        -12    1    1    2    0    0 -0.26322817016E+02 -0.28417929988E+02  0.19574315146E+02  0.43400728726E+02  0.00000000000E+00 0.  1.
         11    1    3    3    0    0  0.18599659295E+02  0.21101664480E+02 -0.19287215806E+02  0.34106073704E+02  0.51100000000E-03 0. -1.
        -11    1    3    3    0    0  0.71915904876E+01  0.89474384231E+01  0.10197283069E+01  0.11524559608E+02  0.51100000000E-03 0.  1.
         12    1    3    3    0    0  0.53156723374E+00 -0.16311729149E+01 -0.13068276464E+01  0.21566379622E+01  0.00000000000E+00 0. -1.
</event>
<event>
 7    1  0.2950722E-010  0.4778727E+02  0.7816164E-02  0.1312668E+00
        -11   -1    0    0    0    0  0.00000000000E+00  0.00000000000E+00  0.45593999997E+02  0.45594000000E+02  0.51100000000E-03 0.  1.
         11   -1    0    0    0    0 -0.00000000000E+00 -0.00000000000E+00 -0.45593999997E+02  0.45594000000E+02  0.51100000000E-03 0. -1.
    9900012    2    1    2    0    0  0.11329453429E+02  0.30172881025E+02 -0.29066544343E+02  0.47787271153E+02  0.20000000496E+02 0.  0.
        -12    1    1    2    0    0 -0.11329453429E+02 -0.30172881025E+02  0.29066544343E+02  0.43400728847E+02  0.00000000000E+00 0.  1.
         11    1    3    3    0    0  0.91783766725E+01  0.18480779416E+02 -0.21027969569E+02  0.29461115230E+02  0.51100000000E-03 0. -1.
        -11    1    3    3    0    0 -0.44805888861E+01  0.60022320721E+01 -0.52759864601E+01  0.91617956757E+01  0.51100000000E-03 0.  1.
        -12    1    3    3    0    0  0.66316656429E+01  0.56898695368E+01 -0.27625883146E+01  0.91643602472E+01  0.00000000000E+00 0.  1.
</event>
<event>
 7    1  0.2950722E-010  0.4778727E+02  0.7816164E-02  0.1312668E+00
        -11   -1    0    0    0    0  0.00000000000E+00  0.00000000000E+00  0.45593999997E+02  0.45594000000E+02  0.51100000000E-03 0. -1.
         11   -1    0    0    0    0 -0.00000000000E+00 -0.00000000000E+00 -0.45593999997E+02  0.45594000000E+02  0.51100000000E-03 0.  1.
    9900012    2    1    2    0    0  0.35404402667E+02  0.22909835152E+02  0.10261147804E+02  0.47787269256E+02  0.19999991845E+02 0.  0.
        -12    1    1    2    0    0 -0.35404402667E+02 -0.22909835152E+02 -0.10261147804E+02  0.43400730744E+02  0.00000000000E+00 0.  1.
         11    1    3    3    0    0  0.20010546208E+02  0.84492667228E+01  0.10665695979E+02  0.24198535879E+02  0.51100000000E-03 0. -1.
        -11    1    3    3    0    0  0.30786195516E+01  0.22055219807E+01 -0.43550737940E+01  0.57713857576E+01  0.51100000000E-03 0.  1.
        -12    1    3    3    0    0  0.12315236907E+02  0.12255046448E+02  0.39505256185E+01  0.17817347620E+02  0.00000000000E+00 0.  1.
</event>
<event>
 7    1  0.2950722E-010  0.4778727E+02  0.7816164E-02  0.1312668E+00
        -11   -1    0    0    0    0  0.00000000000E+00  0.00000000000E+00  0.45593999997E+02  0.45594000000E+02  0.51100000000E-03 0. -1.
         11   -1    0    0    0    0 -0.00000000000E+00 -0.00000000000E+00 -0.45593999997E+02  0.45594000000E+02  0.51100000000E-03 0.  1.
    9900012    2    1    2    0    0 -0.35885584585E+02 -0.19881313484E+02  0.14162680158E+02  0.47787270558E+02  0.19999997781E+02 0.  0.
        -12    1    1    2    0    0  0.35885584585E+02  0.19881313484E+02 -0.14162680158E+02  0.43400729442E+02  0.00000000000E+00 0.  1.
         11    1    3    3    0    0 -0.23085329138E+02 -0.15366346919E+02  0.13662453835E+02  0.30914716303E+02  0.51100000000E-03 0. -1.
        -11    1    3    3    0    0 -0.21301964873E+01  0.30155378798E+01 -0.69959830680E+00  0.37577445138E+01  0.51100000000E-03 0.  1.
        -12    1    3    3    0    0 -0.10670058960E+02 -0.75305044447E+01  0.11998246299E+01  0.13114809741E+02  0.00000000000E+00 0.  1.
</event>
<event>
 7    1  0.2950722E-010  0.4778727E+02  0.7816164E-02  0.1312668E+00
        -11   -1    0    0    0    0  0.00000000000E+00  0.00000000000E+00  0.45593999997E+02  0.45594000000E+02  0.51100000000E-03 0.  1.
         11   -1    0    0    0    0 -0.00000000000E+00 -0.00000000000E+00 -0.45593999997E+02  0.45594000000E+02  0.51100000000E-03 0. -1.
    9900012    2    1    2    0    0 -0.32338237120E+02 -0.28696204336E+02 -0.37933728383E+01  0.47787269582E+02  0.19999993331E+02 0.  0.
        -12    1    1    2    0    0  0.32338237120E+02  0.28696204336E+02  0.37933728383E+01  0.43400730418E+02  0.00000000000E+00 0.  1.
         11    1    3    3    0    0 -0.10702272836E+02 -0.60406907751E+01 -0.71658938597E+01  0.14225984112E+02  0.51100000000E-03 0. -1.
        -11    1    3    3    0    0 -0.25904003680E+01 -0.94505919203E+01  0.34407476122E+01  0.10385692375E+02  0.51100000000E-03 0.  1.
         12    1    3    3    0    0 -0.19045563916E+02 -0.13204921641E+02 -0.68226590722E-01  0.23175593095E+02  0.00000000000E+00 0. -1.
</event>
<event>
 7    1  0.2950722E-010  0.4778727E+02  0.7816164E-02  0.1312668E+00
        -11   -1    0    0    0    0  0.00000000000E+00  0.00000000000E+00  0.45593999997E+02  0.45594000000E+02  0.51100000000E-03 0.  1.
         11   -1    0    0    0    0 -0.00000000000E+00 -0.00000000000E+00 -0.45593999997E+02  0.45594000000E+02  0.51100000000E-03 0. -1.
    9900012    2    1    2    0    0 -0.12602764128E+02  0.22664691791E+02 -0.34800940775E+02  0.47787269632E+02  0.19999993560E+02 0.  0.
        -12    1    1    2    0    0  0.12602764128E+02 -0.22664691791E+02  0.34800940775E+02  0.43400730368E+02  0.00000000000E+00 0.  1.
         11    1    3    3    0    0 -0.14223905980E+00  0.53809804811E+01 -0.76063649117E+01  0.93183673634E+01  0.51100000000E-03 0. -1.
        -11    1    3    3    0    0  0.25531029091E+01 -0.15328855085E+01 -0.44263320141E+01  0.53348371865E+01  0.51100000000E-03 0.  1.
        -12    1    3    3    0    0 -0.15013627977E+02  0.18816596818E+02 -0.22768243850E+02  0.33134065082E+02  0.00000000000E+00 0.  1.
</event>
<event>
 7    1  0.2950722E-010  0.4778727E+02  0.7816164E-02  0.1312668E+00
        -11   -1    0    0    0    0  0.00000000000E+00  0.00000000000E+00  0.45593999997E+02  0.45594000000E+02  0.51100000000E-03 0.  1.
         11   -1    0    0    0    0 -0.00000000000E+00 -0.00000000000E+00 -0.45593999997E+02  0.45594000000E+02  0.51100000000E-03 0. -1.
    9900012    2    1    2    0    0 -0.19784146525E+02 -0.15759949354E+02 -0.35268039829E+02  0.47787273153E+02  0.20000009616E+02 0.  0.
        -12    1    1    2    0    0  0.19784146525E+02  0.15759949354E+02  0.35268039829E+02  0.43400726847E+02  0.00000000000E+00 0.  1.
         11    1    3    3    0    0 -0.82318919274E+01  0.23124660928E+01 -0.17127550716E+02  0.19143263513E+02  0.51100000000E-03 0. -1.
        -11    1    3    3    0    0 -0.11993686415E+02 -0.17910005388E+02 -0.18142147872E+02  0.28173646135E+02  0.51100000000E-03 0.  1.
        -12    1    3    3    0    0  0.44143181701E+00 -0.16241005883E+00  0.16587589359E-02  0.47036350598E+00  0.00000000000E+00 0.  1.
</event>
<event>
 7    1  0.2950722E-010  0.4778727E+02  0.7816164E-02  0.1312668E+00
        -11   -1    0    0    0    0  0.00000000000E+00  0.00000000000E+00  0.45593999997E+02  0.45594000000E+02  0.51100000000E-03 0.  1.
         11   -1    0    0    0    0 -0.00000000000E+00 -0.00000000000E+00 -0.45593999997E+02  0.45594000000E+02  0.51100000000E-03 0. -1.
    9900012    2    1    2    0    0 -0.24682509138E+02 -0.10591633263E+02 -0.34091263935E+02  0.47787271559E+02  0.20000002345E+02 0.  0.
        -12    1    1    2    0    0  0.24682509138E+02  0.10591633263E+02  0.34091263935E+02  0.43400728441E+02  0.00000000000E+00 0.  1.
         11    1    3    3    0    0 -0.14850751983E+02 -0.93714186299E+01 -0.14421381526E+02  0.22723216475E+02  0.51100000000E-03 0. -1.
        -11    1    3    3    0    0 -0.51154867082E+01  0.48911051456E+01 -0.56370283194E+01  0.90480496430E+01  0.51100000000E-03 0.  1.
        -12    1    3    3    0    0 -0.47162704470E+01 -0.61113197792E+01 -0.14032854089E+02  0.16016005440E+02  0.00000000000E+00 0.  1.
</event>
<event>
 7    1  0.2950722E-010  0.4778727E+02  0.7816164E-02  0.1312668E+00
        -11   -1    0    0    0    0  0.00000000000E+00  0.00000000000E+00  0.45593999997E+02  0.45594000000E+02  0.51100000000E-03 0. -1.
         11   -1    0    0    0    0 -0.00000000000E+00 -0.00000000000E+00 -0.45593999997E+02  0.45594000000E+02  0.51100000000E-03 0.  1.
    9900012    2    1    2    0    0 -0.21774204658E+02 -0.29749056432E+02  0.22901989331E+02  0.47787268873E+02  0.19999990097E+02 0.  0.
        -12    1    1    2    0    0  0.21774204658E+02  0.29749056432E+02 -0.22901989331E+02  0.43400731127E+02  0.00000000000E+00 0.  1.
         11    1    3    3    0    0 -0.15841064077E+02 -0.15551348700E+02  0.79711288656E+01  0.23586493023E+02  0.51100000000E-03 0. -1.
        -11    1    3    3    0    0  0.23105712941E+01 -0.87146112255E+01  0.85282532568E+01  0.12410249489E+02  0.51100000000E-03 0.  1.
        -12    1    3    3    0    0 -0.82437118746E+01 -0.54830965071E+01  0.64026072083E+01  0.11790526360E+02  0.00000000000E+00 0.  1.
</event>
<event>
 7    1  0.2950722E-010  0.4778727E+02  0.7816164E-02  0.1312668E+00
        -11   -1    0    0    0    0  0.00000000000E+00  0.00000000000E+00  0.45593999997E+02  0.45594000000E+02  0.51100000000E-03 0.  1.
         11   -1    0    0    0    0 -0.00000000000E+00 -0.00000000000E+00 -0.45593999997E+02  0.45594000000E+02  0.51100000000E-03 0. -1.
    9900012    2    1    2    0    0 -0.23877081302E+02  0.35426067611E+02 -0.76486421886E+01  0.47787274140E+02  0.20000014113E+02 0.  0.
        -12    1    1    2    0    0  0.23877081302E+02 -0.35426067611E+02  0.76486421886E+01  0.43400725860E+02  0.00000000000E+00 0.  1.
         11    1    3    3    0    0 -0.89907795509E+00  0.84160547970E+01  0.37108693917E+01  0.92416920214E+01  0.51100000000E-03 0.  1.
        -11    1    3    3    0    0 -0.22960991756E+02  0.23984331889E+02 -0.12250967148E+02  0.35391263256E+02  0.51100000000E-03 0. -1.
         12    1    3    3    0    0 -0.17011591511E-01  0.30256809249E+01  0.89145556795E+00  0.31543188620E+01  0.00000000000E+00 0. -1.
</event>
<event>
 7    1  0.2950722E-010  0.4778727E+02  0.7816164E-02  0.1312668E+00
        -11   -1    0    0    0    0  0.00000000000E+00  0.00000000000E+00  0.45593999997E+02  0.45594000000E+02  0.51100000000E-03 0. -1.
         11   -1    0    0    0    0 -0.00000000000E+00 -0.00000000000E+00 -0.45593999997E+02  0.45594000000E+02  0.51100000000E-03 0.  1.
    9900012    2    1    2    0    0  0.33155844709E+02 -0.12452661302E+02  0.25084743907E+02  0.47787272025E+02  0.20000004470E+02 0.  0.
        -12    1    1    2    0    0 -0.33155844709E+02  0.12452661302E+02 -0.25084743907E+02  0.43400727975E+02  0.00000000000E+00 0.  1.
         11    1    3    3    0    0  0.30015212107E+02 -0.91704587565E+01  0.17092224622E+02  0.35737297246E+02  0.51100000000E-03 0. -1.
        -11    1    3    3    0    0 -0.15249155477E-01  0.19550908983E+00 -0.14716836998E+01  0.14846917237E+01  0.51100000000E-03 0.  1.
         12    1    3    3    0    0  0.31558817572E+01 -0.34777116356E+01  0.94642029855E+01  0.10565283055E+02  0.00000000000E+00 0. -1.
</event>
<event>
 7    1  0.2950722E-010  0.4778727E+02  0.7816164E-02  0.1312668E+00
        -11   -1    0    0    0    0  0.00000000000E+00  0.00000000000E+00  0.45593999997E+02  0.45594000000E+02  0.51100000000E-03 0.  1.
         11   -1    0    0    0    0 -0.00000000000E+00 -0.00000000000E+00 -0.45593999997E+02  0.45594000000E+02  0.51100000000E-03 0. -1.
    9900012    2    1    2    0    0  0.14937637974E+02  0.72261968557E+01 -0.40103268818E+02  0.47787272827E+02  0.20000008127E+02 0.  0.
        -12    1    1    2    0    0 -0.14937637974E+02 -0.72261968557E+01  0.40103268818E+02  0.43400727173E+02  0.00000000000E+00 0.  1.
         11    1    3    3    0    0  0.11877203054E+02  0.88114833438E+00 -0.24168556476E+02  0.26943709789E+02  0.51100000000E-03 0. -1.
        -11    1    3    3    0    0 -0.23701513199E+01  0.96708600724E-01  0.51572643483E+00  0.24275386401E+01  0.51100000000E-03 0.  1.
        -12    1    3    3    0    0  0.54305862402E+01  0.62483399206E+01 -0.16450438777E+02  0.18416024398E+02  0.00000000000E+00 0.  1.
</event>
<event>
 7    1  0.2950722E-010  0.4778727E+02  0.7816164E-02  0.1312668E+00
        -11   -1    0    0    0    0  0.00000000000E+00  0.00000000000E+00  0.45593999997E+02  0.45594000000E+02  0.51100000000E-03 0.  1.
         11   -1    0    0    0    0 -0.00000000000E+00 -0.00000000000E+00 -0.45593999997E+02  0.45594000000E+02  0.51100000000E-03 0. -1.
    9900012    2    1    2    0    0  0.50166978421E+01 -0.28942126245E+02 -0.31950109985E+02  0.47787268936E+02  0.19999990387E+02 0.  0.
        -12    1    1    2    0    0 -0.50166978421E+01  0.28942126245E+02  0.31950109985E+02  0.43400731064E+02  0.00000000000E+00 0.  1.
         11    1    3    3    0    0  0.22436947015E+01 -0.30261806234E+01  0.16820665274E+01  0.41256857785E+01  0.51100000000E-03 0. -1.
        -11    1    3    3    0    0  0.21942117533E+01 -0.17691662834E+01 -0.85356623829E+00  0.29450110596E+01  0.51100000000E-03 0.  1.
         12    1    3    3    0    0  0.57879138728E+00 -0.24146779338E+02 -0.32778610274E+02  0.40716572098E+02  0.00000000000E+00 0. -1.
</event>
<event>
 7    1  0.2950722E-010  0.4778727E+02  0.7816164E-02  0.1312668E+00
        -11   -1    0    0    0    0  0.00000000000E+00  0.00000000000E+00  0.45593999997E+02  0.45594000000E+02  0.51100000000E-03 0.  1.
         11   -1    0    0    0    0 -0.00000000000E+00 -0.00000000000E+00 -0.45593999997E+02  0.45594000000E+02  0.51100000000E-03 0. -1.
    9900012    2    1    2    0    0  0.19094128649E+02 -0.17617408512E+02 -0.34765852796E+02  0.47787270142E+02  0.19999995885E+02 0.  0.
        -12    1    1    2    0    0 -0.19094128649E+02  0.17617408512E+02  0.34765852796E+02  0.43400729858E+02  0.00000000000E+00 0.  1.
         11    1    3    3    0    0  0.16037366941E+02 -0.88799807244E+01 -0.11039565012E+02  0.21399139982E+02  0.51100000000E-03 0. -1.
        -11    1    3    3    0    0 -0.15262385586E+01 -0.60119357051E+01 -0.12087537822E+02  0.13586071762E+02  0.51100000000E-03 0.  1.
         12    1    3    3    0    0  0.45830002669E+01 -0.27254920827E+01 -0.11638749963E+02  0.12802058398E+02  0.00000000000E+00 0. -1.
</event>
<event>
 7    1  0.2950722E-010  0.4778727E+02  0.7816164E-02  0.1312668E+00
        -11   -1    0    0    0    0  0.00000000000E+00  0.00000000000E+00  0.45593999997E+02  0.45594000000E+02  0.51100000000E-03 0. -1.
         11   -1    0    0    0    0 -0.00000000000E+00 -0.00000000000E+00 -0.45593999997E+02  0.45594000000E+02  0.51100000000E-03 0.  1.
    9900012    2    1    2    0    0 -0.23212819929E+02 -0.24260919535E+02  0.27499019442E+02  0.47787270789E+02  0.19999998838E+02 0.  0.
        -12    1    1    2    0    0  0.23212819929E+02  0.24260919535E+02 -0.27499019442E+02  0.43400729211E+02  0.00000000000E+00 0.  1.
         11    1    3    3    0    0 -0.21336492211E+02 -0.18439214876E+02  0.13124955658E+02  0.31104903254E+02  0.51100000000E-03 0. -1.
        -11    1    3    3    0    0 -0.95143729934E+00 -0.63025265646E+01  0.80250102978E+01  0.10248310328E+02  0.51100000000E-03 0.  1.
         12    1    3    3    0    0 -0.92489041823E+00  0.48082190557E+00  0.63490534858E+01  0.64340572081E+01  0.00000000000E+00 0. -1.
</event>
<event>
 7    1  0.2950722E-010  0.4778727E+02  0.7816164E-02  0.1312668E+00
        -11   -1    0    0    0    0  0.00000000000E+00  0.00000000000E+00  0.45593999997E+02  0.45594000000E+02  0.51100000000E-03 0. -1.
         11   -1    0    0    0    0 -0.00000000000E+00 -0.00000000000E+00 -0.45593999997E+02  0.45594000000E+02  0.51100000000E-03 0.  1.
    9900012    2    1    2    0    0 -0.17052699326E+02  0.30956460946E+02  0.25189808906E+02  0.47787268424E+02  0.19999988053E+02 0.  0.
        -12    1    1    2    0    0  0.17052699326E+02 -0.30956460946E+02 -0.25189808906E+02  0.43400731576E+02  0.00000000000E+00 0.  1.
         11    1    3    3    0    0 -0.13674880395E+02  0.23244557285E+02  0.12987161730E+02  0.29932894401E+02  0.51100000000E-03 0. -1.
        -11    1    3    3    0    0  0.37211749941E+00  0.63422679769E+01  0.12318660446E+02  0.13860455619E+02  0.51100000000E-03 0.  1.
        -12    1    3    3    0    0 -0.37499364305E+01  0.13696356843E+01 -0.11601326922E+00  0.39939184042E+01  0.00000000000E+00 0.  1.
</event>
<event>
 7    1  0.2950722E-010  0.4778727E+02  0.7816164E-02  0.1312668E+00
        -11   -1    0    0    0    0  0.00000000000E+00  0.00000000000E+00  0.45593999997E+02  0.45594000000E+02  0.51100000000E-03 0.  1.
         11   -1    0    0    0    0 -0.00000000000E+00 -0.00000000000E+00 -0.45593999997E+02  0.45594000000E+02  0.51100000000E-03 0. -1.
    9900012    2    1    2    0    0 -0.34415213144E+02 -0.12717409825E+02 -0.23183699289E+02  0.47787270500E+02  0.19999997516E+02 0.  0.
        -12    1    1    2    0    0  0.34415213144E+02  0.12717409825E+02  0.23183699289E+02  0.43400729500E+02  0.00000000000E+00 0.  1.
         11    1    3    3    0    0 -0.16343166799E+02 -0.90173354640E+01 -0.17421022232E+02  0.25532400117E+02  0.51100000000E-03 0. -1.
        -11    1    3    3    0    0 -0.19278297178E+02 -0.34857840318E+01 -0.38226172311E+01  0.19960356589E+02  0.51100000000E-03 0.  1.
        -12    1    3    3    0    0  0.12062508329E+01 -0.21429032901E+00 -0.19400598263E+01  0.22945137931E+01  0.00000000000E+00 0.  1.
</event>
<event>
 7    1  0.2950722E-010  0.4778726E+02  0.7816164E-02  0.1312668E+00
        -11   -1    0    0    0    0  0.00000000000E+00  0.00000000000E+00  0.45593999997E+02  0.45594000000E+02  0.51100000000E-03 0.  1.
         11   -1    0    0    0    0 -0.00000000000E+00 -0.00000000000E+00 -0.45593999997E+02  0.45594000000E+02  0.51100000000E-03 0. -1.
    9900012    2    1    2    0    0 -0.24665424788E+02  0.34013132901E+02 -0.10878786543E+02  0.47787258228E+02  0.19999941565E+02 0.  0.
        -12    1    1    2    0    0  0.24665424788E+02 -0.34013132901E+02  0.10878786543E+02  0.43400741772E+02  0.00000000000E+00 0.  1.
         11    1    3    3    0    0 -0.37810332220E+01  0.16188674898E+02 -0.10022881763E+02  0.19412046937E+02  0.51100000000E-03 0. -1.
        -11    1    3    3    0    0 -0.19541886807E+02  0.17786284307E+02  0.55134113309E+00  0.26429930509E+02  0.51100000000E-03 0.  1.
         12    1    3    3    0    0 -0.13425047591E+01  0.38173695294E-01 -0.14072459133E+01  0.19452807817E+01  0.00000000000E+00 0. -1.
</event>
<event>
 7    1  0.2950722E-010  0.4778728E+02  0.7816164E-02  0.1312668E+00
        -11   -1    0    0    0    0  0.00000000000E+00  0.00000000000E+00  0.45593999997E+02  0.45594000000E+02  0.51100000000E-03 0. -1.
         11   -1    0    0    0    0 -0.00000000000E+00 -0.00000000000E+00 -0.45593999997E+02  0.45594000000E+02  0.51100000000E-03 0.  1.
    9900012    2    1    2    0    0 -0.14454144623E+02  0.40227259359E+02  0.75145177930E+01  0.47787278002E+02  0.20000031722E+02 0.  0.
        -12    1    1    2    0    0  0.14454144623E+02 -0.40227259359E+02 -0.75145177930E+01  0.43400721998E+02  0.00000000000E+00 0.  1.
         11    1    3    3    0    0  0.33178120425E+01  0.94286055545E+01  0.38848340816E+01  0.10723731419E+02  0.51100000000E-03 0.  1.
        -11    1    3    3    0    0 -0.10550609183E+02  0.24675426706E+02  0.55463935096E+01  0.27403549378E+02  0.51100000000E-03 0. -1.
         12    1    3    3    0    0 -0.72213474818E+01  0.61232270984E+01 -0.19167097982E+01  0.96599972050E+01  0.00000000000E+00 0. -1.
</event>
<event>
 7    1  0.2950722E-010  0.4778727E+02  0.7816164E-02  0.1312668E+00
        -11   -1    0    0    0    0  0.00000000000E+00  0.00000000000E+00  0.45593999997E+02  0.45594000000E+02  0.51100000000E-03 0.  1.
         11   -1    0    0    0    0 -0.00000000000E+00 -0.00000000000E+00 -0.45593999997E+02  0.45594000000E+02  0.51100000000E-03 0. -1.
    9900012    2    1    2    0    0 -0.72672725137E+01 -0.37205245480E+02 -0.21132432502E+02  0.47787271383E+02  0.20000001546E+02 0.  0.
        -12    1    1    2    0    0  0.72672725137E+01  0.37205245480E+02  0.21132432502E+02  0.43400728617E+02  0.00000000000E+00 0.  1.
         11    1    3    3    0    0  0.17792861849E+01 -0.30105402744E+02 -0.10136993037E+02  0.31816029950E+02  0.51100000000E-03 0. -1.
        -11    1    3    3    0    0 -0.55696934610E+01 -0.43341527010E+01 -0.76625507002E+01  0.10417343634E+02  0.51100000000E-03 0.  1.
         12    1    3    3    0    0 -0.34768652376E+01 -0.27656900347E+01 -0.33328887650E+01  0.55538977996E+01  0.00000000000E+00 0. -1.
</event>
<event>
 7    1  0.2950722E-010  0.4778727E+02  0.7816164E-02  0.1312668E+00
        -11   -1    0    0    0    0  0.00000000000E+00  0.00000000000E+00  0.45593999997E+02  0.45594000000E+02  0.51100000000E-03 0.  1.
         11   -1    0    0    0    0 -0.00000000000E+00 -0.00000000000E+00 -0.45593999997E+02  0.45594000000E+02  0.51100000000E-03 0. -1.
    9900012    2    1    2    0    0  0.24155573421E+01  0.20388950233E+02 -0.38237146571E+02  0.47787267440E+02  0.19999983565E+02 0.  0.
        -12    1    1    2    0    0 -0.24155573421E+01 -0.20388950233E+02  0.38237146571E+02  0.43400732560E+02  0.00000000000E+00 0.  1.
         11    1    3    3    0    0 -0.45287793412E+01  0.13892318908E+01 -0.97176040471E+01  0.10810718581E+02  0.51100000000E-03 0.  1.
        -11    1    3    3    0    0  0.51318138120E+01  0.18167836377E+02 -0.29283029884E+02  0.34841091129E+02  0.51100000000E-03 0. -1.
        -12    1    3    3    0    0  0.18125228713E+01  0.83188196541E+00  0.76348736030E+00  0.21354577291E+01  0.00000000000E+00 0.  1.
</event>
<event>
 7    1  0.2950722E-010  0.4778730E+02  0.7816164E-02  0.1312668E+00
        -11   -1    0    0    0    0  0.00000000000E+00  0.00000000000E+00  0.45593999997E+02  0.45594000000E+02  0.51100000000E-03 0.  1.
         11   -1    0    0    0    0 -0.00000000000E+00 -0.00000000000E+00 -0.45593999997E+02  0.45594000000E+02  0.51100000000E-03 0. -1.
    9900012    2    1    2    0    0 -0.37300101312E+02 -0.37816048397E+00 -0.22185139096E+02  0.47787297702E+02  0.20000121543E+02 0.  0.
        -12    1    1    2    0    0  0.37300101312E+02  0.37816048397E+00  0.22185139096E+02  0.43400702298E+02  0.00000000000E+00 0.  1.
         11    1    3    3    0    0 -0.74597935341E+01 -0.28331593145E+01 -0.53130472650E+01  0.95866460649E+01  0.51100000000E-03 0. -1.
        -11    1    3    3    0    0 -0.18639569656E+02  0.64458551207E+00 -0.98329353554E+00  0.18676614090E+02  0.51100000000E-03 0.  1.
        -12    1    3    3    0    0 -0.11200738122E+02  0.18104133185E+01 -0.15888798295E+02  0.19524037547E+02  0.00000000000E+00 0.  1.
</event>
<event>
 7    1  0.2950722E-010  0.4778728E+02  0.7816164E-02  0.1312668E+00
        -11   -1    0    0    0    0  0.00000000000E+00  0.00000000000E+00  0.45593999997E+02  0.45594000000E+02  0.51100000000E-03 0. -1.
         11   -1    0    0    0    0 -0.00000000000E+00 -0.00000000000E+00 -0.45593999997E+02  0.45594000000E+02  0.51100000000E-03 0.  1.
    9900012    2    1    2    0    0  0.36581089024E+02 -0.19799596258E+02  0.12386377318E+02  0.47787280775E+02  0.20000044367E+02 0.  0.
        -12    1    1    2    0    0 -0.36581089024E+02  0.19799596258E+02 -0.12386377318E+02  0.43400719225E+02  0.00000000000E+00 0.  1.
         11    1    3    3    0    0  0.15470814174E+02 -0.40469063396E+01  0.35062302046E+01  0.16371230639E+02  0.51100000000E-03 0.  1.
        -11    1    3    3    0    0  0.68656817495E+01  0.34107288849E+00 -0.22237027360E+01  0.72248716750E+01  0.51100000000E-03 0. -1.
        -12    1    3    3    0    0  0.14244593101E+02 -0.16093762807E+02  0.11103849850E+02  0.24191178462E+02  0.00000000000E+00 0.  1.
</event>
<event>
 7    1  0.2950722E-010  0.4778727E+02  0.7816164E-02  0.1312668E+00
        -11   -1    0    0    0    0  0.00000000000E+00  0.00000000000E+00  0.45593999997E+02  0.45594000000E+02  0.51100000000E-03 0.  1.
         11   -1    0    0    0    0 -0.00000000000E+00 -0.00000000000E+00 -0.45593999997E+02  0.45594000000E+02  0.51100000000E-03 0. -1.
    9900012    2    1    2    0    0  0.93141944387E+00 -0.81116935625E+01 -0.42625767754E+02  0.47787271996E+02  0.20000004339E+02 0.  0.
        -12    1    1    2    0    0 -0.93141944387E+00  0.81116935625E+01  0.42625767754E+02  0.43400728004E+02  0.00000000000E+00 0.  1.
         11    1    3    3    0    0 -0.24969138370E+01 -0.42696732054E+01 -0.83809702253E+01  0.97316673889E+01  0.51100000000E-03 0. -1.
        -11    1    3    3    0    0  0.84860138340E+00 -0.37528595925E+01 -0.13676483477E+00  0.38500369232E+01  0.51100000000E-03 0.  1.
        -12    1    3    3    0    0  0.25797318975E+01 -0.89160764577E-01 -0.34108032694E+02  0.34205567684E+02  0.00000000000E+00 0.  1.
</event>
<event>
 7    1  0.2950722E-010  0.4778726E+02  0.7816164E-02  0.1312668E+00
        -11   -1    0    0    0    0  0.00000000000E+00  0.00000000000E+00  0.45593999997E+02  0.45594000000E+02  0.51100000000E-03 0.  1.
         11   -1    0    0    0    0 -0.00000000000E+00 -0.00000000000E+00 -0.45593999997E+02  0.45594000000E+02  0.51100000000E-03 0. -1.
    9900012    2    1    2    0    0  0.33739861532E+02 -0.34996912649E+00 -0.27296951122E+02  0.47787259509E+02  0.19999947407E+02 0.  0.
        -12    1    1    2    0    0 -0.33739861532E+02  0.34996912649E+00  0.27296951122E+02  0.43400740491E+02  0.00000000000E+00 0.  1.
         11    1    3    3    0    0  0.16376134602E+02  0.23297066568E+01 -0.79685405805E+01  0.18360363745E+02  0.51100000000E-03 0. -1.
        -11    1    3    3    0    0  0.72489646861E+01 -0.64627899151E+01 -0.14833131812E+02  0.17729549970E+02  0.51100000000E-03 0.  1.
        -12    1    3    3    0    0  0.10114762244E+02  0.37831141318E+01 -0.44952787288E+01  0.11697345795E+02  0.00000000000E+00 0.  1.
</event>
<event>
 7    1  0.2950722E-010  0.4778727E+02  0.7816164E-02  0.1312668E+00
        -11   -1    0    0    0    0  0.00000000000E+00  0.00000000000E+00  0.45593999997E+02  0.45594000000E+02  0.51100000000E-03 0. -1.
         11   -1    0    0    0    0 -0.00000000000E+00 -0.00000000000E+00 -0.45593999997E+02  0.45594000000E+02  0.51100000000E-03 0.  1.
    9900012    2    1    2    0    0 -0.22899334553E+02  0.36318711869E+02  0.63399460719E+01  0.47787271078E+02  0.20000000152E+02 0.  0.
        -12    1    1    2    0    0  0.22899334553E+02 -0.36318711869E+02 -0.63399460719E+01  0.43400728922E+02  0.00000000000E+00 0.  1.
         11    1    3    3    0    0 -0.51069046230E+01  0.11408578164E+02  0.22440043893E+01  0.12699278976E+02  0.51100000000E-03 0. -1.
        -11    1    3    3    0    0 -0.20888107020E+02  0.19418319679E+02  0.28511788098E+01  0.28662054618E+02  0.51100000000E-03 0.  1.
        -12    1    3    3    0    0  0.30956770898E+01  0.54918140255E+01  0.12447628727E+01  0.64259374837E+01  0.00000000000E+00 0.  1.
</event>
<event>
 7    1  0.2950722E-010  0.4778727E+02  0.7816164E-02  0.1312668E+00
        -11   -1    0    0    0    0  0.00000000000E+00  0.00000000000E+00  0.45593999997E+02  0.45594000000E+02  0.51100000000E-03 0.  1.
         11   -1    0    0    0    0 -0.00000000000E+00 -0.00000000000E+00 -0.45593999997E+02  0.45594000000E+02  0.51100000000E-03 0. -1.
    9900012    2    1    2    0    0 -0.16115008154E+01  0.17413645543E+02 -0.39721423258E+02  0.47787268997E+02  0.19999990664E+02 0.  0.
        -12    1    1    2    0    0  0.16115008154E+01 -0.17413645543E+02  0.39721423258E+02  0.43400731003E+02  0.00000000000E+00 0.  1.
         11    1    3    3    0    0 -0.55976344039E+01 -0.12625964229E+01 -0.93769823486E+01  0.10993427986E+02  0.51100000000E-03 0. -1.
        -11    1    3    3    0    0  0.78219467358E+00 -0.65414121410E+00 -0.62347268765E+00  0.11951768441E+01  0.51100000000E-03 0.  1.
         12    1    3    3    0    0  0.32039389149E+01  0.19330383180E+02 -0.29720968222E+02  0.35598664167E+02  0.00000000000E+00 0. -1.
</event>
<event>
 7    1  0.2950722E-010  0.4778726E+02  0.7816164E-02  0.1312668E+00
        -11   -1    0    0    0    0  0.00000000000E+00  0.00000000000E+00  0.45593999997E+02  0.45594000000E+02  0.51100000000E-03 0. -1.
         11   -1    0    0    0    0 -0.00000000000E+00 -0.00000000000E+00 -0.45593999997E+02  0.45594000000E+02  0.51100000000E-03 0.  1.
    9900012    2    1    2    0    0 -0.16188460641E+02  0.90382990982E+01  0.39241144899E+02  0.47787256210E+02  0.19999932365E+02 0.  0.
        -12    1    1    2    0    0  0.16188460641E+02 -0.90382990982E+01 -0.39241144899E+02  0.43400743790E+02  0.00000000000E+00 0.  1.
         11    1    3    3    0    0 -0.15296286881E+02  0.84232514653E+01  0.23353113117E+02  0.29159825962E+02  0.51100000000E-03 0. -1.
        -11    1    3    3    0    0  0.34709538731E+01  0.17336156211E+01  0.12212120678E+02  0.12813619146E+02  0.51100000000E-03 0.  1.
         12    1    3    3    0    0 -0.43631276338E+01 -0.11185679882E+01  0.36759111043E+01  0.58138111028E+01  0.00000000000E+00 0. -1.
</event>
<event>
 7    1  0.2950722E-010  0.4778727E+02  0.7816164E-02  0.1312668E+00
        -11   -1    0    0    0    0  0.00000000000E+00  0.00000000000E+00  0.45593999997E+02  0.45594000000E+02  0.51100000000E-03 0.  1.
         11   -1    0    0    0    0 -0.00000000000E+00 -0.00000000000E+00 -0.45593999997E+02  0.45594000000E+02  0.51100000000E-03 0. -1.
    9900012    2    1    2    0    0  0.18543113962E+02  0.35386740717E+01 -0.39080097823E+02  0.47787270335E+02  0.19999996767E+02 0.  0.
        -12    1    1    2    0    0 -0.18543113962E+02 -0.35386740717E+01  0.39080097823E+02  0.43400729665E+02  0.00000000000E+00 0.  1.
         11    1    3    3    0    0 -0.18294655795E+01  0.52582602049E+01 -0.63375850078E+01  0.84357115100E+01  0.51100000000E-03 0. -1.
        -11    1    3    3    0    0  0.15922042570E+02 -0.44599442307E+01 -0.23510728297E+02  0.28742945003E+02  0.51100000000E-03 0.  1.
         12    1    3    3    0    0  0.44505369712E+01  0.27403580975E+01 -0.92317845185E+01  0.10608613822E+02  0.00000000000E+00 0. -1.
</event>
<event>
 7    1  0.2950722E-010  0.4778727E+02  0.7816164E-02  0.1312668E+00
        -11   -1    0    0    0    0  0.00000000000E+00  0.00000000000E+00  0.45593999997E+02  0.45594000000E+02  0.51100000000E-03 0. -1.
         11   -1    0    0    0    0 -0.00000000000E+00 -0.00000000000E+00 -0.45593999997E+02  0.45594000000E+02  0.51100000000E-03 0.  1.
    9900012    2    1    2    0    0 -0.16575637032E+02 -0.40107120256E+02 -0.53896025496E+00  0.47787270554E+02  0.19999997765E+02 0.  0.
        -12    1    1    2    0    0  0.16575637032E+02  0.40107120256E+02  0.53896025496E+00  0.43400729446E+02  0.00000000000E+00 0.  1.
         11    1    3    3    0    0 -0.16096928999E+02 -0.37225020259E+02 -0.33291667391E+01  0.40692709518E+02  0.51100000000E-03 0. -1.
        -11    1    3    3    0    0  0.87604743008E+00  0.15133305631E+01  0.68097945063E-01  0.17499331656E+01  0.51100000000E-03 0.  1.
         12    1    3    3    0    0 -0.13547554631E+01 -0.43954305601E+01  0.27221085391E+01  0.53446278703E+01  0.00000000000E+00 0. -1.
</event>
<event>
 7    1  0.6443863E-010  0.4778727E+02  0.7816164E-02  0.1312668E+00
        -11   -1    0    0    0    0  0.00000000000E+00  0.00000000000E+00  0.45593999997E+02  0.45594000000E+02  0.51100000000E-03 0.  1.
         11   -1    0    0    0    0 -0.00000000000E+00 -0.00000000000E+00 -0.45593999997E+02  0.45594000000E+02  0.51100000000E-03 0. -1.
    9900012    2    1    2    0    0  0.14025227866E+02  0.31643522080E+02 -0.26184035784E+02  0.47787271478E+02  0.20000001975E+02 0.  0.
        -12    1    1    2    0    0 -0.14025227866E+02 -0.31643522080E+02  0.26184035784E+02  0.43400728522E+02  0.00000000000E+00 0.  1.
         11    1    3    3    0    0  0.11284194665E+02  0.81352650829E+01 -0.13656198460E+02  0.19493777055E+02  0.51100000000E-03 0. -1.
        -11    1    3    3    0    0 -0.15711096750E+01  0.36096729389E+01 -0.54804966280E+01  0.67478861792E+01  0.51100000000E-03 0.  1.
         12    1    3    3    0    0  0.43121428760E+01  0.19898584058E+02 -0.70473406958E+01  0.21545608243E+02  0.00000000000E+00 0. -1.
</event>
<event>
 7    1  0.2950722E-010  0.4778723E+02  0.7816164E-02  0.1312668E+00
        -11   -1    0    0    0    0  0.00000000000E+00  0.00000000000E+00  0.45593999997E+02  0.45594000000E+02  0.51100000000E-03 0.  1.
         11   -1    0    0    0    0 -0.00000000000E+00 -0.00000000000E+00 -0.45593999997E+02  0.45594000000E+02  0.51100000000E-03 0. -1.
    9900012    2    1    2    0    0  0.14691917788E+02 -0.34261515993E+02 -0.22224374093E+02  0.47787231225E+02  0.19999818449E+02 0.  0.
        -12    1    1    2    0    0 -0.14691917788E+02  0.34261515993E+02  0.22224374093E+02  0.43400768775E+02  0.00000000000E+00 0.  1.
         11    1    3    3    0    0  0.61676466836E+00 -0.49115319085E+01 -0.48750953138E+01  0.69476685963E+01  0.51100000000E-03 0. -1.
        -11    1    3    3    0    0 -0.79717831497E+00 -0.53775233988E+00  0.25984297385E+01  0.27706512252E+01  0.51100000000E-03 0.  1.
        -12    1    3    3    0    0  0.14872331434E+02 -0.28812231744E+02 -0.19947708518E+02  0.38068911404E+02  0.00000000000E+00 0.  1.
</event>
<event>
 7    1  0.2950722E-010  0.4778727E+02  0.7816164E-02  0.1312668E+00
        -11   -1    0    0    0    0  0.00000000000E+00  0.00000000000E+00  0.45593999997E+02  0.45594000000E+02  0.51100000000E-03 0. -1.
         11   -1    0    0    0    0 -0.00000000000E+00 -0.00000000000E+00 -0.45593999997E+02  0.45594000000E+02  0.51100000000E-03 0.  1.
    9900012    2    1    2    0    0 -0.19927136218E+02 -0.22477868669E+02  0.31325356937E+02  0.47787270456E+02  0.19999997316E+02 0.  0.
        -12    1    1    2    0    0  0.19927136218E+02  0.22477868669E+02 -0.31325356937E+02  0.43400729544E+02  0.00000000000E+00 0.  1.
         11    1    3    3    0    0 -0.15733529165E+02 -0.15861321399E+02  0.16939490332E+02  0.28036971832E+02  0.51100000000E-03 0. -1.
        -11    1    3    3    0    0  0.32342621964E+01 -0.49539582341E+01  0.60451039152E+01  0.84584535080E+01  0.51100000000E-03 0.  1.
        -12    1    3    3    0    0 -0.74278692492E+01 -0.16625890362E+01  0.83407626893E+01  0.11291845116E+02  0.00000000000E+00 0.  1.
</event>
<event>
 7    1  0.2950722E-010  0.4778727E+02  0.7816164E-02  0.1312668E+00
        -11   -1    0    0    0    0  0.00000000000E+00  0.00000000000E+00  0.45593999997E+02  0.45594000000E+02  0.51100000000E-03 0. -1.
         11   -1    0    0    0    0 -0.00000000000E+00 -0.00000000000E+00 -0.45593999997E+02  0.45594000000E+02  0.51100000000E-03 0.  1.
    9900012    2    1    2    0    0  0.21873362790E+02  0.31649096665E+02  0.20087654050E+02  0.47787272303E+02  0.20000005737E+02 0.  0.
        -12    1    1    2    0    0 -0.21873362790E+02 -0.31649096665E+02 -0.20087654050E+02  0.43400727697E+02  0.00000000000E+00 0.  1.
         11    1    3    3    0    0  0.13616891328E+01  0.89215895608E+01 -0.11738746477E+01  0.91009306961E+01  0.51100000000E-03 0. -1.
        -11    1    3    3    0    0  0.19103194577E+02  0.17229346571E+02  0.13445509639E+02  0.29026955679E+02  0.51100000000E-03 0.  1.
        -12    1    3    3    0    0  0.14084790805E+01  0.54981605328E+01  0.78160190586E+01  0.96593859271E+01  0.00000000000E+00 0.  1.
</event>
<event>
 7    1  0.2950722E-010  0.4778727E+02  0.7816164E-02  0.1312668E+00
        -11   -1    0    0    0    0  0.00000000000E+00  0.00000000000E+00  0.45593999997E+02  0.45594000000E+02  0.51100000000E-03 0.  1.
         11   -1    0    0    0    0 -0.00000000000E+00 -0.00000000000E+00 -0.45593999997E+02  0.45594000000E+02  0.51100000000E-03 0. -1.
    9900012    2    1    2    0    0  0.15325721188E+02  0.13627081649E+02 -0.38249811966E+02  0.47787271900E+02  0.20000003900E+02 0.  0.
        -12    1    1    2    0    0 -0.15325721188E+02 -0.13627081649E+02  0.38249811966E+02  0.43400728100E+02  0.00000000000E+00 0.  1.
         11    1    3    3    0    0  0.14195579967E+02  0.65747976847E+01 -0.15921639190E+02  0.22321313804E+02  0.51100000000E-03 0. -1.
        -11    1    3    3    0    0 -0.16315043644E+01  0.84967655401E+01 -0.19154441590E+02  0.21017836807E+02  0.51100000000E-03 0.  1.
        -12    1    3    3    0    0  0.27616455856E+01 -0.14444815755E+01 -0.31737311860E+01  0.44481212892E+01  0.00000000000E+00 0.  1.
</event>
<event>
 7    1  0.2950722E-010  0.4778728E+02  0.7816164E-02  0.1312668E+00
        -11   -1    0    0    0    0  0.00000000000E+00  0.00000000000E+00  0.45593999997E+02  0.45594000000E+02  0.51100000000E-03 0.  1.
         11   -1    0    0    0    0 -0.00000000000E+00 -0.00000000000E+00 -0.45593999997E+02  0.45594000000E+02  0.51100000000E-03 0. -1.
    9900012    2    1    2    0    0  0.34038941089E+02 -0.26302393163E+02 -0.57581938516E+01  0.47787283496E+02  0.20000056773E+02 0.  0.
        -12    1    1    2    0    0 -0.34038941089E+02  0.26302393163E+02  0.57581938516E+01  0.43400716504E+02  0.00000000000E+00 0.  1.
         11    1    3    3    0    0  0.73393570188E+01 -0.75159804421E+01  0.64282999730E+01  0.12315809525E+02  0.51100000000E-03 0.  1.
        -11    1    3    3    0    0  0.90475902952E+01 -0.95766076431E+01 -0.68967765685E+01  0.14870636550E+02  0.51100000000E-03 0. -1.
         12    1    3    3    0    0  0.17651993775E+02 -0.92098050783E+01 -0.52897172561E+01  0.20600837422E+02  0.00000000000E+00 0. -1.
</event>
<event>
 7    1  0.2950722E-010  0.4778727E+02  0.7816164E-02  0.1312668E+00
        -11   -1    0    0    0    0  0.00000000000E+00  0.00000000000E+00  0.45593999997E+02  0.45594000000E+02  0.51100000000E-03 0. -1.
         11   -1    0    0    0    0 -0.00000000000E+00 -0.00000000000E+00 -0.45593999997E+02  0.45594000000E+02  0.51100000000E-03 0.  1.
    9900012    2    1    2    0    0 -0.15245856941E+02  0.88350362735E+01  0.39662694121E+02  0.47787270459E+02  0.19999997330E+02 0.  0.
        -12    1    1    2    0    0  0.15245856941E+02 -0.88350362735E+01 -0.39662694121E+02  0.43400729541E+02  0.00000000000E+00 0.  1.
         11    1    3    3    0    0 -0.18127918267E+01  0.37666784084E+01  0.80712612395E+01  0.90895180674E+01  0.51100000000E-03 0. -1.
        -11    1    3    3    0    0  0.16849026140E+01 -0.44251846211E-01  0.16969694336E+02  0.17053192697E+02  0.51100000000E-03 0.  1.
        -12    1    3    3    0    0 -0.15117967728E+02  0.51126097112E+01  0.14621738545E+02  0.21644559694E+02  0.00000000000E+00 0.  1.
</event>
<event>
 7    1  0.2950722E-010  0.4778727E+02  0.7816164E-02  0.1312668E+00
        -11   -1    0    0    0    0  0.00000000000E+00  0.00000000000E+00  0.45593999997E+02  0.45594000000E+02  0.51100000000E-03 0.  1.
         11   -1    0    0    0    0 -0.00000000000E+00 -0.00000000000E+00 -0.45593999997E+02  0.45594000000E+02  0.51100000000E-03 0. -1.
    9900012    2    1    2    0    0 -0.22058971645E+02 -0.83958733910E+01 -0.36421620454E+02  0.47787270092E+02  0.19999995658E+02 0.  0.
        -12    1    1    2    0    0  0.22058971645E+02  0.83958733910E+01  0.36421620454E+02  0.43400729908E+02  0.00000000000E+00 0.  1.
         11    1    3    3    0    0 -0.20576922980E+02 -0.11037356578E+01 -0.18011793848E+02  0.27368827334E+02  0.51100000000E-03 0. -1.
        -11    1    3    3    0    0 -0.10366463652E+01 -0.41554380627E+01 -0.15621707170E+02  0.16198149164E+02  0.51100000000E-03 0.  1.
        -12    1    3    3    0    0 -0.44540229902E+00 -0.31366996706E+01 -0.27881194372E+01  0.42202935949E+01  0.00000000000E+00 0.  1.
</event>
<event>
 7    1  0.2950722E-010  0.4778727E+02  0.7816164E-02  0.1312668E+00
        -11   -1    0    0    0    0  0.00000000000E+00  0.00000000000E+00  0.45593999997E+02  0.45594000000E+02  0.51100000000E-03 0.  1.
         11   -1    0    0    0    0 -0.00000000000E+00 -0.00000000000E+00 -0.45593999997E+02  0.45594000000E+02  0.51100000000E-03 0. -1.
    9900012    2    1    2    0    0  0.91382226223E+01 -0.58055321312E+01 -0.42028700518E+02  0.47787274393E+02  0.20000015267E+02 0.  0.
        -12    1    1    2    0    0 -0.91382226223E+01  0.58055321312E+01  0.42028700518E+02  0.43400725607E+02  0.00000000000E+00 0.  1.
         11    1    3    3    0    0  0.11025212936E+02 -0.58536506713E+01 -0.17267088793E+02  0.21306639860E+02  0.51100000000E-03 0.  1.
        -11    1    3    3    0    0 -0.53052256200E+01 -0.14544626778E+00 -0.19451129355E+02  0.20162167714E+02  0.51100000000E-03 0. -1.
         12    1    3    3    0    0  0.34182353059E+01  0.19356480782E+00 -0.53104823699E+01  0.63184668190E+01  0.00000000000E+00 0. -1.
</event>
<event>
 7    1  0.2950722E-010  0.4778727E+02  0.7816164E-02  0.1312668E+00
        -11   -1    0    0    0    0  0.00000000000E+00  0.00000000000E+00  0.45593999997E+02  0.45594000000E+02  0.51100000000E-03 0. -1.
         11   -1    0    0    0    0 -0.00000000000E+00 -0.00000000000E+00 -0.45593999997E+02  0.45594000000E+02  0.51100000000E-03 0.  1.
    9900012    2    1    2    0    0  0.39557475719E+02  0.51199112453E+00 -0.17848457287E+02  0.47787269042E+02  0.19999990870E+02 0.  0.
        -12    1    1    2    0    0 -0.39557475719E+02 -0.51199112453E+00  0.17848457287E+02  0.43400730958E+02  0.00000000000E+00 0.  1.
         11    1    3    3    0    0  0.32245987685E+02  0.63145610308E+01 -0.14868472487E+02  0.36065896317E+02  0.51100000000E-03 0. -1.
        -11    1    3    3    0    0  0.82661050801E+01 -0.57610243872E+01 -0.34585939466E+01  0.10652688277E+02  0.51100000000E-03 0.  1.
         12    1    3    3    0    0 -0.95461704607E+00 -0.41545519073E-01  0.47860914596E+00  0.10686844480E+01  0.00000000000E+00 0. -1.
</event>
<event>
 7    1  0.2950722E-010  0.4778726E+02  0.7816164E-02  0.1312668E+00
        -11   -1    0    0    0    0  0.00000000000E+00  0.00000000000E+00  0.45593999997E+02  0.45594000000E+02  0.51100000000E-03 0. -1.
         11   -1    0    0    0    0 -0.00000000000E+00 -0.00000000000E+00 -0.45593999997E+02  0.45594000000E+02  0.51100000000E-03 0.  1.
    9900012    2    1    2    0    0 -0.13695843910E+02  0.31910724657E+02  0.26033700816E+02  0.47787261910E+02  0.19999958353E+02 0.  0.
        -12    1    1    2    0    0  0.13695843910E+02 -0.31910724657E+02 -0.26033700816E+02  0.43400738090E+02  0.00000000000E+00 0.  1.
         11    1    3    3    0    0 -0.89021139559E+01  0.27664880525E+01  0.61023349381E+01  0.11141794334E+02  0.51100000000E-03 0. -1.
        -11    1    3    3    0    0 -0.41641600251E+01  0.46325569254E+01  0.42194640344E+01  0.75236088003E+01  0.51100000000E-03 0.  1.
         12    1    3    3    0    0 -0.62956992902E+00  0.24511679679E+02  0.15711901844E+02  0.29121858776E+02  0.00000000000E+00 0. -1.
</event>
<event>
 7    1  0.2950722E-010  0.4778727E+02  0.7816164E-02  0.1312668E+00
        -11   -1    0    0    0    0  0.00000000000E+00  0.00000000000E+00  0.45593999997E+02  0.45594000000E+02  0.51100000000E-03 0.  1.
         11   -1    0    0    0    0 -0.00000000000E+00 -0.00000000000E+00 -0.45593999997E+02  0.45594000000E+02  0.51100000000E-03 0. -1.
    9900012    2    1    2    0    0 -0.24031874080E+01  0.40709286852E+02 -0.14852672229E+02  0.47787271688E+02  0.20000002933E+02 0.  0.
        -12    1    1    2    0    0  0.24031874080E+01 -0.40709286852E+02  0.14852672229E+02  0.43400728312E+02  0.00000000000E+00 0.  1.
         11    1    3    3    0    0  0.46726449328E+01  0.14477987639E+02 -0.12094093292E+02  0.19434835465E+02  0.51100000000E-03 0. -1.
        -11    1    3    3    0    0 -0.81460391198E+01  0.16449511271E+02 -0.12651105746E+01  0.18399589110E+02  0.51100000000E-03 0.  1.
         12    1    3    3    0    0  0.10702067790E+01  0.97817879424E+01 -0.14934683620E+01  0.99528471126E+01  0.00000000000E+00 0. -1.
</event>
<event>
 7    1  0.2950722E-010  0.4778727E+02  0.7816164E-02  0.1312668E+00
        -11   -1    0    0    0    0  0.00000000000E+00  0.00000000000E+00  0.45593999997E+02  0.45594000000E+02  0.51100000000E-03 0. -1.
         11   -1    0    0    0    0 -0.00000000000E+00 -0.00000000000E+00 -0.45593999997E+02  0.45594000000E+02  0.51100000000E-03 0.  1.
    9900012    2    1    2    0    0 -0.17394848200E+02  0.20035188580E+02  0.34345792204E+02  0.47787274575E+02  0.20000016096E+02 0.  0.
        -12    1    1    2    0    0  0.17394848200E+02 -0.20035188580E+02 -0.34345792204E+02  0.43400725425E+02  0.00000000000E+00 0.  1.
         11    1    3    3    0    0 -0.89751629381E+00  0.10938277421E+02  0.11101453036E+02  0.15610692112E+02  0.51100000000E-03 0. -1.
        -11    1    3    3    0    0 -0.12963076645E+02  0.27231085100E+01  0.85263246464E+01  0.15752932688E+02  0.51100000000E-03 0.  1.
        -12    1    3    3    0    0 -0.35342552618E+01  0.63738026487E+01  0.14718014521E+02  0.16423649774E+02  0.00000000000E+00 0.  1.
</event>
<event>
 7    1  0.2950722E-010  0.4778725E+02  0.7816164E-02  0.1312668E+00
        -11   -1    0    0    0    0  0.00000000000E+00  0.00000000000E+00  0.45593999997E+02  0.45594000000E+02  0.51100000000E-03 0.  1.
         11   -1    0    0    0    0 -0.00000000000E+00 -0.00000000000E+00 -0.45593999997E+02  0.45594000000E+02  0.51100000000E-03 0. -1.
    9900012    2    1    2    0    0  0.95561561602E+01 -0.35330884781E+02 -0.23324529459E+02  0.47787248688E+02  0.19999898066E+02 0.  0.
        -12    1    1    2    0    0 -0.95561561602E+01  0.35330884781E+02  0.23324529459E+02  0.43400751312E+02  0.00000000000E+00 0.  1.
         11    1    3    3    0    0  0.21546334204E+01 -0.25155861427E+02 -0.24278838876E+02  0.35027443909E+02  0.51100000000E-03 0. -1.
        -11    1    3    3    0    0  0.33352892484E+01 -0.32580560070E+01  0.82616258302E+00  0.47351481698E+01  0.51100000000E-03 0.  1.
         12    1    3    3    0    0  0.40662334914E+01 -0.69169673469E+01  0.12814683406E+00  0.80246566092E+01  0.00000000000E+00 0. -1.
</event>
<event>
 7    1  0.2950722E-010  0.4778727E+02  0.7816164E-02  0.1312668E+00
        -11   -1    0    0    0    0  0.00000000000E+00  0.00000000000E+00  0.45593999997E+02  0.45594000000E+02  0.51100000000E-03 0.  1.
         11   -1    0    0    0    0 -0.00000000000E+00 -0.00000000000E+00 -0.45593999997E+02  0.45594000000E+02  0.51100000000E-03 0. -1.
    9900012    2    1    2    0    0 -0.22398467967E+02  0.36964759469E+02 -0.39418963446E+01  0.47787270090E+02  0.19999995650E+02 0.  0.
        -12    1    1    2    0    0  0.22398467967E+02 -0.36964759469E+02  0.39418963446E+01  0.43400729910E+02  0.00000000000E+00 0.  1.
         11    1    3    3    0    0 -0.15930431805E+02  0.29522588042E+02 -0.59256098362E+01  0.34065741067E+02  0.51100000000E-03 0. -1.
        -11    1    3    3    0    0  0.20335650459E+01  0.15020510913E+00 -0.78326326449E+00  0.21843648902E+01  0.51100000000E-03 0.  1.
        -12    1    3    3    0    0 -0.85016012079E+01  0.72919663176E+01  0.27669767561E+01  0.11537164134E+02  0.00000000000E+00 0.  1.
</event>
<event>
 7    1  0.2950722E-010  0.4778727E+02  0.7816164E-02  0.1312668E+00
        -11   -1    0    0    0    0  0.00000000000E+00  0.00000000000E+00  0.45593999997E+02  0.45594000000E+02  0.51100000000E-03 0. -1.
         11   -1    0    0    0    0 -0.00000000000E+00 -0.00000000000E+00 -0.45593999997E+02  0.45594000000E+02  0.51100000000E-03 0.  1.
    9900012    2    1    2    0    0  0.24860283120E+02  0.24559165529E+02  0.25737858734E+02  0.47787266590E+02  0.19999979691E+02 0.  0.
        -12    1    1    2    0    0 -0.24860283120E+02 -0.24559165529E+02 -0.25737858734E+02  0.43400733410E+02  0.00000000000E+00 0.  1.
         11    1    3    3    0    0  0.18357986798E+02  0.22811666077E+02  0.10615425467E+02  0.31146027782E+02  0.51100000000E-03 0. -1.
        -11    1    3    3    0    0  0.38466067952E+01  0.18220162355E+01  0.85099673562E+01  0.95150234716E+01  0.51100000000E-03 0.  1.
         12    1    3    3    0    0  0.26556895266E+01 -0.74516782745E-01  0.66124659103E+01  0.71262153369E+01  0.00000000000E+00 0. -1.
</event>
<event>
 7    1  0.2950722E-010  0.4778727E+02  0.7816164E-02  0.1312668E+00
        -11   -1    0    0    0    0  0.00000000000E+00  0.00000000000E+00  0.45593999997E+02  0.45594000000E+02  0.51100000000E-03 0.  1.
         11   -1    0    0    0    0 -0.00000000000E+00 -0.00000000000E+00 -0.45593999997E+02  0.45594000000E+02  0.51100000000E-03 0. -1.
    9900012    2    1    2    0    0  0.41848400404E+02  0.11470259581E+02  0.87626527796E+00  0.47787270605E+02  0.19999997995E+02 0.  0.
        -12    1    1    2    0    0 -0.41848400404E+02 -0.11470259581E+02 -0.87626527796E+00  0.43400729395E+02  0.00000000000E+00 0.  1.
         11    1    3    3    0    0  0.98661507331E+01  0.85677106034E+01 -0.31436507395E+01  0.13439833909E+02  0.51100000000E-03 0. -1.
        -11    1    3    3    0    0  0.19461906558E+02  0.26121899164E+01  0.80043683667E+01  0.21205170508E+02  0.51100000000E-03 0.  1.
        -12    1    3    3    0    0  0.12520343112E+02  0.29035906126E+00 -0.39844523492E+01  0.13142266188E+02  0.00000000000E+00 0.  1.
</event>
<event>
 7    1  0.2950722E-010  0.4778732E+02  0.7816164E-02  0.1312668E+00
        -11   -1    0    0    0    0  0.00000000000E+00  0.00000000000E+00  0.45593999997E+02  0.45594000000E+02  0.51100000000E-03 0.  1.
         11   -1    0    0    0    0 -0.00000000000E+00 -0.00000000000E+00 -0.45593999997E+02  0.45594000000E+02  0.51100000000E-03 0. -1.
    9900012    2    1    2    0    0  0.30934452237E+02 -0.29624478786E+02 -0.70049379821E+01  0.47787317578E+02  0.20000212164E+02 0.  0.
        -12    1    1    2    0    0 -0.30934452237E+02  0.29624478786E+02  0.70049379821E+01  0.43400682422E+02  0.00000000000E+00 0.  1.
         11    1    3    3    0    0  0.20942895139E+02 -0.17494594864E+02 -0.10227598677E+02  0.29142228487E+02  0.51100000000E-03 0. -1.
        -11    1    3    3    0    0  0.13469104398E+01  0.61538664065E+00 -0.19055716977E+01  0.24133114607E+01  0.51100000000E-03 0.  1.
         12    1    3    3    0    0  0.86446466591E+01 -0.12745270563E+02  0.51282323921E+01  0.16231777631E+02  0.00000000000E+00 0. -1.
</event>
<event>
 7    1  0.2950722E-010  0.4778727E+02  0.7816164E-02  0.1312668E+00
        -11   -1    0    0    0    0  0.00000000000E+00  0.00000000000E+00  0.45593999997E+02  0.45594000000E+02  0.51100000000E-03 0. -1.
         11   -1    0    0    0    0 -0.00000000000E+00 -0.00000000000E+00 -0.45593999997E+02  0.45594000000E+02  0.51100000000E-03 0.  1.
    9900012    2    1    2    0    0 -0.25436723659E+00  0.41526372081E+02  0.12614241048E+02  0.47787270074E+02  0.19999995576E+02 0.  0.
        -12    1    1    2    0    0  0.25436723659E+00 -0.41526372081E+02 -0.12614241048E+02  0.43400729926E+02  0.00000000000E+00 0.  1.
         11    1    3    3    0    0 -0.45864661720E+01  0.37196583597E+02  0.75190137141E+01  0.38225084313E+02  0.51100000000E-03 0.  1.
        -11    1    3    3    0    0  0.43114418226E+01  0.51250482045E+01  0.55030361845E+01  0.86682211092E+01  0.51100000000E-03 0. -1.
        -12    1    3    3    0    0  0.20657112813E-01 -0.79525972091E+00 -0.40780885056E+00  0.89396465177E+00  0.00000000000E+00 0.  1.
</event>
<event>
 7    1  0.2950722E-010  0.4778727E+02  0.7816164E-02  0.1312668E+00
        -11   -1    0    0    0    0  0.00000000000E+00  0.00000000000E+00  0.45593999997E+02  0.45594000000E+02  0.51100000000E-03 0.  1.
         11   -1    0    0    0    0 -0.00000000000E+00 -0.00000000000E+00 -0.45593999997E+02  0.45594000000E+02  0.51100000000E-03 0. -1.
    9900012    2    1    2    0    0  0.31720913430E+02 -0.26379685269E+02 -0.13472894726E+02  0.47787273785E+02  0.20000012496E+02 0.  0.
        -12    1    1    2    0    0 -0.31720913430E+02  0.26379685269E+02  0.13472894726E+02  0.43400726215E+02  0.00000000000E+00 0.  1.
         11    1    3    3    0    0  0.19325328804E+02 -0.19129131637E+02 -0.11253455219E+01  0.27215040206E+02  0.51100000000E-03 0. -1.
        -11    1    3    3    0    0  0.47367132578E+01 -0.84769539027E+00 -0.15525090652E+00  0.48144722521E+01  0.51100000000E-03 0.  1.
         12    1    3    3    0    0  0.76588713679E+01 -0.64028582411E+01 -0.12192298297E+02  0.15757761327E+02  0.00000000000E+00 0. -1.
</event>
<event>
 7    1  0.2950722E-010  0.4778728E+02  0.7816164E-02  0.1312668E+00
        -11   -1    0    0    0    0  0.00000000000E+00  0.00000000000E+00  0.45593999997E+02  0.45594000000E+02  0.51100000000E-03 0.  1.
         11   -1    0    0    0    0 -0.00000000000E+00 -0.00000000000E+00 -0.45593999997E+02  0.45594000000E+02  0.51100000000E-03 0. -1.
    9900012    2    1    2    0    0  0.25266854722E+02 -0.27392467006E+02 -0.22245486033E+02  0.47787275985E+02  0.20000022526E+02 0.  0.
        -12    1    1    2    0    0 -0.25266854722E+02  0.27392467006E+02  0.22245486033E+02  0.43400724015E+02  0.00000000000E+00 0.  1.
         11    1    3    3    0    0  0.18399555276E+02 -0.93768489290E+01 -0.47018130842E+01  0.21179612289E+02  0.51100000000E-03 0.  1.
        -11    1    3    3    0    0  0.61130628229E+01 -0.11998975658E+02 -0.92648861025E+01  0.16345735489E+02  0.51100000000E-03 0. -1.
         12    1    3    3    0    0  0.75423662318E+00 -0.60166424183E+01 -0.82787868459E+01  0.10261928206E+02  0.00000000000E+00 0. -1.
</event>
<event>
 7    1  0.2950722E-010  0.4778727E+02  0.7816164E-02  0.1312668E+00
        -11   -1    0    0    0    0  0.00000000000E+00  0.00000000000E+00  0.45593999997E+02  0.45594000000E+02  0.51100000000E-03 0.  1.
         11   -1    0    0    0    0 -0.00000000000E+00 -0.00000000000E+00 -0.45593999997E+02  0.45594000000E+02  0.51100000000E-03 0. -1.
    9900012    2    1    2    0    0  0.14399025907E+02 -0.15620191906E+02 -0.37845755052E+02  0.47787268236E+02  0.19999987193E+02 0.  0.
        -12    1    1    2    0    0 -0.14399025907E+02  0.15620191906E+02  0.37845755052E+02  0.43400731764E+02  0.00000000000E+00 0.  1.
         11    1    3    3    0    0  0.12787574504E+02 -0.13171222799E+02 -0.28653770012E+02  0.34030011870E+02  0.51100000000E-03 0. -1.
        -11    1    3    3    0    0 -0.38832562313E+01 -0.78933224501E+00 -0.59973392763E+01  0.71882406058E+01  0.51100000000E-03 0.  1.
        -12    1    3    3    0    0  0.54947076343E+01 -0.16596368624E+01 -0.31946457639E+01  0.65690157602E+01  0.00000000000E+00 0.  1.
</event>
<event>
 7    1  0.2950722E-010  0.4778728E+02  0.7816164E-02  0.1312668E+00
        -11   -1    0    0    0    0  0.00000000000E+00  0.00000000000E+00  0.45593999997E+02  0.45594000000E+02  0.51100000000E-03 0.  1.
         11   -1    0    0    0    0 -0.00000000000E+00 -0.00000000000E+00 -0.45593999997E+02  0.45594000000E+02  0.51100000000E-03 0. -1.
    9900012    2    1    2    0    0 -0.26985644745E+02 -0.17770290095E+02 -0.28976105429E+02  0.47787275142E+02  0.20000018684E+02 0.  0.
        -12    1    1    2    0    0  0.26985644745E+02  0.17770290095E+02  0.28976105429E+02  0.43400724858E+02  0.00000000000E+00 0.  1.
         11    1    3    3    0    0 -0.10125585166E+02 -0.53667504171E+01 -0.17154883766E+02  0.20630548279E+02  0.51100000000E-03 0. -1.
        -11    1    3    3    0    0 -0.12059724104E+02 -0.40159445404E+01 -0.11544172506E+01  0.12763127966E+02  0.51100000000E-03 0.  1.
        -12    1    3    3    0    0 -0.48003354740E+01 -0.83875951372E+01 -0.10666804413E+02  0.14393598898E+02  0.00000000000E+00 0.  1.
</event>
<event>
 7    1  0.2950722E-010  0.4778728E+02  0.7816164E-02  0.1312668E+00
        -11   -1    0    0    0    0  0.00000000000E+00  0.00000000000E+00  0.45593999997E+02  0.45594000000E+02  0.51100000000E-03 0. -1.
         11   -1    0    0    0    0 -0.00000000000E+00 -0.00000000000E+00 -0.45593999997E+02  0.45594000000E+02  0.51100000000E-03 0.  1.
    9900012    2    1    2    0    0  0.30794040836E+02 -0.49875780247E+01  0.30174057129E+02  0.47787278702E+02  0.20000034914E+02 0.  0.
        -12    1    1    2    0    0 -0.30794040836E+02  0.49875780247E+01 -0.30174057129E+02  0.43400721298E+02  0.00000000000E+00 0.  1.
         11    1    3    3    0    0  0.51350557187E+01  0.11348304999E+00  0.25124395124E+01  0.57178692011E+01  0.51100000000E-03 0. -1.
        -11    1    3    3    0    0  0.19633176230E+02 -0.10150398226E+02  0.13576083797E+02  0.25938431806E+02  0.51100000000E-03 0.  1.
        -12    1    3    3    0    0  0.60258088877E+01  0.50493371512E+01  0.14085533820E+02  0.16130977695E+02  0.00000000000E+00 0.  1.
</event>
<event>
 7    1  0.2950722E-010  0.4778728E+02  0.7816164E-02  0.1312668E+00
        -11   -1    0    0    0    0  0.00000000000E+00  0.00000000000E+00  0.45593999997E+02  0.45594000000E+02  0.51100000000E-03 0.  1.
         11   -1    0    0    0    0 -0.00000000000E+00 -0.00000000000E+00 -0.45593999997E+02  0.45594000000E+02  0.51100000000E-03 0. -1.
    9900012    2    1    2    0    0 -0.18656602840E+02  0.27214218449E+02 -0.28194685433E+02  0.47787276480E+02  0.20000024784E+02 0.  0.
        -12    1    1    2    0    0  0.18656602840E+02 -0.27214218449E+02  0.28194685433E+02  0.43400723520E+02  0.00000000000E+00 0.  1.
         11    1    3    3    0    0 -0.59189447832E+01  0.49058853346E+01 -0.15578119058E+02  0.17371799329E+02  0.51100000000E-03 0. -1.
        -11    1    3    3    0    0  0.63242958777E+00 -0.21815673665E+00  0.75152956563E+00  0.10061592788E+01  0.51100000000E-03 0.  1.
         12    1    3    3    0    0 -0.13370087645E+02  0.22526489851E+02 -0.13368095941E+02  0.29409317873E+02  0.00000000000E+00 0. -1.
</event>
<event>
 7    1  0.2950722E-010  0.4778727E+02  0.7816164E-02  0.1312668E+00
        -11   -1    0    0    0    0  0.00000000000E+00  0.00000000000E+00  0.45593999997E+02  0.45594000000E+02  0.51100000000E-03 0.  1.
         11   -1    0    0    0    0 -0.00000000000E+00 -0.00000000000E+00 -0.45593999997E+02  0.45594000000E+02  0.51100000000E-03 0. -1.
    9900012    2    1    2    0    0  0.35442598270E+01  0.38189525546E+02 -0.20313089629E+02  0.47787271326E+02  0.20000001285E+02 0.  0.
        -12    1    1    2    0    0 -0.35442598270E+01 -0.38189525546E+02  0.20313089629E+02  0.43400728674E+02  0.00000000000E+00 0.  1.
         11    1    3    3    0    0 -0.23289037559E+00  0.33422601645E+02 -0.13454857727E+02  0.36029956084E+02  0.51100000000E-03 0. -1.
        -11    1    3    3    0    0 -0.20547434558E+01  0.51819907592E+00 -0.59067858609E+00  0.21998641786E+01  0.51100000000E-03 0.  1.
         12    1    3    3    0    0  0.58318936583E+01  0.42487248250E+01 -0.62675533153E+01  0.95574510640E+01  0.00000000000E+00 0. -1.
</event>
<event>
 7    1  0.2950722E-010  0.4778727E+02  0.7816164E-02  0.1312668E+00
        -11   -1    0    0    0    0  0.00000000000E+00  0.00000000000E+00  0.45593999997E+02  0.45594000000E+02  0.51100000000E-03 0.  1.
         11   -1    0    0    0    0 -0.00000000000E+00 -0.00000000000E+00 -0.45593999997E+02  0.45594000000E+02  0.51100000000E-03 0. -1.
    9900012    2    1    2    0    0 -0.16738047207E+02 -0.22854854954E+02 -0.32880336700E+02  0.47787272348E+02  0.20000005942E+02 0.  0.
        -12    1    1    2    0    0  0.16738047207E+02  0.22854854954E+02  0.32880336700E+02  0.43400727652E+02  0.00000000000E+00 0.  1.
         11    1    3    3    0    0 -0.89262665737E+00 -0.67652160839E+01 -0.10273757906E+02  0.12333492319E+02  0.51100000000E-03 0. -1.
        -11    1    3    3    0    0 -0.13299123068E+02 -0.12746463690E+02 -0.24656568080E+02  0.30778001246E+02  0.51100000000E-03 0.  1.
        -12    1    3    3    0    0 -0.25462974821E+01 -0.33431751791E+01  0.20499892863E+01  0.46757787822E+01  0.00000000000E+00 0.  1.
</event>
<event>
 7    1  0.2950722E-010  0.4778727E+02  0.7816164E-02  0.1312668E+00
        -11   -1    0    0    0    0  0.00000000000E+00  0.00000000000E+00  0.45593999997E+02  0.45594000000E+02  0.51100000000E-03 0.  1.
         11   -1    0    0    0    0 -0.00000000000E+00 -0.00000000000E+00 -0.45593999997E+02  0.45594000000E+02  0.51100000000E-03 0. -1.
    9900012    2    1    2    0    0 -0.22493417730E+02  0.14447165018E+02 -0.34189898478E+02  0.47787267562E+02  0.19999984124E+02 0.  0.
        -12    1    1    2    0    0  0.22493417730E+02 -0.14447165018E+02  0.34189898478E+02  0.43400732438E+02  0.00000000000E+00 0.  1.
         11    1    3    3    0    0 -0.14549430310E+02  0.18994253719E+02 -0.24154322293E+02  0.33998512944E+02  0.51100000000E-03 0. -1.
        -11    1    3    3    0    0 -0.54500028727E+01 -0.18290622608E+01 -0.56884319147E+01  0.80874135529E+01  0.51100000000E-03 0.  1.
         12    1    3    3    0    0 -0.24939845471E+01 -0.27180264397E+01 -0.43471442693E+01  0.57013410656E+01  0.00000000000E+00 0. -1.
</event>
<event>
 7    1  0.2950722E-010  0.4778727E+02  0.7816164E-02  0.1312668E+00
        -11   -1    0    0    0    0  0.00000000000E+00  0.00000000000E+00  0.45593999997E+02  0.45594000000E+02  0.51100000000E-03 0. -1.
         11   -1    0    0    0    0 -0.00000000000E+00 -0.00000000000E+00 -0.45593999997E+02  0.45594000000E+02  0.51100000000E-03 0.  1.
    9900012    2    1    2    0    0  0.62291169832E+01 -0.51762835600E+00  0.42948261898E+02  0.47787273767E+02  0.20000012415E+02 0.  0.
        -12    1    1    2    0    0 -0.62291169832E+01  0.51762835600E+00 -0.42948261898E+02  0.43400726233E+02  0.00000000000E+00 0.  1.
         11    1    3    3    0    0  0.31092112875E+01  0.49232491925E+01  0.22085157562E+02  0.22839872203E+02  0.51100000000E-03 0. -1.
        -11    1    3    3    0    0 -0.92220587757E-01 -0.80127510716E+01  0.75385241684E+01  0.11001910346E+02  0.51100000000E-03 0.  1.
         12    1    3    3    0    0  0.32121262835E+01  0.25718735232E+01  0.13324580167E+02  0.13945491218E+02  0.00000000000E+00 0. -1.
</event>
<event>
 7    1  0.2950722E-010  0.4778727E+02  0.7816164E-02  0.1312668E+00
        -11   -1    0    0    0    0  0.00000000000E+00  0.00000000000E+00  0.45593999997E+02  0.45594000000E+02  0.51100000000E-03 0. -1.
         11   -1    0    0    0    0 -0.00000000000E+00 -0.00000000000E+00 -0.45593999997E+02  0.45594000000E+02  0.51100000000E-03 0.  1.
    9900012    2    1    2    0    0 -0.11270164681E+02  0.20330454697E+01  0.41862557477E+02  0.47787267238E+02  0.19999982643E+02 0.  0.
        -12    1    1    2    0    0  0.11270164681E+02 -0.20330454697E+01 -0.41862557477E+02  0.43400732762E+02  0.00000000000E+00 0.  1.
         11    1    3    3    0    0 -0.34215337760E+01  0.83800705598E+01  0.11671116313E+02  0.14769814901E+02  0.51100000000E-03 0. -1.
        -11    1    3    3    0    0 -0.55637713861E+01 -0.84507791887E+01  0.20892178591E+02  0.23213236471E+02  0.51100000000E-03 0.  1.
         12    1    3    3    0    0 -0.22848595191E+01  0.21037540986E+01  0.92992625735E+01  0.98042158657E+01  0.00000000000E+00 0. -1.
</event>
<event>
 7    1  0.2950722E-010  0.4778727E+02  0.7816164E-02  0.1312668E+00
        -11   -1    0    0    0    0  0.00000000000E+00  0.00000000000E+00  0.45593999997E+02  0.45594000000E+02  0.51100000000E-03 0. -1.
         11   -1    0    0    0    0 -0.00000000000E+00 -0.00000000000E+00 -0.45593999997E+02  0.45594000000E+02  0.51100000000E-03 0.  1.
    9900012    2    1    2    0    0  0.11040787302E+02 -0.35812990435E+02  0.21889583114E+02  0.47787272851E+02  0.20000008238E+02 0.  0.
        -12    1    1    2    0    0 -0.11040787302E+02  0.35812990435E+02 -0.21889583114E+02  0.43400727149E+02  0.00000000000E+00 0.  1.
         11    1    3    3    0    0 -0.32639384670E+01 -0.10774782981E+02  0.18284755198E+01  0.11405812799E+02  0.51100000000E-03 0. -1.
        -11    1    3    3    0    0  0.34157003719E+01 -0.90844534659E+00  0.43218692599E+01  0.55830848229E+01  0.51100000000E-03 0.  1.
         12    1    3    3    0    0  0.10889025397E+02 -0.24129762107E+02  0.15739238334E+02  0.30798375230E+02  0.00000000000E+00 0. -1.
</event>
<event>
 7    1  0.2950722E-010  0.4778729E+02  0.7816164E-02  0.1312668E+00
        -11   -1    0    0    0    0  0.00000000000E+00  0.00000000000E+00  0.45593999997E+02  0.45594000000E+02  0.51100000000E-03 0.  1.
         11   -1    0    0    0    0 -0.00000000000E+00 -0.00000000000E+00 -0.45593999997E+02  0.45594000000E+02  0.51100000000E-03 0. -1.
    9900012    2    1    2    0    0  0.22616152483E+02 -0.30105946133E+02 -0.21581558606E+02  0.47787285517E+02  0.20000065988E+02 0.  0.
        -12    1    1    2    0    0 -0.22616152483E+02  0.30105946133E+02  0.21581558606E+02  0.43400714483E+02  0.00000000000E+00 0.  1.
         11    1    3    3    0    0  0.18719901369E+02 -0.26254123459E+02 -0.22978797200E+02  0.39594681800E+02  0.51100000000E-03 0. -1.
        -11    1    3    3    0    0  0.20847174125E+01  0.14673943758E+00  0.28807079378E+01  0.35589405217E+01  0.51100000000E-03 0.  1.
         12    1    3    3    0    0  0.18115337023E+01 -0.39985621115E+01 -0.14834693443E+01  0.46336631955E+01  0.00000000000E+00 0. -1.
</event>
<event>
 7    1  0.2950722E-010  0.4778727E+02  0.7816164E-02  0.1312668E+00
        -11   -1    0    0    0    0  0.00000000000E+00  0.00000000000E+00  0.45593999997E+02  0.45594000000E+02  0.51100000000E-03 0. -1.
         11   -1    0    0    0    0 -0.00000000000E+00 -0.00000000000E+00 -0.45593999997E+02  0.45594000000E+02  0.51100000000E-03 0.  1.
    9900012    2    1    2    0    0  0.19767892925E+02  0.90503847006E+01  0.37562537567E+02  0.47787270947E+02  0.19999999555E+02 0.  0.
        -12    1    1    2    0    0 -0.19767892925E+02 -0.90503847006E+01 -0.37562537567E+02  0.43400729053E+02  0.00000000000E+00 0.  1.
         11    1    3    3    0    0  0.56767845881E+01  0.11425514934E+02  0.26064247441E+02  0.29019187957E+02  0.51100000000E-03 0.  1.
        -11    1    3    3    0    0  0.11610298722E+02 -0.11978127511E+01  0.10873261078E+02  0.15951852511E+02  0.51100000000E-03 0. -1.
        -12    1    3    3    0    0  0.24808096149E+01 -0.11773174823E+01  0.62502904725E+00  0.28162304788E+01  0.00000000000E+00 0.  1.
</event>
<event>
 7    1  0.2950722E-010  0.4778727E+02  0.7816164E-02  0.1312668E+00
        -11   -1    0    0    0    0  0.00000000000E+00  0.00000000000E+00  0.45593999997E+02  0.45594000000E+02  0.51100000000E-03 0.  1.
         11   -1    0    0    0    0 -0.00000000000E+00 -0.00000000000E+00 -0.45593999997E+02  0.45594000000E+02  0.51100000000E-03 0. -1.
    9900012    2    1    2    0    0  0.42983561336E+02 -0.35530717272E+01  0.48386149977E+01  0.47787273521E+02  0.20000011291E+02 0.  0.
        -12    1    1    2    0    0 -0.42983561336E+02  0.35530717272E+01 -0.48386149977E+01  0.43400726479E+02  0.00000000000E+00 0.  1.
         11    1    3    3    0    0  0.16536058203E+02 -0.69655399373E+01  0.75459443669E+01  0.19465385796E+02  0.51100000000E-03 0.  1.
        -11    1    3    3    0    0  0.14359329708E+02  0.25708019468E+01 -0.59870371399E+01  0.15768449077E+02  0.51100000000E-03 0. -1.
         12    1    3    3    0    0  0.12088173425E+02  0.84166626328E+00  0.32797077707E+01  0.12553438648E+02  0.00000000000E+00 0. -1.
</event>
<event>
 7    1  0.2950722E-010  0.4778727E+02  0.7816164E-02  0.1312668E+00
        -11   -1    0    0    0    0  0.00000000000E+00  0.00000000000E+00  0.45593999997E+02  0.45594000000E+02  0.51100000000E-03 0.  1.
         11   -1    0    0    0    0 -0.00000000000E+00 -0.00000000000E+00 -0.45593999997E+02  0.45594000000E+02  0.51100000000E-03 0. -1.
    9900012    2    1    2    0    0 -0.67536096351E+01  0.31786695829E+02 -0.28768351120E+02  0.47787270732E+02  0.19999998576E+02 0.  0.
        -12    1    1    2    0    0  0.67536096351E+01 -0.31786695829E+02  0.28768351120E+02  0.43400729268E+02  0.00000000000E+00 0.  1.
         11    1    3    3    0    0  0.36887758455E+01  0.15955066921E+02 -0.19816316231E+02  0.25707151085E+02  0.51100000000E-03 0. -1.
        -11    1    3    3    0    0 -0.96170090294E+01  0.10538172337E+02 -0.87138912301E+01  0.16717411268E+02  0.51100000000E-03 0.  1.
        -12    1    3    3    0    0 -0.82537645118E+00  0.52934565717E+01 -0.23814365910E+00  0.53627083796E+01  0.00000000000E+00 0.  1.
</event>
<event>
 7    1  0.2950722E-010  0.4778727E+02  0.7816164E-02  0.1312668E+00
        -11   -1    0    0    0    0  0.00000000000E+00  0.00000000000E+00  0.45593999997E+02  0.45594000000E+02  0.51100000000E-03 0.  1.
         11   -1    0    0    0    0 -0.00000000000E+00 -0.00000000000E+00 -0.45593999997E+02  0.45594000000E+02  0.51100000000E-03 0. -1.
    9900012    2    1    2    0    0 -0.55549556540E+01 -0.26476071088E+02 -0.33937937154E+02  0.47787269005E+02  0.19999990703E+02 0.  0.
        -12    1    1    2    0    0  0.55549556540E+01  0.26476071088E+02  0.33937937154E+02  0.43400730995E+02  0.00000000000E+00 0.  1.
         11    1    3    3    0    0 -0.67922425367E+01 -0.10125265008E+02 -0.27169810264E+02  0.29780096377E+02  0.51100000000E-03 0. -1.
        -11    1    3    3    0    0  0.55664503049E+00 -0.39020143004E+01 -0.27710716186E+00  0.39512476423E+01  0.51100000000E-03 0.  1.
         12    1    3    3    0    0  0.68064185224E+00 -0.12448791780E+02 -0.64910197282E+01  0.14055924986E+02  0.00000000000E+00 0. -1.
</event>
<event>
 7    1  0.2950722E-010  0.4778727E+02  0.7816164E-02  0.1312668E+00
        -11   -1    0    0    0    0  0.00000000000E+00  0.00000000000E+00  0.45593999997E+02  0.45594000000E+02  0.51100000000E-03 0. -1.
         11   -1    0    0    0    0 -0.00000000000E+00 -0.00000000000E+00 -0.45593999997E+02  0.45594000000E+02  0.51100000000E-03 0.  1.
    9900012    2    1    2    0    0  0.35067253114E+02 -0.23731308181E+02  0.95255369837E+01  0.47787273235E+02  0.20000009987E+02 0.  0.
        -12    1    1    2    0    0 -0.35067253114E+02  0.23731308181E+02 -0.95255369837E+01  0.43400726765E+02  0.00000000000E+00 0.  1.
         11    1    3    3    0    0  0.10465414326E+02 -0.17465174820E+02  0.17814748630E+01  0.20438465731E+02  0.51100000000E-03 0. -1.
        -11    1    3    3    0    0  0.18109147946E+02 -0.40727485432E+01  0.85730525503E+01  0.20445678035E+02  0.51100000000E-03 0.  1.
        -12    1    3    3    0    0  0.64926908422E+01 -0.21933848177E+01 -0.82899042961E+00  0.69031294689E+01  0.00000000000E+00 0.  1.
</event>
<event>
 7    1  0.2950722E-010  0.4778727E+02  0.7816164E-02  0.1312668E+00
        -11   -1    0    0    0    0  0.00000000000E+00  0.00000000000E+00  0.45593999997E+02  0.45594000000E+02  0.51100000000E-03 0.  1.
         11   -1    0    0    0    0 -0.00000000000E+00 -0.00000000000E+00 -0.45593999997E+02  0.45594000000E+02  0.51100000000E-03 0. -1.
    9900012    2    1    2    0    0 -0.70392836138E+01  0.34603020757E+02 -0.25232973943E+02  0.47787268056E+02  0.19999986374E+02 0.  0.
        -12    1    1    2    0    0  0.70392836138E+01 -0.34603020757E+02  0.25232973943E+02  0.43400731944E+02  0.00000000000E+00 0.  1.
         11    1    3    3    0    0 -0.99251565587E+01  0.22401653738E+02 -0.10058962349E+02  0.26486327543E+02  0.51100000000E-03 0. -1.
        -11    1    3    3    0    0  0.35746529478E+01  0.12869626986E+02 -0.11899320897E+02  0.17888523710E+02  0.51100000000E-03 0.  1.
        -12    1    3    3    0    0 -0.68878000296E+00 -0.66825996725E+00 -0.32746906963E+01  0.34124168024E+01  0.00000000000E+00 0.  1.
</event>
<event>
 7    1  0.2950722E-010  0.4778729E+02  0.7816164E-02  0.1312668E+00
        -11   -1    0    0    0    0  0.00000000000E+00  0.00000000000E+00  0.45593999997E+02  0.45594000000E+02  0.51100000000E-03 0.  1.
         11   -1    0    0    0    0 -0.00000000000E+00 -0.00000000000E+00 -0.45593999997E+02  0.45594000000E+02  0.51100000000E-03 0. -1.
    9900012    2    1    2    0    0 -0.24160366038E+02 -0.29696598662E+02 -0.20445310309E+02  0.47787286033E+02  0.20000068341E+02 0.  0.
        -12    1    1    2    0    0  0.24160366038E+02  0.29696598662E+02  0.20445310309E+02  0.43400713967E+02  0.00000000000E+00 0.  1.
         11    1    3    3    0    0 -0.48834453127E+01 -0.48820439656E+01 -0.68252472709E+01  0.97090881124E+01  0.51100000000E-03 0. -1.
        -11    1    3    3    0    0 -0.15503880267E+02 -0.26686058529E+02 -0.13918018674E+02  0.33855978309E+02  0.51100000000E-03 0.  1.
        -12    1    3    3    0    0 -0.37730404580E+01  0.18715038328E+01  0.29795563601E+00  0.42222196123E+01  0.00000000000E+00 0.  1.
</event>
<event>
 7    1  0.2950722E-010  0.4778729E+02  0.7816164E-02  0.1312668E+00
        -11   -1    0    0    0    0  0.00000000000E+00  0.00000000000E+00  0.45593999997E+02  0.45594000000E+02  0.51100000000E-03 0.  1.
         11   -1    0    0    0    0 -0.00000000000E+00 -0.00000000000E+00 -0.45593999997E+02  0.45594000000E+02  0.51100000000E-03 0. -1.
    9900012    2    1    2    0    0 -0.36903534393E+02 -0.20195055144E+02  0.10672891451E+02  0.47787289005E+02  0.20000081889E+02 0.  0.
        -12    1    1    2    0    0  0.36903534393E+02  0.20195055144E+02 -0.10672891451E+02  0.43400710995E+02  0.00000000000E+00 0.  1.
         11    1    3    3    0    0 -0.28811398749E+02 -0.20427665189E+02  0.84016298349E+01  0.36303905949E+02  0.51100000000E-03 0. -1.
        -11    1    3    3    0    0 -0.90891134186E+00  0.32930828759E+01  0.10939975138E+01  0.35871082332E+01  0.51100000000E-03 0.  1.
         12    1    3    3    0    0 -0.71832243019E+01 -0.30604728304E+01  0.11772641023E+01  0.78962748232E+01  0.00000000000E+00 0. -1.
</event>
<event>
 7    1  0.2950722E-010  0.4778727E+02  0.7816164E-02  0.1312668E+00
        -11   -1    0    0    0    0  0.00000000000E+00  0.00000000000E+00  0.45593999997E+02  0.45594000000E+02  0.51100000000E-03 0.  1.
         11   -1    0    0    0    0 -0.00000000000E+00 -0.00000000000E+00 -0.45593999997E+02  0.45594000000E+02  0.51100000000E-03 0. -1.
    9900012    2    1    2    0    0 -0.17966552618E+02  0.35816972268E+02 -0.16672469471E+02  0.47787265516E+02  0.19999974796E+02 0.  0.
        -12    1    1    2    0    0  0.17966552618E+02 -0.35816972268E+02  0.16672469471E+02  0.43400734484E+02  0.00000000000E+00 0.  1.
         11    1    3    3    0    0 -0.14027956552E+02  0.99021131622E+01 -0.10217452952E+02  0.19980784649E+02  0.51100000000E-03 0. -1.
        -11    1    3    3    0    0  0.10106621117E+01  0.12804444313E+02 -0.47286226901E+01  0.13687041494E+02  0.51100000000E-03 0.  1.
         12    1    3    3    0    0 -0.49492581780E+01  0.13110414793E+02 -0.17263938291E+01  0.14119439373E+02  0.00000000000E+00 0. -1.
</event>
<event>
 7    1  0.2950722E-010  0.4778727E+02  0.7816164E-02  0.1312668E+00
        -11   -1    0    0    0    0  0.00000000000E+00  0.00000000000E+00  0.45593999997E+02  0.45594000000E+02  0.51100000000E-03 0. -1.
         11   -1    0    0    0    0 -0.00000000000E+00 -0.00000000000E+00 -0.45593999997E+02  0.45594000000E+02  0.51100000000E-03 0.  1.
    9900012    2    1    2    0    0 -0.35514075228E+02  0.15724779470E+02  0.19367629237E+02  0.47787270848E+02  0.19999999102E+02 0.  0.
        -12    1    1    2    0    0  0.35514075228E+02 -0.15724779470E+02 -0.19367629237E+02  0.43400729152E+02  0.00000000000E+00 0.  1.
         11    1    3    3    0    0 -0.51565318182E+01  0.34174243035E+01  0.60315835887E+01  0.86399427146E+01  0.51100000000E-03 0. -1.
        -11    1    3    3    0    0 -0.13124766243E+02  0.61058413045E+00  0.12754935636E+02  0.18311763576E+02  0.51100000000E-03 0.  1.
        -12    1    3    3    0    0 -0.17232777168E+02  0.11696771036E+02  0.58111001200E+00  0.20835564557E+02  0.00000000000E+00 0.  1.
</event>
<event>
 7    1  0.2950722E-010  0.4778727E+02  0.7816164E-02  0.1312668E+00
        -11   -1    0    0    0    0  0.00000000000E+00  0.00000000000E+00  0.45593999997E+02  0.45594000000E+02  0.51100000000E-03 0.  1.
         11   -1    0    0    0    0 -0.00000000000E+00 -0.00000000000E+00 -0.45593999997E+02  0.45594000000E+02  0.51100000000E-03 0. -1.
    9900012    2    1    2    0    0 -0.22839397860E+02  0.17563008669E+02 -0.32458066186E+02  0.47787269262E+02  0.19999991873E+02 0.  0.
        -12    1    1    2    0    0  0.22839397860E+02 -0.17563008669E+02  0.32458066186E+02  0.43400730738E+02  0.00000000000E+00 0.  1.
         11    1    3    3    0    0 -0.17700815336E+02  0.16912726479E+02 -0.27571642533E+02  0.36872139249E+02  0.51100000000E-03 0. -1.
        -11    1    3    3    0    0 -0.65483582400E+01 -0.60975925741E+00 -0.10797594957E+01  0.66647342649E+01  0.51100000000E-03 0.  1.
        -12    1    3    3    0    0  0.14097757161E+01  0.12600414470E+01 -0.38066641565E+01  0.42503957484E+01  0.00000000000E+00 0.  1.
</event>
<event>
 7    1  0.2950722E-010  0.4778727E+02  0.7816164E-02  0.1312668E+00
        -11   -1    0    0    0    0  0.00000000000E+00  0.00000000000E+00  0.45593999997E+02  0.45594000000E+02  0.51100000000E-03 0. -1.
         11   -1    0    0    0    0 -0.00000000000E+00 -0.00000000000E+00 -0.45593999997E+02  0.45594000000E+02  0.51100000000E-03 0.  1.
    9900012    2    1    2    0    0 -0.37718090884E+02  0.14605169913E+02 -0.15737149912E+02  0.47787271256E+02  0.20000000967E+02 0.  0.
        -12    1    1    2    0    0  0.37718090884E+02 -0.14605169913E+02  0.15737149912E+02  0.43400728744E+02  0.00000000000E+00 0.  1.
         11    1    3    3    0    0 -0.24275862619E+02  0.12167141072E+02 -0.43944751152E+01  0.27507603305E+02  0.51100000000E-03 0. -1.
        -11    1    3    3    0    0 -0.12458136258E+02  0.28917078217E+01 -0.13040618161E+02  0.18265400500E+02  0.51100000000E-03 0.  1.
        -12    1    3    3    0    0 -0.98409200732E+00 -0.45367898084E+00  0.16979433648E+01  0.20142674516E+01  0.00000000000E+00 0.  1.
</event>
<event>
 7    1  0.2950722E-010  0.4778727E+02  0.7816164E-02  0.1312668E+00
        -11   -1    0    0    0    0  0.00000000000E+00  0.00000000000E+00  0.45593999997E+02  0.45594000000E+02  0.51100000000E-03 0.  1.
         11   -1    0    0    0    0 -0.00000000000E+00 -0.00000000000E+00 -0.45593999997E+02  0.45594000000E+02  0.51100000000E-03 0. -1.
    9900012    2    1    2    0    0 -0.39555838248E+02 -0.17770906402E+02  0.17758917652E+01  0.47787271372E+02  0.20000001495E+02 0.  0.
        -12    1    1    2    0    0  0.39555838248E+02  0.17770906402E+02 -0.17758917652E+01  0.43400728628E+02  0.00000000000E+00 0.  1.
         11    1    3    3    0    0 -0.24131551776E+02 -0.10756955299E+02 -0.70407295500E+01  0.27342562998E+02  0.51100000000E-03 0. -1.
        -11    1    3    3    0    0 -0.57949511071E+01 -0.20265215206E+01  0.72302953587E+01  0.94850102289E+01  0.51100000000E-03 0.  1.
        -12    1    3    3    0    0 -0.96293353647E+01 -0.49874295823E+01  0.15863259564E+01  0.10959698146E+02  0.00000000000E+00 0.  1.
</event>
<event>
 7    1  0.2950722E-010  0.4778727E+02  0.7816164E-02  0.1312668E+00
        -11   -1    0    0    0    0  0.00000000000E+00  0.00000000000E+00  0.45593999997E+02  0.45594000000E+02  0.51100000000E-03 0.  1.
         11   -1    0    0    0    0 -0.00000000000E+00 -0.00000000000E+00 -0.45593999997E+02  0.45594000000E+02  0.51100000000E-03 0. -1.
    9900012    2    1    2    0    0 -0.30204097722E+02 -0.22991211216E+01 -0.31081348082E+02  0.47787266415E+02  0.19999978892E+02 0.  0.
        -12    1    1    2    0    0  0.30204097722E+02  0.22991211216E+01  0.31081348082E+02  0.43400733585E+02  0.00000000000E+00 0.  1.
         11    1    3    3    0    0 -0.24969078938E+01  0.35264572580E+01 -0.18805955168E+01  0.47124398756E+01  0.51100000000E-03 0. -1.
        -11    1    3    3    0    0 -0.18650307516E+02 -0.96083776559E+01 -0.14911071355E+02  0.25738977074E+02  0.51100000000E-03 0.  1.
        -12    1    3    3    0    0 -0.90568823121E+01  0.37827992763E+01 -0.14289681211E+02  0.17335849465E+02  0.00000000000E+00 0.  1.
</event>
<event>
 7    1  0.2950722E-010  0.4778727E+02  0.7816164E-02  0.1312668E+00
        -11   -1    0    0    0    0  0.00000000000E+00  0.00000000000E+00  0.45593999997E+02  0.45594000000E+02  0.51100000000E-03 0.  1.
         11   -1    0    0    0    0 -0.00000000000E+00 -0.00000000000E+00 -0.45593999997E+02  0.45594000000E+02  0.51100000000E-03 0. -1.
    9900012    2    1    2    0    0 -0.51086623055E+01 -0.23839463268E+02 -0.35905498751E+02  0.47787270974E+02  0.19999999679E+02 0.  0.
        -12    1    1    2    0    0  0.51086623055E+01  0.23839463268E+02  0.35905498751E+02  0.43400729026E+02  0.00000000000E+00 0.  1.
         11    1    3    3    0    0 -0.66519081214E-01 -0.10523065022E+02 -0.20601250155E+02  0.23133327267E+02  0.51100000000E-03 0. -1.
        -11    1    3    3    0    0 -0.46608471734E+00 -0.72240461811E+00 -0.10322520201E+02  0.10358258877E+02  0.51100000000E-03 0.  1.
         12    1    3    3    0    0 -0.45760585070E+01 -0.12593993628E+02 -0.49817283942E+01  0.14295684830E+02  0.00000000000E+00 0. -1.
</event>
<event>
 7    1  0.2950722E-010  0.4778727E+02  0.7816164E-02  0.1312668E+00
        -11   -1    0    0    0    0  0.00000000000E+00  0.00000000000E+00  0.45593999997E+02  0.45594000000E+02  0.51100000000E-03 0.  1.
         11   -1    0    0    0    0 -0.00000000000E+00 -0.00000000000E+00 -0.45593999997E+02  0.45594000000E+02  0.51100000000E-03 0. -1.
    9900012    2    1    2    0    0 -0.41911032714E+02 -0.10740998746E+02 -0.34234238015E+01  0.47787267889E+02  0.19999985614E+02 0.  0.
        -12    1    1    2    0    0  0.41911032714E+02  0.10740998746E+02  0.34234238015E+01  0.43400732111E+02  0.00000000000E+00 0.  1.
         11    1    3    3    0    0 -0.27672418404E+02 -0.67228802325E+01 -0.39732106921E+01  0.28753195691E+02  0.51100000000E-03 0. -1.
        -11    1    3    3    0    0 -0.32993153154E+01  0.86514759536E+00  0.51704004602E+01  0.61941103552E+01  0.51100000000E-03 0.  1.
        -12    1    3    3    0    0 -0.10939298995E+02 -0.48832661091E+01 -0.46206135696E+01  0.12839961844E+02  0.00000000000E+00 0.  1.
</event>
<event>
 7    1  0.2950722E-010  0.4778727E+02  0.7816164E-02  0.1312668E+00
        -11   -1    0    0    0    0  0.00000000000E+00  0.00000000000E+00  0.45593999997E+02  0.45594000000E+02  0.51100000000E-03 0.  1.
         11   -1    0    0    0    0 -0.00000000000E+00 -0.00000000000E+00 -0.45593999997E+02  0.45594000000E+02  0.51100000000E-03 0. -1.
    9900012    2    1    2    0    0  0.15821191421E+01 -0.21669699853E+02 -0.37570520230E+02  0.47787274395E+02  0.20000015278E+02 0.  0.
        -12    1    1    2    0    0 -0.15821191421E+01  0.21669699853E+02  0.37570520230E+02  0.43400725605E+02  0.00000000000E+00 0.  1.
         11    1    3    3    0    0  0.38481268194E+00 -0.10173170386E+02 -0.30410424350E+02  0.32069228021E+02  0.51100000000E-03 0. -1.
        -11    1    3    3    0    0 -0.18651155517E-01 -0.11432054768E+02 -0.36466775595E+01  0.11999603392E+02  0.51100000000E-03 0.  1.
        -12    1    3    3    0    0  0.12159576157E+01 -0.64474698139E-01 -0.35134183208E+01  0.37184429815E+01  0.00000000000E+00 0.  1.
</event>
<event>
 7    1  0.2950722E-010  0.4778727E+02  0.7816164E-02  0.1312668E+00
        -11   -1    0    0    0    0  0.00000000000E+00  0.00000000000E+00  0.45593999997E+02  0.45594000000E+02  0.51100000000E-03 0.  1.
         11   -1    0    0    0    0 -0.00000000000E+00 -0.00000000000E+00 -0.45593999997E+02  0.45594000000E+02  0.51100000000E-03 0. -1.
    9900012    2    1    2    0    0  0.53966569648E+01  0.40837927251E+02 -0.13666127120E+02  0.47787271446E+02  0.20000001829E+02 0.  0.
        -12    1    1    2    0    0 -0.53966569648E+01 -0.40837927251E+02  0.13666127120E+02  0.43400728554E+02  0.00000000000E+00 0.  1.
         11    1    3    3    0    0  0.86200673996E+01  0.22344882799E+02 -0.12206968439E+02  0.26881395574E+02  0.51100000000E-03 0. -1.
        -11    1    3    3    0    0 -0.32416102669E+01  0.11117024547E+01 -0.76150701280E+00  0.35105288294E+01  0.51100000000E-03 0.  1.
        -12    1    3    3    0    0  0.18199832118E-01  0.17381341997E+02 -0.69765166907E+00  0.17395347042E+02  0.00000000000E+00 0.  1.
</event>
<event>
 7    1  0.2950722E-010  0.4778727E+02  0.7816164E-02  0.1312668E+00
        -11   -1    0    0    0    0  0.00000000000E+00  0.00000000000E+00  0.45593999997E+02  0.45594000000E+02  0.51100000000E-03 0.  1.
         11   -1    0    0    0    0 -0.00000000000E+00 -0.00000000000E+00 -0.45593999997E+02  0.45594000000E+02  0.51100000000E-03 0. -1.
    9900012    2    1    2    0    0 -0.43940359110E+01  0.28951408702E+02 -0.32033290320E+02  0.47787270672E+02  0.19999998303E+02 0.  0.
        -12    1    1    2    0    0  0.43940359110E+01 -0.28951408702E+02  0.32033290320E+02  0.43400729328E+02  0.00000000000E+00 0.  1.
         11    1    3    3    0    0 -0.58921623535E+01  0.13374217169E+02 -0.22343021926E+02  0.26698275059E+02  0.51100000000E-03 0. -1.
        -11    1    3    3    0    0  0.24265808238E+01 -0.22671772902E+00  0.16191035741E+00  0.24425213710E+01  0.51100000000E-03 0.  1.
         12    1    3    3    0    0 -0.92845438125E+00  0.15803909262E+02 -0.98521787520E+01  0.18646474242E+02  0.00000000000E+00 0. -1.
</event>
<event>
 7    1  0.2950722E-010  0.4778728E+02  0.7816164E-02  0.1312668E+00
        -11   -1    0    0    0    0  0.00000000000E+00  0.00000000000E+00  0.45593999997E+02  0.45594000000E+02  0.51100000000E-03 0.  1.
         11   -1    0    0    0    0 -0.00000000000E+00 -0.00000000000E+00 -0.45593999997E+02  0.45594000000E+02  0.51100000000E-03 0. -1.
    9900012    2    1    2    0    0 -0.20324026541E+02  0.38623582321E+01 -0.38152835420E+02  0.47787277466E+02  0.20000029277E+02 0.  0.
        -12    1    1    2    0    0  0.20324026541E+02 -0.38623582321E+01  0.38152835420E+02  0.43400722534E+02  0.00000000000E+00 0.  1.
         11    1    3    3    0    0 -0.12282060810E+02 -0.13377008627E+01 -0.10145238106E+02  0.15986379134E+02  0.51100000000E-03 0. -1.
        -11    1    3    3    0    0 -0.83328289679E+00  0.12129456166E+01 -0.20809005601E+02  0.20860975812E+02  0.51100000000E-03 0.  1.
        -12    1    3    3    0    0 -0.72086828343E+01  0.39871134782E+01 -0.71985917131E+01  0.10939922520E+02  0.00000000000E+00 0.  1.
</event>
<event>
 7    1  0.2950722E-010  0.4778728E+02  0.7816164E-02  0.1312668E+00
        -11   -1    0    0    0    0  0.00000000000E+00  0.00000000000E+00  0.45593999997E+02  0.45594000000E+02  0.51100000000E-03 0.  1.
         11   -1    0    0    0    0 -0.00000000000E+00 -0.00000000000E+00 -0.45593999997E+02  0.45594000000E+02  0.51100000000E-03 0. -1.
    9900012    2    1    2    0    0 -0.62481559680E+00  0.24519988285E+02 -0.35805061030E+02  0.47787278630E+02  0.20000034587E+02 0.  0.
        -12    1    1    2    0    0  0.62481559680E+00 -0.24519988285E+02  0.35805061030E+02  0.43400721370E+02  0.00000000000E+00 0.  1.
         11    1    3    3    0    0 -0.67865690604E+00  0.92418687882E+01 -0.62033465339E+01  0.11151422437E+02  0.51100000000E-03 0. -1.
        -11    1    3    3    0    0 -0.56645660465E+01  0.38059590915E+01 -0.37649604270E+01  0.77940721308E+01  0.51100000000E-03 0.  1.
        -12    1    3    3    0    0  0.57184073558E+01  0.11472160405E+02 -0.25836754069E+02  0.28841784062E+02  0.00000000000E+00 0.  1.
</event>
<event>
 7    1  0.2950722E-010  0.4778725E+02  0.7816164E-02  0.1312668E+00
        -11   -1    0    0    0    0  0.00000000000E+00  0.00000000000E+00  0.45593999997E+02  0.45594000000E+02  0.51100000000E-03 0. -1.
         11   -1    0    0    0    0 -0.00000000000E+00 -0.00000000000E+00 -0.45593999997E+02  0.45594000000E+02  0.51100000000E-03 0.  1.
    9900012    2    1    2    0    0  0.41553158043E+02  0.12357547050E+02  0.20617797213E+01  0.47787252910E+02  0.19999917316E+02 0.  0.
        -12    1    1    2    0    0 -0.41553158043E+02 -0.12357547050E+02 -0.20617797213E+01  0.43400747090E+02  0.00000000000E+00 0.  1.
         11    1    3    3    0    0  0.12211187242E+02  0.11006888508E+02  0.28815127308E+01  0.16690350636E+02  0.51100000000E-03 0. -1.
        -11    1    3    3    0    0  0.20308066744E+02 -0.25173173652E+01  0.27374313135E+01  0.20645774193E+02  0.51100000000E-03 0.  1.
         12    1    3    3    0    0  0.90339040569E+01  0.38679759072E+01 -0.35571643231E+01  0.10451128080E+02  0.00000000000E+00 0. -1.
</event>
<event>
 7    1  0.2950722E-010  0.4778727E+02  0.7816164E-02  0.1312668E+00
        -11   -1    0    0    0    0  0.00000000000E+00  0.00000000000E+00  0.45593999997E+02  0.45594000000E+02  0.51100000000E-03 0. -1.
         11   -1    0    0    0    0 -0.00000000000E+00 -0.00000000000E+00 -0.45593999997E+02  0.45594000000E+02  0.51100000000E-03 0.  1.
    9900012    2    1    2    0    0  0.21142987227E+02 -0.34205015650E+02  0.16328330048E+02  0.47787269976E+02  0.19999995127E+02 0.  0.
        -12    1    1    2    0    0 -0.21142987227E+02  0.34205015650E+02 -0.16328330048E+02  0.43400730024E+02  0.00000000000E+00 0.  1.
         11    1    3    3    0    0  0.77940313038E+01 -0.22906218052E+02  0.14411973407E+02  0.28162860778E+02  0.51100000000E-03 0. -1.
        -11    1    3    3    0    0  0.14158088400E+01 -0.24186259596E+01 -0.28574555551E+01  0.40024141108E+01  0.51100000000E-03 0.  1.
         12    1    3    3    0    0  0.11933147083E+02 -0.88801716382E+01  0.47738121957E+01  0.15621995087E+02  0.00000000000E+00 0. -1.
</event>
<event>
 7    1  0.2950722E-010  0.4778727E+02  0.7816164E-02  0.1312668E+00
        -11   -1    0    0    0    0  0.00000000000E+00  0.00000000000E+00  0.45593999997E+02  0.45594000000E+02  0.51100000000E-03 0.  1.
         11   -1    0    0    0    0 -0.00000000000E+00 -0.00000000000E+00 -0.45593999997E+02  0.45594000000E+02  0.51100000000E-03 0. -1.
    9900012    2    1    2    0    0 -0.38028380866E+02 -0.14461816335E+02 -0.15110306584E+02  0.47787271342E+02  0.20000001356E+02 0.  0.
        -12    1    1    2    0    0  0.38028380866E+02  0.14461816335E+02  0.15110306584E+02  0.43400728658E+02  0.00000000000E+00 0.  1.
         11    1    3    3    0    0 -0.25365706650E+02 -0.12891512512E+02 -0.10359287173E+02  0.30280769470E+02  0.51100000000E-03 0. -1.
        -11    1    3    3    0    0 -0.10022961700E+01 -0.19784409930E+01 -0.53828920157E+01  0.58218856987E+01  0.51100000000E-03 0.  1.
         12    1    3    3    0    0 -0.11660378046E+02  0.40813717010E+00  0.63187260440E+00  0.11684616173E+02  0.00000000000E+00 0. -1.
</event>
<event>
 7    1  0.2950722E-010  0.4778727E+02  0.7816164E-02  0.1312668E+00
        -11   -1    0    0    0    0  0.00000000000E+00  0.00000000000E+00  0.45593999997E+02  0.45594000000E+02  0.51100000000E-03 0.  1.
         11   -1    0    0    0    0 -0.00000000000E+00 -0.00000000000E+00 -0.45593999997E+02  0.45594000000E+02  0.51100000000E-03 0. -1.
    9900012    2    1    2    0    0 -0.15044917927E+02  0.22315975004E+02 -0.34048066165E+02  0.47787272986E+02  0.20000008851E+02 0.  0.
        -12    1    1    2    0    0  0.15044917927E+02 -0.22315975004E+02  0.34048066165E+02  0.43400727014E+02  0.00000000000E+00 0.  1.
         11    1    3    3    0    0 -0.86950760808E+01  0.98213266863E+01 -0.72743722271E+01  0.14999309900E+02  0.51100000000E-03 0. -1.
        -11    1    3    3    0    0  0.37639200260E+01  0.52003933524E+01 -0.81404161545E+01  0.10367138487E+02  0.51100000000E-03 0.  1.
        -12    1    3    3    0    0 -0.10113761872E+02  0.72942549653E+01 -0.18633277783E+02  0.22420824598E+02  0.00000000000E+00 0.  1.
</event>
<event>
 7    1  0.2950722E-010  0.4778728E+02  0.7816164E-02  0.1312668E+00
        -11   -1    0    0    0    0  0.00000000000E+00  0.00000000000E+00  0.45593999997E+02  0.45594000000E+02  0.51100000000E-03 0.  1.
         11   -1    0    0    0    0 -0.00000000000E+00 -0.00000000000E+00 -0.45593999997E+02  0.45594000000E+02  0.51100000000E-03 0. -1.
    9900012    2    1    2    0    0 -0.86881755012E+00  0.13681677196E+02 -0.41178631437E+02  0.47787276252E+02  0.20000023743E+02 0.  0.
        -12    1    1    2    0    0  0.86881755012E+00 -0.13681677196E+02  0.41178631437E+02  0.43400723748E+02  0.00000000000E+00 0.  1.
         11    1    3    3    0    0  0.55411480945E+01  0.24322044855E+01 -0.61281501761E+01  0.86124424937E+01  0.51100000000E-03 0. -1.
        -11    1    3    3    0    0 -0.63980169979E+01  0.13659355423E+02 -0.29959968957E+02  0.33542694469E+02  0.51100000000E-03 0.  1.
         12    1    3    3    0    0 -0.11948646723E-01 -0.24098827122E+01 -0.50905123042E+01  0.56321392895E+01  0.00000000000E+00 0. -1.
</event>
<event>
 7    1  0.2950722E-010  0.4778727E+02  0.7816164E-02  0.1312668E+00
        -11   -1    0    0    0    0  0.00000000000E+00  0.00000000000E+00  0.45593999997E+02  0.45594000000E+02  0.51100000000E-03 0.  1.
         11   -1    0    0    0    0 -0.00000000000E+00 -0.00000000000E+00 -0.45593999997E+02  0.45594000000E+02  0.51100000000E-03 0. -1.
    9900012    2    1    2    0    0 -0.29899517204E+02 -0.86032531878E+01 -0.30259314544E+02  0.47787271767E+02  0.20000003296E+02 0.  0.
        -12    1    1    2    0    0  0.29899517204E+02  0.86032531878E+01  0.30259314544E+02  0.43400728233E+02  0.00000000000E+00 0.  1.
         11    1    3    3    0    0 -0.93311280166E+01 -0.13655139264E+01 -0.12892885838E+02  0.15973762357E+02  0.51100000000E-03 0. -1.
        -11    1    3    3    0    0 -0.50640167315E+01 -0.74302993386E+01 -0.65346775382E+00  0.90155773018E+01  0.51100000000E-03 0.  1.
        -12    1    3    3    0    0 -0.15504372456E+02  0.19256007723E+00 -0.16712960952E+02  0.22797932109E+02  0.00000000000E+00 0.  1.
</event>
<event>
 7    1  0.2950722E-010  0.4778727E+02  0.7816164E-02  0.1312668E+00
        -11   -1    0    0    0    0  0.00000000000E+00  0.00000000000E+00  0.45593999997E+02  0.45594000000E+02  0.51100000000E-03 0.  1.
         11   -1    0    0    0    0 -0.00000000000E+00 -0.00000000000E+00 -0.45593999997E+02  0.45594000000E+02  0.51100000000E-03 0. -1.
    9900012    2    1    2    0    0  0.53378310896E+01  0.95170667177E+01 -0.42006623545E+02  0.47787269346E+02  0.19999992254E+02 0.  0.
        -12    1    1    2    0    0 -0.53378310896E+01 -0.95170667177E+01  0.42006623545E+02  0.43400730654E+02  0.00000000000E+00 0.  1.
         11    1    3    3    0    0 -0.32080846123E+01  0.13745573862E+01 -0.23191589697E+02  0.23452740732E+02  0.51100000000E-03 0. -1.
        -11    1    3    3    0    0  0.10693197166E+02  0.69436332439E+01 -0.17127021091E+02  0.21351659420E+02  0.51100000000E-03 0.  1.
        -12    1    3    3    0    0 -0.21472814645E+01  0.11988760875E+01 -0.16880127576E+01  0.29828691944E+01  0.00000000000E+00 0.  1.
</event>
<event>
 7    1  0.2950722E-010  0.4778727E+02  0.7816164E-02  0.1312668E+00
        -11   -1    0    0    0    0  0.00000000000E+00  0.00000000000E+00  0.45593999997E+02  0.45594000000E+02  0.51100000000E-03 0.  1.
         11   -1    0    0    0    0 -0.00000000000E+00 -0.00000000000E+00 -0.45593999997E+02  0.45594000000E+02  0.51100000000E-03 0. -1.
    9900012    2    1    2    0    0  0.25456325477E+01  0.22117530933E+02 -0.37255308760E+02  0.47787269010E+02  0.19999990724E+02 0.  0.
        -12    1    1    2    0    0 -0.25456325477E+01 -0.22117530933E+02  0.37255308760E+02  0.43400730990E+02  0.00000000000E+00 0.  1.
         11    1    3    3    0    0  0.22186265828E+01 -0.27309717895E+01 -0.97829215517E+01  0.10396444834E+02  0.51100000000E-03 0. -1.
        -11    1    3    3    0    0  0.11713205568E+01  0.12921187221E+02 -0.10841209562E+02  0.16907421332E+02  0.51100000000E-03 0.  1.
         12    1    3    3    0    0 -0.84431459187E+00  0.11927315501E+02 -0.16631177647E+02  0.20483402845E+02  0.00000000000E+00 0. -1.
</event>
<event>
 7    1  0.2950722E-010  0.4778727E+02  0.7816164E-02  0.1312668E+00
        -11   -1    0    0    0    0  0.00000000000E+00  0.00000000000E+00  0.45593999997E+02  0.45594000000E+02  0.51100000000E-03 0. -1.
         11   -1    0    0    0    0 -0.00000000000E+00 -0.00000000000E+00 -0.45593999997E+02  0.45594000000E+02  0.51100000000E-03 0.  1.
    9900012    2    1    2    0    0 -0.15398285030E+02 -0.40510178927E+02  0.23326771286E+01  0.47787272343E+02  0.20000005922E+02 0.  0.
        -12    1    1    2    0    0  0.15398285030E+02  0.40510178927E+02 -0.23326771286E+01  0.43400727657E+02  0.00000000000E+00 0.  1.
         11    1    3    3    0    0 -0.29834936521E+01 -0.12880335314E+02  0.65249060227E+01  0.14743767193E+02  0.51100000000E-03 0. -1.
        -11    1    3    3    0    0 -0.89856174430E+01 -0.19905778247E+02 -0.86479727026E+01  0.23489758632E+02  0.51100000000E-03 0.  1.
        -12    1    3    3    0    0 -0.34291739351E+01 -0.77240653657E+01  0.44557438085E+01  0.95537465184E+01  0.00000000000E+00 0.  1.
</event>
<event>
 7    1  0.2950722E-010  0.4778731E+02  0.7816164E-02  0.1312668E+00
        -11   -1    0    0    0    0  0.00000000000E+00  0.00000000000E+00  0.45593999997E+02  0.45594000000E+02  0.51100000000E-03 0.  1.
         11   -1    0    0    0    0 -0.00000000000E+00 -0.00000000000E+00 -0.45593999997E+02  0.45594000000E+02  0.51100000000E-03 0. -1.
    9900012    2    1    2    0    0  0.11390852547E+02 -0.40829046462E+02 -0.93197220139E+01  0.47787311351E+02  0.20000183775E+02 0.  0.
        -12    1    1    2    0    0 -0.11390852547E+02  0.40829046462E+02  0.93197220139E+01  0.43400688649E+02  0.00000000000E+00 0.  1.
         11    1    3    3    0    0  0.73306070212E+01 -0.26080836865E+02 -0.94356946563E+01  0.28687631216E+02  0.51100000000E-03 0. -1.
        -11    1    3    3    0    0 -0.18630783664E+01 -0.10866752719E+02  0.30419418810E+01  0.11437254318E+02  0.51100000000E-03 0.  1.
        -12    1    3    3    0    0  0.59233238920E+01 -0.38814568779E+01 -0.29259692386E+01  0.76624258175E+01  0.00000000000E+00 0.  1.
</event>
<event>
 7    1  0.2950722E-010  0.4778727E+02  0.7816164E-02  0.1312668E+00
        -11   -1    0    0    0    0  0.00000000000E+00  0.00000000000E+00  0.45593999997E+02  0.45594000000E+02  0.51100000000E-03 0.  1.
         11   -1    0    0    0    0 -0.00000000000E+00 -0.00000000000E+00 -0.45593999997E+02  0.45594000000E+02  0.51100000000E-03 0. -1.
    9900012    2    1    2    0    0  0.20277509225E+02 -0.35628862349E+02 -0.14248871243E+02  0.47787267928E+02  0.19999985792E+02 0.  0.
        -12    1    1    2    0    0 -0.20277509225E+02  0.35628862349E+02  0.14248871243E+02  0.43400732072E+02  0.00000000000E+00 0.  1.
         11    1    3    3    0    0  0.11892019884E+02 -0.12629839791E+02 -0.86534417957E+01  0.19385949686E+02  0.51100000000E-03 0. -1.
        -11    1    3    3    0    0  0.34523382745E+01 -0.21606921476E+02 -0.16691326795E+01  0.21944559676E+02  0.51100000000E-03 0.  1.
        -12    1    3    3    0    0  0.49331510660E+01 -0.13921010826E+01 -0.39262967681E+01  0.64567585657E+01  0.00000000000E+00 0.  1.
</event>
<event>
 7    1  0.2950722E-010  0.4778728E+02  0.7816164E-02  0.1312668E+00
        -11   -1    0    0    0    0  0.00000000000E+00  0.00000000000E+00  0.45593999997E+02  0.45594000000E+02  0.51100000000E-03 0. -1.
         11   -1    0    0    0    0 -0.00000000000E+00 -0.00000000000E+00 -0.45593999997E+02  0.45594000000E+02  0.51100000000E-03 0.  1.
    9900012    2    1    2    0    0  0.42673289839E+02  0.74295390044E+01  0.27230791103E+01  0.47787275636E+02  0.20000020935E+02 0.  0.
        -12    1    1    2    0    0 -0.42673289839E+02 -0.74295390044E+01 -0.27230791103E+01  0.43400724364E+02  0.00000000000E+00 0.  1.
         11    1    3    3    0    0  0.40798999124E+01  0.47854458706E+01 -0.22628260980E+01  0.66832969175E+01  0.51100000000E-03 0. -1.
        -11    1    3    3    0    0  0.28383111812E+02  0.96406908718E-01  0.90979807452E+01  0.29805764280E+02  0.51100000000E-03 0.  1.
        -12    1    3    3    0    0  0.10210278114E+02  0.25476862250E+01 -0.41120755369E+01  0.11298214438E+02  0.00000000000E+00 0.  1.
</event>
<event>
 7    1  0.2950722E-010  0.4778727E+02  0.7816164E-02  0.1312668E+00
        -11   -1    0    0    0    0  0.00000000000E+00  0.00000000000E+00  0.45593999997E+02  0.45594000000E+02  0.51100000000E-03 0.  1.
         11   -1    0    0    0    0 -0.00000000000E+00 -0.00000000000E+00 -0.45593999997E+02  0.45594000000E+02  0.51100000000E-03 0. -1.
    9900012    2    1    2    0    0  0.19407792992E+02  0.89621639785E+00 -0.38809246446E+02  0.47787271408E+02  0.20000001656E+02 0.  0.
        -12    1    1    2    0    0 -0.19407792992E+02 -0.89621639785E+00  0.38809246446E+02  0.43400728592E+02  0.00000000000E+00 0.  1.
         11    1    3    3    0    0  0.14454440090E+02 -0.39962804603E+01 -0.21114480002E+02  0.25898308088E+02  0.51100000000E-03 0. -1.
        -11    1    3    3    0    0  0.13450214981E+01  0.49907804814E+01 -0.17529320497E+02  0.18275504097E+02  0.51100000000E-03 0.  1.
         12    1    3    3    0    0  0.36083314041E+01 -0.98283623212E-01 -0.16544594722E+00  0.36134592227E+01  0.00000000000E+00 0. -1.
</event>
<event>
 7    1  0.2950722E-010  0.4778727E+02  0.7816164E-02  0.1312668E+00
        -11   -1    0    0    0    0  0.00000000000E+00  0.00000000000E+00  0.45593999997E+02  0.45594000000E+02  0.51100000000E-03 0. -1.
         11   -1    0    0    0    0 -0.00000000000E+00 -0.00000000000E+00 -0.45593999997E+02  0.45594000000E+02  0.51100000000E-03 0.  1.
    9900012    2    1    2    0    0 -0.16567842268E+02 -0.38374118808E+02  0.11685766823E+02  0.47787268002E+02  0.19999986127E+02 0.  0.
        -12    1    1    2    0    0  0.16567842268E+02  0.38374118808E+02 -0.11685766823E+02  0.43400731998E+02  0.00000000000E+00 0.  1.
         11    1    3    3    0    0 -0.15777225664E+01 -0.28088809683E+01  0.32634973450E+01  0.45857862982E+01  0.51100000000E-03 0. -1.
        -11    1    3    3    0    0 -0.50116496641E+01 -0.18956976686E+02  0.12697008019E+02  0.23360171453E+02  0.51100000000E-03 0.  1.
        -12    1    3    3    0    0 -0.99784700377E+01 -0.16608261154E+02 -0.42747385412E+01  0.19841310251E+02  0.00000000000E+00 0.  1.
</event>
<event>
 7    1  0.2950722E-010  0.4778727E+02  0.7816164E-02  0.1312668E+00
        -11   -1    0    0    0    0  0.00000000000E+00  0.00000000000E+00  0.45593999997E+02  0.45594000000E+02  0.51100000000E-03 0. -1.
         11   -1    0    0    0    0 -0.00000000000E+00 -0.00000000000E+00 -0.45593999997E+02  0.45594000000E+02  0.51100000000E-03 0.  1.
    9900012    2    1    2    0    0  0.22100480005E+02 -0.15097403528E+02  0.34165193329E+02  0.47787271377E+02  0.20000001518E+02 0.  0.
        -12    1    1    2    0    0 -0.22100480005E+02  0.15097403528E+02 -0.34165193329E+02  0.43400728623E+02  0.00000000000E+00 0.  1.
         11    1    3    3    0    0  0.46173204175E+01 -0.11716854030E+02  0.16637439473E+02  0.20866449355E+02  0.51100000000E-03 0. -1.
        -11    1    3    3    0    0  0.13147621864E+02 -0.43567903281E+01  0.70545720261E+01  0.15543763037E+02  0.51100000000E-03 0.  1.
         12    1    3    3    0    0  0.43355377238E+01  0.97624082946E+00  0.10473181830E+02  0.11377058985E+02  0.00000000000E+00 0. -1.
</event>
<event>
 7    1  0.2950722E-010  0.4778728E+02  0.7816164E-02  0.1312668E+00
        -11   -1    0    0    0    0  0.00000000000E+00  0.00000000000E+00  0.45593999997E+02  0.45594000000E+02  0.51100000000E-03 0.  1.
         11   -1    0    0    0    0 -0.00000000000E+00 -0.00000000000E+00 -0.45593999997E+02  0.45594000000E+02  0.51100000000E-03 0. -1.
    9900012    2    1    2    0    0  0.30185846283E+02  0.29177544117E+02  0.11004908566E+02  0.47787281007E+02  0.20000045424E+02 0.  0.
        -12    1    1    2    0    0 -0.30185846283E+02 -0.29177544117E+02 -0.11004908566E+02  0.43400718993E+02  0.00000000000E+00 0.  1.
         11    1    3    3    0    0  0.25054924674E+02  0.16137153629E+02  0.11209738486E+02  0.31840465054E+02  0.51100000000E-03 0. -1.
        -11    1    3    3    0    0  0.38475696133E+01  0.10605446503E+02  0.30474448476E+01  0.11686154535E+02  0.51100000000E-03 0.  1.
         12    1    3    3    0    0  0.12833519957E+01  0.24349439847E+01 -0.32522747672E+01  0.42606614175E+01  0.00000000000E+00 0. -1.
</event>
<event>
 7    1  0.2950722E-010  0.4778727E+02  0.7816164E-02  0.1312668E+00
        -11   -1    0    0    0    0  0.00000000000E+00  0.00000000000E+00  0.45593999997E+02  0.45594000000E+02  0.51100000000E-03 0.  1.
         11   -1    0    0    0    0 -0.00000000000E+00 -0.00000000000E+00 -0.45593999997E+02  0.45594000000E+02  0.51100000000E-03 0. -1.
    9900012    2    1    2    0    0 -0.12591989361E+02  0.10597081713E+02 -0.40159272336E+02  0.47787268538E+02  0.19999988572E+02 0.  0.
        -12    1    1    2    0    0  0.12591989361E+02 -0.10597081713E+02  0.40159272336E+02  0.43400731462E+02  0.00000000000E+00 0.  1.
         11    1    3    3    0    0 -0.11481333226E+02  0.12840021772E+02 -0.16223800879E+02  0.23662182634E+02  0.51100000000E-03 0. -1.
        -11    1    3    3    0    0 -0.86053651136E+00 -0.20918616110E+01 -0.23447237080E+02  0.23556089129E+02  0.51100000000E-03 0.  1.
         12    1    3    3    0    0 -0.25011962369E+00 -0.15107844868E+00 -0.48823437671E+00  0.56899677540E+00  0.00000000000E+00 0. -1.
</event>
<event>
 7    1  0.2950722E-010  0.4778727E+02  0.7816164E-02  0.1312668E+00
        -11   -1    0    0    0    0  0.00000000000E+00  0.00000000000E+00  0.45593999997E+02  0.45594000000E+02  0.51100000000E-03 0.  1.
         11   -1    0    0    0    0 -0.00000000000E+00 -0.00000000000E+00 -0.45593999997E+02  0.45594000000E+02  0.51100000000E-03 0. -1.
    9900012    2    1    2    0    0 -0.22018485421E+02  0.34171227296E+02 -0.15203191020E+02  0.47787268527E+02  0.19999988524E+02 0.  0.
        -12    1    1    2    0    0  0.22018485421E+02 -0.34171227296E+02  0.15203191020E+02  0.43400731473E+02  0.00000000000E+00 0.  1.
         11    1    3    3    0    0  0.84206705739E+00  0.20921794985E+01 -0.43269936294E+01  0.48794637116E+01  0.51100000000E-03 0. -1.
        -11    1    3    3    0    0 -0.14192937808E+02  0.14099427167E+02  0.34734670260E+00  0.20008847545E+02  0.51100000000E-03 0.  1.
        -12    1    3    3    0    0 -0.86676146701E+01  0.17979620631E+02 -0.11223544094E+02  0.22898957271E+02  0.00000000000E+00 0.  1.
</event>
<event>
 7    1  0.2950722E-010  0.4778727E+02  0.7816164E-02  0.1312668E+00
        -11   -1    0    0    0    0  0.00000000000E+00  0.00000000000E+00  0.45593999997E+02  0.45594000000E+02  0.51100000000E-03 0. -1.
         11   -1    0    0    0    0 -0.00000000000E+00 -0.00000000000E+00 -0.45593999997E+02  0.45594000000E+02  0.51100000000E-03 0.  1.
    9900012    2    1    2    0    0 -0.15558251773E+02  0.40359635832E+02  0.35586642138E+01  0.47787268511E+02  0.19999988451E+02 0.  0.
        -12    1    1    2    0    0  0.15558251773E+02 -0.40359635832E+02 -0.35586642138E+01  0.43400731489E+02  0.00000000000E+00 0.  1.
         11    1    3    3    0    0 -0.24649382105E+01  0.10383596775E+02 -0.34065378805E+00  0.10677595592E+02  0.51100000000E-03 0. -1.
        -11    1    3    3    0    0 -0.30772017226E+01  0.81792552658E+01 -0.65734387378E+01  0.10935240475E+02  0.51100000000E-03 0.  1.
        -12    1    3    3    0    0 -0.10016111840E+02  0.21796783792E+02  0.10472756740E+02  0.26174432444E+02  0.00000000000E+00 0.  1.
</event>
<event>
 7    1  0.2950722E-010  0.4778727E+02  0.7816164E-02  0.1312668E+00
        -11   -1    0    0    0    0  0.00000000000E+00  0.00000000000E+00  0.45593999997E+02  0.45594000000E+02  0.51100000000E-03 0.  1.
         11   -1    0    0    0    0 -0.00000000000E+00 -0.00000000000E+00 -0.45593999997E+02  0.45594000000E+02  0.51100000000E-03 0. -1.
    9900012    2    1    2    0    0  0.40010666987E+00  0.79072395476E+01 -0.42672458094E+02  0.47787271868E+02  0.20000003755E+02 0.  0.
        -12    1    1    2    0    0 -0.40010666987E+00 -0.79072395476E+01  0.42672458094E+02  0.43400728132E+02  0.00000000000E+00 0.  1.
         11    1    3    3    0    0 -0.50201750269E+01  0.21846314767E+01 -0.15493936845E+02  0.16432798033E+02  0.51100000000E-03 0. -1.
        -11    1    3    3    0    0  0.22971026449E+01 -0.19526293478E+01 -0.78489512631E-01  0.30158917083E+01  0.51100000000E-03 0.  1.
        -12    1    3    3    0    0  0.31231790518E+01  0.76752374187E+01 -0.27100031737E+02  0.28338582127E+02  0.00000000000E+00 0.  1.
</event>
<event>
 7    1  0.2950722E-010  0.4778727E+02  0.7816164E-02  0.1312668E+00
        -11   -1    0    0    0    0  0.00000000000E+00  0.00000000000E+00  0.45593999997E+02  0.45594000000E+02  0.51100000000E-03 0. -1.
         11   -1    0    0    0    0 -0.00000000000E+00 -0.00000000000E+00 -0.45593999997E+02  0.45594000000E+02  0.51100000000E-03 0.  1.
    9900012    2    1    2    0    0  0.35036474491E+02  0.12513006192E+02  0.22349351398E+02  0.47787269861E+02  0.19999994605E+02 0.  0.
        -12    1    1    2    0    0 -0.35036474491E+02 -0.12513006192E+02 -0.22349351398E+02  0.43400730139E+02  0.00000000000E+00 0.  1.
         11    1    3    3    0    0  0.14395757897E+02  0.39829865303E+00  0.16098087001E+02  0.21599650289E+02  0.51100000000E-03 0. -1.
        -11    1    3    3    0    0  0.75693137595E+01  0.65451094670E+01 -0.13106885255E+01  0.10092119371E+02  0.51100000000E-03 0.  1.
         12    1    3    3    0    0  0.13071402834E+02  0.55695980716E+01  0.75619529222E+01  0.16095500201E+02  0.00000000000E+00 0. -1.
</event>
<event>
 7    1  0.2950722E-010  0.4778727E+02  0.7816164E-02  0.1312668E+00
        -11   -1    0    0    0    0  0.00000000000E+00  0.00000000000E+00  0.45593999997E+02  0.45594000000E+02  0.51100000000E-03 0.  1.
         11   -1    0    0    0    0 -0.00000000000E+00 -0.00000000000E+00 -0.45593999997E+02  0.45594000000E+02  0.51100000000E-03 0. -1.
    9900012    2    1    2    0    0 -0.45942128265E+00 -0.41989682531E+02  0.10967163394E+02  0.47787272127E+02  0.20000004935E+02 0.  0.
        -12    1    1    2    0    0  0.45942128265E+00  0.41989682531E+02 -0.10967163394E+02  0.43400727873E+02  0.00000000000E+00 0.  1.
         11    1    3    3    0    0 -0.87354788483E+01 -0.25054695244E+02  0.11458840582E+02  0.28902445782E+02  0.51100000000E-03 0. -1.
        -11    1    3    3    0    0  0.67696525250E+01 -0.14690518085E+02 -0.41109364862E+00  0.16180497989E+02  0.51100000000E-03 0.  1.
         12    1    3    3    0    0  0.15064050406E+01 -0.22444692029E+01 -0.80583538736E-01  0.27043283558E+01  0.00000000000E+00 0. -1.
</event>
<event>
 7    1  0.2950722E-010  0.4778727E+02  0.7816164E-02  0.1312668E+00
        -11   -1    0    0    0    0  0.00000000000E+00  0.00000000000E+00  0.45593999997E+02  0.45594000000E+02  0.51100000000E-03 0. -1.
         11   -1    0    0    0    0 -0.00000000000E+00 -0.00000000000E+00 -0.45593999997E+02  0.45594000000E+02  0.51100000000E-03 0.  1.
    9900012    2    1    2    0    0  0.25672564143E+02  0.34955517241E+02  0.16292402519E+01  0.47787272367E+02  0.20000006031E+02 0.  0.
        -12    1    1    2    0    0 -0.25672564143E+02 -0.34955517241E+02 -0.16292402519E+01  0.43400727633E+02  0.00000000000E+00 0.  1.
         11    1    3    3    0    0  0.11274810493E+02  0.15454152917E+02  0.93571657653E+01  0.21295744774E+02  0.51100000000E-03 0. -1.
        -11    1    3    3    0    0  0.57344316317E+01  0.13860944422E+02 -0.47074255514E+01  0.15721620209E+02  0.51100000000E-03 0.  1.
         12    1    3    3    0    0  0.86633220177E+01  0.56404199020E+01 -0.30204999620E+01  0.10769907385E+02  0.00000000000E+00 0. -1.
</event>
<event>
 7    1  0.2950722E-010  0.4778730E+02  0.7816164E-02  0.1312668E+00
        -11   -1    0    0    0    0  0.00000000000E+00  0.00000000000E+00  0.45593999997E+02  0.45594000000E+02  0.51100000000E-03 0. -1.
         11   -1    0    0    0    0 -0.00000000000E+00 -0.00000000000E+00 -0.45593999997E+02  0.45594000000E+02  0.51100000000E-03 0.  1.
    9900012    2    1    2    0    0 -0.17060659127E+02  0.20752470285E+02  0.34086504956E+02  0.47787298014E+02  0.20000122966E+02 0.  0.
        -12    1    1    2    0    0  0.17060659127E+02 -0.20752470285E+02 -0.34086504956E+02  0.43400701986E+02  0.00000000000E+00 0.  1.
         11    1    3    3    0    0 -0.15911207577E+01  0.12996294045E+02  0.13360134177E+02  0.18706376176E+02  0.51100000000E-03 0. -1.
        -11    1    3    3    0    0 -0.22304059302E+01  0.66653334798E+01  0.59266475375E+01  0.91938312093E+01  0.51100000000E-03 0.  1.
         12    1    3    3    0    0 -0.13239132439E+02  0.10908427603E+01  0.14799723242E+02  0.19887090629E+02  0.00000000000E+00 0. -1.
</event>
<event>
 7    1  0.2950722E-010  0.4778727E+02  0.7816164E-02  0.1312668E+00
        -11   -1    0    0    0    0  0.00000000000E+00  0.00000000000E+00  0.45593999997E+02  0.45594000000E+02  0.51100000000E-03 0. -1.
         11   -1    0    0    0    0 -0.00000000000E+00 -0.00000000000E+00 -0.45593999997E+02  0.45594000000E+02  0.51100000000E-03 0.  1.
    9900012    2    1    2    0    0  0.30177016058E+01 -0.96926334308E+00  0.43284838340E+02  0.47787271613E+02  0.20000002593E+02 0.  0.
        -12    1    1    2    0    0 -0.30177016058E+01  0.96926334308E+00 -0.43284838340E+02  0.43400728387E+02  0.00000000000E+00 0.  1.
         11    1    3    3    0    0  0.24211880363E+01  0.72128630680E+01  0.26634033766E+02  0.27699445844E+02  0.51100000000E-03 0. -1.
        -11    1    3    3    0    0  0.14375934115E+01 -0.65580452388E+01  0.52004116437E+01  0.84922855402E+01  0.51100000000E-03 0.  1.
         12    1    3    3    0    0 -0.84107984198E+00 -0.16240811723E+01  0.11450392930E+02  0.11595540229E+02  0.00000000000E+00 0. -1.
</event>
<event>
 7    1  0.2950722E-010  0.4778727E+02  0.7816164E-02  0.1312668E+00
        -11   -1    0    0    0    0  0.00000000000E+00  0.00000000000E+00  0.45593999997E+02  0.45594000000E+02  0.51100000000E-03 0.  1.
         11   -1    0    0    0    0 -0.00000000000E+00 -0.00000000000E+00 -0.45593999997E+02  0.45594000000E+02  0.51100000000E-03 0. -1.
    9900012    2    1    2    0    0  0.23609929137E+02 -0.11142584177E+02 -0.34670405850E+02  0.47787274455E+02  0.20000015552E+02 0.  0.
        -12    1    1    2    0    0 -0.23609929137E+02  0.11142584177E+02  0.34670405850E+02  0.43400725545E+02  0.00000000000E+00 0.  1.
         11    1    3    3    0    0  0.22442741705E+02 -0.11725350071E+02 -0.35723923754E+02  0.43787660570E+02  0.51100000000E-03 0. -1.
        -11    1    3    3    0    0  0.24636600853E+01  0.33456660319E+00  0.99597593842E+00  0.26783435476E+01  0.51100000000E-03 0.  1.
         12    1    3    3    0    0 -0.12964726534E+01  0.24819929072E+00  0.57541965341E-01  0.13212703383E+01  0.00000000000E+00 0. -1.
</event>
<event>
 7    1  0.2950722E-010  0.4778727E+02  0.7816164E-02  0.1312668E+00
        -11   -1    0    0    0    0  0.00000000000E+00  0.00000000000E+00  0.45593999997E+02  0.45594000000E+02  0.51100000000E-03 0.  1.
         11   -1    0    0    0    0 -0.00000000000E+00 -0.00000000000E+00 -0.45593999997E+02  0.45594000000E+02  0.51100000000E-03 0. -1.
    9900012    2    1    2    0    0 -0.19145287931E+02 -0.37842420149E+02 -0.92212974424E+01  0.47787272595E+02  0.20000007071E+02 0.  0.
        -12    1    1    2    0    0  0.19145287931E+02  0.37842420149E+02  0.92212974424E+01  0.43400727405E+02  0.00000000000E+00 0.  1.
         11    1    3    3    0    0 -0.10818615612E+02 -0.32392715829E+02 -0.99119503789E+01  0.35560894858E+02  0.51100000000E-03 0. -1.
        -11    1    3    3    0    0 -0.49880910549E+01  0.69078487129E+00 -0.74657537177E+00  0.50907377812E+01  0.51100000000E-03 0.  1.
         12    1    3    3    0    0 -0.33385812645E+01 -0.61404891918E+01  0.14372283083E+01  0.71356399562E+01  0.00000000000E+00 0. -1.
</event>
<event>
 7    1  0.2950722E-010  0.4778727E+02  0.7816164E-02  0.1312668E+00
        -11   -1    0    0    0    0  0.00000000000E+00  0.00000000000E+00  0.45593999997E+02  0.45594000000E+02  0.51100000000E-03 0.  1.
         11   -1    0    0    0    0 -0.00000000000E+00 -0.00000000000E+00 -0.45593999997E+02  0.45594000000E+02  0.51100000000E-03 0. -1.
    9900012    2    1    2    0    0 -0.10852708724E+02 -0.12907368963E+02 -0.39990518734E+02  0.47787273637E+02  0.20000011820E+02 0.  0.
        -12    1    1    2    0    0  0.10852708724E+02  0.12907368963E+02  0.39990518734E+02  0.43400726363E+02  0.00000000000E+00 0.  1.
         11    1    3    3    0    0 -0.58974852843E+01 -0.10326339112E+01 -0.12434682258E+02  0.13801014042E+02  0.51100000000E-03 0. -1.
        -11    1    3    3    0    0  0.44795413549E+01 -0.84260860779E+01 -0.16399274796E+02  0.18973703683E+02  0.51100000000E-03 0.  1.
        -12    1    3    3    0    0 -0.94347647948E+01 -0.34486489740E+01 -0.11156561680E+02  0.15012555912E+02  0.00000000000E+00 0.  1.
</event>
<event>
 7    1  0.2950722E-010  0.4778727E+02  0.7816164E-02  0.1312668E+00
        -11   -1    0    0    0    0  0.00000000000E+00  0.00000000000E+00  0.45593999997E+02  0.45594000000E+02  0.51100000000E-03 0.  1.
         11   -1    0    0    0    0 -0.00000000000E+00 -0.00000000000E+00 -0.45593999997E+02  0.45594000000E+02  0.51100000000E-03 0. -1.
    9900012    2    1    2    0    0 -0.37458133590E+02 -0.21358102549E+02 -0.49338715953E+01  0.47787269528E+02  0.19999993087E+02 0.  0.
        -12    1    1    2    0    0  0.37458133590E+02  0.21358102549E+02  0.49338715953E+01  0.43400730472E+02  0.00000000000E+00 0.  1.
         11    1    3    3    0    0 -0.31050924152E+01 -0.10230511329E+02 -0.39533030204E+01  0.11398840554E+02  0.51100000000E-03 0. -1.
        -11    1    3    3    0    0 -0.28323617129E+02 -0.96457381277E+01  0.79201618393E+00  0.29931502488E+02  0.51100000000E-03 0.  1.
         12    1    3    3    0    0 -0.60294240460E+01 -0.14818530931E+01 -0.17725847589E+01  0.64569264858E+01  0.00000000000E+00 0. -1.
</event>
<event>
 7    1  0.2950722E-010  0.4778727E+02  0.7816164E-02  0.1312668E+00
        -11   -1    0    0    0    0  0.00000000000E+00  0.00000000000E+00  0.45593999997E+02  0.45594000000E+02  0.51100000000E-03 0.  1.
         11   -1    0    0    0    0 -0.00000000000E+00 -0.00000000000E+00 -0.45593999997E+02  0.45594000000E+02  0.51100000000E-03 0. -1.
    9900012    2    1    2    0    0  0.32546006421E+02 -0.25160864570E+02 -0.13831540369E+02  0.47787272484E+02  0.20000006565E+02 0.  0.
        -12    1    1    2    0    0 -0.32546006421E+02  0.25160864570E+02  0.13831540369E+02  0.43400727516E+02  0.00000000000E+00 0.  1.
         11    1    3    3    0    0  0.57300646970E+01 -0.10291932998E+02 -0.18930768851E+01  0.11930685924E+02  0.51100000000E-03 0. -1.
        -11    1    3    3    0    0  0.26820023610E+01  0.23957056353E+01  0.59441202242E+00  0.36449784731E+01  0.51100000000E-03 0.  1.
        -12    1    3    3    0    0  0.24133939363E+02 -0.17264637208E+02 -0.12532875507E+02  0.32211608087E+02  0.00000000000E+00 0.  1.
</event>
<event>
 7    1  0.2950722E-010  0.4778727E+02  0.7816164E-02  0.1312668E+00
        -11   -1    0    0    0    0  0.00000000000E+00  0.00000000000E+00  0.45593999997E+02  0.45594000000E+02  0.51100000000E-03 0.  1.
         11   -1    0    0    0    0 -0.00000000000E+00 -0.00000000000E+00 -0.45593999997E+02  0.45594000000E+02  0.51100000000E-03 0. -1.
    9900012    2    1    2    0    0  0.40897861785E+02  0.12082867244E+02  0.80617784540E+01  0.47787273609E+02  0.20000011693E+02 0.  0.
        -12    1    1    2    0    0 -0.40897861785E+02 -0.12082867244E+02 -0.80617784540E+01  0.43400726391E+02  0.00000000000E+00 0.  1.
         11    1    3    3    0    0  0.16384687287E+02 -0.14699863183E+01 -0.30074677747E+00  0.16453245460E+02  0.51100000000E-03 0. -1.
        -11    1    3    3    0    0  0.16130973971E+02  0.12682878630E+02  0.98746960935E+01  0.22772205752E+02  0.51100000000E-03 0.  1.
        -12    1    3    3    0    0  0.83822005264E+01  0.86997493242E+00 -0.15121708620E+01  0.85618223973E+01  0.00000000000E+00 0.  1.
</event>
<event>
 7    1  0.2950722E-010  0.4778728E+02  0.7816164E-02  0.1312668E+00
        -11   -1    0    0    0    0  0.00000000000E+00  0.00000000000E+00  0.45593999997E+02  0.45594000000E+02  0.51100000000E-03 0.  1.
         11   -1    0    0    0    0 -0.00000000000E+00 -0.00000000000E+00 -0.45593999997E+02  0.45594000000E+02  0.51100000000E-03 0. -1.
    9900012    2    1    2    0    0 -0.17654226868E+02 -0.38208358781E+02 -0.10586426675E+02  0.47787276080E+02  0.20000022957E+02 0.  0.
        -12    1    1    2    0    0  0.17654226868E+02  0.38208358781E+02  0.10586426675E+02  0.43400723920E+02  0.00000000000E+00 0.  1.
         11    1    3    3    0    0 -0.13932733497E+02 -0.31374408837E+02 -0.96456654552E+01  0.35658287324E+02  0.51100000000E-03 0. -1.
        -11    1    3    3    0    0 -0.48645565256E+01 -0.64642400666E+01 -0.38661969158E+01  0.89664813992E+01  0.51100000000E-03 0.  1.
         12    1    3    3    0    0  0.11430631546E+01 -0.36970987806E+00  0.29254356958E+01  0.31625073565E+01  0.00000000000E+00 0. -1.
</event>
<event>
 7    1  0.2950722E-010  0.4778728E+02  0.7816164E-02  0.1312668E+00
        -11   -1    0    0    0    0  0.00000000000E+00  0.00000000000E+00  0.45593999997E+02  0.45594000000E+02  0.51100000000E-03 0.  1.
         11   -1    0    0    0    0 -0.00000000000E+00 -0.00000000000E+00 -0.45593999997E+02  0.45594000000E+02  0.51100000000E-03 0. -1.
    9900012    2    1    2    0    0 -0.41596647060E+01 -0.29483744739E+02 -0.31575757097E+02  0.47787280529E+02  0.20000043244E+02 0.  0.
        -12    1    1    2    0    0  0.41596647060E+01  0.29483744739E+02  0.31575757097E+02  0.43400719471E+02  0.00000000000E+00 0.  1.
         11    1    3    3    0    0 -0.67019022762E+01 -0.21487783198E+02 -0.28579256992E+02  0.36378760993E+02  0.51100000000E-03 0. -1.
        -11    1    3    3    0    0 -0.11843266834E+01 -0.66608836397E+01 -0.62536564856E+00  0.67941948022E+01  0.51100000000E-03 0.  1.
         12    1    3    3    0    0  0.37265642536E+01 -0.13350779015E+01 -0.23711344567E+01  0.46143247340E+01  0.00000000000E+00 0. -1.
</event>
<event>
 7    1  0.2950722E-010  0.4778727E+02  0.7816164E-02  0.1312668E+00
        -11   -1    0    0    0    0  0.00000000000E+00  0.00000000000E+00  0.45593999997E+02  0.45594000000E+02  0.51100000000E-03 0. -1.
         11   -1    0    0    0    0 -0.00000000000E+00 -0.00000000000E+00 -0.45593999997E+02  0.45594000000E+02  0.51100000000E-03 0.  1.
    9900012    2    1    2    0    0 -0.35552941708E+02 -0.58083478661E+01  0.24204843814E+02  0.47787273818E+02  0.20000012646E+02 0.  0.
        -12    1    1    2    0    0  0.35552941708E+02  0.58083478661E+01 -0.24204843814E+02  0.43400726182E+02  0.00000000000E+00 0.  1.
         11    1    3    3    0    0 -0.26525821721E+01 -0.25415521480E+01  0.47754304318E+00  0.37045549152E+01  0.51100000000E-03 0. -1.
        -11    1    3    3    0    0 -0.17500948889E+02 -0.79209120461E+01  0.19664458503E+02  0.27490270790E+02  0.51100000000E-03 0.  1.
        -12    1    3    3    0    0 -0.15399410647E+02  0.46541163281E+01  0.40628422686E+01  0.16592448113E+02  0.00000000000E+00 0.  1.
</event>
<event>
 7    1  0.2950722E-010  0.4778726E+02  0.7816164E-02  0.1312668E+00
        -11   -1    0    0    0    0  0.00000000000E+00  0.00000000000E+00  0.45593999997E+02  0.45594000000E+02  0.51100000000E-03 0. -1.
         11   -1    0    0    0    0 -0.00000000000E+00 -0.00000000000E+00 -0.45593999997E+02  0.45594000000E+02  0.51100000000E-03 0.  1.
    9900012    2    1    2    0    0 -0.33882263852E+02  0.35265768984E+01  0.26892001968E+02  0.47787259013E+02  0.19999945144E+02 0.  0.
        -12    1    1    2    0    0  0.33882263852E+02 -0.35265768984E+01 -0.26892001968E+02  0.43400740987E+02  0.00000000000E+00 0.  1.
         11    1    3    3    0    0 -0.28528356009E+02 -0.62525672996E+00  0.19032644657E+02  0.34300140021E+02  0.51100000000E-03 0. -1.
        -11    1    3    3    0    0  0.18481804611E+01 -0.19022294977E+00  0.36207513419E+01  0.40696186957E+01  0.51100000000E-03 0.  1.
         12    1    3    3    0    0 -0.72020883038E+01  0.43420565782E+01  0.42386059692E+01  0.94175002960E+01  0.00000000000E+00 0. -1.
</event>
<event>
 7    1  0.2950722E-010  0.4778727E+02  0.7816164E-02  0.1312668E+00
        -11   -1    0    0    0    0  0.00000000000E+00  0.00000000000E+00  0.45593999997E+02  0.45594000000E+02  0.51100000000E-03 0. -1.
         11   -1    0    0    0    0 -0.00000000000E+00 -0.00000000000E+00 -0.45593999997E+02  0.45594000000E+02  0.51100000000E-03 0.  1.
    9900012    2    1    2    0    0 -0.29170288374E+01  0.20099380693E+02  0.38355306012E+02  0.47787266588E+02  0.19999979680E+02 0.  0.
        -12    1    1    2    0    0  0.29170288374E+01 -0.20099380693E+02 -0.38355306012E+02  0.43400733412E+02  0.00000000000E+00 0.  1.
         11    1    3    3    0    0  0.32273199318E+01  0.61938978385E+01  0.22162407920E+02  0.23236873487E+02  0.51100000000E-03 0. -1.
        -11    1    3    3    0    0 -0.20789540934E+01 -0.98446852900E+00  0.49388538374E+01  0.54482571429E+01  0.51100000000E-03 0.  1.
         12    1    3    3    0    0 -0.40653946758E+01  0.14889951384E+02  0.11254044254E+02  0.19102135958E+02  0.00000000000E+00 0. -1.
</event>
<event>
 7    1  0.2950722E-010  0.4778727E+02  0.7816164E-02  0.1312668E+00
        -11   -1    0    0    0    0  0.00000000000E+00  0.00000000000E+00  0.45593999997E+02  0.45594000000E+02  0.51100000000E-03 0.  1.
         11   -1    0    0    0    0 -0.00000000000E+00 -0.00000000000E+00 -0.45593999997E+02  0.45594000000E+02  0.51100000000E-03 0. -1.
    9900012    2    1    2    0    0  0.42645410790E+01  0.33389424694E+02 -0.27396776895E+02  0.47787269865E+02  0.19999994624E+02 0.  0.
        -12    1    1    2    0    0 -0.42645410790E+01 -0.33389424694E+02  0.27396776895E+02  0.43400730135E+02  0.00000000000E+00 0.  1.
         11    1    3    3    0    0  0.66668419077E+01  0.26166427716E+02 -0.23769908555E+02  0.35974119495E+02  0.51100000000E-03 0. -1.
        -11    1    3    3    0    0 -0.98214382829E+00  0.55271397393E+01  0.18465886737E+01  0.59096336764E+01  0.51100000000E-03 0.  1.
        -12    1    3    3    0    0 -0.14201570004E+01  0.16958572381E+01 -0.54734570137E+01  0.59035166942E+01  0.00000000000E+00 0.  1.
</event>
<event>
 7    1  0.2950722E-010  0.4778727E+02  0.7816164E-02  0.1312668E+00
        -11   -1    0    0    0    0  0.00000000000E+00  0.00000000000E+00  0.45593999997E+02  0.45594000000E+02  0.51100000000E-03 0.  1.
         11   -1    0    0    0    0 -0.00000000000E+00 -0.00000000000E+00 -0.45593999997E+02  0.45594000000E+02  0.51100000000E-03 0. -1.
    9900012    2    1    2    0    0  0.33147678055E+02  0.25546573163E+02 -0.11499011764E+02  0.47787271522E+02  0.20000002178E+02 0.  0.
        -12    1    1    2    0    0 -0.33147678055E+02 -0.25546573163E+02  0.11499011764E+02  0.43400728478E+02  0.00000000000E+00 0.  1.
         11    1    3    3    0    0  0.28792338093E+02  0.13493549258E+02 -0.11990853546E+02  0.33983160145E+02  0.51100000000E-03 0. -1.
        -11    1    3    3    0    0  0.45813018103E+01  0.11590054731E+02  0.16165246882E+01  0.12567054041E+02  0.51100000000E-03 0.  1.
        -12    1    3    3    0    0 -0.22596184802E+00  0.46296917521E+00 -0.11246829060E+01  0.12370573362E+01  0.00000000000E+00 0.  1.
</event>
<event>
 7    1  0.2950722E-010  0.4778727E+02  0.7816164E-02  0.1312668E+00
        -11   -1    0    0    0    0  0.00000000000E+00  0.00000000000E+00  0.45593999997E+02  0.45594000000E+02  0.51100000000E-03 0.  1.
         11   -1    0    0    0    0 -0.00000000000E+00 -0.00000000000E+00 -0.45593999997E+02  0.45594000000E+02  0.51100000000E-03 0. -1.
    9900012    2    1    2    0    0 -0.11897061741E+02 -0.11420320185E+02 -0.40145474857E+02  0.47787274860E+02  0.20000017398E+02 0.  0.
        -12    1    1    2    0    0  0.11897061741E+02  0.11420320185E+02  0.40145474857E+02  0.43400725140E+02  0.00000000000E+00 0.  1.
         11    1    3    3    0    0  0.32650142201E+00 -0.10552005265E+02 -0.20040155440E+02  0.22650811213E+02  0.51100000000E-03 0. -1.
        -11    1    3    3    0    0 -0.24543905040E+00 -0.96024259103E+00  0.64103687100E+00  0.11803536301E+01  0.51100000000E-03 0.  1.
         12    1    3    3    0    0 -0.11978124112E+02  0.91927671207E-01 -0.20746356287E+02  0.23956110017E+02  0.00000000000E+00 0. -1.
</event>
<event>
 7    1  0.2950722E-010  0.4778727E+02  0.7816164E-02  0.1312668E+00
        -11   -1    0    0    0    0  0.00000000000E+00  0.00000000000E+00  0.45593999997E+02  0.45594000000E+02  0.51100000000E-03 0.  1.
         11   -1    0    0    0    0 -0.00000000000E+00 -0.00000000000E+00 -0.45593999997E+02  0.45594000000E+02  0.51100000000E-03 0. -1.
    9900012    2    1    2    0    0 -0.69091638162E+01  0.33416214474E+02 -0.26818710010E+02  0.47787272575E+02  0.20000006979E+02 0.  0.
        -12    1    1    2    0    0  0.69091638162E+01 -0.33416214474E+02  0.26818710010E+02  0.43400727425E+02  0.00000000000E+00 0.  1.
         11    1    3    3    0    0  0.70854369753E+01  0.12181913987E+02 -0.91003554135E+01  0.16775545131E+02  0.51100000000E-03 0. -1.
        -11    1    3    3    0    0 -0.68873563415E+01  0.10836271600E+02 -0.83786421861E+01  0.15331735215E+02  0.51100000000E-03 0.  1.
         12    1    3    3    0    0 -0.71072444500E+01  0.10398028887E+02 -0.93397124106E+01  0.15679992229E+02  0.00000000000E+00 0. -1.
</event>
<event>
 7    1  0.2950722E-010  0.4778727E+02  0.7816164E-02  0.1312668E+00
        -11   -1    0    0    0    0  0.00000000000E+00  0.00000000000E+00  0.45593999997E+02  0.45594000000E+02  0.51100000000E-03 0.  1.
         11   -1    0    0    0    0 -0.00000000000E+00 -0.00000000000E+00 -0.45593999997E+02  0.45594000000E+02  0.51100000000E-03 0. -1.
    9900012    2    1    2    0    0  0.15424183716E+02 -0.34752271445E+02 -0.20928391649E+02  0.47787269697E+02  0.19999993855E+02 0.  0.
        -12    1    1    2    0    0 -0.15424183716E+02  0.34752271445E+02  0.20928391649E+02  0.43400730303E+02  0.00000000000E+00 0.  1.
         11    1    3    3    0    0  0.71072056428E+01 -0.95091793153E+01 -0.11797560900E+02  0.16736765122E+02  0.51100000000E-03 0. -1.
        -11    1    3    3    0    0  0.77867854321E+01 -0.58114791203E+01 -0.58363189329E+01  0.11334457900E+02  0.51100000000E-03 0.  1.
        -12    1    3    3    0    0  0.53019264067E+00 -0.19431613009E+02 -0.32945118153E+01  0.19716046675E+02  0.00000000000E+00 0.  1.
</event>
<event>
 7    1  0.2950722E-010  0.4778727E+02  0.7816164E-02  0.1312668E+00
        -11   -1    0    0    0    0  0.00000000000E+00  0.00000000000E+00  0.45593999997E+02  0.45594000000E+02  0.51100000000E-03 0.  1.
         11   -1    0    0    0    0 -0.00000000000E+00 -0.00000000000E+00 -0.45593999997E+02  0.45594000000E+02  0.51100000000E-03 0. -1.
    9900012    2    1    2    0    0 -0.97716794294E+01  0.91435735747E+01 -0.41285985042E+02  0.47787271694E+02  0.20000002961E+02 0.  0.
        -12    1    1    2    0    0  0.97716794294E+01 -0.91435735747E+01  0.41285985042E+02  0.43400728306E+02  0.00000000000E+00 0.  1.
         11    1    3    3    0    0 -0.61347401631E+01  0.32552039520E+01 -0.28341493157E+02  0.29179986708E+02  0.51100000000E-03 0. -1.
        -11    1    3    3    0    0  0.24263547722E+01 -0.34473334084E+00  0.58940154977E+00  0.25206017149E+01  0.51100000000E-03 0.  1.
        -12    1    3    3    0    0 -0.60632940385E+01  0.62331029636E+01 -0.13533893435E+02  0.16086683271E+02  0.00000000000E+00 0.  1.
</event>
<event>
 7    1  0.2950722E-010  0.4778727E+02  0.7816164E-02  0.1312668E+00
        -11   -1    0    0    0    0  0.00000000000E+00  0.00000000000E+00  0.45593999997E+02  0.45594000000E+02  0.51100000000E-03 0.  1.
         11   -1    0    0    0    0 -0.00000000000E+00 -0.00000000000E+00 -0.45593999997E+02  0.45594000000E+02  0.51100000000E-03 0. -1.
    9900012    2    1    2    0    0 -0.19303335255E+02  0.12339829082E+02 -0.36861003698E+02  0.47787265820E+02  0.19999976181E+02 0.  0.
        -12    1    1    2    0    0  0.19303335255E+02 -0.12339829082E+02  0.36861003698E+02  0.43400734180E+02  0.00000000000E+00 0.  1.
         11    1    3    3    0    0 -0.15304304972E+02  0.55221915189E+01 -0.22662019665E+02  0.27897732621E+02  0.51100000000E-03 0. -1.
        -11    1    3    3    0    0  0.38705499511E+01  0.79968176425E+00 -0.49702767955E+01  0.63501416939E+01  0.51100000000E-03 0.  1.
        -12    1    3    3    0    0 -0.78695802335E+01  0.60179557990E+01 -0.92287072376E+01  0.13539391505E+02  0.00000000000E+00 0.  1.
</event>
<event>
 7    1  0.2950722E-010  0.4778727E+02  0.7816164E-02  0.1312668E+00
        -11   -1    0    0    0    0  0.00000000000E+00  0.00000000000E+00  0.45593999997E+02  0.45594000000E+02  0.51100000000E-03 0. -1.
         11   -1    0    0    0    0 -0.00000000000E+00 -0.00000000000E+00 -0.45593999997E+02  0.45594000000E+02  0.51100000000E-03 0.  1.
    9900012    2    1    2    0    0 -0.33757028479E+02  0.25757700385E+02 -0.89792775698E+01  0.47787268134E+02  0.19999986728E+02 0.  0.
        -12    1    1    2    0    0  0.33757028479E+02 -0.25757700385E+02  0.89792775698E+01  0.43400731866E+02  0.00000000000E+00 0.  1.
         11    1    3    3    0    0 -0.99929319931E-01  0.35090537702E+01 -0.52757568816E+01  0.63369594575E+01  0.51100000000E-03 0. -1.
        -11    1    3    3    0    0 -0.22825361888E+02  0.19682200859E+02 -0.22344638234E+01  0.30222160823E+02  0.51100000000E-03 0.  1.
        -12    1    3    3    0    0 -0.10831737272E+02  0.25664457552E+01 -0.14690568648E+01  0.11228147853E+02  0.00000000000E+00 0.  1.
</event>
<event>
 7    1  0.2950722E-010  0.4778727E+02  0.7816164E-02  0.1312668E+00
        -11   -1    0    0    0    0  0.00000000000E+00  0.00000000000E+00  0.45593999997E+02  0.45594000000E+02  0.51100000000E-03 0. -1.
         11   -1    0    0    0    0 -0.00000000000E+00 -0.00000000000E+00 -0.45593999997E+02  0.45594000000E+02  0.51100000000E-03 0.  1.
    9900012    2    1    2    0    0  0.17544395985E+02  0.37858143635E+02  0.11940610415E+02  0.47787273658E+02  0.20000011916E+02 0.  0.
        -12    1    1    2    0    0 -0.17544395985E+02 -0.37858143635E+02 -0.11940610415E+02  0.43400726342E+02  0.00000000000E+00 0.  1.
         11    1    3    3    0    0  0.68192246443E+00  0.13442459140E+02  0.75092597810E+01  0.15412777449E+02  0.51100000000E-03 0. -1.
        -11    1    3    3    0    0  0.13980373760E+02  0.15608122404E+02 -0.20676563619E+01  0.21055629616E+02  0.51100000000E-03 0.  1.
        -12    1    3    3    0    0  0.28820997606E+01  0.88075620902E+01  0.64990069956E+01  0.11318866592E+02  0.00000000000E+00 0.  1.
</event>
<event>
 7    1  0.2950722E-010  0.4778727E+02  0.7816164E-02  0.1312668E+00
        -11   -1    0    0    0    0  0.00000000000E+00  0.00000000000E+00  0.45593999997E+02  0.45594000000E+02  0.51100000000E-03 0. -1.
         11   -1    0    0    0    0 -0.00000000000E+00 -0.00000000000E+00 -0.45593999997E+02  0.45594000000E+02  0.51100000000E-03 0.  1.
    9900012    2    1    2    0    0  0.15308313825E+02 -0.34949763025E+02  0.20683155217E+02  0.47787270543E+02  0.19999997713E+02 0.  0.
        -12    1    1    2    0    0 -0.15308313825E+02  0.34949763025E+02 -0.20683155217E+02  0.43400729457E+02  0.00000000000E+00 0.  1.
         11    1    3    3    0    0  0.10072899747E+02 -0.96323237361E+01  0.33257216172E+01  0.14328481930E+02  0.51100000000E-03 0.  1.
        -11    1    3    3    0    0  0.57432726501E+01 -0.26598035625E+02  0.16750422319E+02  0.31953361763E+02  0.51100000000E-03 0. -1.
        -12    1    3    3    0    0 -0.50785857267E+00  0.12805963358E+01  0.60701128023E+00  0.15054268495E+01  0.00000000000E+00 0.  1.
</event>
<event>
 7    1  0.2950722E-010  0.4778727E+02  0.7816164E-02  0.1312668E+00
        -11   -1    0    0    0    0  0.00000000000E+00  0.00000000000E+00  0.45593999997E+02  0.45594000000E+02  0.51100000000E-03 0.  1.
         11   -1    0    0    0    0 -0.00000000000E+00 -0.00000000000E+00 -0.45593999997E+02  0.45594000000E+02  0.51100000000E-03 0. -1.
    9900012    2    1    2    0    0  0.26571940882E+02  0.26824787213E+02 -0.21400608846E+02  0.47787270625E+02  0.19999998087E+02 0.  0.
        -12    1    1    2    0    0 -0.26571940882E+02 -0.26824787213E+02  0.21400608846E+02  0.43400729375E+02  0.00000000000E+00 0.  1.
         11    1    3    3    0    0  0.15233812751E+02  0.14341501059E+02 -0.18867024745E+02  0.28172900570E+02  0.51100000000E-03 0. -1.
        -11    1    3    3    0    0  0.20094866042E+00 -0.12072834835E+01  0.10419455941E+01  0.16073470863E+01  0.51100000000E-03 0.  1.
         12    1    3    3    0    0  0.11137179471E+02  0.13690569638E+02 -0.35755296959E+01  0.18007022969E+02  0.00000000000E+00 0. -1.
</event>
<event>
 7    1  0.2950722E-010  0.4778727E+02  0.7816164E-02  0.1312668E+00
        -11   -1    0    0    0    0  0.00000000000E+00  0.00000000000E+00  0.45593999997E+02  0.45594000000E+02  0.51100000000E-03 0. -1.
         11   -1    0    0    0    0 -0.00000000000E+00 -0.00000000000E+00 -0.45593999997E+02  0.45594000000E+02  0.51100000000E-03 0.  1.
    9900012    2    1    2    0    0  0.97390682280E+01  0.10590049898E+02  0.40946606384E+02  0.47787272112E+02  0.20000004868E+02 0.  0.
        -12    1    1    2    0    0 -0.97390682280E+01 -0.10590049898E+02 -0.40946606384E+02  0.43400727888E+02  0.00000000000E+00 0.  1.
         11    1    3    3    0    0 -0.25319568166E+00 -0.23273658806E+00 -0.17549412810E+01  0.17883214290E+01  0.51100000000E-03 0.  1.
        -11    1    3    3    0    0  0.91591902677E+01  0.57504889758E+01  0.35771978179E+02  0.37371022369E+02  0.51100000000E-03 0. -1.
         12    1    3    3    0    0  0.83307364198E+00  0.50722975101E+01  0.69295694869E+01  0.86279283143E+01  0.00000000000E+00 0. -1.
</event>
<event>
 7    1  0.2950722E-010  0.4778727E+02  0.7816164E-02  0.1312668E+00
        -11   -1    0    0    0    0  0.00000000000E+00  0.00000000000E+00  0.45593999997E+02  0.45594000000E+02  0.51100000000E-03 0.  1.
         11   -1    0    0    0    0 -0.00000000000E+00 -0.00000000000E+00 -0.45593999997E+02  0.45594000000E+02  0.51100000000E-03 0. -1.
    9900012    2    1    2    0    0  0.59554406158E+01  0.22041688769E+02 -0.36909618193E+02  0.47787271528E+02  0.20000002206E+02 0.  0.
        -12    1    1    2    0    0 -0.59554406158E+01 -0.22041688769E+02  0.36909618193E+02  0.43400728472E+02  0.00000000000E+00 0.  1.
         11    1    3    3    0    0 -0.39453284082E+01  0.11730202703E+02 -0.18186091174E+02  0.21997663152E+02  0.51100000000E-03 0. -1.
        -11    1    3    3    0    0 -0.11488499314E+01 -0.12775781732E+01 -0.19885966981E+01  0.26280371463E+01  0.51100000000E-03 0.  1.
         12    1    3    3    0    0  0.11049618955E+02  0.11589064239E+02 -0.16734930321E+02  0.23161571230E+02  0.00000000000E+00 0. -1.
</event>
<event>
 7    1  0.2950722E-010  0.4778727E+02  0.7816164E-02  0.1312668E+00
        -11   -1    0    0    0    0  0.00000000000E+00  0.00000000000E+00  0.45593999997E+02  0.45594000000E+02  0.51100000000E-03 0. -1.
         11   -1    0    0    0    0 -0.00000000000E+00 -0.00000000000E+00 -0.45593999997E+02  0.45594000000E+02  0.51100000000E-03 0.  1.
    9900012    2    1    2    0    0 -0.39447301100E+02 -0.30743064377E+01  0.17834858127E+02  0.47787273180E+02  0.20000009735E+02 0.  0.
        -12    1    1    2    0    0  0.39447301100E+02  0.30743064377E+01 -0.17834858127E+02  0.43400726820E+02  0.00000000000E+00 0.  1.
         11    1    3    3    0    0 -0.21231925819E+02 -0.53277159879E+01  0.16597649027E+02  0.27471097268E+02  0.51100000000E-03 0. -1.
        -11    1    3    3    0    0 -0.18923435228E+02  0.25705528970E+01  0.20325612510E+01  0.19205089131E+02  0.51100000000E-03 0.  1.
        -12    1    3    3    0    0  0.70805994698E+00 -0.31714334685E+00 -0.79535215079E+00  0.11110867809E+01  0.00000000000E+00 0.  1.
</event>
<event>
 7    1  0.2950722E-010  0.4778727E+02  0.7816164E-02  0.1312668E+00
        -11   -1    0    0    0    0  0.00000000000E+00  0.00000000000E+00  0.45593999997E+02  0.45594000000E+02  0.51100000000E-03 0.  1.
         11   -1    0    0    0    0 -0.00000000000E+00 -0.00000000000E+00 -0.45593999997E+02  0.45594000000E+02  0.51100000000E-03 0. -1.
    9900012    2    1    2    0    0  0.22940212530E+02  0.21457069292E+02 -0.29949355685E+02  0.47787273284E+02  0.20000010212E+02 0.  0.
        -12    1    1    2    0    0 -0.22940212530E+02 -0.21457069292E+02  0.29949355685E+02  0.43400726716E+02  0.00000000000E+00 0.  1.
         11    1    3    3    0    0  0.11931071759E+02  0.18323113904E+02 -0.24362326024E+02  0.32735453350E+02  0.51100000000E-03 0. -1.
        -11    1    3    3    0    0  0.69278110112E+00 -0.19523882259E+01  0.36087324708E+00  0.21028540606E+01  0.51100000000E-03 0.  1.
         12    1    3    3    0    0  0.10316359670E+02  0.50863436137E+01 -0.59479029083E+01  0.12948965874E+02  0.00000000000E+00 0. -1.
</event>
<event>
 7    1  0.2950722E-010  0.4778727E+02  0.7816164E-02  0.1312668E+00
        -11   -1    0    0    0    0  0.00000000000E+00  0.00000000000E+00  0.45593999997E+02  0.45594000000E+02  0.51100000000E-03 0. -1.
         11   -1    0    0    0    0 -0.00000000000E+00 -0.00000000000E+00 -0.45593999997E+02  0.45594000000E+02  0.51100000000E-03 0.  1.
    9900012    2    1    2    0    0  0.32134263567E+01  0.45207635356E+00  0.43279245635E+02  0.47787267463E+02  0.19999983673E+02 0.  0.
        -12    1    1    2    0    0 -0.32134263567E+01 -0.45207635356E+00 -0.43279245635E+02  0.43400732537E+02  0.00000000000E+00 0.  1.
         11    1    3    3    0    0  0.70470522909E+01  0.68738734869E+01  0.26172503364E+02  0.27962671820E+02  0.51100000000E-03 0. -1.
        -11    1    3    3    0    0 -0.87255385307E-01 -0.21657201851E+01  0.42922028465E+00  0.22095673188E+01  0.51100000000E-03 0.  1.
         12    1    3    3    0    0 -0.37463705489E+01 -0.42560769482E+01  0.16677521987E+02  0.17615028325E+02  0.00000000000E+00 0. -1.
</event>
<event>
 7    1  0.2950722E-010  0.4778727E+02  0.7816164E-02  0.1312668E+00
        -11   -1    0    0    0    0  0.00000000000E+00  0.00000000000E+00  0.45593999997E+02  0.45594000000E+02  0.51100000000E-03 0.  1.
         11   -1    0    0    0    0 -0.00000000000E+00 -0.00000000000E+00 -0.45593999997E+02  0.45594000000E+02  0.51100000000E-03 0. -1.
    9900012    2    1    2    0    0  0.13611753974E+02  0.20263160530E+02 -0.35885200534E+02  0.47787272606E+02  0.20000007122E+02 0.  0.
        -12    1    1    2    0    0 -0.13611753974E+02 -0.20263160530E+02  0.35885200534E+02  0.43400727394E+02  0.00000000000E+00 0.  1.
         11    1    3    3    0    0  0.10103497966E+02  0.36486691393E+01 -0.11892097188E+02  0.16025462035E+02  0.51100000000E-03 0. -1.
        -11    1    3    3    0    0 -0.35566540632E+01  0.12251643275E+01 -0.57476007949E+01  0.68691870635E+01  0.51100000000E-03 0.  1.
        -12    1    3    3    0    0  0.70649100712E+01  0.15389327063E+02 -0.18245502551E+02  0.24892623508E+02  0.00000000000E+00 0.  1.
</event>
<event>
 7    1  0.2950722E-010  0.4778727E+02  0.7816164E-02  0.1312668E+00
        -11   -1    0    0    0    0  0.00000000000E+00  0.00000000000E+00  0.45593999997E+02  0.45594000000E+02  0.51100000000E-03 0.  1.
         11   -1    0    0    0    0 -0.00000000000E+00 -0.00000000000E+00 -0.45593999997E+02  0.45594000000E+02  0.51100000000E-03 0. -1.
    9900012    2    1    2    0    0 -0.33131803356E+02  0.14040304114E+02 -0.24264725097E+02  0.47787269393E+02  0.19999992470E+02 0.  0.
        -12    1    1    2    0    0  0.33131803356E+02 -0.14040304114E+02  0.24264725097E+02  0.43400730607E+02  0.00000000000E+00 0.  1.
         11    1    3    3    0    0 -0.15940314699E+02  0.13771223670E+01 -0.15155035798E+02  0.22037813164E+02  0.51100000000E-03 0. -1.
        -11    1    3    3    0    0 -0.31017678175E+01  0.16857363206E+01  0.26066760698E+01  0.43883289451E+01  0.51100000000E-03 0.  1.
        -12    1    3    3    0    0 -0.14089720839E+02  0.10977445427E+02 -0.11716365368E+02  0.21361127284E+02  0.00000000000E+00 0.  1.
</event>
<event>
 7    1  0.2950722E-010  0.4778725E+02  0.7816164E-02  0.1312668E+00
        -11   -1    0    0    0    0  0.00000000000E+00  0.00000000000E+00  0.45593999997E+02  0.45594000000E+02  0.51100000000E-03 0. -1.
         11   -1    0    0    0    0 -0.00000000000E+00 -0.00000000000E+00 -0.45593999997E+02  0.45594000000E+02  0.51100000000E-03 0.  1.
    9900012    2    1    2    0    0 -0.18561433919E+01 -0.22360058638E+02  0.37151139646E+02  0.47787254988E+02  0.19999926792E+02 0.  0.
        -12    1    1    2    0    0  0.18561433919E+01  0.22360058638E+02 -0.37151139646E+02  0.43400745012E+02  0.00000000000E+00 0.  1.
         11    1    3    3    0    0  0.24570297180E+01 -0.51823380085E+01  0.16383742263E+02  0.17358589605E+02  0.51100000000E-03 0. -1.
        -11    1    3    3    0    0 -0.39919556242E+01 -0.18002137434E+02  0.12881379606E+02  0.22493167912E+02  0.51100000000E-03 0.  1.
        -12    1    3    3    0    0 -0.32121748574E+00  0.82441680402E+00  0.78860177769E+01  0.79354974714E+01  0.00000000000E+00 0.  1.
</event>
<event>
 7    1  0.2950722E-010  0.4778727E+02  0.7816164E-02  0.1312668E+00
        -11   -1    0    0    0    0  0.00000000000E+00  0.00000000000E+00  0.45593999997E+02  0.45594000000E+02  0.51100000000E-03 0.  1.
         11   -1    0    0    0    0 -0.00000000000E+00 -0.00000000000E+00 -0.45593999997E+02  0.45594000000E+02  0.51100000000E-03 0. -1.
    9900012    2    1    2    0    0  0.52065235462E+01  0.68737781706E+01 -0.42535475795E+02  0.47787269420E+02  0.19999992595E+02 0.  0.
        -12    1    1    2    0    0 -0.52065235462E+01 -0.68737781706E+01  0.42535475795E+02  0.43400730580E+02  0.00000000000E+00 0.  1.
         11    1    3    3    0    0  0.46835063284E+01  0.52664515052E+01 -0.42483026290E+02  0.43063653654E+02  0.51100000000E-03 0. -1.
        -11    1    3    3    0    0 -0.41453305186E+00 -0.10618567148E+01  0.11774072898E+01  0.16388000248E+01  0.51100000000E-03 0.  1.
         12    1    3    3    0    0  0.93755026968E+00  0.26691833803E+01 -0.12298567941E+01  0.30848157416E+01  0.00000000000E+00 0. -1.
</event>
<event>
 7    1  0.2950722E-010  0.4778726E+02  0.7816164E-02  0.1312668E+00
        -11   -1    0    0    0    0  0.00000000000E+00  0.00000000000E+00  0.45593999997E+02  0.45594000000E+02  0.51100000000E-03 0.  1.
         11   -1    0    0    0    0 -0.00000000000E+00 -0.00000000000E+00 -0.45593999997E+02  0.45594000000E+02  0.51100000000E-03 0. -1.
    9900012    2    1    2    0    0  0.37563886828E+02 -0.13039006912E+01 -0.21699725878E+02  0.47787264363E+02  0.19999969538E+02 0.  0.
        -12    1    1    2    0    0 -0.37563886828E+02  0.13039006912E+01  0.21699725878E+02  0.43400735637E+02  0.00000000000E+00 0.  1.
         11    1    3    3    0    0  0.18917292256E+02 -0.83562153677E+01 -0.59661371316E+01  0.21524058030E+02  0.51100000000E-03 0. -1.
        -11    1    3    3    0    0  0.18002829261E+02  0.52158166271E+01 -0.12635037605E+02  0.22604220403E+02  0.51100000000E-03 0.  1.
        -12    1    3    3    0    0  0.64376531136E+00  0.18364980493E+01 -0.30985511416E+01  0.36589859303E+01  0.00000000000E+00 0.  1.
</event>
<event>
 7    1  0.2950722E-010  0.4778727E+02  0.7816164E-02  0.1312668E+00
        -11   -1    0    0    0    0  0.00000000000E+00  0.00000000000E+00  0.45593999997E+02  0.45594000000E+02  0.51100000000E-03 0.  1.
         11   -1    0    0    0    0 -0.00000000000E+00 -0.00000000000E+00 -0.45593999997E+02  0.45594000000E+02  0.51100000000E-03 0. -1.
    9900012    2    1    2    0    0 -0.72181493233E+01 -0.41733174415E+02 -0.94796517257E+01  0.47787270476E+02  0.19999997407E+02 0.  0.
        -12    1    1    2    0    0  0.72181493233E+01  0.41733174415E+02  0.94796517257E+01  0.43400729524E+02  0.00000000000E+00 0.  1.
         11    1    3    3    0    0 -0.10076021619E+02 -0.88838363381E+01 -0.29474139741E+01  0.13752672800E+02  0.51100000000E-03 0. -1.
        -11    1    3    3    0    0  0.35315149269E+01 -0.11675252487E+02 -0.18295438152E+01  0.12334113229E+02  0.51100000000E-03 0.  1.
         12    1    3    3    0    0 -0.67364263135E+00 -0.21174085590E+02 -0.47026939364E+01  0.21700484447E+02  0.00000000000E+00 0. -1.
</event>
<event>
 7    1  0.2950722E-010  0.4778728E+02  0.7816164E-02  0.1312668E+00
        -11   -1    0    0    0    0  0.00000000000E+00  0.00000000000E+00  0.45593999997E+02  0.45594000000E+02  0.51100000000E-03 0. -1.
         11   -1    0    0    0    0 -0.00000000000E+00 -0.00000000000E+00 -0.45593999997E+02  0.45594000000E+02  0.51100000000E-03 0.  1.
    9900012    2    1    2    0    0 -0.40901918231E+02  0.87663582734E+01 -0.11567488685E+02  0.47787277116E+02  0.20000027684E+02 0.  0.
        -12    1    1    2    0    0  0.40901918231E+02 -0.87663582734E+01  0.11567488685E+02  0.43400722884E+02  0.00000000000E+00 0.  1.
         11    1    3    3    0    0 -0.66982466580E+01 -0.16476465470E+01 -0.13559204216E+01  0.70299194793E+01  0.51100000000E-03 0. -1.
        -11    1    3    3    0    0 -0.20447175598E+02  0.56160178374E+01 -0.14359695612E+02  0.25609129321E+02  0.51100000000E-03 0.  1.
        -12    1    3    3    0    0 -0.13756495975E+02  0.47979869830E+01  0.41481273485E+01  0.15148228316E+02  0.00000000000E+00 0.  1.
</event>
<event>
 7    1  0.2950722E-010  0.4778727E+02  0.7816164E-02  0.1312668E+00
        -11   -1    0    0    0    0  0.00000000000E+00  0.00000000000E+00  0.45593999997E+02  0.45594000000E+02  0.51100000000E-03 0.  1.
         11   -1    0    0    0    0 -0.00000000000E+00 -0.00000000000E+00 -0.45593999997E+02  0.45594000000E+02  0.51100000000E-03 0. -1.
    9900012    2    1    2    0    0  0.26715295450E+02  0.13889895443E+02 -0.31256790700E+02  0.47787272227E+02  0.20000005393E+02 0.  0.
        -12    1    1    2    0    0 -0.26715295450E+02 -0.13889895443E+02  0.31256790700E+02  0.43400727773E+02  0.00000000000E+00 0.  1.
         11    1    3    3    0    0  0.74630489985E+01  0.12720004113E+02 -0.10293575448E+02  0.17984807498E+02  0.51100000000E-03 0. -1.
        -11    1    3    3    0    0 -0.67020338738E+00 -0.90646178128E+00 -0.80912748026E+00  0.13876357886E+01  0.51100000000E-03 0.  1.
         12    1    3    3    0    0  0.19922449838E+02  0.20763531109E+01 -0.20154087771E+02  0.28414828940E+02  0.00000000000E+00 0. -1.
</event>
<event>
 7    1  0.2950722E-010  0.4778726E+02  0.7816164E-02  0.1312668E+00
        -11   -1    0    0    0    0  0.00000000000E+00  0.00000000000E+00  0.45593999997E+02  0.45594000000E+02  0.51100000000E-03 0.  1.
         11   -1    0    0    0    0 -0.00000000000E+00 -0.00000000000E+00 -0.45593999997E+02  0.45594000000E+02  0.51100000000E-03 0. -1.
    9900012    2    1    2    0    0 -0.15123998876E+02 -0.25598563239E+02 -0.31616486175E+02  0.47787262910E+02  0.19999962912E+02 0.  0.
        -12    1    1    2    0    0  0.15123998876E+02  0.25598563239E+02  0.31616486175E+02  0.43400737090E+02  0.00000000000E+00 0.  1.
         11    1    3    3    0    0 -0.16316354943E+02 -0.24269674953E+02 -0.21092222496E+02  0.36057210250E+02  0.51100000000E-03 0. -1.
        -11    1    3    3    0    0  0.31431400562E+00 -0.27097945899E+01 -0.92846919392E+01  0.96771527155E+01  0.51100000000E-03 0.  1.
         12    1    3    3    0    0  0.87804206175E+00  0.13809063040E+01 -0.12395717399E+01  0.20528999442E+01  0.00000000000E+00 0. -1.
</event>
<event>
 7    1  0.2950722E-010  0.4778727E+02  0.7816164E-02  0.1312668E+00
        -11   -1    0    0    0    0  0.00000000000E+00  0.00000000000E+00  0.45593999997E+02  0.45594000000E+02  0.51100000000E-03 0.  1.
         11   -1    0    0    0    0 -0.00000000000E+00 -0.00000000000E+00 -0.45593999997E+02  0.45594000000E+02  0.51100000000E-03 0. -1.
    9900012    2    1    2    0    0  0.30086383749E+01  0.31371231792E+02 -0.29839855323E+02  0.47787273570E+02  0.20000011515E+02 0.  0.
        -12    1    1    2    0    0 -0.30086383749E+01 -0.31371231792E+02  0.29839855323E+02  0.43400726430E+02  0.00000000000E+00 0.  1.
         11    1    3    3    0    0 -0.63082296938E+01  0.19810666133E+02 -0.11939974914E+02  0.23975388541E+02  0.51100000000E-03 0. -1.
        -11    1    3    3    0    0  0.29558915970E+01  0.43542759814E+01 -0.10268974091E+02  0.11539013979E+02  0.51100000000E-03 0.  1.
         12    1    3    3    0    0  0.63609764717E+01  0.72062896777E+01 -0.76309063174E+01  0.12272871050E+02  0.00000000000E+00 0. -1.
</event>
<event>
 7    1  0.2950722E-010  0.4778726E+02  0.7816164E-02  0.1312668E+00
        -11   -1    0    0    0    0  0.00000000000E+00  0.00000000000E+00  0.45593999997E+02  0.45594000000E+02  0.51100000000E-03 0.  1.
         11   -1    0    0    0    0 -0.00000000000E+00 -0.00000000000E+00 -0.45593999997E+02  0.45594000000E+02  0.51100000000E-03 0. -1.
    9900012    2    1    2    0    0  0.48109947998E+01 -0.17335243279E+02 -0.39496427786E+02  0.47787261085E+02  0.19999954593E+02 0.  0.
        -12    1    1    2    0    0 -0.48109947998E+01  0.17335243279E+02  0.39496427786E+02  0.43400738915E+02  0.00000000000E+00 0.  1.
         11    1    3    3    0    0  0.14366632271E+01 -0.26032016597E+01 -0.19046835466E+01  0.35310734604E+01  0.51100000000E-03 0.  1.
        -11    1    3    3    0    0  0.87320287880E+01 -0.15632968143E+02 -0.29520438036E+02  0.34526718376E+02  0.51100000000E-03 0. -1.
        -12    1    3    3    0    0 -0.53576972152E+01  0.90092652344E+00 -0.80713062028E+01  0.97294692492E+01  0.00000000000E+00 0.  1.
</event>
<event>
 7    1  0.2950722E-010  0.4778727E+02  0.7816164E-02  0.1312668E+00
        -11   -1    0    0    0    0  0.00000000000E+00  0.00000000000E+00  0.45593999997E+02  0.45594000000E+02  0.51100000000E-03 0.  1.
         11   -1    0    0    0    0 -0.00000000000E+00 -0.00000000000E+00 -0.45593999997E+02  0.45594000000E+02  0.51100000000E-03 0. -1.
    9900012    2    1    2    0    0 -0.38409723634E+01  0.10488302109E+02 -0.41938832137E+02  0.47787272001E+02  0.20000004360E+02 0.  0.
        -12    1    1    2    0    0  0.38409723634E+01 -0.10488302109E+02  0.41938832137E+02  0.43400727999E+02  0.00000000000E+00 0.  1.
         11    1    3    3    0    0 -0.67471167336E+01  0.60749854672E+01 -0.15611906178E+02  0.18059918256E+02  0.51100000000E-03 0. -1.
        -11    1    3    3    0    0  0.69057256369E+01  0.39458193451E+00 -0.20329942304E+02  0.21474433539E+02  0.51100000000E-03 0.  1.
        -12    1    3    3    0    0 -0.39995812667E+01  0.40187347075E+01 -0.59969836551E+01  0.82529202055E+01  0.00000000000E+00 0.  1.
</event>
<event>
 7    1  0.2950722E-010  0.4778727E+02  0.7816164E-02  0.1312668E+00
        -11   -1    0    0    0    0  0.00000000000E+00  0.00000000000E+00  0.45593999997E+02  0.45594000000E+02  0.51100000000E-03 0.  1.
         11   -1    0    0    0    0 -0.00000000000E+00 -0.00000000000E+00 -0.45593999997E+02  0.45594000000E+02  0.51100000000E-03 0. -1.
    9900012    2    1    2    0    0  0.14201204170E+02 -0.15965197829E+01 -0.40980487615E+02  0.47787269126E+02  0.19999991252E+02 0.  0.
        -12    1    1    2    0    0 -0.14201204170E+02  0.15965197829E+01  0.40980487615E+02  0.43400730874E+02  0.00000000000E+00 0.  1.
         11    1    3    3    0    0  0.15087250525E+01 -0.23407637709E+01  0.10529673424E+01  0.29772750630E+01  0.51100000000E-03 0.  1.
        -11    1    3    3    0    0  0.26597902260E+01 -0.17775736802E+01 -0.28516408958E+01  0.42855697748E+01  0.51100000000E-03 0. -1.
         12    1    3    3    0    0  0.10032688891E+02  0.25218176682E+01 -0.39181814061E+02  0.40524424288E+02  0.00000000000E+00 0. -1.
</event>
<event>
 7    1  0.2950722E-010  0.4778727E+02  0.7816164E-02  0.1312668E+00
        -11   -1    0    0    0    0  0.00000000000E+00  0.00000000000E+00  0.45593999997E+02  0.45594000000E+02  0.51100000000E-03 0.  1.
         11   -1    0    0    0    0 -0.00000000000E+00 -0.00000000000E+00 -0.45593999997E+02  0.45594000000E+02  0.51100000000E-03 0. -1.
    9900012    2    1    2    0    0 -0.34500381161E+02  0.34355294433E+01 -0.26106402990E+02  0.47787269132E+02  0.19999991280E+02 0.  0.
        -12    1    1    2    0    0  0.34500381161E+02 -0.34355294433E+01  0.26106402990E+02  0.43400730868E+02  0.00000000000E+00 0.  1.
         11    1    3    3    0    0 -0.17788551763E+02  0.25195646380E+00 -0.10865303126E+02  0.20845883722E+02  0.51100000000E-03 0. -1.
        -11    1    3    3    0    0 -0.58715200186E+01 -0.22146163102E+01 -0.13260608259E+02  0.14670480714E+02  0.51100000000E-03 0.  1.
        -12    1    3    3    0    0 -0.10840309380E+02  0.53981892897E+01 -0.19804916052E+01  0.12270904696E+02  0.00000000000E+00 0.  1.
</event>
<event>
 7    1  0.2950722E-010  0.4778727E+02  0.7816164E-02  0.1312668E+00
        -11   -1    0    0    0    0  0.00000000000E+00  0.00000000000E+00  0.45593999997E+02  0.45594000000E+02  0.51100000000E-03 0.  1.
         11   -1    0    0    0    0 -0.00000000000E+00 -0.00000000000E+00 -0.45593999997E+02  0.45594000000E+02  0.51100000000E-03 0. -1.
    9900012    2    1    2    0    0  0.33548059208E+02  0.18342327696E+02 -0.20535585900E+02  0.47787267861E+02  0.19999985485E+02 0.  0.
        -12    1    1    2    0    0 -0.33548059208E+02 -0.18342327696E+02  0.20535585900E+02  0.43400732139E+02  0.00000000000E+00 0.  1.
         11    1    3    3    0    0  0.14002199409E+02  0.95200505562E+01 -0.16184621860E+02  0.23422957455E+02  0.51100000000E-03 0. -1.
        -11    1    3    3    0    0  0.20149807311E+02  0.96307794594E+01 -0.53278121570E+01  0.22959795956E+02  0.51100000000E-03 0.  1.
        -12    1    3    3    0    0 -0.60394751291E+00 -0.80850231941E+00  0.97684811700E+00  0.14045144508E+01  0.00000000000E+00 0.  1.
</event>
<event>
 7    1  0.2950722E-010  0.4778727E+02  0.7816164E-02  0.1312668E+00
        -11   -1    0    0    0    0  0.00000000000E+00  0.00000000000E+00  0.45593999997E+02  0.45594000000E+02  0.51100000000E-03 0. -1.
         11   -1    0    0    0    0 -0.00000000000E+00 -0.00000000000E+00 -0.45593999997E+02  0.45594000000E+02  0.51100000000E-03 0.  1.
    9900012    2    1    2    0    0  0.33169523683E+02 -0.27379080329E+02  0.58131037800E+01  0.47787268248E+02  0.19999987250E+02 0.  0.
        -12    1    1    2    0    0 -0.33169523683E+02  0.27379080329E+02 -0.58131037800E+01  0.43400731752E+02  0.00000000000E+00 0.  1.
         11    1    3    3    0    0  0.66896147410E+01 -0.10687284438E+02 -0.47172065197E+01  0.13461836118E+02  0.51100000000E-03 0. -1.
        -11    1    3    3    0    0  0.20595734851E+02 -0.10590707197E+02  0.11384801842E+02  0.25806221851E+02  0.51100000000E-03 0.  1.
        -12    1    3    3    0    0  0.58841740912E+01 -0.61010886939E+01 -0.85449154234E+00  0.85192102793E+01  0.00000000000E+00 0.  1.
</event>
<event>
 7    1  0.2950722E-010  0.4778727E+02  0.7816164E-02  0.1312668E+00
        -11   -1    0    0    0    0  0.00000000000E+00  0.00000000000E+00  0.45593999997E+02  0.45594000000E+02  0.51100000000E-03 0. -1.
         11   -1    0    0    0    0 -0.00000000000E+00 -0.00000000000E+00 -0.45593999997E+02  0.45594000000E+02  0.51100000000E-03 0.  1.
    9900012    2    1    2    0    0 -0.27450987088E+02 -0.21777211416E+02  0.25608973606E+02  0.47787272376E+02  0.20000006072E+02 0.  0.
        -12    1    1    2    0    0  0.27450987088E+02  0.21777211416E+02 -0.25608973606E+02  0.43400727624E+02  0.00000000000E+00 0.  1.
         11    1    3    3    0    0 -0.20428582197E+02 -0.92749560038E+01  0.96099936035E+01  0.24407043179E+02  0.51100000000E-03 0. -1.
        -11    1    3    3    0    0 -0.28427771493E+01 -0.55767399932E+01  0.99975231121E+00  0.63388418356E+01  0.51100000000E-03 0.  1.
         12    1    3    3    0    0 -0.41796277421E+01 -0.69255154187E+01  0.14999227691E+02  0.17041387361E+02  0.00000000000E+00 0. -1.
</event>
<event>
 7    1  0.2950722E-010  0.4778727E+02  0.7816164E-02  0.1312668E+00
        -11   -1    0    0    0    0  0.00000000000E+00  0.00000000000E+00  0.45593999997E+02  0.45594000000E+02  0.51100000000E-03 0. -1.
         11   -1    0    0    0    0 -0.00000000000E+00 -0.00000000000E+00 -0.45593999997E+02  0.45594000000E+02  0.51100000000E-03 0.  1.
    9900012    2    1    2    0    0 -0.11026419207E+02  0.41958832435E+02  0.12237930295E+01  0.47787271789E+02  0.20000003395E+02 0.  0.
        -12    1    1    2    0    0  0.11026419207E+02 -0.41958832435E+02 -0.12237930295E+01  0.43400728211E+02  0.00000000000E+00 0.  1.
         11    1    3    3    0    0 -0.93114012553E+01  0.11595981132E+02  0.49824389213E+01  0.15684185335E+02  0.51100000000E-03 0. -1.
        -11    1    3    3    0    0  0.58735229237E+00  0.25056949681E+02 -0.62091506557E+01  0.25821488380E+02  0.51100000000E-03 0.  1.
        -12    1    3    3    0    0 -0.23023702439E+01  0.53059016225E+01  0.24505047639E+01  0.62815980742E+01  0.00000000000E+00 0.  1.
</event>
<event>
 7    1  0.2950722E-010  0.4778726E+02  0.7816164E-02  0.1312668E+00
        -11   -1    0    0    0    0  0.00000000000E+00  0.00000000000E+00  0.45593999997E+02  0.45594000000E+02  0.51100000000E-03 0. -1.
         11   -1    0    0    0    0 -0.00000000000E+00 -0.00000000000E+00 -0.45593999997E+02  0.45594000000E+02  0.51100000000E-03 0.  1.
    9900012    2    1    2    0    0  0.19791089807E+02 -0.36653151635E+02  0.12185376031E+02  0.47787260956E+02  0.19999954004E+02 0.  0.
        -12    1    1    2    0    0 -0.19791089807E+02  0.36653151635E+02 -0.12185376031E+02  0.43400739044E+02  0.00000000000E+00 0.  1.
         11    1    3    3    0    0  0.15359785993E+02 -0.28364393922E+02  0.15884207976E+02  0.35955109951E+02  0.51100000000E-03 0. -1.
        -11    1    3    3    0    0  0.32299515645E+00 -0.42365124127E+01 -0.42820022680E+01  0.60322389689E+01  0.51100000000E-03 0.  1.
         12    1    3    3    0    0  0.41083086582E+01 -0.40522453002E+01  0.58317032321E+00  0.57999120364E+01  0.00000000000E+00 0. -1.
</event>
<event>
 7    1  0.2950722E-010  0.4778728E+02  0.7816164E-02  0.1312668E+00
        -11   -1    0    0    0    0  0.00000000000E+00  0.00000000000E+00  0.45593999997E+02  0.45594000000E+02  0.51100000000E-03 0.  1.
         11   -1    0    0    0    0 -0.00000000000E+00 -0.00000000000E+00 -0.45593999997E+02  0.45594000000E+02  0.51100000000E-03 0. -1.
    9900012    2    1    2    0    0 -0.21307967558E+02 -0.31899179841E+02 -0.20298644672E+02  0.47787284205E+02  0.20000060004E+02 0.  0.
        -12    1    1    2    0    0  0.21307967558E+02  0.31899179841E+02  0.20298644672E+02  0.43400715795E+02  0.00000000000E+00 0.  1.
         11    1    3    3    0    0 -0.10701587985E+01 -0.54216964867E+01 -0.53034003364E+01  0.76593790895E+01  0.51100000000E-03 0. -1.
        -11    1    3    3    0    0 -0.14138706913E+02 -0.11394543165E+02 -0.15464962867E+02  0.23851702746E+02  0.51100000000E-03 0.  1.
        -12    1    3    3    0    0 -0.60991018456E+01 -0.15082940189E+02  0.46971853129E+00  0.16276202370E+02  0.00000000000E+00 0.  1.
</event>
<event>
 7    1  0.2950722E-010  0.4778727E+02  0.7816164E-02  0.1312668E+00
        -11   -1    0    0    0    0  0.00000000000E+00  0.00000000000E+00  0.45593999997E+02  0.45594000000E+02  0.51100000000E-03 0.  1.
         11   -1    0    0    0    0 -0.00000000000E+00 -0.00000000000E+00 -0.45593999997E+02  0.45594000000E+02  0.51100000000E-03 0. -1.
    9900012    2    1    2    0    0  0.89383824756E+01  0.11850976707E+02 -0.40783366627E+02  0.47787270471E+02  0.19999997388E+02 0.  0.
        -12    1    1    2    0    0 -0.89383824756E+01 -0.11850976707E+02  0.40783366627E+02  0.43400729529E+02  0.00000000000E+00 0.  1.
         11    1    3    3    0    0  0.10383077046E+02  0.46420659025E+01 -0.13588760639E+02  0.17720369091E+02  0.51100000000E-03 0. -1.
        -11    1    3    3    0    0 -0.58697625949E+01  0.38566531329E+01 -0.18060737435E+02  0.19378289998E+02  0.51100000000E-03 0.  1.
        -12    1    3    3    0    0  0.44250680249E+01  0.33522576713E+01 -0.91338685537E+01  0.10688611382E+02  0.00000000000E+00 0.  1.
</event>
<event>
 7    1  0.2950722E-010  0.4778727E+02  0.7816164E-02  0.1312668E+00
        -11   -1    0    0    0    0  0.00000000000E+00  0.00000000000E+00  0.45593999997E+02  0.45594000000E+02  0.51100000000E-03 0. -1.
         11   -1    0    0    0    0 -0.00000000000E+00 -0.00000000000E+00 -0.45593999997E+02  0.45594000000E+02  0.51100000000E-03 0.  1.
    9900012    2    1    2    0    0 -0.10579082036E+02 -0.41870502745E+02  0.43090232511E+01  0.47787266616E+02  0.19999979809E+02 0.  0.
        -12    1    1    2    0    0  0.10579082036E+02  0.41870502745E+02 -0.43090232511E+01  0.43400733384E+02  0.00000000000E+00 0.  1.
         11    1    3    3    0    0 -0.44508993018E+01 -0.17138148070E+02 -0.62078000251E+01  0.18763352719E+02  0.51100000000E-03 0. -1.
        -11    1    3    3    0    0 -0.34152871526E+01 -0.23261416693E+02  0.10899232102E+02  0.25914300175E+02  0.51100000000E-03 0.  1.
        -12    1    3    3    0    0 -0.27128955820E+01 -0.14709379830E+01 -0.38240882574E+00  0.31096137218E+01  0.00000000000E+00 0.  1.
</event>
<event>
 7    1  0.2950722E-010  0.4778727E+02  0.7816164E-02  0.1312668E+00
        -11   -1    0    0    0    0  0.00000000000E+00  0.00000000000E+00  0.45593999997E+02  0.45594000000E+02  0.51100000000E-03 0.  1.
         11   -1    0    0    0    0 -0.00000000000E+00 -0.00000000000E+00 -0.45593999997E+02  0.45594000000E+02  0.51100000000E-03 0. -1.
    9900012    2    1    2    0    0 -0.20075200700E+02 -0.34387438380E+02 -0.17265973119E+02  0.47787269255E+02  0.19999991839E+02 0.  0.
        -12    1    1    2    0    0  0.20075200700E+02  0.34387438380E+02  0.17265973119E+02  0.43400730745E+02  0.00000000000E+00 0.  1.
         11    1    3    3    0    0 -0.14031959024E+02 -0.18159034701E+02 -0.17846100688E+02  0.29071114966E+02  0.51100000000E-03 0. -1.
        -11    1    3    3    0    0  0.86051229715E+00 -0.25897288273E+01 -0.17662794431E+01  0.32506799512E+01  0.51100000000E-03 0.  1.
         12    1    3    3    0    0 -0.69037539731E+01 -0.13638674851E+02  0.23464070118E+01  0.15465474338E+02  0.00000000000E+00 0. -1.
</event>
<event>
 7    1  0.2950722E-010  0.4778727E+02  0.7816164E-02  0.1312668E+00
        -11   -1    0    0    0    0  0.00000000000E+00  0.00000000000E+00  0.45593999997E+02  0.45594000000E+02  0.51100000000E-03 0.  1.
         11   -1    0    0    0    0 -0.00000000000E+00 -0.00000000000E+00 -0.45593999997E+02  0.45594000000E+02  0.51100000000E-03 0. -1.
    9900012    2    1    2    0    0  0.16278833681E+02 -0.39433139348E+02 -0.79781154615E+01  0.47787271537E+02  0.20000002245E+02 0.  0.
        -12    1    1    2    0    0 -0.16278833681E+02  0.39433139348E+02  0.79781154615E+01  0.43400728463E+02  0.00000000000E+00 0.  1.
         11    1    3    3    0    0  0.52129501010E+01 -0.84174394547E+01 -0.71470752409E+01  0.12211012263E+02  0.51100000000E-03 0.  1.
        -11    1    3    3    0    0  0.51122221900E+01 -0.28432871379E+02  0.74291078016E+00  0.28898354750E+02  0.51100000000E-03 0. -1.
        -12    1    3    3    0    0  0.59536613896E+01 -0.25828285139E+01 -0.15739510007E+01  0.66779045236E+01  0.00000000000E+00 0.  1.
</event>
<event>
 7    1  0.2950722E-010  0.4778728E+02  0.7816164E-02  0.1312668E+00
        -11   -1    0    0    0    0  0.00000000000E+00  0.00000000000E+00  0.45593999997E+02  0.45594000000E+02  0.51100000000E-03 0.  1.
         11   -1    0    0    0    0 -0.00000000000E+00 -0.00000000000E+00 -0.45593999997E+02  0.45594000000E+02  0.51100000000E-03 0. -1.
    9900012    2    1    2    0    0 -0.25145269542E+02 -0.22139698178E+02 -0.27589343306E+02  0.47787277888E+02  0.20000031203E+02 0.  0.
        -12    1    1    2    0    0  0.25145269542E+02  0.22139698178E+02  0.27589343306E+02  0.43400722112E+02  0.00000000000E+00 0.  1.
         11    1    3    3    0    0 -0.23131061648E+02 -0.12535221061E+02 -0.15629268223E+02  0.30601500052E+02  0.51100000000E-03 0. -1.
        -11    1    3    3    0    0  0.14476414539E+01 -0.43284859614E+01 -0.92566767621E+01  0.10320732602E+02  0.51100000000E-03 0.  1.
         12    1    3    3    0    0 -0.34618493484E+01 -0.52759911554E+01 -0.27033983210E+01  0.68650452340E+01  0.00000000000E+00 0. -1.
</event>
<event>
 7    1  0.2950722E-010  0.4778728E+02  0.7816164E-02  0.1312668E+00
        -11   -1    0    0    0    0  0.00000000000E+00  0.00000000000E+00  0.45593999997E+02  0.45594000000E+02  0.51100000000E-03 0.  1.
         11   -1    0    0    0    0 -0.00000000000E+00 -0.00000000000E+00 -0.45593999997E+02  0.45594000000E+02  0.51100000000E-03 0. -1.
    9900012    2    1    2    0    0 -0.22671452715E+02 -0.36993826079E+02  0.10416048517E+01  0.47787275619E+02  0.20000020856E+02 0.  0.
        -12    1    1    2    0    0  0.22671452715E+02  0.36993826079E+02 -0.10416048517E+01  0.43400724381E+02  0.00000000000E+00 0.  1.
         11    1    3    3    0    0 -0.52020832630E+01 -0.47351962293E+01  0.29106993195E+01  0.76128788507E+01  0.51100000000E-03 0. -1.
        -11    1    3    3    0    0 -0.14288150196E+02 -0.95300896430E+01 -0.11437944784E+01  0.17212847257E+02  0.51100000000E-03 0.  1.
        -12    1    3    3    0    0 -0.31812192558E+01 -0.22728540207E+02 -0.72529998937E+00  0.22961549511E+02  0.00000000000E+00 0.  1.
</event>
<event>
 7    1  0.2950722E-010  0.4778727E+02  0.7816164E-02  0.1312668E+00
        -11   -1    0    0    0    0  0.00000000000E+00  0.00000000000E+00  0.45593999997E+02  0.45594000000E+02  0.51100000000E-03 0.  1.
         11   -1    0    0    0    0 -0.00000000000E+00 -0.00000000000E+00 -0.45593999997E+02  0.45594000000E+02  0.51100000000E-03 0. -1.
    9900012    2    1    2    0    0  0.26141742706E+02  0.22549011760E+02 -0.26301607051E+02  0.47787272166E+02  0.20000005115E+02 0.  0.
        -12    1    1    2    0    0 -0.26141742706E+02 -0.22549011760E+02  0.26301607051E+02  0.43400727834E+02  0.00000000000E+00 0.  1.
         11    1    3    3    0    0  0.18548915087E+02  0.12440321031E+02 -0.18584809967E+02  0.29055446994E+02  0.51100000000E-03 0. -1.
        -11    1    3    3    0    0 -0.21646491055E+01 -0.24501418390E+00 -0.30715746327E+01  0.37656750638E+01  0.51100000000E-03 0.  1.
         12    1    3    3    0    0  0.97574767246E+01  0.10353704913E+02 -0.46452224510E+01  0.14966150108E+02  0.00000000000E+00 0. -1.
</event>
<event>
 7    1  0.2950722E-010  0.4778727E+02  0.7816164E-02  0.1312668E+00
        -11   -1    0    0    0    0  0.00000000000E+00  0.00000000000E+00  0.45593999997E+02  0.45594000000E+02  0.51100000000E-03 0. -1.
         11   -1    0    0    0    0 -0.00000000000E+00 -0.00000000000E+00 -0.45593999997E+02  0.45594000000E+02  0.51100000000E-03 0.  1.
    9900012    2    1    2    0    0  0.21299231335E+02 -0.82983542125E+01  0.36893129388E+02  0.47787274958E+02  0.20000017846E+02 0.  0.
        -12    1    1    2    0    0 -0.21299231335E+02  0.82983542125E+01 -0.36893129388E+02  0.43400725042E+02  0.00000000000E+00 0.  1.
         11    1    3    3    0    0  0.10834051967E+02 -0.91447897754E+01  0.24252282797E+02  0.28092295797E+02  0.51100000000E-03 0. -1.
        -11    1    3    3    0    0  0.10805679674E+01  0.11322192354E+01 -0.18531798563E+01  0.24256593681E+01  0.51100000000E-03 0.  1.
        -12    1    3    3    0    0  0.93846114003E+01 -0.28578367260E+00  0.14494026448E+02  0.17269319793E+02  0.00000000000E+00 0.  1.
</event>
<event>
 7    1  0.2950722E-010  0.4778728E+02  0.7816164E-02  0.1312668E+00
        -11   -1    0    0    0    0  0.00000000000E+00  0.00000000000E+00  0.45593999997E+02  0.45594000000E+02  0.51100000000E-03 0.  1.
         11   -1    0    0    0    0 -0.00000000000E+00 -0.00000000000E+00 -0.45593999997E+02  0.45594000000E+02  0.51100000000E-03 0. -1.
    9900012    2    1    2    0    0 -0.27999921862E+02  0.89030299666E+01 -0.31943122280E+02  0.47787278487E+02  0.20000033934E+02 0.  0.
        -12    1    1    2    0    0  0.27999921862E+02 -0.89030299666E+01  0.31943122280E+02  0.43400721513E+02  0.00000000000E+00 0.  1.
         11    1    3    3    0    0 -0.12244748416E+02  0.67556939592E+01 -0.75214169379E+01  0.15879073576E+02  0.51100000000E-03 0. -1.
        -11    1    3    3    0    0 -0.99913105632E+01 -0.48690238676E+01 -0.10520033778E+02  0.15303750885E+02  0.51100000000E-03 0.  1.
        -12    1    3    3    0    0 -0.57638628835E+01  0.70163598750E+01 -0.13901671563E+02  0.16604454026E+02  0.00000000000E+00 0.  1.
</event>
<event>
 7    1  0.2950722E-010  0.4778726E+02  0.7816164E-02  0.1312668E+00
        -11   -1    0    0    0    0  0.00000000000E+00  0.00000000000E+00  0.45593999997E+02  0.45594000000E+02  0.51100000000E-03 0.  1.
         11   -1    0    0    0    0 -0.00000000000E+00 -0.00000000000E+00 -0.45593999997E+02  0.45594000000E+02  0.51100000000E-03 0. -1.
    9900012    2    1    2    0    0  0.39065837044E+02  0.11775557489E+02 -0.14792581177E+02  0.47787264568E+02  0.19999970473E+02 0.  0.
        -12    1    1    2    0    0 -0.39065837044E+02 -0.11775557489E+02  0.14792581177E+02  0.43400735432E+02  0.00000000000E+00 0.  1.
         11    1    3    3    0    0  0.22533695626E+02  0.72944312556E+01 -0.11538543142E+02  0.26346046079E+02  0.51100000000E-03 0. -1.
        -11    1    3    3    0    0  0.55152033303E+01 -0.22310467707E+00  0.45422656201E+01  0.71483858805E+01  0.51100000000E-03 0.  1.
        -12    1    3    3    0    0  0.11016938087E+02  0.47042309109E+01 -0.77963036558E+01  0.14292832608E+02  0.00000000000E+00 0.  1.
</event>
<event>
 7    1  0.2950722E-010  0.4778727E+02  0.7816164E-02  0.1312668E+00
        -11   -1    0    0    0    0  0.00000000000E+00  0.00000000000E+00  0.45593999997E+02  0.45594000000E+02  0.51100000000E-03 0.  1.
         11   -1    0    0    0    0 -0.00000000000E+00 -0.00000000000E+00 -0.45593999997E+02  0.45594000000E+02  0.51100000000E-03 0. -1.
    9900012    2    1    2    0    0 -0.39087678605E+02  0.18380931126E+02  0.42329746695E+01  0.47787270486E+02  0.19999997455E+02 0.  0.
        -12    1    1    2    0    0  0.39087678605E+02 -0.18380931126E+02 -0.42329746695E+01  0.43400729514E+02  0.00000000000E+00 0.  1.
         11    1    3    3    0    0 -0.16740655778E+02  0.12603057177E+02 -0.56624322765E+01  0.21705984097E+02  0.51100000000E-03 0. -1.
        -11    1    3    3    0    0  0.72837024870E-02 -0.15126222597E+00 -0.64702388781E+00  0.66450995917E+00  0.51100000000E-03 0.  1.
         12    1    3    3    0    0 -0.22354306530E+02  0.59291361746E+01  0.10542430834E+02  0.25416776430E+02  0.00000000000E+00 0. -1.
</event>
<event>
 7    1  0.2950722E-010  0.4778729E+02  0.7816164E-02  0.1312668E+00
        -11   -1    0    0    0    0  0.00000000000E+00  0.00000000000E+00  0.45593999997E+02  0.45594000000E+02  0.51100000000E-03 0.  1.
         11   -1    0    0    0    0 -0.00000000000E+00 -0.00000000000E+00 -0.45593999997E+02  0.45594000000E+02  0.51100000000E-03 0. -1.
    9900012    2    1    2    0    0 -0.26947846974E+02  0.30883782902E+02 -0.14269807596E+02  0.47787286737E+02  0.20000071550E+02 0.  0.
        -12    1    1    2    0    0  0.26947846974E+02 -0.30883782902E+02  0.14269807596E+02  0.43400713263E+02  0.00000000000E+00 0.  1.
         11    1    3    3    0    0 -0.38691758443E+01 -0.15842293020E+01 -0.19822971397E+01  0.46270732010E+01  0.51100000000E-03 0.  1.
        -11    1    3    3    0    0 -0.22251832094E+02  0.29434371746E+02 -0.78549521433E+01  0.37725674879E+02  0.51100000000E-03 0. -1.
        -12    1    3    3    0    0 -0.82683903567E+00  0.30336404578E+01 -0.44325583134E+01  0.54345386575E+01  0.00000000000E+00 0.  1.
</event>
<event>
 7    1  0.2950722E-010  0.4778726E+02  0.7816164E-02  0.1312668E+00
        -11   -1    0    0    0    0  0.00000000000E+00  0.00000000000E+00  0.45593999997E+02  0.45594000000E+02  0.51100000000E-03 0.  1.
         11   -1    0    0    0    0 -0.00000000000E+00 -0.00000000000E+00 -0.45593999997E+02  0.45594000000E+02  0.51100000000E-03 0. -1.
    9900012    2    1    2    0    0  0.31639192886E+02 -0.29620799745E+02 -0.22789541592E+01  0.47787263415E+02  0.19999965216E+02 0.  0.
        -12    1    1    2    0    0 -0.31639192886E+02  0.29620799745E+02  0.22789541592E+01  0.43400736585E+02  0.00000000000E+00 0.  1.
         11    1    3    3    0    0  0.11539892644E+02 -0.22597826860E+02 -0.27126503221E+01  0.25518412432E+02  0.51100000000E-03 0. -1.
        -11    1    3    3    0    0  0.16371698982E+01  0.17801302055E+00 -0.16642799450E+01  0.23413333610E+01  0.51100000000E-03 0.  1.
         12    1    3    3    0    0  0.18462130343E+02 -0.72009859059E+01  0.20979761079E+01  0.19927517622E+02  0.00000000000E+00 0. -1.
</event>
<event>
 7    1  0.2950722E-010  0.4778727E+02  0.7816164E-02  0.1312668E+00
        -11   -1    0    0    0    0  0.00000000000E+00  0.00000000000E+00  0.45593999997E+02  0.45594000000E+02  0.51100000000E-03 0.  1.
         11   -1    0    0    0    0 -0.00000000000E+00 -0.00000000000E+00 -0.45593999997E+02  0.45594000000E+02  0.51100000000E-03 0. -1.
    9900012    2    1    2    0    0 -0.12893317832E+02  0.27339309965E+02 -0.31143979619E+02  0.47787274423E+02  0.20000015406E+02 0.  0.
        -12    1    1    2    0    0  0.12893317832E+02 -0.27339309965E+02  0.31143979619E+02  0.43400725577E+02  0.00000000000E+00 0.  1.
         11    1    3    3    0    0 -0.13243447466E+02  0.10474444099E+02 -0.99961847024E+01  0.19622094405E+02  0.51100000000E-03 0. -1.
        -11    1    3    3    0    0  0.63022932691E+00 -0.72221085155E+00 -0.66562704389E+00  0.11669777810E+01  0.51100000000E-03 0.  1.
         12    1    3    3    0    0 -0.28009969306E+00  0.17587076717E+02 -0.20482167873E+02  0.26998202237E+02  0.00000000000E+00 0. -1.
</event>
<event>
 7    1  0.2950722E-010  0.4778728E+02  0.7816164E-02  0.1312668E+00
        -11   -1    0    0    0    0  0.00000000000E+00  0.00000000000E+00  0.45593999997E+02  0.45594000000E+02  0.51100000000E-03 0. -1.
         11   -1    0    0    0    0 -0.00000000000E+00 -0.00000000000E+00 -0.45593999997E+02  0.45594000000E+02  0.51100000000E-03 0.  1.
    9900012    2    1    2    0    0  0.18639396907E+02 -0.36947878814E+02  0.13078609593E+02  0.47787275411E+02  0.20000019911E+02 0.  0.
        -12    1    1    2    0    0 -0.18639396907E+02  0.36947878814E+02 -0.13078609593E+02  0.43400724589E+02  0.00000000000E+00 0.  1.
         11    1    3    3    0    0  0.17087398879E+02 -0.24605300081E+02  0.11943175369E+02  0.32249642334E+02  0.51100000000E-03 0. -1.
        -11    1    3    3    0    0  0.91051817156E-01 -0.61561187877E+01 -0.40201661128E+01  0.73530826731E+01  0.51100000000E-03 0.  1.
         12    1    3    3    0    0  0.14609462112E+01 -0.61864599456E+01  0.51556003366E+01  0.81845504044E+01  0.00000000000E+00 0. -1.
</event>
<event>
 7    1  0.2950722E-010  0.4778732E+02  0.7816164E-02  0.1312668E+00
        -11   -1    0    0    0    0  0.00000000000E+00  0.00000000000E+00  0.45593999997E+02  0.45594000000E+02  0.51100000000E-03 0. -1.
         11   -1    0    0    0    0 -0.00000000000E+00 -0.00000000000E+00 -0.45593999997E+02  0.45594000000E+02  0.51100000000E-03 0.  1.
    9900012    2    1    2    0    0  0.13737998621E+02 -0.32905890204E+02  0.24740430777E+02  0.47787318769E+02  0.20000217595E+02 0.  0.
        -12    1    1    2    0    0 -0.13737998621E+02  0.32905890204E+02 -0.24740430777E+02  0.43400681231E+02  0.00000000000E+00 0.  1.
         11    1    3    3    0    0  0.40676223003E+01  0.13671918692E+01  0.36097078538E+01  0.56075623792E+01  0.51100000000E-03 0. -1.
        -11    1    3    3    0    0  0.10216953356E+02 -0.34069458391E+02  0.19756830703E+02  0.40687178455E+02  0.51100000000E-03 0.  1.
        -12    1    3    3    0    0 -0.54657703548E+00 -0.20362368280E+00  0.13738922202E+01  0.14925779352E+01  0.00000000000E+00 0.  1.
</event>
<event>
 7    1  0.2950722E-010  0.4778726E+02  0.7816164E-02  0.1312668E+00
        -11   -1    0    0    0    0  0.00000000000E+00  0.00000000000E+00  0.45593999997E+02  0.45594000000E+02  0.51100000000E-03 0.  1.
         11   -1    0    0    0    0 -0.00000000000E+00 -0.00000000000E+00 -0.45593999997E+02  0.45594000000E+02  0.51100000000E-03 0. -1.
    9900012    2    1    2    0    0  0.38619806666E+02  0.93627100600E+01 -0.17449199280E+02  0.47787258508E+02  0.19999942841E+02 0.  0.
        -12    1    1    2    0    0 -0.38619806666E+02 -0.93627100600E+01  0.17449199280E+02  0.43400741492E+02  0.00000000000E+00 0.  1.
         11    1    3    3    0    0  0.76650116883E+01  0.36554206694E+01 -0.84562454650E+01  0.11984264353E+02  0.51100000000E-03 0. -1.
        -11    1    3    3    0    0  0.28277055929E+02  0.81705225383E+01 -0.41187523300E+01  0.29720589691E+02  0.51100000000E-03 0.  1.
        -12    1    3    3    0    0  0.26777390483E+01 -0.24632331478E+01 -0.48742014846E+01  0.60824044640E+01  0.00000000000E+00 0.  1.
</event>
<event>
 7    1  0.2950722E-010  0.4778727E+02  0.7816164E-02  0.1312668E+00
        -11   -1    0    0    0    0  0.00000000000E+00  0.00000000000E+00  0.45593999997E+02  0.45594000000E+02  0.51100000000E-03 0.  1.
         11   -1    0    0    0    0 -0.00000000000E+00 -0.00000000000E+00 -0.45593999997E+02  0.45594000000E+02  0.51100000000E-03 0. -1.
    9900012    2    1    2    0    0  0.35893096000E+02 -0.24398085137E+02  0.20545978276E+00  0.47787272903E+02  0.20000008473E+02 0.  0.
        -12    1    1    2    0    0 -0.35893096000E+02  0.24398085137E+02 -0.20545978276E+00  0.43400727097E+02  0.00000000000E+00 0.  1.
         11    1    3    3    0    0  0.18312012353E+02 -0.19863001195E+02 -0.61941549384E+01  0.27717073592E+02  0.51100000000E-03 0. -1.
        -11    1    3    3    0    0  0.13320561314E+02 -0.47862821811E+01  0.69470937180E+01  0.15767306752E+02  0.51100000000E-03 0.  1.
         12    1    3    3    0    0  0.42605223340E+01  0.25119823888E+00 -0.54747899690E+00  0.43028925580E+01  0.00000000000E+00 0. -1.
</event>
<event>
 7    1  0.2950722E-010  0.4778727E+02  0.7816164E-02  0.1312668E+00
        -11   -1    0    0    0    0  0.00000000000E+00  0.00000000000E+00  0.45593999997E+02  0.45594000000E+02  0.51100000000E-03 0. -1.
         11   -1    0    0    0    0 -0.00000000000E+00 -0.00000000000E+00 -0.45593999997E+02  0.45594000000E+02  0.51100000000E-03 0.  1.
    9900012    2    1    2    0    0 -0.43074575810E+02  0.40894403996E+01 -0.33882943887E+01  0.47787272554E+02  0.20000006881E+02 0.  0.
        -12    1    1    2    0    0  0.43074575810E+02 -0.40894403996E+01  0.33882943887E+01  0.43400727446E+02  0.00000000000E+00 0.  1.
         11    1    3    3    0    0 -0.85065745859E+01  0.72584778142E+00  0.23200311058E+01  0.88471018294E+01  0.51100000000E-03 0. -1.
        -11    1    3    3    0    0 -0.16341560268E+02 -0.20438396677E+01  0.48827869199E+01  0.17177470156E+02  0.51100000000E-03 0.  1.
        -12    1    3    3    0    0 -0.18226440956E+02  0.54074322860E+01 -0.10591112414E+02  0.21762700569E+02  0.00000000000E+00 0.  1.
</event>
<event>
 7    1  0.2950722E-010  0.4778727E+02  0.7816164E-02  0.1312668E+00
        -11   -1    0    0    0    0  0.00000000000E+00  0.00000000000E+00  0.45593999997E+02  0.45594000000E+02  0.51100000000E-03 0.  1.
         11   -1    0    0    0    0 -0.00000000000E+00 -0.00000000000E+00 -0.45593999997E+02  0.45594000000E+02  0.51100000000E-03 0. -1.
    9900012    2    1    2    0    0  0.71724341129E+00  0.42756898889E+02 -0.74132650864E+01  0.47787270283E+02  0.19999996530E+02 0.  0.
        -12    1    1    2    0    0 -0.71724341129E+00 -0.42756898889E+02  0.74132650864E+01  0.43400729717E+02  0.00000000000E+00 0.  1.
         11    1    3    3    0    0 -0.81164967970E+01  0.18178560744E+02  0.83096045994E+00  0.19925563644E+02  0.51100000000E-03 0. -1.
        -11    1    3    3    0    0  0.69575039476E+01  0.11882787556E+02 -0.38705216805E+01  0.14303441531E+02  0.51100000000E-03 0.  1.
         12    1    3    3    0    0  0.18762362606E+01  0.12695550589E+02 -0.43737038658E+01  0.13558265109E+02  0.00000000000E+00 0. -1.
</event>
<event>
 7    1  0.2950722E-010  0.4778727E+02  0.7816164E-02  0.1312668E+00
        -11   -1    0    0    0    0  0.00000000000E+00  0.00000000000E+00  0.45593999997E+02  0.45594000000E+02  0.51100000000E-03 0.  1.
         11   -1    0    0    0    0 -0.00000000000E+00 -0.00000000000E+00 -0.45593999997E+02  0.45594000000E+02  0.51100000000E-03 0. -1.
    9900012    2    1    2    0    0  0.44355476596E+01  0.41503479047E+02  0.11891629032E+02  0.47787266169E+02  0.19999977770E+02 0.  0.
        -12    1    1    2    0    0 -0.44355476596E+01 -0.41503479047E+02 -0.11891629032E+02  0.43400733831E+02  0.00000000000E+00 0.  1.
         11    1    3    3    0    0  0.11706138691E+02  0.25705450331E+02  0.66161953321E+01  0.29009962094E+02  0.51100000000E-03 0. -1.
        -11    1    3    3    0    0 -0.59489144718E+01  0.14982292134E+02  0.36481362537E+01  0.16527781442E+02  0.51100000000E-03 0.  1.
         12    1    3    3    0    0 -0.13216765593E+01  0.81573658119E+00  0.16272974460E+01  0.22495226327E+01  0.00000000000E+00 0. -1.
</event>
<event>
 7    1  0.2950722E-010  0.4778723E+02  0.7816164E-02  0.1312668E+00
        -11   -1    0    0    0    0  0.00000000000E+00  0.00000000000E+00  0.45593999997E+02  0.45594000000E+02  0.51100000000E-03 0. -1.
         11   -1    0    0    0    0 -0.00000000000E+00 -0.00000000000E+00 -0.45593999997E+02  0.45594000000E+02  0.51100000000E-03 0.  1.
    9900012    2    1    2    0    0 -0.26298831521E+02  0.34174804732E+02  0.49072276845E+01  0.47787231557E+02  0.19999819961E+02 0.  0.
        -12    1    1    2    0    0  0.26298831521E+02 -0.34174804732E+02 -0.49072276845E+01  0.43400768443E+02  0.00000000000E+00 0.  1.
         11    1    3    3    0    0 -0.25152005140E+01  0.12111209567E+02  0.35392014668E+01  0.12865985313E+02  0.51100000000E-03 0. -1.
        -11    1    3    3    0    0 -0.21083658382E+02  0.21617018113E+02 -0.23692840150E+01  0.30289100843E+02  0.51100000000E-03 0.  1.
        -12    1    3    3    0    0 -0.26999726254E+01  0.44657705298E+00  0.37373102327E+01  0.46321454012E+01  0.00000000000E+00 0.  1.
</event>
<event>
 7    1  0.2950722E-010  0.4778727E+02  0.7816164E-02  0.1312668E+00
        -11   -1    0    0    0    0  0.00000000000E+00  0.00000000000E+00  0.45593999997E+02  0.45594000000E+02  0.51100000000E-03 0. -1.
         11   -1    0    0    0    0 -0.00000000000E+00 -0.00000000000E+00 -0.45593999997E+02  0.45594000000E+02  0.51100000000E-03 0.  1.
    9900012    2    1    2    0    0 -0.26642151703E+02  0.34040347390E+02 -0.38825366563E+01  0.47787267418E+02  0.19999983463E+02 0.  0.
        -12    1    1    2    0    0  0.26642151703E+02 -0.34040347390E+02  0.38825366563E+01  0.43400732582E+02  0.00000000000E+00 0.  1.
         11    1    3    3    0    0 -0.75367448792E+01  0.14678168008E+02  0.46710150235E+01  0.17148455355E+02  0.51100000000E-03 0. -1.
        -11    1    3    3    0    0 -0.16884867809E+02  0.13672635115E+02 -0.10630579594E+02  0.24187784823E+02  0.51100000000E-03 0.  1.
        -12    1    3    3    0    0 -0.22205390147E+01  0.56895442673E+01  0.20770279136E+01  0.64510272391E+01  0.00000000000E+00 0.  1.
</event>
<event>
 7    1  0.2950722E-010  0.4778727E+02  0.7816164E-02  0.1312668E+00
        -11   -1    0    0    0    0  0.00000000000E+00  0.00000000000E+00  0.45593999997E+02  0.45594000000E+02  0.51100000000E-03 0. -1.
         11   -1    0    0    0    0 -0.00000000000E+00 -0.00000000000E+00 -0.45593999997E+02  0.45594000000E+02  0.51100000000E-03 0.  1.
    9900012    2    1    2    0    0  0.20896791915E+01 -0.33470505936E+02  0.27549631407E+02  0.47787265934E+02  0.19999976701E+02 0.  0.
        -12    1    1    2    0    0 -0.20896791915E+01  0.33470505936E+02 -0.27549631407E+02  0.43400734066E+02  0.00000000000E+00 0.  1.
         11    1    3    3    0    0  0.14254184162E+01 -0.18975494591E+01  0.11788302873E+02  0.12024832493E+02  0.51100000000E-03 0. -1.
        -11    1    3    3    0    0 -0.65618286686E+00 -0.15614655253E+02  0.47695934590E+01  0.16340044573E+02  0.51100000000E-03 0.  1.
        -12    1    3    3    0    0  0.13204436421E+01 -0.15958301224E+02  0.10991735076E+02  0.19422388868E+02  0.00000000000E+00 0.  1.
</event>
<event>
 7    1  0.2950722E-010  0.4778728E+02  0.7816164E-02  0.1312668E+00
        -11   -1    0    0    0    0  0.00000000000E+00  0.00000000000E+00  0.45593999997E+02  0.45594000000E+02  0.51100000000E-03 0.  1.
         11   -1    0    0    0    0 -0.00000000000E+00 -0.00000000000E+00 -0.45593999997E+02  0.45594000000E+02  0.51100000000E-03 0. -1.
    9900012    2    1    2    0    0  0.42964374597E+02  0.40688068193E+01  0.45967467245E+01  0.47787277035E+02  0.20000027312E+02 0.  0.
        -12    1    1    2    0    0 -0.42964374597E+02 -0.40688068193E+01 -0.45967467245E+01  0.43400722965E+02  0.00000000000E+00 0.  1.
         11    1    3    3    0    0  0.32992206533E+02  0.16603152831E+01  0.11765532735E+02  0.35066652243E+02  0.51100000000E-03 0. -1.
        -11    1    3    3    0    0  0.35456938880E+01  0.19950405520E+01 -0.27912968934E+01  0.49339102707E+01  0.51100000000E-03 0.  1.
         12    1    3    3    0    0  0.64264741762E+01  0.41345098419E+00 -0.43774891171E+01  0.77867145206E+01  0.00000000000E+00 0. -1.
</event>
<event>
 7    1  0.2950722E-010  0.4778728E+02  0.7816164E-02  0.1312668E+00
        -11   -1    0    0    0    0  0.00000000000E+00  0.00000000000E+00  0.45593999997E+02  0.45594000000E+02  0.51100000000E-03 0. -1.
         11   -1    0    0    0    0 -0.00000000000E+00 -0.00000000000E+00 -0.45593999997E+02  0.45594000000E+02  0.51100000000E-03 0.  1.
    9900012    2    1    2    0    0 -0.41027571954E+02  0.13767647426E+02 -0.32883083047E+01  0.47787277107E+02  0.20000027644E+02 0.  0.
        -12    1    1    2    0    0  0.41027571954E+02 -0.13767647426E+02  0.32883083047E+01  0.43400722893E+02  0.00000000000E+00 0.  1.
         11    1    3    3    0    0 -0.18655483750E+02 -0.60209432602E+00  0.38486647435E+01  0.19057854342E+02  0.51100000000E-03 0. -1.
        -11    1    3    3    0    0 -0.52530561040E+01  0.78935225820E+01 -0.32054634404E+01  0.10008860740E+02  0.51100000000E-03 0.  1.
        -12    1    3    3    0    0 -0.17119032100E+02  0.64762191702E+01 -0.39315096078E+01  0.18720562026E+02  0.00000000000E+00 0.  1.
</event>
<event>
 7    1  0.2950722E-010  0.4778727E+02  0.7816164E-02  0.1312668E+00
        -11   -1    0    0    0    0  0.00000000000E+00  0.00000000000E+00  0.45593999997E+02  0.45594000000E+02  0.51100000000E-03 0.  1.
         11   -1    0    0    0    0 -0.00000000000E+00 -0.00000000000E+00 -0.45593999997E+02  0.45594000000E+02  0.51100000000E-03 0. -1.
    9900012    2    1    2    0    0  0.18087676201E+02  0.13892000891E+02 -0.36925219508E+02  0.47787267808E+02  0.19999985243E+02 0.  0.
        -12    1    1    2    0    0 -0.18087676201E+02 -0.13892000891E+02  0.36925219508E+02  0.43400732192E+02  0.00000000000E+00 0.  1.
         11    1    3    3    0    0  0.18519473760E+01  0.91955779221E+01 -0.21590077818E+02  0.23539749847E+02  0.51100000000E-03 0. -1.
        -11    1    3    3    0    0  0.88178058474E+00  0.32182392063E+01 -0.31718983059E+01  0.46038613916E+01  0.51100000000E-03 0.  1.
         12    1    3    3    0    0  0.15353948241E+02  0.14781837624E+01 -0.12163243384E+02  0.19643656570E+02  0.00000000000E+00 0. -1.
</event>
<event>
 7    1  0.2950722E-010  0.4778727E+02  0.7816164E-02  0.1312668E+00
        -11   -1    0    0    0    0  0.00000000000E+00  0.00000000000E+00  0.45593999997E+02  0.45594000000E+02  0.51100000000E-03 0. -1.
         11   -1    0    0    0    0 -0.00000000000E+00 -0.00000000000E+00 -0.45593999997E+02  0.45594000000E+02  0.51100000000E-03 0.  1.
    9900012    2    1    2    0    0  0.82143574040E+01 -0.37069921340E+02 -0.21023046991E+02  0.47787271429E+02  0.20000001755E+02 0.  0.
        -12    1    1    2    0    0 -0.82143574040E+01  0.37069921340E+02  0.21023046991E+02  0.43400728571E+02  0.00000000000E+00 0.  1.
         11    1    3    3    0    0  0.28932068315E+01 -0.10123467269E+02 -0.53004142698E+01  0.11787689638E+02  0.51100000000E-03 0. -1.
        -11    1    3    3    0    0  0.82439182912E+01 -0.27798096035E+02 -0.15662503627E+02  0.32954671172E+02  0.51100000000E-03 0.  1.
        -12    1    3    3    0    0 -0.29227677187E+01  0.85164196371E+00 -0.60129094126E-01  0.30449106193E+01  0.00000000000E+00 0.  1.
</event>
<event>
 7    1  0.2950722E-010  0.4778727E+02  0.7816164E-02  0.1312668E+00
        -11   -1    0    0    0    0  0.00000000000E+00  0.00000000000E+00  0.45593999997E+02  0.45594000000E+02  0.51100000000E-03 0. -1.
         11   -1    0    0    0    0 -0.00000000000E+00 -0.00000000000E+00 -0.45593999997E+02  0.45594000000E+02  0.51100000000E-03 0.  1.
    9900012    2    1    2    0    0 -0.25662894534E+02  0.27596086493E+02  0.21528939694E+02  0.47787269707E+02  0.19999993902E+02 0.  0.
        -12    1    1    2    0    0  0.25662894534E+02 -0.27596086493E+02 -0.21528939694E+02  0.43400730293E+02  0.00000000000E+00 0.  1.
         11    1    3    3    0    0 -0.10723491325E+02  0.23842978336E+02  0.16244298103E+02  0.30779182953E+02  0.51100000000E-03 0. -1.
        -11    1    3    3    0    0 -0.14025443132E+02  0.36796161393E+01  0.61471236225E+01  0.15749278049E+02  0.51100000000E-03 0.  1.
         12    1    3    3    0    0 -0.91396007760E+00  0.73492018308E-01 -0.86248203206E+00  0.12588087050E+01  0.00000000000E+00 0. -1.
</event>
<event>
 7    1  0.2950722E-010  0.4778727E+02  0.7816164E-02  0.1312668E+00
        -11   -1    0    0    0    0  0.00000000000E+00  0.00000000000E+00  0.45593999997E+02  0.45594000000E+02  0.51100000000E-03 0.  1.
         11   -1    0    0    0    0 -0.00000000000E+00 -0.00000000000E+00 -0.45593999997E+02  0.45594000000E+02  0.51100000000E-03 0. -1.
    9900012    2    1    2    0    0 -0.20152582805E+02  0.30984393329E+02 -0.22747841126E+02  0.47787268444E+02  0.19999988145E+02 0.  0.
        -12    1    1    2    0    0  0.20152582805E+02 -0.30984393329E+02  0.22747841126E+02  0.43400731556E+02  0.00000000000E+00 0.  1.
         11    1    3    3    0    0 -0.96744811400E+01  0.19283612523E+02 -0.17854935281E+02  0.28004499842E+02  0.51100000000E-03 0. -1.
        -11    1    3    3    0    0 -0.10716879896E+02  0.52631060162E+01 -0.43272748455E+00  0.11947345018E+02  0.51100000000E-03 0.  1.
        -12    1    3    3    0    0  0.23877823041E+00  0.64376747894E+01 -0.44601783601E+01  0.78354235840E+01  0.00000000000E+00 0.  1.
</event>
<event>
 7    1  0.2950722E-010  0.4778727E+02  0.7816164E-02  0.1312668E+00
        -11   -1    0    0    0    0  0.00000000000E+00  0.00000000000E+00  0.45593999997E+02  0.45594000000E+02  0.51100000000E-03 0.  1.
         11   -1    0    0    0    0 -0.00000000000E+00 -0.00000000000E+00 -0.45593999997E+02  0.45594000000E+02  0.51100000000E-03 0. -1.
    9900012    2    1    2    0    0  0.19454730462E+02  0.19995928769E+02 -0.33246046796E+02  0.47787270372E+02  0.19999996935E+02 0.  0.
        -12    1    1    2    0    0 -0.19454730462E+02 -0.19995928769E+02  0.33246046796E+02  0.43400729628E+02  0.00000000000E+00 0.  1.
         11    1    3    3    0    0  0.11040910633E+02  0.21008903537E+02 -0.25825447128E+02  0.35074626941E+02  0.51100000000E-03 0. -1.
        -11    1    3    3    0    0  0.19150727617E+00 -0.17427531603E+01 -0.26534182992E+01  0.31803289997E+01  0.51100000000E-03 0.  1.
         12    1    3    3    0    0  0.82223125527E+01  0.72977839191E+00 -0.47671813684E+01  0.95323144311E+01  0.00000000000E+00 0. -1.
</event>
<event>
 7    1  0.2950722E-010  0.4778727E+02  0.7816164E-02  0.1312668E+00
        -11   -1    0    0    0    0  0.00000000000E+00  0.00000000000E+00  0.45593999997E+02  0.45594000000E+02  0.51100000000E-03 0. -1.
         11   -1    0    0    0    0 -0.00000000000E+00 -0.00000000000E+00 -0.45593999997E+02  0.45594000000E+02  0.51100000000E-03 0.  1.
    9900012    2    1    2    0    0 -0.26825126129E+02  0.32929269907E+02 -0.89274376479E+01  0.47787270151E+02  0.19999995925E+02 0.  0.
        -12    1    1    2    0    0  0.26825126129E+02 -0.32929269907E+02  0.89274376479E+01  0.43400729849E+02  0.00000000000E+00 0.  1.
         11    1    3    3    0    0 -0.14314231018E+02  0.13611958010E+02  0.10248034990E+01  0.19779606492E+02  0.51100000000E-03 0.  1.
        -11    1    3    3    0    0 -0.11833798328E+02  0.14746913078E+02 -0.22708680662E+01  0.19043819739E+02  0.51100000000E-03 0. -1.
        -12    1    3    3    0    0 -0.67709678314E+00  0.45703988197E+01 -0.76813730806E+01  0.89638439204E+01  0.00000000000E+00 0.  1.
</event>
<event>
 7    1  0.2950722E-010  0.4778727E+02  0.7816164E-02  0.1312668E+00
        -11   -1    0    0    0    0  0.00000000000E+00  0.00000000000E+00  0.45593999997E+02  0.45594000000E+02  0.51100000000E-03 0.  1.
         11   -1    0    0    0    0 -0.00000000000E+00 -0.00000000000E+00 -0.45593999997E+02  0.45594000000E+02  0.51100000000E-03 0. -1.
    9900012    2    1    2    0    0  0.18218618687E+02  0.21060937176E+02 -0.33288767114E+02  0.47787272385E+02  0.20000006111E+02 0.  0.
        -12    1    1    2    0    0 -0.18218618687E+02 -0.21060937176E+02  0.33288767114E+02  0.43400727615E+02  0.00000000000E+00 0.  1.
         11    1    3    3    0    0  0.17847614530E+01  0.13513474354E+02 -0.12081059572E+02  0.18214043022E+02  0.51100000000E-03 0. -1.
        -11    1    3    3    0    0  0.97373971242E+00 -0.20886949379E+01 -0.15797795654E+01  0.27940149082E+01  0.51100000000E-03 0.  1.
         12    1    3    3    0    0  0.15460117522E+02  0.96361577594E+01 -0.19627927976E+02  0.26779214454E+02  0.00000000000E+00 0. -1.
</event>
<event>
 7    1  0.2950722E-010  0.4778727E+02  0.7816164E-02  0.1312668E+00
        -11   -1    0    0    0    0  0.00000000000E+00  0.00000000000E+00  0.45593999997E+02  0.45594000000E+02  0.51100000000E-03 0. -1.
         11   -1    0    0    0    0 -0.00000000000E+00 -0.00000000000E+00 -0.45593999997E+02  0.45594000000E+02  0.51100000000E-03 0.  1.
    9900012    2    1    2    0    0 -0.13656832161E+01 -0.37806059858E+02  0.21271108821E+02  0.47787270478E+02  0.19999997415E+02 0.  0.
        -12    1    1    2    0    0  0.13656832161E+01  0.37806059858E+02 -0.21271108821E+02  0.43400729522E+02  0.00000000000E+00 0.  1.
         11    1    3    3    0    0  0.24880690591E+01 -0.10156168366E+02  0.10177500267E+02  0.14591770128E+02  0.51100000000E-03 0. -1.
        -11    1    3    3    0    0 -0.76508741831E+01 -0.20790006793E+02  0.12178777355E+02  0.25280088536E+02  0.51100000000E-03 0.  1.
        -12    1    3    3    0    0  0.37971219079E+01 -0.68598846981E+01 -0.10851688016E+01  0.79154118138E+01  0.00000000000E+00 0.  1.
</event>
<event>
 7    1  0.2950722E-010  0.4778728E+02  0.7816164E-02  0.1312668E+00
        -11   -1    0    0    0    0  0.00000000000E+00  0.00000000000E+00  0.45593999997E+02  0.45594000000E+02  0.51100000000E-03 0. -1.
         11   -1    0    0    0    0 -0.00000000000E+00 -0.00000000000E+00 -0.45593999997E+02  0.45594000000E+02  0.51100000000E-03 0.  1.
    9900012    2    1    2    0    0  0.37348282790E+02 -0.18903572540E+02  0.11462236097E+02  0.47787284125E+02  0.20000059638E+02 0.  0.
        -12    1    1    2    0    0 -0.37348282790E+02  0.18903572540E+02 -0.11462236097E+02  0.43400715875E+02  0.00000000000E+00 0.  1.
         11    1    3    3    0    0  0.57151974836E+01  0.30058185862E+01 -0.44016269784E+00  0.64724161726E+01  0.51100000000E-03 0. -1.
        -11    1    3    3    0    0  0.14899694417E+02 -0.65686362453E+01  0.84735319271E+01  0.18356160258E+02  0.51100000000E-03 0.  1.
         12    1    3    3    0    0  0.16733390890E+02 -0.15340754881E+02  0.34288668678E+01  0.22958707694E+02  0.00000000000E+00 0. -1.
</event>
<event>
 7    1  0.2950722E-010  0.4778727E+02  0.7816164E-02  0.1312668E+00
        -11   -1    0    0    0    0  0.00000000000E+00  0.00000000000E+00  0.45593999997E+02  0.45594000000E+02  0.51100000000E-03 0.  1.
         11   -1    0    0    0    0 -0.00000000000E+00 -0.00000000000E+00 -0.45593999997E+02  0.45594000000E+02  0.51100000000E-03 0. -1.
    9900012    2    1    2    0    0  0.10650465920E+02  0.39773867898E+02 -0.13719705634E+02  0.47787270576E+02  0.19999997864E+02 0.  0.
        -12    1    1    2    0    0 -0.10650465920E+02 -0.39773867898E+02  0.13719705634E+02  0.43400729424E+02  0.00000000000E+00 0.  1.
         11    1    3    3    0    0  0.11340471205E+02  0.26772711742E+02 -0.11619785054E+02  0.31311400258E+02  0.51100000000E-03 0. -1.
        -11    1    3    3    0    0  0.43018603465E+01  0.37080205364E+01 -0.16629468518E+01  0.59178383919E+01  0.51100000000E-03 0.  1.
         12    1    3    3    0    0 -0.49918656309E+01  0.92931356193E+01 -0.43697372882E+00  0.10558031926E+02  0.00000000000E+00 0. -1.
</event>
<event>
 7    1  0.2950722E-010  0.4778727E+02  0.7816164E-02  0.1312668E+00
        -11   -1    0    0    0    0  0.00000000000E+00  0.00000000000E+00  0.45593999997E+02  0.45594000000E+02  0.51100000000E-03 0. -1.
         11   -1    0    0    0    0 -0.00000000000E+00 -0.00000000000E+00 -0.45593999997E+02  0.45594000000E+02  0.51100000000E-03 0.  1.
    9900012    2    1    2    0    0  0.28889096264E+02  0.31627536101E+02 -0.69815702287E+01  0.47787271370E+02  0.20000001485E+02 0.  0.
        -12    1    1    2    0    0 -0.28889096264E+02 -0.31627536101E+02  0.69815702287E+01  0.43400728630E+02  0.00000000000E+00 0.  1.
         11    1    3    3    0    0  0.63144893311E+01  0.41284732057E+01 -0.40860945198E+01  0.85798155696E+01  0.51100000000E-03 0.  1.
        -11    1    3    3    0    0 -0.13244958569E+01  0.40933421573E+01 -0.38053116900E+01  0.57437040846E+01  0.51100000000E-03 0. -1.
        -12    1    3    3    0    0  0.23899102790E+02  0.23405720738E+02  0.90983598115E+00  0.33463751716E+02  0.00000000000E+00 0.  1.
</event>
<event>
 7    1  0.2950722E-010  0.4778727E+02  0.7816164E-02  0.1312668E+00
        -11   -1    0    0    0    0  0.00000000000E+00  0.00000000000E+00  0.45593999997E+02  0.45594000000E+02  0.51100000000E-03 0.  1.
         11   -1    0    0    0    0 -0.00000000000E+00 -0.00000000000E+00 -0.45593999997E+02  0.45594000000E+02  0.51100000000E-03 0. -1.
    9900012    2    1    2    0    0  0.15072173504E+02  0.39293304690E+02 -0.10606081007E+02  0.47787272334E+02  0.20000005881E+02 0.  0.
        -12    1    1    2    0    0 -0.15072173504E+02 -0.39293304690E+02  0.10606081007E+02  0.43400727666E+02  0.00000000000E+00 0.  1.
         11    1    3    3    0    0 -0.14887376891E+01  0.13461779425E+02 -0.85944197533E+01  0.16040570325E+02  0.51100000000E-03 0. -1.
        -11    1    3    3    0    0  0.16508292548E+02  0.26302174411E+02 -0.23829464583E+01  0.31144927928E+02  0.51100000000E-03 0.  1.
        -12    1    3    3    0    0  0.52618645941E-01 -0.47064914672E+00  0.37128520405E+00  0.60177408050E+00  0.00000000000E+00 0.  1.
</event>
<event>
 7    1  0.2950722E-010  0.4778727E+02  0.7816164E-02  0.1312668E+00
        -11   -1    0    0    0    0  0.00000000000E+00  0.00000000000E+00  0.45593999997E+02  0.45594000000E+02  0.51100000000E-03 0.  1.
         11   -1    0    0    0    0 -0.00000000000E+00 -0.00000000000E+00 -0.45593999997E+02  0.45594000000E+02  0.51100000000E-03 0. -1.
    9900012    2    1    2    0    0 -0.33993802065E+01  0.38577605606E+02 -0.19591728287E+02  0.47787271235E+02  0.20000000868E+02 0.  0.
        -12    1    1    2    0    0  0.33993802065E+01 -0.38577605606E+02  0.19591728287E+02  0.43400728765E+02  0.00000000000E+00 0.  1.
         11    1    3    3    0    0 -0.39662300467E+01  0.26633507123E+02 -0.69060518426E+01  0.27798709229E+02  0.51100000000E-03 0. -1.
        -11    1    3    3    0    0  0.98702315860E-01 -0.66512917141E-01 -0.64435146513E+01  0.64446138315E+01  0.51100000000E-03 0.  1.
         12    1    3    3    0    0  0.46814752427E+00  0.12010611400E+02 -0.62421617931E+01  0.13543948175E+02  0.00000000000E+00 0. -1.
</event>
<event>
 7    1  0.2950722E-010  0.4778727E+02  0.7816164E-02  0.1312668E+00
        -11   -1    0    0    0    0  0.00000000000E+00  0.00000000000E+00  0.45593999997E+02  0.45594000000E+02  0.51100000000E-03 0.  1.
         11   -1    0    0    0    0 -0.00000000000E+00 -0.00000000000E+00 -0.45593999997E+02  0.45594000000E+02  0.51100000000E-03 0. -1.
    9900012    2    1    2    0    0  0.51787472463E+01 -0.16437236255E+02 -0.39832413747E+02  0.47787270241E+02  0.19999996335E+02 0.  0.
        -12    1    1    2    0    0 -0.51787472463E+01  0.16437236255E+02  0.39832413747E+02  0.43400729759E+02  0.00000000000E+00 0.  1.
         11    1    3    3    0    0 -0.44088781263E+01 -0.16017609947E+01 -0.32031174875E+01  0.56801238118E+01  0.51100000000E-03 0.  1.
        -11    1    3    3    0    0  0.38168092852E+01 -0.81218754886E+00 -0.21845795439E+01  0.44721437565E+01  0.51100000000E-03 0. -1.
         12    1    3    3    0    0  0.57708160874E+01 -0.14023287711E+02 -0.34444716715E+02  0.37635002672E+02  0.00000000000E+00 0. -1.
</event>
<event>
 7    1  0.2950722E-010  0.4778726E+02  0.7816164E-02  0.1312668E+00
        -11   -1    0    0    0    0  0.00000000000E+00  0.00000000000E+00  0.45593999997E+02  0.45594000000E+02  0.51100000000E-03 0.  1.
         11   -1    0    0    0    0 -0.00000000000E+00 -0.00000000000E+00 -0.45593999997E+02  0.45594000000E+02  0.51100000000E-03 0. -1.
    9900012    2    1    2    0    0  0.29554599202E+02  0.31083786787E+01 -0.31630486243E+02  0.47787262541E+02  0.19999961229E+02 0.  0.
        -12    1    1    2    0    0 -0.29554599202E+02 -0.31083786787E+01  0.31630486243E+02  0.43400737459E+02  0.00000000000E+00 0.  1.
         11    1    3    3    0    0  0.10138184067E+02  0.27416799857E+01 -0.18250277557E+02  0.21056405593E+02  0.51100000000E-03 0. -1.
        -11    1    3    3    0    0  0.20125089936E+02  0.33520874993E+00 -0.85830068372E+01  0.21881490271E+02  0.51100000000E-03 0.  1.
        -12    1    3    3    0    0 -0.70867480072E+00  0.31489943143E-01 -0.47972018490E+01  0.48493666772E+01  0.00000000000E+00 0.  1.
</event>
<event>
 7    1  0.2950722E-010  0.4778727E+02  0.7816164E-02  0.1312668E+00
        -11   -1    0    0    0    0  0.00000000000E+00  0.00000000000E+00  0.45593999997E+02  0.45594000000E+02  0.51100000000E-03 0. -1.
         11   -1    0    0    0    0 -0.00000000000E+00 -0.00000000000E+00 -0.45593999997E+02  0.45594000000E+02  0.51100000000E-03 0.  1.
    9900012    2    1    2    0    0 -0.20501806120E+02 -0.19385049088E+02  0.32977551949E+02  0.47787272876E+02  0.20000008351E+02 0.  0.
        -12    1    1    2    0    0  0.20501806120E+02  0.19385049088E+02 -0.32977551949E+02  0.43400727124E+02  0.00000000000E+00 0.  1.
         11    1    3    3    0    0 -0.53593969212E+01 -0.67712528269E+01 -0.32201299660E+00  0.86415677302E+01  0.51100000000E-03 0. -1.
        -11    1    3    3    0    0 -0.10242068570E+02 -0.96362166929E+01  0.28021876541E+02  0.31352547040E+02  0.51100000000E-03 0.  1.
         12    1    3    3    0    0 -0.49003406292E+01 -0.29775795683E+01  0.52776884049E+01  0.77931581061E+01  0.00000000000E+00 0. -1.
</event>
<event>
 7    1  0.2950722E-010  0.4778727E+02  0.7816164E-02  0.1312668E+00
        -11   -1    0    0    0    0  0.00000000000E+00  0.00000000000E+00  0.45593999997E+02  0.45594000000E+02  0.51100000000E-03 0.  1.
         11   -1    0    0    0    0 -0.00000000000E+00 -0.00000000000E+00 -0.45593999997E+02  0.45594000000E+02  0.51100000000E-03 0. -1.
    9900012    2    1    2    0    0  0.82893923673E+01 -0.19717027933E+02 -0.37764375655E+02  0.47787270917E+02  0.19999999421E+02 0.  0.
        -12    1    1    2    0    0 -0.82893923673E+01  0.19717027933E+02  0.37764375655E+02  0.43400729083E+02  0.00000000000E+00 0.  1.
         11    1    3    3    0    0  0.10021098231E+02 -0.49307287620E+01 -0.25432375261E+02  0.27776612601E+02  0.51100000000E-03 0. -1.
        -11    1    3    3    0    0 -0.31132660375E+01 -0.11689849936E+02 -0.11054184180E+02  0.16387190274E+02  0.51100000000E-03 0.  1.
        -12    1    3    3    0    0  0.13815601742E+01 -0.30964492352E+01 -0.12778162130E+01  0.36234680425E+01  0.00000000000E+00 0.  1.
</event>
<event>
 7    1  0.2950722E-010  0.4778728E+02  0.7816164E-02  0.1312668E+00
        -11   -1    0    0    0    0  0.00000000000E+00  0.00000000000E+00  0.45593999997E+02  0.45594000000E+02  0.51100000000E-03 0.  1.
         11   -1    0    0    0    0 -0.00000000000E+00 -0.00000000000E+00 -0.45593999997E+02  0.45594000000E+02  0.51100000000E-03 0. -1.
    9900012    2    1    2    0    0 -0.10191140175E+01 -0.38824646910E+02  0.19370878579E+02  0.47787277218E+02  0.20000028147E+02 0.  0.
        -12    1    1    2    0    0  0.10191140175E+01  0.38824646910E+02 -0.19370878579E+02  0.43400722782E+02  0.00000000000E+00 0.  1.
         11    1    3    3    0    0  0.26503426732E+01 -0.23832390712E+02  0.18100548264E+02  0.30043918038E+02  0.51100000000E-03 0. -1.
        -11    1    3    3    0    0  0.18842896800E+01 -0.82308738720E+01 -0.14776267767E+01  0.85721183757E+01  0.51100000000E-03 0.  1.
         12    1    3    3    0    0 -0.55537463707E+01 -0.67613823264E+01  0.27479570919E+01  0.91712408045E+01  0.00000000000E+00 0. -1.
</event>
<event>
 7    1  0.2950722E-010  0.4778727E+02  0.7816164E-02  0.1312668E+00
        -11   -1    0    0    0    0  0.00000000000E+00  0.00000000000E+00  0.45593999997E+02  0.45594000000E+02  0.51100000000E-03 0.  1.
         11   -1    0    0    0    0 -0.00000000000E+00 -0.00000000000E+00 -0.45593999997E+02  0.45594000000E+02  0.51100000000E-03 0. -1.
    9900012    2    1    2    0    0  0.24511561561E+02 -0.31034644237E+02  0.17878963864E+02  0.47787272565E+02  0.20000006931E+02 0.  0.
        -12    1    1    2    0    0 -0.24511561561E+02  0.31034644237E+02 -0.17878963864E+02  0.43400727435E+02  0.00000000000E+00 0.  1.
         11    1    3    3    0    0  0.16675859949E+02 -0.21293730321E+02  0.16909989148E+02  0.31897570272E+02  0.51100000000E-03 0. -1.
        -11    1    3    3    0    0  0.24947575603E+01 -0.67427090092E+01  0.48191209237E+01  0.86551641698E+01  0.51100000000E-03 0.  1.
         12    1    3    3    0    0  0.53409440511E+01 -0.29982049069E+01 -0.38501462080E+01  0.72345381224E+01  0.00000000000E+00 0. -1.
</event>
<event>
 7    1  0.2950722E-010  0.4778727E+02  0.7816164E-02  0.1312668E+00
        -11   -1    0    0    0    0  0.00000000000E+00  0.00000000000E+00  0.45593999997E+02  0.45594000000E+02  0.51100000000E-03 0.  1.
         11   -1    0    0    0    0 -0.00000000000E+00 -0.00000000000E+00 -0.45593999997E+02  0.45594000000E+02  0.51100000000E-03 0. -1.
    9900012    2    1    2    0    0 -0.18694004782E+02  0.31528318834E+02 -0.23240540690E+02  0.47787269190E+02  0.19999991545E+02 0.  0.
        -12    1    1    2    0    0  0.18694004782E+02 -0.31528318834E+02  0.23240540690E+02  0.43400730810E+02  0.00000000000E+00 0.  1.
         11    1    3    3    0    0 -0.84359646947E+01  0.14902974374E+02 -0.11077993212E+02  0.20395736794E+02  0.51100000000E-03 0. -1.
        -11    1    3    3    0    0  0.20643669783E+01  0.56826930377E+01  0.12133562427E+01  0.61665910206E+01  0.51100000000E-03 0.  1.
        -12    1    3    3    0    0 -0.12322407065E+02  0.10942651422E+02 -0.13375903721E+02  0.21224941375E+02  0.00000000000E+00 0.  1.
</event>
<event>
 7    1  0.2950722E-010  0.4778727E+02  0.7816164E-02  0.1312668E+00
        -11   -1    0    0    0    0  0.00000000000E+00  0.00000000000E+00  0.45593999997E+02  0.45594000000E+02  0.51100000000E-03 0.  1.
         11   -1    0    0    0    0 -0.00000000000E+00 -0.00000000000E+00 -0.45593999997E+02  0.45594000000E+02  0.51100000000E-03 0. -1.
    9900012    2    1    2    0    0 -0.53114117494E+01  0.37913505331E+02 -0.20444521098E+02  0.47787269313E+02  0.19999992103E+02 0.  0.
        -12    1    1    2    0    0  0.53114117494E+01 -0.37913505331E+02  0.20444521098E+02  0.43400730687E+02  0.00000000000E+00 0.  1.
         11    1    3    3    0    0 -0.10680440290E+02  0.18012905861E+02 -0.11306163582E+02  0.23798443595E+02  0.51100000000E-03 0. -1.
        -11    1    3    3    0    0  0.68574354501E+01  0.13573465905E+02 -0.85904120410E+01  0.17465926169E+02  0.51100000000E-03 0.  1.
         12    1    3    3    0    0 -0.14884069094E+01  0.63271335657E+01 -0.54794547534E+00  0.65228995492E+01  0.00000000000E+00 0. -1.
</event>
<event>
 7    1  0.2950722E-010  0.4778727E+02  0.7816164E-02  0.1312668E+00
        -11   -1    0    0    0    0  0.00000000000E+00  0.00000000000E+00  0.45593999997E+02  0.45594000000E+02  0.51100000000E-03 0.  1.
         11   -1    0    0    0    0 -0.00000000000E+00 -0.00000000000E+00 -0.45593999997E+02  0.45594000000E+02  0.51100000000E-03 0. -1.
    9900012    2    1    2    0    0 -0.29729783723E+02 -0.27026041860E+02 -0.16412070961E+02  0.47787273600E+02  0.20000011650E+02 0.  0.
        -12    1    1    2    0    0  0.29729783723E+02  0.27026041860E+02  0.16412070961E+02  0.43400726400E+02  0.00000000000E+00 0.  1.
         11    1    3    3    0    0 -0.21634090138E+02 -0.23675756297E+02 -0.67099155508E+01  0.32765809303E+02  0.51100000000E-03 0. -1.
        -11    1    3    3    0    0 -0.67259987275E+01  0.90939291928E+00 -0.44229858800E+01  0.81011640349E+01  0.51100000000E-03 0.  1.
        -12    1    3    3    0    0 -0.13696948571E+01 -0.42596784824E+01 -0.52791695305E+01  0.69203002614E+01  0.00000000000E+00 0.  1.
</event>
<event>
 7    1  0.2950722E-010  0.4778727E+02  0.7816164E-02  0.1312668E+00
        -11   -1    0    0    0    0  0.00000000000E+00  0.00000000000E+00  0.45593999997E+02  0.45594000000E+02  0.51100000000E-03 0. -1.
         11   -1    0    0    0    0 -0.00000000000E+00 -0.00000000000E+00 -0.45593999997E+02  0.45594000000E+02  0.51100000000E-03 0.  1.
    9900012    2    1    2    0    0 -0.29555374548E+02  0.28677743683E+02 -0.13699994205E+02  0.47787274331E+02  0.20000014983E+02 0.  0.
        -12    1    1    2    0    0  0.29555374548E+02 -0.28677743683E+02  0.13699994205E+02  0.43400725669E+02  0.00000000000E+00 0.  1.
         11    1    3    3    0    0 -0.15933888422E+02  0.90648900053E+01  0.16044221405E+01  0.18402043412E+02  0.51100000000E-03 0. -1.
        -11    1    3    3    0    0 -0.68621678783E+01  0.77327706929E+01 -0.10903795268E+02  0.15025905700E+02  0.51100000000E-03 0.  1.
         12    1    3    3    0    0 -0.67593182472E+01  0.11880082985E+02 -0.44006210772E+01  0.14359325219E+02  0.00000000000E+00 0. -1.
</event>
<event>
 7    1  0.2950722E-010  0.4778727E+02  0.7816164E-02  0.1312668E+00
        -11   -1    0    0    0    0  0.00000000000E+00  0.00000000000E+00  0.45593999997E+02  0.45594000000E+02  0.51100000000E-03 0. -1.
         11   -1    0    0    0    0 -0.00000000000E+00 -0.00000000000E+00 -0.45593999997E+02  0.45594000000E+02  0.51100000000E-03 0.  1.
    9900012    2    1    2    0    0  0.28858530001E+02 -0.32194908862E+02 -0.37810189225E+01  0.47787274032E+02  0.20000013623E+02 0.  0.
        -12    1    1    2    0    0 -0.28858530001E+02  0.32194908862E+02  0.37810189225E+01  0.43400725968E+02  0.00000000000E+00 0.  1.
         11    1    3    3    0    0  0.14424035341E+02 -0.15060261786E+02 -0.65734941044E+01  0.21864928666E+02  0.51100000000E-03 0. -1.
        -11    1    3    3    0    0  0.81630592178E+01 -0.16597144992E+02  0.51521689383E+01  0.19200145903E+02  0.51100000000E-03 0.  1.
        -12    1    3    3    0    0  0.62714354420E+01 -0.53750208389E+00 -0.23596937564E+01  0.67221994627E+01  0.00000000000E+00 0.  1.
</event>
<event>
 7    1  0.2950722E-010  0.4778727E+02  0.7816164E-02  0.1312668E+00
        -11   -1    0    0    0    0  0.00000000000E+00  0.00000000000E+00  0.45593999997E+02  0.45594000000E+02  0.51100000000E-03 0.  1.
         11   -1    0    0    0    0 -0.00000000000E+00 -0.00000000000E+00 -0.45593999997E+02  0.45594000000E+02  0.51100000000E-03 0. -1.
    9900012    2    1    2    0    0 -0.21422298609E+01  0.11400299230E+02 -0.41821852621E+02  0.47787270421E+02  0.19999997160E+02 0.  0.
        -12    1    1    2    0    0  0.21422298609E+01 -0.11400299230E+02  0.41821852621E+02  0.43400729579E+02  0.00000000000E+00 0.  1.
         11    1    3    3    0    0 -0.55308053061E+01  0.75094981822E+01 -0.34146856872E+02  0.35397601681E+02  0.51100000000E-03 0. -1.
        -11    1    3    3    0    0  0.16665964086E+01  0.59789896180E+01 -0.27903834809E+01  0.68052994550E+01  0.51100000000E-03 0.  1.
         12    1    3    3    0    0  0.17219790366E+01 -0.20881885701E+01 -0.48846122682E+01  0.55843692855E+01  0.00000000000E+00 0. -1.
</event>
<event>
 7    1  0.2959146E-010  0.4778727E+02  0.7816164E-02  0.1312668E+00
        -11   -1    0    0    0    0  0.00000000000E+00  0.00000000000E+00  0.45593999997E+02  0.45594000000E+02  0.51100000000E-03 0. -1.
         11   -1    0    0    0    0 -0.00000000000E+00 -0.00000000000E+00 -0.45593999997E+02  0.45594000000E+02  0.51100000000E-03 0.  1.
    9900012    2    1    2    0    0 -0.21189684196E+02 -0.30891478773E+02  0.21916590583E+02  0.47787272818E+02  0.20000008088E+02 0.  0.
        -12    1    1    2    0    0  0.21189684196E+02  0.30891478773E+02 -0.21916590583E+02  0.43400727182E+02  0.00000000000E+00 0.  1.
         11    1    3    3    0    0 -0.16676919909E+02 -0.13279174328E+02  0.78601907037E+01  0.22720887453E+02  0.51100000000E-03 0. -1.
        -11    1    3    3    0    0 -0.26404824791E+01 -0.93901460129E+00 -0.50865272547E+00  0.28482668415E+01  0.51100000000E-03 0.  1.
         12    1    3    3    0    0 -0.18722818085E+01 -0.16673289843E+02  0.14565052605E+02  0.22218118524E+02  0.00000000000E+00 0. -1.
</event>
<event>
 7    1  0.2950722E-010  0.4778727E+02  0.7816164E-02  0.1312668E+00
        -11   -1    0    0    0    0  0.00000000000E+00  0.00000000000E+00  0.45593999997E+02  0.45594000000E+02  0.51100000000E-03 0. -1.
         11   -1    0    0    0    0 -0.00000000000E+00 -0.00000000000E+00 -0.45593999997E+02  0.45594000000E+02  0.51100000000E-03 0.  1.
    9900012    2    1    2    0    0  0.22193398548E+02 -0.74869897610E+01  0.36537941184E+02  0.47787273039E+02  0.20000009096E+02 0.  0.
        -12    1    1    2    0    0 -0.22193398548E+02  0.74869897610E+01 -0.36537941184E+02  0.43400726961E+02  0.00000000000E+00 0.  1.
         11    1    3    3    0    0  0.26270775473E+01  0.40325813805E+01  0.87550246223E+01  0.99906809292E+01  0.51100000000E-03 0. -1.
        -11    1    3    3    0    0  0.17367209807E+02 -0.51098261352E+01  0.15791767596E+02  0.24023118526E+02  0.51100000000E-03 0.  1.
        -12    1    3    3    0    0  0.21991111933E+01 -0.64097450063E+01  0.11991148965E+02  0.13773473585E+02  0.00000000000E+00 0.  1.
</event>
<event>
 7    1  0.2950722E-010  0.4778727E+02  0.7816164E-02  0.1312668E+00
        -11   -1    0    0    0    0  0.00000000000E+00  0.00000000000E+00  0.45593999997E+02  0.45594000000E+02  0.51100000000E-03 0.  1.
         11   -1    0    0    0    0 -0.00000000000E+00 -0.00000000000E+00 -0.45593999997E+02  0.45594000000E+02  0.51100000000E-03 0. -1.
    9900012    2    1    2    0    0  0.16542875639E+02 -0.35206315997E+02 -0.19247643431E+02  0.47787271917E+02  0.20000003979E+02 0.  0.
        -12    1    1    2    0    0 -0.16542875639E+02  0.35206315997E+02  0.19247643431E+02  0.43400728083E+02  0.00000000000E+00 0.  1.
         11    1    3    3    0    0  0.16252799970E+02 -0.17948099229E+02 -0.12715824942E+02  0.27349222603E+02  0.51100000000E-03 0. -1.
        -11    1    3    3    0    0 -0.37202905010E+01 -0.55198960294E+01 -0.40373405960E+01  0.77852381425E+01  0.51100000000E-03 0.  1.
         12    1    3    3    0    0  0.40103661699E+01 -0.11738320738E+02 -0.24944778934E+01  0.12652811171E+02  0.00000000000E+00 0. -1.
</event>
<event>
 7    1  0.2950722E-010  0.4778727E+02  0.7816164E-02  0.1312668E+00
        -11   -1    0    0    0    0  0.00000000000E+00  0.00000000000E+00  0.45593999997E+02  0.45594000000E+02  0.51100000000E-03 0.  1.
         11   -1    0    0    0    0 -0.00000000000E+00 -0.00000000000E+00 -0.45593999997E+02  0.45594000000E+02  0.51100000000E-03 0. -1.
    9900012    2    1    2    0    0  0.25595732127E+02  0.22637860866E+02 -0.26758349131E+02  0.47787268487E+02  0.19999988338E+02 0.  0.
        -12    1    1    2    0    0 -0.25595732127E+02 -0.22637860866E+02  0.26758349131E+02  0.43400731513E+02  0.00000000000E+00 0.  1.
         11    1    3    3    0    0  0.13424593126E+02  0.49368232291E+01 -0.37364220353E+01  0.14783530502E+02  0.51100000000E-03 0. -1.
        -11    1    3    3    0    0  0.15008095535E+01  0.77807488696E+01 -0.35461766057E+01  0.86814659515E+01  0.51100000000E-03 0.  1.
         12    1    3    3    0    0  0.10670329447E+02  0.99202887668E+01 -0.19475750490E+02  0.24322272033E+02  0.00000000000E+00 0. -1.
</event>
<event>
 7    1  0.2950722E-010  0.4778727E+02  0.7816164E-02  0.1312668E+00
        -11   -1    0    0    0    0  0.00000000000E+00  0.00000000000E+00  0.45593999997E+02  0.45594000000E+02  0.51100000000E-03 0. -1.
         11   -1    0    0    0    0 -0.00000000000E+00 -0.00000000000E+00 -0.45593999997E+02  0.45594000000E+02  0.51100000000E-03 0.  1.
    9900012    2    1    2    0    0  0.38253768764E+02  0.50404199054E+01  0.19871255676E+02  0.47787268905E+02  0.19999990244E+02 0.  0.
        -12    1    1    2    0    0 -0.38253768764E+02 -0.50404199054E+01 -0.19871255676E+02  0.43400731095E+02  0.00000000000E+00 0.  1.
         11    1    3    3    0    0  0.23659415381E+02  0.85997151472E+01  0.18043636907E+02  0.30972501835E+02  0.51100000000E-03 0. -1.
        -11    1    3    3    0    0  0.28877441118E+01 -0.23020541039E+01 -0.22855364732E+01  0.43430630186E+01  0.51100000000E-03 0.  1.
         12    1    3    3    0    0  0.11706609271E+02 -0.12572411380E+01  0.41131552419E+01  0.12471704051E+02  0.00000000000E+00 0. -1.
</event>
<event>
 7    1  0.2950722E-010  0.4778727E+02  0.7816164E-02  0.1312668E+00
        -11   -1    0    0    0    0  0.00000000000E+00  0.00000000000E+00  0.45593999997E+02  0.45594000000E+02  0.51100000000E-03 0. -1.
         11   -1    0    0    0    0 -0.00000000000E+00 -0.00000000000E+00 -0.45593999997E+02  0.45594000000E+02  0.51100000000E-03 0.  1.
    9900012    2    1    2    0    0 -0.13393608126E+02  0.12028022001E+02  0.39491283640E+02  0.47787268031E+02  0.19999986260E+02 0.  0.
        -12    1    1    2    0    0  0.13393608126E+02 -0.12028022001E+02 -0.39491283640E+02  0.43400731969E+02  0.00000000000E+00 0.  1.
         11    1    3    3    0    0 -0.13507421441E+01 -0.46011181476E+01  0.81018343717E+01  0.94145904316E+01  0.51100000000E-03 0.  1.
        -11    1    3    3    0    0 -0.44856417484E+01  0.10571860517E+02  0.22333958403E+02  0.25113560378E+02  0.51100000000E-03 0. -1.
        -12    1    3    3    0    0 -0.75572242332E+01  0.60572796324E+01  0.90554908658E+01  0.13259117221E+02  0.00000000000E+00 0.  1.
</event>
<event>
 7    1  0.2950722E-010  0.4778726E+02  0.7816164E-02  0.1312668E+00
        -11   -1    0    0    0    0  0.00000000000E+00  0.00000000000E+00  0.45593999997E+02  0.45594000000E+02  0.51100000000E-03 0.  1.
         11   -1    0    0    0    0 -0.00000000000E+00 -0.00000000000E+00 -0.45593999997E+02  0.45594000000E+02  0.51100000000E-03 0. -1.
    9900012    2    1    2    0    0 -0.35438959360E+02  0.90441048847E+01 -0.23364679883E+02  0.47787263374E+02  0.19999965026E+02 0.  0.
        -12    1    1    2    0    0  0.35438959360E+02 -0.90441048847E+01  0.23364679883E+02  0.43400736626E+02  0.00000000000E+00 0.  1.
         11    1    3    3    0    0 -0.18665526302E+02  0.13578031193E+02 -0.16323612958E+02  0.28270570271E+02  0.51100000000E-03 0. -1.
        -11    1    3    3    0    0 -0.49801120833E+01 -0.38297515073E+01 -0.14568197059E+01  0.64490958193E+01  0.51100000000E-03 0.  1.
         12    1    3    3    0    0 -0.11793320974E+02 -0.70417480062E+00 -0.55842472195E+01  0.13067597283E+02  0.00000000000E+00 0. -1.
</event>
<event>
 7    1  0.2950722E-010  0.4778726E+02  0.7816164E-02  0.1312668E+00
        -11   -1    0    0    0    0  0.00000000000E+00  0.00000000000E+00  0.45593999997E+02  0.45594000000E+02  0.51100000000E-03 0.  1.
         11   -1    0    0    0    0 -0.00000000000E+00 -0.00000000000E+00 -0.45593999997E+02  0.45594000000E+02  0.51100000000E-03 0. -1.
    9900012    2    1    2    0    0  0.38890919841E+01  0.42505094555E+02  0.78623256163E+01  0.47787259641E+02  0.19999948007E+02 0.  0.
        -12    1    1    2    0    0 -0.38890919841E+01 -0.42505094555E+02 -0.78623256163E+01  0.43400740359E+02  0.00000000000E+00 0.  1.
         11    1    3    3    0    0  0.74101711480E+01  0.31075216740E+02  0.75318366237E+00  0.31955391060E+02  0.51100000000E-03 0. -1.
        -11    1    3    3    0    0 -0.27791768562E+00  0.96947193541E+01  0.73149165887E+01  0.12147955653E+02  0.51100000000E-03 0.  1.
         12    1    3    3    0    0 -0.32431614783E+01  0.17351584609E+01 -0.20577463476E+00  0.36839129277E+01  0.00000000000E+00 0. -1.
</event>
<event>
 7    1  0.2950722E-010  0.4778728E+02  0.7816164E-02  0.1312668E+00
        -11   -1    0    0    0    0  0.00000000000E+00  0.00000000000E+00  0.45593999997E+02  0.45594000000E+02  0.51100000000E-03 0.  1.
         11   -1    0    0    0    0 -0.00000000000E+00 -0.00000000000E+00 -0.45593999997E+02  0.45594000000E+02  0.51100000000E-03 0. -1.
    9900012    2    1    2    0    0 -0.24586032961E+01 -0.32943882230E+02 -0.28147438385E+02  0.47787281179E+02  0.20000046207E+02 0.  0.
        -12    1    1    2    0    0  0.24586032961E+01  0.32943882230E+02  0.28147438385E+02  0.43400718821E+02  0.00000000000E+00 0.  1.
         11    1    3    3    0    0  0.46482223287E+01 -0.19211985579E+01 -0.89454675942E+01  0.10262473652E+02  0.51100000000E-03 0. -1.
        -11    1    3    3    0    0 -0.22010356096E+01 -0.33948126063E+01 -0.36181915621E+01  0.54277638884E+01  0.51100000000E-03 0.  1.
         12    1    3    3    0    0 -0.49057900152E+01 -0.27627871065E+02 -0.15583779229E+02  0.32097043639E+02  0.00000000000E+00 0. -1.
</event>
<event>
 7    1  0.2950722E-010  0.4778727E+02  0.7816164E-02  0.1312668E+00
        -11   -1    0    0    0    0  0.00000000000E+00  0.00000000000E+00  0.45593999997E+02  0.45594000000E+02  0.51100000000E-03 0. -1.
         11   -1    0    0    0    0 -0.00000000000E+00 -0.00000000000E+00 -0.45593999997E+02  0.45594000000E+02  0.51100000000E-03 0.  1.
    9900012    2    1    2    0    0  0.38125694865E+02 -0.19025073809E+01  0.20650303690E+02  0.47787272059E+02  0.20000004628E+02 0.  0.
        -12    1    1    2    0    0 -0.38125694865E+02  0.19025073809E+01 -0.20650303690E+02  0.43400727941E+02  0.00000000000E+00 0.  1.
         11    1    3    3    0    0  0.23548949962E+02 -0.58903181246E+01  0.45613208306E+01  0.24699282174E+02  0.51100000000E-03 0. -1.
        -11    1    3    3    0    0  0.24581357429E+01  0.36599847804E+01  0.37188973295E+01  0.57678520727E+01  0.51100000000E-03 0.  1.
         12    1    3    3    0    0  0.12118609160E+02  0.32782596331E+00  0.12370085530E+02  0.17320137813E+02  0.00000000000E+00 0. -1.
</event>
<event>
 7    1  0.2950722E-010  0.4778728E+02  0.7816164E-02  0.1312668E+00
        -11   -1    0    0    0    0  0.00000000000E+00  0.00000000000E+00  0.45593999997E+02  0.45594000000E+02  0.51100000000E-03 0.  1.
         11   -1    0    0    0    0 -0.00000000000E+00 -0.00000000000E+00 -0.45593999997E+02  0.45594000000E+02  0.51100000000E-03 0. -1.
    9900012    2    1    2    0    0 -0.29004865942E+02 -0.29814742502E+02  0.12386341490E+02  0.47787279104E+02  0.20000036748E+02 0.  0.
        -12    1    1    2    0    0  0.29004865942E+02  0.29814742502E+02 -0.12386341490E+02  0.43400720896E+02  0.00000000000E+00 0.  1.
         11    1    3    3    0    0 -0.63147026273E+01 -0.34712033300E+01  0.17333207127E+01  0.74114184057E+01  0.51100000000E-03 0. -1.
        -11    1    3    3    0    0 -0.17938624103E+02 -0.26101690530E+02  0.13929119423E+02  0.34599318655E+02  0.51100000000E-03 0.  1.
        -12    1    3    3    0    0 -0.47515392118E+01 -0.24184864166E+00 -0.32760986453E+01  0.57765420435E+01  0.00000000000E+00 0.  1.
</event>
<event>
 7    1  0.2950722E-010  0.4778727E+02  0.7816164E-02  0.1312668E+00
        -11   -1    0    0    0    0  0.00000000000E+00  0.00000000000E+00  0.45593999997E+02  0.45594000000E+02  0.51100000000E-03 0. -1.
         11   -1    0    0    0    0 -0.00000000000E+00 -0.00000000000E+00 -0.45593999997E+02  0.45594000000E+02  0.51100000000E-03 0.  1.
    9900012    2    1    2    0    0 -0.35071256354E+02  0.15105869541E+02  0.20626265466E+02  0.47787272542E+02  0.20000006826E+02 0.  0.
        -12    1    1    2    0    0  0.35071256354E+02 -0.15105869541E+02 -0.20626265466E+02  0.43400727458E+02  0.00000000000E+00 0.  1.
         11    1    3    3    0    0 -0.10138964060E+02  0.13442888708E+02  0.54786387163E+01  0.17706646534E+02  0.51100000000E-03 0. -1.
        -11    1    3    3    0    0 -0.90322327652E+01 -0.23548611172E+01  0.35148744918E+01  0.99740133627E+01  0.51100000000E-03 0.  1.
         12    1    3    3    0    0 -0.15900059530E+02  0.40178419497E+01  0.11632752257E+02  0.20106612645E+02  0.00000000000E+00 0. -1.
</event>
<event>
 7    1  0.2950722E-010  0.4778727E+02  0.7816164E-02  0.1312668E+00
        -11   -1    0    0    0    0  0.00000000000E+00  0.00000000000E+00  0.45593999997E+02  0.45594000000E+02  0.51100000000E-03 0.  1.
         11   -1    0    0    0    0 -0.00000000000E+00 -0.00000000000E+00 -0.45593999997E+02  0.45594000000E+02  0.51100000000E-03 0. -1.
    9900012    2    1    2    0    0 -0.29172616846E+02  0.10746026124E+02 -0.30283732828E+02  0.47787272758E+02  0.20000007814E+02 0.  0.
        -12    1    1    2    0    0  0.29172616846E+02 -0.10746026124E+02  0.30283732828E+02  0.43400727242E+02  0.00000000000E+00 0.  1.
         11    1    3    3    0    0  0.11961556087E+01  0.42078974958E+01 -0.55035524898E+01  0.70303826243E+01  0.51100000000E-03 0. -1.
        -11    1    3    3    0    0  0.48685470455E+00  0.80510428447E+00 -0.10614746292E+01  0.14184319024E+01  0.51100000000E-03 0.  1.
         12    1    3    3    0    0 -0.30855627160E+02  0.57330243439E+01 -0.23718705709E+02  0.39338458232E+02  0.00000000000E+00 0. -1.
</event>
<event>
 7    1  0.2950722E-010  0.4778727E+02  0.7816164E-02  0.1312668E+00
        -11   -1    0    0    0    0  0.00000000000E+00  0.00000000000E+00  0.45593999997E+02  0.45594000000E+02  0.51100000000E-03 0.  1.
         11   -1    0    0    0    0 -0.00000000000E+00 -0.00000000000E+00 -0.45593999997E+02  0.45594000000E+02  0.51100000000E-03 0. -1.
    9900012    2    1    2    0    0 -0.73555014996E+01  0.38529686562E+02 -0.18573717691E+02  0.47787272613E+02  0.20000007152E+02 0.  0.
        -12    1    1    2    0    0  0.73555014996E+01 -0.38529686562E+02  0.18573717691E+02  0.43400727387E+02  0.00000000000E+00 0.  1.
         11    1    3    3    0    0  0.19511293565E+01  0.92934639838E+01 -0.10710872333E+02  0.14314264388E+02  0.51100000000E-03 0. -1.
        -11    1    3    3    0    0 -0.76341633032E+01  0.84382321016E+01 -0.65486019354E+00  0.11397940712E+02  0.51100000000E-03 0.  1.
        -12    1    3    3    0    0 -0.16724675529E+01  0.20797990476E+02 -0.72079851644E+01  0.22075067513E+02  0.00000000000E+00 0.  1.
</event>
<event>
 7    1  0.2950722E-010  0.4778727E+02  0.7816164E-02  0.1312668E+00
        -11   -1    0    0    0    0  0.00000000000E+00  0.00000000000E+00  0.45593999997E+02  0.45594000000E+02  0.51100000000E-03 0.  1.
         11   -1    0    0    0    0 -0.00000000000E+00 -0.00000000000E+00 -0.45593999997E+02  0.45594000000E+02  0.51100000000E-03 0. -1.
    9900012    2    1    2    0    0  0.29219128184E+02 -0.32081585699E+02  0.79857193857E+00  0.47787270629E+02  0.19999998104E+02 0.  0.
        -12    1    1    2    0    0 -0.29219128184E+02  0.32081585699E+02 -0.79857193857E+00  0.43400729371E+02  0.00000000000E+00 0.  1.
         11    1    3    3    0    0  0.73101727852E+00  0.14790668048E+00 -0.20806312384E+01  0.22102690467E+01  0.51100000000E-03 0. -1.
        -11    1    3    3    0    0  0.30042492334E+02 -0.30394758755E+02  0.40016972575E+01  0.42923260438E+02  0.51100000000E-03 0.  1.
        -12    1    3    3    0    0 -0.15543814284E+01 -0.18347336242E+01 -0.11224940805E+01  0.26537411436E+01  0.00000000000E+00 0.  1.
</event>
<event>
 7    1  0.2950722E-010  0.4778725E+02  0.7816164E-02  0.1312668E+00
        -11   -1    0    0    0    0  0.00000000000E+00  0.00000000000E+00  0.45593999997E+02  0.45594000000E+02  0.51100000000E-03 0.  1.
         11   -1    0    0    0    0 -0.00000000000E+00 -0.00000000000E+00 -0.45593999997E+02  0.45594000000E+02  0.51100000000E-03 0. -1.
    9900012    2    1    2    0    0  0.11780612302E+01  0.42138432618E+02  0.10324217542E+02  0.47787253467E+02  0.19999919855E+02 0.  0.
        -12    1    1    2    0    0 -0.11780612302E+01 -0.42138432618E+02 -0.10324217542E+02  0.43400746533E+02  0.00000000000E+00 0.  1.
         11    1    3    3    0    0 -0.24317081198E+01  0.56948608029E+01  0.79914053685E+00  0.62436583669E+01  0.51100000000E-03 0. -1.
        -11    1    3    3    0    0  0.17608177663E+01  0.27243262740E+02 -0.11573706258E+01  0.27324629018E+02  0.51100000000E-03 0.  1.
        -12    1    3    3    0    0  0.18489515837E+01  0.92003090752E+01  0.10682447631E+02  0.14218966082E+02  0.00000000000E+00 0.  1.
</event>
<event>
 7    1  0.2950722E-010  0.4778727E+02  0.7816164E-02  0.1312668E+00
        -11   -1    0    0    0    0  0.00000000000E+00  0.00000000000E+00  0.45593999997E+02  0.45594000000E+02  0.51100000000E-03 0.  1.
         11   -1    0    0    0    0 -0.00000000000E+00 -0.00000000000E+00 -0.45593999997E+02  0.45594000000E+02  0.51100000000E-03 0. -1.
    9900012    2    1    2    0    0 -0.58100873846E+01  0.19694004137E+02 -0.38236271398E+02  0.47787269997E+02  0.19999995226E+02 0.  0.
        -12    1    1    2    0    0  0.58100873846E+01 -0.19694004137E+02  0.38236271398E+02  0.43400730003E+02  0.00000000000E+00 0.  1.
         11    1    3    3    0    0 -0.62010532810E+01  0.11669050534E+02 -0.23873961038E+02  0.27287099847E+02  0.51100000000E-03 0. -1.
        -11    1    3    3    0    0  0.46562235231E+00  0.48772795055E+01  0.84373655461E+00  0.49715743165E+01  0.51100000000E-03 0.  1.
        -12    1    3    3    0    0 -0.74656455961E-01  0.31476740981E+01 -0.15206046914E+02  0.15528595834E+02  0.00000000000E+00 0.  1.
</event>
<event>
 7    1  0.2950722E-010  0.4778727E+02  0.7816164E-02  0.1312668E+00
        -11   -1    0    0    0    0  0.00000000000E+00  0.00000000000E+00  0.45593999997E+02  0.45594000000E+02  0.51100000000E-03 0.  1.
         11   -1    0    0    0    0 -0.00000000000E+00 -0.00000000000E+00 -0.45593999997E+02  0.45594000000E+02  0.51100000000E-03 0. -1.
    9900012    2    1    2    0    0  0.24169015599E+02 -0.17821752896E+02 -0.31334762802E+02  0.47787267850E+02  0.19999985437E+02 0.  0.
        -12    1    1    2    0    0 -0.24169015599E+02  0.17821752896E+02  0.31334762802E+02  0.43400732150E+02  0.00000000000E+00 0.  1.
         11    1    3    3    0    0  0.91877172012E+01 -0.18880689379E+00 -0.82511699504E+01  0.12350368465E+02  0.51100000000E-03 0.  1.
        -11    1    3    3    0    0  0.65618278784E+01 -0.99034695304E+01 -0.28795702901E+01  0.12224083571E+02  0.51100000000E-03 0. -1.
        -12    1    3    3    0    0  0.84194705190E+01 -0.77294764720E+01 -0.20204022561E+02  0.23212815814E+02  0.00000000000E+00 0.  1.
</event>
<event>
 7    1  0.2950722E-010  0.4778727E+02  0.7816164E-02  0.1312668E+00
        -11   -1    0    0    0    0  0.00000000000E+00  0.00000000000E+00  0.45593999997E+02  0.45594000000E+02  0.51100000000E-03 0.  1.
         11   -1    0    0    0    0 -0.00000000000E+00 -0.00000000000E+00 -0.45593999997E+02  0.45594000000E+02  0.51100000000E-03 0. -1.
    9900012    2    1    2    0    0  0.17852572003E+02  0.24844563366E+01 -0.39480836463E+02  0.47787270764E+02  0.19999998723E+02 0.  0.
        -12    1    1    2    0    0 -0.17852572003E+02 -0.24844563366E+01  0.39480836463E+02  0.43400729236E+02  0.00000000000E+00 0.  1.
         11    1    3    3    0    0  0.11342580494E+02 -0.42516383602E+01 -0.10613941060E+02  0.16105474414E+02  0.51100000000E-03 0. -1.
        -11    1    3    3    0    0  0.66258714548E+01  0.77663952159E+01 -0.28894201893E+02  0.30644640159E+02  0.51100000000E-03 0.  1.
         12    1    3    3    0    0 -0.11587994638E+00 -0.10303005191E+01  0.27306490176E-01  0.10371561917E+01  0.00000000000E+00 0. -1.
</event>
<event>
 7    1  0.2950722E-010  0.4778728E+02  0.7816164E-02  0.1312668E+00
        -11   -1    0    0    0    0  0.00000000000E+00  0.00000000000E+00  0.45593999997E+02  0.45594000000E+02  0.51100000000E-03 0. -1.
         11   -1    0    0    0    0 -0.00000000000E+00 -0.00000000000E+00 -0.45593999997E+02  0.45594000000E+02  0.51100000000E-03 0.  1.
    9900012    2    1    2    0    0  0.24083641491E+02 -0.66124754504E+01 -0.35494729610E+02  0.47787280546E+02  0.20000043320E+02 0.  0.
        -12    1    1    2    0    0 -0.24083641491E+02  0.66124754504E+01  0.35494729610E+02  0.43400719454E+02  0.00000000000E+00 0.  1.
         11    1    3    3    0    0  0.31839223020E+01  0.36051841216E+01 -0.67977191694E+00  0.48576541556E+01  0.51100000000E-03 0. -1.
        -11    1    3    3    0    0  0.10124580279E+02 -0.24395014482E+01 -0.22579929989E+02  0.24865870821E+02  0.51100000000E-03 0.  1.
         12    1    3    3    0    0  0.10775138910E+02 -0.77781581238E+01 -0.12235027705E+02  0.18063755569E+02  0.00000000000E+00 0. -1.
</event>
<event>
 7    1  0.2950722E-010  0.4778727E+02  0.7816164E-02  0.1312668E+00
        -11   -1    0    0    0    0  0.00000000000E+00  0.00000000000E+00  0.45593999997E+02  0.45594000000E+02  0.51100000000E-03 0. -1.
         11   -1    0    0    0    0 -0.00000000000E+00 -0.00000000000E+00 -0.45593999997E+02  0.45594000000E+02  0.51100000000E-03 0.  1.
    9900012    2    1    2    0    0 -0.36416152266E+02  0.13178478781E+02  0.19591193314E+02  0.47787270694E+02  0.19999998402E+02 0.  0.
        -12    1    1    2    0    0  0.36416152266E+02 -0.13178478781E+02 -0.19591193314E+02  0.43400729306E+02  0.00000000000E+00 0.  1.
         11    1    3    3    0    0 -0.12348742578E+02  0.53490497732E+01  0.11431348979E+02  0.17657279419E+02  0.51100000000E-03 0. -1.
        -11    1    3    3    0    0 -0.39187045602E+01 -0.27509112421E+01 -0.20233505228E+01  0.51978558744E+01  0.51100000000E-03 0.  1.
        -12    1    3    3    0    0 -0.20148705128E+02  0.10580340250E+02  0.10183194857E+02  0.24932135401E+02  0.00000000000E+00 0.  1.
</event>
<event>
 7    1  0.2950722E-010  0.4778727E+02  0.7816164E-02  0.1312668E+00
        -11   -1    0    0    0    0  0.00000000000E+00  0.00000000000E+00  0.45593999997E+02  0.45594000000E+02  0.51100000000E-03 0.  1.
         11   -1    0    0    0    0 -0.00000000000E+00 -0.00000000000E+00 -0.45593999997E+02  0.45594000000E+02  0.51100000000E-03 0. -1.
    9900012    2    1    2    0    0 -0.34424849977E+02  0.69262006020E-01 -0.26430056168E+02  0.47787274635E+02  0.20000016371E+02 0.  0.
        -12    1    1    2    0    0  0.34424849977E+02 -0.69262006020E-01  0.26430056168E+02  0.43400725365E+02  0.00000000000E+00 0.  1.
         11    1    3    3    0    0 -0.93290791138E+01  0.18214124010E+01  0.10112786528E+00  0.95057607456E+01  0.51100000000E-03 0. -1.
        -11    1    3    3    0    0 -0.21514403663E+02  0.68598622379E+00 -0.26239856491E+02  0.33939213471E+02  0.51100000000E-03 0.  1.
         12    1    3    3    0    0 -0.35813671996E+01 -0.24381366188E+01 -0.29132754295E+00  0.43423004188E+01  0.00000000000E+00 0. -1.
</event>
<event>
 7    1  0.2950722E-010  0.4778728E+02  0.7816164E-02  0.1312668E+00
        -11   -1    0    0    0    0  0.00000000000E+00  0.00000000000E+00  0.45593999997E+02  0.45594000000E+02  0.51100000000E-03 0. -1.
         11   -1    0    0    0    0 -0.00000000000E+00 -0.00000000000E+00 -0.45593999997E+02  0.45594000000E+02  0.51100000000E-03 0.  1.
    9900012    2    1    2    0    0  0.36841753947E+01 -0.40596013862E+02 -0.14900114166E+02  0.47787275444E+02  0.20000020060E+02 0.  0.
        -12    1    1    2    0    0 -0.36841753947E+01  0.40596013862E+02  0.14900114166E+02  0.43400724556E+02  0.00000000000E+00 0.  1.
         11    1    3    3    0    0  0.59819978803E+01 -0.33745585000E+02 -0.16219411837E+02  0.37915934990E+02  0.51100000000E-03 0. -1.
        -11    1    3    3    0    0  0.87711255419E+00 -0.17005588824E+01  0.30305629859E+01  0.35840674126E+01  0.51100000000E-03 0.  1.
         12    1    3    3    0    0 -0.31749350398E+01 -0.51498699800E+01 -0.17112653147E+01  0.62872730412E+01  0.00000000000E+00 0. -1.
</event>
<event>
 7    1  0.2950722E-010  0.4778727E+02  0.7816164E-02  0.1312668E+00
        -11   -1    0    0    0    0  0.00000000000E+00  0.00000000000E+00  0.45593999997E+02  0.45594000000E+02  0.51100000000E-03 0.  1.
         11   -1    0    0    0    0 -0.00000000000E+00 -0.00000000000E+00 -0.45593999997E+02  0.45594000000E+02  0.51100000000E-03 0. -1.
    9900012    2    1    2    0    0 -0.28696981553E+02 -0.30221276961E+02 -0.12115326018E+02  0.47787268947E+02  0.19999990438E+02 0.  0.
        -12    1    1    2    0    0  0.28696981553E+02  0.30221276961E+02  0.12115326018E+02  0.43400731053E+02  0.00000000000E+00 0.  1.
         11    1    3    3    0    0 -0.20254352115E+01 -0.12455004752E+02 -0.91610473525E+01  0.15593406300E+02  0.51100000000E-03 0. -1.
        -11    1    3    3    0    0 -0.14847754674E+02 -0.98026371647E+01 -0.20526625452E+01  0.17909800055E+02  0.51100000000E-03 0.  1.
         12    1    3    3    0    0 -0.11823791668E+02 -0.79636350437E+01 -0.90161612072E+00  0.14284062593E+02  0.00000000000E+00 0. -1.
</event>
<event>
 7    1  0.2950722E-010  0.4778727E+02  0.7816164E-02  0.1312668E+00
        -11   -1    0    0    0    0  0.00000000000E+00  0.00000000000E+00  0.45593999997E+02  0.45594000000E+02  0.51100000000E-03 0.  1.
         11   -1    0    0    0    0 -0.00000000000E+00 -0.00000000000E+00 -0.45593999997E+02  0.45594000000E+02  0.51100000000E-03 0. -1.
    9900012    2    1    2    0    0 -0.14809038780E+02  0.29814944844E+02 -0.27845730120E+02  0.47787271302E+02  0.20000001173E+02 0.  0.
        -12    1    1    2    0    0  0.14809038780E+02 -0.29814944844E+02  0.27845730120E+02  0.43400728698E+02  0.00000000000E+00 0.  1.
         11    1    3    3    0    0 -0.46659357689E+01  0.11912862714E+02  0.19715235786E+00  0.12795550944E+02  0.51100000000E-03 0. -1.
        -11    1    3    3    0    0 -0.12441027023E+01  0.73044515795E+00 -0.10461485322E+01  0.17820686505E+01  0.51100000000E-03 0.  1.
         12    1    3    3    0    0 -0.88990003086E+01  0.17171636972E+02 -0.26996733946E+02  0.33209651707E+02  0.00000000000E+00 0. -1.
</event>
<event>
 7    1  0.2950722E-010  0.4778727E+02  0.7816164E-02  0.1312668E+00
        -11   -1    0    0    0    0  0.00000000000E+00  0.00000000000E+00  0.45593999997E+02  0.45594000000E+02  0.51100000000E-03 0.  1.
         11   -1    0    0    0    0 -0.00000000000E+00 -0.00000000000E+00 -0.45593999997E+02  0.45594000000E+02  0.51100000000E-03 0. -1.
    9900012    2    1    2    0    0  0.54417987812E+01  0.11719561876E+02 -0.41432618154E+02  0.47787272453E+02  0.20000006423E+02 0.  0.
        -12    1    1    2    0    0 -0.54417987812E+01 -0.11719561876E+02  0.41432618154E+02  0.43400727547E+02  0.00000000000E+00 0.  1.
         11    1    3    3    0    0  0.37056395283E-01  0.12009419357E+02 -0.13259635570E+02  0.17889814481E+02  0.51100000000E-03 0. -1.
        -11    1    3    3    0    0  0.62412971041E+01  0.58242773344E+00 -0.27979981491E+02  0.28673548369E+02  0.51100000000E-03 0.  1.
        -12    1    3    3    0    0 -0.83655471821E+00 -0.87228521503E+00 -0.19300109314E+00  0.12239096024E+01  0.00000000000E+00 0.  1.
</event>
<event>
 7    1  0.2950722E-010  0.4778727E+02  0.7816164E-02  0.1312668E+00
        -11   -1    0    0    0    0  0.00000000000E+00  0.00000000000E+00  0.45593999997E+02  0.45594000000E+02  0.51100000000E-03 0.  1.
         11   -1    0    0    0    0 -0.00000000000E+00 -0.00000000000E+00 -0.45593999997E+02  0.45594000000E+02  0.51100000000E-03 0. -1.
    9900012    2    1    2    0    0 -0.18017217893E+02 -0.18270107906E+02 -0.35002942632E+02  0.47787274471E+02  0.20000015624E+02 0.  0.
        -12    1    1    2    0    0  0.18017217893E+02  0.18270107906E+02  0.35002942632E+02  0.43400725529E+02  0.00000000000E+00 0.  1.
         11    1    3    3    0    0 -0.14362040215E+02 -0.22312847711E+02 -0.29865995617E+02  0.39951333727E+02  0.51100000000E-03 0. -1.
        -11    1    3    3    0    0 -0.38449338322E+01  0.31043320507E+01 -0.40659719882E+01  0.63994157643E+01  0.51100000000E-03 0.  1.
         12    1    3    3    0    0  0.18975615347E+00  0.93840775402E+00 -0.10709750272E+01  0.14365249804E+01  0.00000000000E+00 0. -1.
</event>
<event>
 7    1  0.2950722E-010  0.4778727E+02  0.7816164E-02  0.1312668E+00
        -11   -1    0    0    0    0  0.00000000000E+00  0.00000000000E+00  0.45593999997E+02  0.45594000000E+02  0.51100000000E-03 0. -1.
         11   -1    0    0    0    0 -0.00000000000E+00 -0.00000000000E+00 -0.45593999997E+02  0.45594000000E+02  0.51100000000E-03 0.  1.
    9900012    2    1    2    0    0  0.70725801227E+01  0.42300828006E+02 -0.66514669043E+01  0.47787268997E+02  0.19999990666E+02 0.  0.
        -12    1    1    2    0    0 -0.70725801227E+01 -0.42300828006E+02  0.66514669043E+01  0.43400731003E+02  0.00000000000E+00 0.  1.
         11    1    3    3    0    0  0.95470017631E+01  0.13547987652E+02 -0.78753465764E+01  0.18349776457E+02  0.51100000000E-03 0. -1.
        -11    1    3    3    0    0 -0.15504494068E+01  0.11663177844E+02  0.32420685313E+01  0.12204286928E+02  0.51100000000E-03 0.  1.
         12    1    3    3    0    0 -0.92397223357E+00  0.17089662510E+02 -0.20181888592E+01  0.17233205612E+02  0.00000000000E+00 0. -1.
</event>
<event>
 7    1  0.2950722E-010  0.4778728E+02  0.7816164E-02  0.1312668E+00
        -11   -1    0    0    0    0  0.00000000000E+00  0.00000000000E+00  0.45593999997E+02  0.45594000000E+02  0.51100000000E-03 0.  1.
         11   -1    0    0    0    0 -0.00000000000E+00 -0.00000000000E+00 -0.45593999997E+02  0.45594000000E+02  0.51100000000E-03 0. -1.
    9900012    2    1    2    0    0 -0.19497881069E+02 -0.23852853538E+02 -0.30569539759E+02  0.47787277089E+02  0.20000027561E+02 0.  0.
        -12    1    1    2    0    0  0.19497881069E+02  0.23852853538E+02  0.30569539759E+02  0.43400722911E+02  0.00000000000E+00 0.  1.
         11    1    3    3    0    0 -0.24674954220E+01 -0.28072770129E+01 -0.13476726238E+00  0.37399866793E+01  0.51100000000E-03 0. -1.
        -11    1    3    3    0    0  0.10185816325E+01 -0.30882881864E+00 -0.93263495593E+01  0.93868887362E+01  0.51100000000E-03 0.  1.
        -12    1    3    3    0    0 -0.18048967279E+02 -0.20736747706E+02 -0.21108422938E+02  0.34660401674E+02  0.00000000000E+00 0.  1.
</event>
<event>
 7    1  0.2950722E-010  0.4778727E+02  0.7816164E-02  0.1312668E+00
        -11   -1    0    0    0    0  0.00000000000E+00  0.00000000000E+00  0.45593999997E+02  0.45594000000E+02  0.51100000000E-03 0.  1.
         11   -1    0    0    0    0 -0.00000000000E+00 -0.00000000000E+00 -0.45593999997E+02  0.45594000000E+02  0.51100000000E-03 0. -1.
    9900012    2    1    2    0    0 -0.30517619293E+02  0.23338709104E+02 -0.20189176006E+02  0.47787271230E+02  0.20000000847E+02 0.  0.
        -12    1    1    2    0    0  0.30517619293E+02 -0.23338709104E+02  0.20189176006E+02  0.43400728770E+02  0.00000000000E+00 0.  1.
         11    1    3    3    0    0 -0.96902924511E+01 -0.17908640547E+01 -0.27095367632E+01  0.10220105263E+02  0.51100000000E-03 0. -1.
        -11    1    3    3    0    0 -0.11715068712E+01 -0.15884695325E+00 -0.99367563912E+00  0.15443614346E+01  0.51100000000E-03 0.  1.
         12    1    3    3    0    0 -0.19655819971E+02  0.25288420112E+02 -0.16485963603E+02  0.36022804533E+02  0.00000000000E+00 0. -1.
</event>
<event>
 7    1  0.2950722E-010  0.4778727E+02  0.7816164E-02  0.1312668E+00
        -11   -1    0    0    0    0  0.00000000000E+00  0.00000000000E+00  0.45593999997E+02  0.45594000000E+02  0.51100000000E-03 0. -1.
         11   -1    0    0    0    0 -0.00000000000E+00 -0.00000000000E+00 -0.45593999997E+02  0.45594000000E+02  0.51100000000E-03 0.  1.
    9900012    2    1    2    0    0 -0.14080560090E+02 -0.12612955860E+01  0.41033771595E+02  0.47787269012E+02  0.19999990735E+02 0.  0.
        -12    1    1    2    0    0  0.14080560090E+02  0.12612955860E+01 -0.41033771595E+02  0.43400730988E+02  0.00000000000E+00 0.  1.
         11    1    3    3    0    0 -0.18235702986E+01 -0.55046759811E+01  0.27556838896E+02  0.28160366413E+02  0.51100000000E-03 0. -1.
        -11    1    3    3    0    0 -0.24732595280E+01  0.27474349619E+01  0.12635382107E+01  0.39066533803E+01  0.51100000000E-03 0.  1.
         12    1    3    3    0    0 -0.97837302632E+01  0.14959454332E+01  0.12213394488E+02  0.15720249219E+02  0.00000000000E+00 0. -1.
</event>
<event>
 7    1  0.2950722E-010  0.4778727E+02  0.7816164E-02  0.1312668E+00
        -11   -1    0    0    0    0  0.00000000000E+00  0.00000000000E+00  0.45593999997E+02  0.45594000000E+02  0.51100000000E-03 0. -1.
         11   -1    0    0    0    0 -0.00000000000E+00 -0.00000000000E+00 -0.45593999997E+02  0.45594000000E+02  0.51100000000E-03 0.  1.
    9900012    2    1    2    0    0  0.20406803062E+02 -0.61272692434E+01  0.37810605601E+02  0.47787274942E+02  0.20000017772E+02 0.  0.
        -12    1    1    2    0    0 -0.20406803062E+02  0.61272692434E+01 -0.37810605601E+02  0.43400725058E+02  0.00000000000E+00 0.  1.
         11    1    3    3    0    0  0.22921784862E+01 -0.75315009399E+01  0.13014533481E+02  0.15210380357E+02  0.51100000000E-03 0. -1.
        -11    1    3    3    0    0  0.10916954976E+00 -0.26469719339E+01  0.36438159009E+01  0.45050830171E+01  0.51100000000E-03 0.  1.
         12    1    3    3    0    0  0.18005455026E+02  0.40512036304E+01  0.21152256220E+02  0.28071811568E+02  0.00000000000E+00 0. -1.
</event>
<event>
 7    1  0.2950722E-010  0.4778727E+02  0.7816164E-02  0.1312668E+00
        -11   -1    0    0    0    0  0.00000000000E+00  0.00000000000E+00  0.45593999997E+02  0.45594000000E+02  0.51100000000E-03 0.  1.
         11   -1    0    0    0    0 -0.00000000000E+00 -0.00000000000E+00 -0.45593999997E+02  0.45594000000E+02  0.51100000000E-03 0. -1.
    9900012    2    1    2    0    0 -0.13312073326E+01  0.34927137167E+02 -0.25728313456E+02  0.47787272622E+02  0.20000007193E+02 0.  0.
        -12    1    1    2    0    0  0.13312073326E+01 -0.34927137167E+02  0.25728313456E+02  0.43400727378E+02  0.00000000000E+00 0.  1.
         11    1    3    3    0    0 -0.18031473563E+01  0.29646843541E+02 -0.15848870257E+02  0.33665610956E+02  0.51100000000E-03 0. -1.
        -11    1    3    3    0    0 -0.24481877820E+01  0.63990583890E+01 -0.77176676991E+01  0.10320075904E+02  0.51100000000E-03 0.  1.
         12    1    3    3    0    0  0.29201278057E+01 -0.11187647634E+01 -0.21617755004E+01  0.38015857628E+01  0.00000000000E+00 0. -1.
</event>
<event>
 7    1  0.2950722E-010  0.4778727E+02  0.7816164E-02  0.1312668E+00
        -11   -1    0    0    0    0  0.00000000000E+00  0.00000000000E+00  0.45593999997E+02  0.45594000000E+02  0.51100000000E-03 0.  1.
         11   -1    0    0    0    0 -0.00000000000E+00 -0.00000000000E+00 -0.45593999997E+02  0.45594000000E+02  0.51100000000E-03 0. -1.
    9900012    2    1    2    0    0  0.55664903367E+01  0.37107225592E+02  0.21810347163E+02  0.47787271329E+02  0.20000001296E+02 0.  0.
        -12    1    1    2    0    0 -0.55664903367E+01 -0.37107225592E+02 -0.21810347163E+02  0.43400728671E+02  0.00000000000E+00 0.  1.
         11    1    3    3    0    0  0.30419264731E+01  0.76446396469E+01  0.24029485449E+01  0.85713472669E+01  0.51100000000E-03 0. -1.
        -11    1    3    3    0    0 -0.25063070193E+01  0.13263931983E+02  0.77086303966E-01  0.13498866956E+02  0.51100000000E-03 0.  1.
        -12    1    3    3    0    0  0.50308708828E+01  0.16198653962E+02  0.19330312314E+02  0.25717057106E+02  0.00000000000E+00 0.  1.
</event>
<event>
 7    1  0.2950722E-010  0.4778727E+02  0.7816164E-02  0.1312668E+00
        -11   -1    0    0    0    0  0.00000000000E+00  0.00000000000E+00  0.45593999997E+02  0.45594000000E+02  0.51100000000E-03 0. -1.
         11   -1    0    0    0    0 -0.00000000000E+00 -0.00000000000E+00 -0.45593999997E+02  0.45594000000E+02  0.51100000000E-03 0.  1.
    9900012    2    1    2    0    0  0.12884314832E+02  0.29014642704E+02  0.29593382664E+02  0.47787270082E+02  0.19999995612E+02 0.  0.
        -12    1    1    2    0    0 -0.12884314832E+02 -0.29014642704E+02 -0.29593382664E+02  0.43400729918E+02  0.00000000000E+00 0.  1.
         11    1    3    3    0    0  0.14952259647E+02  0.28961557573E+02  0.21297214187E+02  0.38934730229E+02  0.51100000000E-03 0. -1.
        -11    1    3    3    0    0 -0.14519346935E+00 -0.14725003342E+00  0.51887798335E+01  0.51928990109E+01  0.51100000000E-03 0.  1.
         12    1    3    3    0    0 -0.19227513455E+01  0.20033516413E+00  0.31073886430E+01  0.36596408422E+01  0.00000000000E+00 0. -1.
</event>
<event>
 7    1  0.2950722E-010  0.4778727E+02  0.7816164E-02  0.1312668E+00
        -11   -1    0    0    0    0  0.00000000000E+00  0.00000000000E+00  0.45593999997E+02  0.45594000000E+02  0.51100000000E-03 0.  1.
         11   -1    0    0    0    0 -0.00000000000E+00 -0.00000000000E+00 -0.45593999997E+02  0.45594000000E+02  0.51100000000E-03 0. -1.
    9900012    2    1    2    0    0  0.26186882930E+02 -0.11629348642E+02 -0.32597983957E+02  0.47787272524E+02  0.20000006744E+02 0.  0.
        -12    1    1    2    0    0 -0.26186882930E+02  0.11629348642E+02  0.32597983957E+02  0.43400727476E+02  0.00000000000E+00 0.  1.
         11    1    3    3    0    0  0.16548793178E+02 -0.43569601142E+01 -0.11629738912E+02  0.20690492611E+02  0.51100000000E-03 0. -1.
        -11    1    3    3    0    0  0.94484084350E+01 -0.86126519565E+01 -0.21965671928E+02  0.25415368170E+02  0.51100000000E-03 0.  1.
        -12    1    3    3    0    0  0.18968131729E+00  0.13402634288E+01  0.99742688331E+00  0.16814117427E+01  0.00000000000E+00 0.  1.
</event>
<event>
 7    1  0.2950722E-010  0.4778727E+02  0.7816164E-02  0.1312668E+00
        -11   -1    0    0    0    0  0.00000000000E+00  0.00000000000E+00  0.45593999997E+02  0.45594000000E+02  0.51100000000E-03 0.  1.
         11   -1    0    0    0    0 -0.00000000000E+00 -0.00000000000E+00 -0.45593999997E+02  0.45594000000E+02  0.51100000000E-03 0. -1.
    9900012    2    1    2    0    0  0.10307119877E+02  0.40640965130E+02  0.11211534367E+02  0.47787271092E+02  0.20000000218E+02 0.  0.
        -12    1    1    2    0    0 -0.10307119877E+02 -0.40640965130E+02 -0.11211534367E+02  0.43400728908E+02  0.00000000000E+00 0.  1.
         11    1    3    3    0    0  0.69154721061E+01  0.26917829626E+02  0.85302775830E+01  0.29071617467E+02  0.51100000000E-03 0. -1.
        -11    1    3    3    0    0  0.17712142212E+01  0.72833869801E+01 -0.46525344656E+01  0.88221881035E+01  0.51100000000E-03 0.  1.
         12    1    3    3    0    0  0.16204335499E+01  0.64397485233E+01  0.73337912500E+01  0.98934655218E+01  0.00000000000E+00 0. -1.
</event>
<event>
 7    1  0.2950722E-010  0.4778727E+02  0.7816164E-02  0.1312668E+00
        -11   -1    0    0    0    0  0.00000000000E+00  0.00000000000E+00  0.45593999997E+02  0.45594000000E+02  0.51100000000E-03 0.  1.
         11   -1    0    0    0    0 -0.00000000000E+00 -0.00000000000E+00 -0.45593999997E+02  0.45594000000E+02  0.51100000000E-03 0. -1.
    9900012    2    1    2    0    0 -0.39877192585E+02 -0.16085834378E+02 -0.58888651377E+01  0.47787270874E+02  0.19999999223E+02 0.  0.
        -12    1    1    2    0    0  0.39877192585E+02  0.16085834378E+02  0.58888651377E+01  0.43400729126E+02  0.00000000000E+00 0.  1.
         11    1    3    3    0    0 -0.51309804877E+01 -0.42138521865E+01 -0.31727992397E+01  0.73586796568E+01  0.51100000000E-03 0. -1.
        -11    1    3    3    0    0 -0.23818442973E+02 -0.14972065159E+02  0.18321531208E+01  0.28192866936E+02  0.51100000000E-03 0.  1.
        -12    1    3    3    0    0 -0.10927769124E+02  0.31000829675E+01 -0.45482190187E+01  0.12235724281E+02  0.00000000000E+00 0.  1.
</event>
<event>
 7    1  0.2950722E-010  0.4778727E+02  0.7816164E-02  0.1312668E+00
        -11   -1    0    0    0    0  0.00000000000E+00  0.00000000000E+00  0.45593999997E+02  0.45594000000E+02  0.51100000000E-03 0.  1.
         11   -1    0    0    0    0 -0.00000000000E+00 -0.00000000000E+00 -0.45593999997E+02  0.45594000000E+02  0.51100000000E-03 0. -1.
    9900012    2    1    2    0    0 -0.10792790008E+02  0.42033576124E+02 -0.56330254648E+00  0.47787272498E+02  0.20000006627E+02 0.  0.
        -12    1    1    2    0    0  0.10792790008E+02 -0.42033576124E+02  0.56330254648E+00  0.43400727502E+02  0.00000000000E+00 0.  1.
         11    1    3    3    0    0 -0.72853589414E+01  0.25526257830E+02 -0.13730761878E+01  0.26581038960E+02  0.51100000000E-03 0. -1.
        -11    1    3    3    0    0  0.34708061444E+01  0.26625838257E+01  0.33314079994E+01  0.54985568507E+01  0.51100000000E-03 0.  1.
        -12    1    3    3    0    0 -0.69782372110E+01  0.13844734469E+02 -0.25216343582E+01  0.15707676687E+02  0.00000000000E+00 0.  1.
</event>
<event>
 7    1  0.2950722E-010  0.4778727E+02  0.7816164E-02  0.1312668E+00
        -11   -1    0    0    0    0  0.00000000000E+00  0.00000000000E+00  0.45593999997E+02  0.45594000000E+02  0.51100000000E-03 0. -1.
         11   -1    0    0    0    0 -0.00000000000E+00 -0.00000000000E+00 -0.45593999997E+02  0.45594000000E+02  0.51100000000E-03 0.  1.
    9900012    2    1    2    0    0 -0.36154856819E+02 -0.19748725271E+02 -0.13654212396E+02  0.47787270310E+02  0.19999996652E+02 0.  0.
        -12    1    1    2    0    0  0.36154856819E+02  0.19748725271E+02  0.13654212396E+02  0.43400729690E+02  0.00000000000E+00 0.  1.
         11    1    3    3    0    0 -0.10174822322E+02 -0.64727457122E+00 -0.16119128806E+01  0.10322026790E+02  0.51100000000E-03 0. -1.
        -11    1    3    3    0    0 -0.54481871337E+01 -0.11127101037E+02 -0.56948906915E-01  0.12389445669E+02  0.51100000000E-03 0.  1.
        -12    1    3    3    0    0 -0.20531847364E+02 -0.79743496629E+01 -0.11985350608E+02  0.25075797852E+02  0.00000000000E+00 0.  1.
</event>
<event>
 7    1  0.2950722E-010  0.4778727E+02  0.7816164E-02  0.1312668E+00
        -11   -1    0    0    0    0  0.00000000000E+00  0.00000000000E+00  0.45593999997E+02  0.45594000000E+02  0.51100000000E-03 0. -1.
         11   -1    0    0    0    0 -0.00000000000E+00 -0.00000000000E+00 -0.45593999997E+02  0.45594000000E+02  0.51100000000E-03 0.  1.
    9900012    2    1    2    0    0 -0.48364258870E+01 -0.16160559156E+02  0.39988357126E+02  0.47787269670E+02  0.19999993732E+02 0.  0.
        -12    1    1    2    0    0  0.48364258870E+01  0.16160559156E+02 -0.39988357126E+02  0.43400730330E+02  0.00000000000E+00 0.  1.
         11    1    3    3    0    0 -0.58242129390E+01 -0.61585750747E+01  0.17985072876E+02  0.19882463377E+02  0.51100000000E-03 0. -1.
        -11    1    3    3    0    0  0.11614168437E+01  0.52294926336E+00  0.15455976240E+02  0.15508370862E+02  0.51100000000E-03 0.  1.
        -12    1    3    3    0    0 -0.17362979167E+00 -0.10524933344E+02  0.65473080101E+01  0.12396435431E+02  0.00000000000E+00 0.  1.
</event>
<event>
 7    1  0.2950722E-010  0.4778727E+02  0.7816164E-02  0.1312668E+00
        -11   -1    0    0    0    0  0.00000000000E+00  0.00000000000E+00  0.45593999997E+02  0.45594000000E+02  0.51100000000E-03 0.  1.
         11   -1    0    0    0    0 -0.00000000000E+00 -0.00000000000E+00 -0.45593999997E+02  0.45594000000E+02  0.51100000000E-03 0. -1.
    9900012    2    1    2    0    0  0.18665923110E+02  0.17998444500E+02 -0.34803195817E+02  0.47787272712E+02  0.20000007605E+02 0.  0.
        -12    1    1    2    0    0 -0.18665923110E+02 -0.17998444500E+02  0.34803195817E+02  0.43400727288E+02  0.00000000000E+00 0.  1.
         11    1    3    3    0    0  0.33541192411E+01  0.13505842762E+02 -0.68232693301E+01  0.15498867997E+02  0.51100000000E-03 0. -1.
        -11    1    3    3    0    0  0.84886088333E+01  0.24646429513E+01 -0.17703091812E+02  0.19787127249E+02  0.51100000000E-03 0.  1.
         12    1    3    3    0    0  0.68231950359E+01  0.20279587869E+01 -0.10276834675E+02  0.12501277466E+02  0.00000000000E+00 0. -1.
</event>
<event>
 7    1  0.2950722E-010  0.4778731E+02  0.7816164E-02  0.1312668E+00
        -11   -1    0    0    0    0  0.00000000000E+00  0.00000000000E+00  0.45593999997E+02  0.45594000000E+02  0.51100000000E-03 0.  1.
         11   -1    0    0    0    0 -0.00000000000E+00 -0.00000000000E+00 -0.45593999997E+02  0.45594000000E+02  0.51100000000E-03 0. -1.
    9900012    2    1    2    0    0  0.81975042564E+01  0.98246331138E+01 -0.41471647162E+02  0.47787308644E+02  0.20000171429E+02 0.  0.
        -12    1    1    2    0    0 -0.81975042564E+01 -0.98246331138E+01  0.41471647162E+02  0.43400691356E+02  0.00000000000E+00 0.  1.
         11    1    3    3    0    0  0.22639997113E+01  0.10772956369E+02 -0.28956461874E+02  0.30978362903E+02  0.51100000000E-03 0. -1.
        -11    1    3    3    0    0  0.16622280419E+01  0.41460221898E+01 -0.39213869459E+01  0.59438857578E+01  0.51100000000E-03 0.  1.
         12    1    3    3    0    0  0.42712765032E+01 -0.50943454452E+01 -0.85937983425E+01  0.10865059983E+02  0.00000000000E+00 0. -1.
</event>
<event>
 7    1  0.2950722E-010  0.4778727E+02  0.7816164E-02  0.1312668E+00
        -11   -1    0    0    0    0  0.00000000000E+00  0.00000000000E+00  0.45593999997E+02  0.45594000000E+02  0.51100000000E-03 0.  1.
         11   -1    0    0    0    0 -0.00000000000E+00 -0.00000000000E+00 -0.45593999997E+02  0.45594000000E+02  0.51100000000E-03 0. -1.
    9900012    2    1    2    0    0  0.19279771005E+02 -0.24246043948E+02 -0.30398078723E+02  0.47787269509E+02  0.19999992999E+02 0.  0.
        -12    1    1    2    0    0 -0.19279771005E+02  0.24246043948E+02  0.30398078723E+02  0.43400730491E+02  0.00000000000E+00 0.  1.
         11    1    3    3    0    0  0.81880495891E+01  0.10744625867E+01 -0.61425977397E+01  0.10292236549E+02  0.51100000000E-03 0. -1.
        -11    1    3    3    0    0 -0.10361291606E+01 -0.15261331294E+01 -0.20951641246E+01  0.27914797037E+01  0.51100000000E-03 0.  1.
         12    1    3    3    0    0  0.12127850576E+02 -0.23794373405E+02 -0.22160316859E+02  0.34703553256E+02  0.00000000000E+00 0. -1.
</event>
<event>
 7    1  0.2950722E-010  0.4778727E+02  0.7816164E-02  0.1312668E+00
        -11   -1    0    0    0    0  0.00000000000E+00  0.00000000000E+00  0.45593999997E+02  0.45594000000E+02  0.51100000000E-03 0. -1.
         11   -1    0    0    0    0 -0.00000000000E+00 -0.00000000000E+00 -0.45593999997E+02  0.45594000000E+02  0.51100000000E-03 0.  1.
    9900012    2    1    2    0    0  0.33512168751E+02 -0.13932275019E+02  0.23800197507E+02  0.47787272553E+02  0.20000006877E+02 0.  0.
        -12    1    1    2    0    0 -0.33512168751E+02  0.13932275019E+02 -0.23800197507E+02  0.43400727447E+02  0.00000000000E+00 0.  1.
         11    1    3    3    0    0  0.10733516557E+02 -0.34166511227E+01 -0.99849331711E+00  0.11308354069E+02  0.51100000000E-03 0. -1.
        -11    1    3    3    0    0 -0.46068936535E+00 -0.12981473723E+00 -0.42760094743E+00  0.64181725492E+00  0.51100000000E-03 0.  1.
         12    1    3    3    0    0  0.23239341559E+02 -0.10385809159E+02  0.25226291771E+02  0.35837101229E+02  0.00000000000E+00 0. -1.
</event>
<event>
 7    1  0.2950722E-010  0.4778727E+02  0.7816164E-02  0.1312668E+00
        -11   -1    0    0    0    0  0.00000000000E+00  0.00000000000E+00  0.45593999997E+02  0.45594000000E+02  0.51100000000E-03 0. -1.
         11   -1    0    0    0    0 -0.00000000000E+00 -0.00000000000E+00 -0.45593999997E+02  0.45594000000E+02  0.51100000000E-03 0.  1.
    9900012    2    1    2    0    0  0.32024791913E+02 -0.10419919447E+02  0.27376291968E+02  0.47787269819E+02  0.19999994412E+02 0.  0.
        -12    1    1    2    0    0 -0.32024791913E+02  0.10419919447E+02 -0.27376291968E+02  0.43400730181E+02  0.00000000000E+00 0.  1.
         11    1    3    3    0    0  0.24361191507E+02 -0.47651478842E+01  0.81950679392E+01  0.26140646985E+02  0.51100000000E-03 0. -1.
        -11    1    3    3    0    0  0.20399103377E+01 -0.22280260878E+00  0.57525284321E+01  0.61075738891E+01  0.51100000000E-03 0.  1.
         12    1    3    3    0    0  0.56236900688E+01 -0.54319689537E+01  0.13428695596E+02  0.15539048945E+02  0.00000000000E+00 0. -1.
</event>
<event>
 7    1  0.2950722E-010  0.4778727E+02  0.7816164E-02  0.1312668E+00
        -11   -1    0    0    0    0  0.00000000000E+00  0.00000000000E+00  0.45593999997E+02  0.45594000000E+02  0.51100000000E-03 0.  1.
         11   -1    0    0    0    0 -0.00000000000E+00 -0.00000000000E+00 -0.45593999997E+02  0.45594000000E+02  0.51100000000E-03 0. -1.
    9900012    2    1    2    0    0 -0.18747406528E+02  0.37475696017E+02 -0.11301775281E+02  0.47787272264E+02  0.20000005561E+02 0.  0.
        -12    1    1    2    0    0  0.18747406528E+02 -0.37475696017E+02  0.11301775281E+02  0.43400727736E+02  0.00000000000E+00 0.  1.
         11    1    3    3    0    0 -0.32696863988E+01  0.49826621100E+01 -0.24198753016E+01  0.64322288194E+01  0.51100000000E-03 0. -1.
        -11    1    3    3    0    0 -0.11393004758E+02  0.33681071570E+02 -0.56261947531E+01  0.35998183387E+02  0.51100000000E-03 0.  1.
        -12    1    3    3    0    0 -0.40847153716E+01 -0.11880376629E+01 -0.32557052259E+01  0.53568600573E+01  0.00000000000E+00 0.  1.
</event>
<event>
 7    1  0.2950722E-010  0.4778727E+02  0.7816164E-02  0.1312668E+00
        -11   -1    0    0    0    0  0.00000000000E+00  0.00000000000E+00  0.45593999997E+02  0.45594000000E+02  0.51100000000E-03 0. -1.
         11   -1    0    0    0    0 -0.00000000000E+00 -0.00000000000E+00 -0.45593999997E+02  0.45594000000E+02  0.51100000000E-03 0.  1.
    9900012    2    1    2    0    0  0.16248762620E+02 -0.39940947480E+02  0.49317237626E+01  0.47787268768E+02  0.19999989619E+02 0.  0.
        -12    1    1    2    0    0 -0.16248762620E+02  0.39940947480E+02 -0.49317237626E+01  0.43400731232E+02  0.00000000000E+00 0.  1.
         11    1    3    3    0    0  0.85796901537E+01 -0.15025711721E+02  0.45098663008E+01  0.17880771520E+02  0.51100000000E-03 0. -1.
        -11    1    3    3    0    0  0.12467737258E+01 -0.23090048681E+02 -0.71018781096E+00  0.23134587954E+02  0.51100000000E-03 0.  1.
        -12    1    3    3    0    0  0.64222987400E+01 -0.18251870776E+01  0.11320452728E+01  0.67719092931E+01  0.00000000000E+00 0.  1.
</event>
<event>
 7    1  0.2950722E-010  0.4778728E+02  0.7816164E-02  0.1312668E+00
        -11   -1    0    0    0    0  0.00000000000E+00  0.00000000000E+00  0.45593999997E+02  0.45594000000E+02  0.51100000000E-03 0.  1.
         11   -1    0    0    0    0 -0.00000000000E+00 -0.00000000000E+00 -0.45593999997E+02  0.45594000000E+02  0.51100000000E-03 0. -1.
    9900012    2    1    2    0    0 -0.12817775920E+01 -0.11071267437E+02 -0.41945280895E+02  0.47787279893E+02  0.20000040344E+02 0.  0.
        -12    1    1    2    0    0  0.12817775920E+01  0.11071267437E+02  0.41945280895E+02  0.43400720107E+02  0.00000000000E+00 0.  1.
         11    1    3    3    0    0  0.92278123265E+00 -0.63859280812E+01 -0.12838725379E+02  0.14368871643E+02  0.51100000000E-03 0. -1.
        -11    1    3    3    0    0 -0.57855270574E+01 -0.50907794793E+01 -0.53293706588E+01  0.93696611955E+01  0.51100000000E-03 0.  1.
        -12    1    3    3    0    0  0.35809682328E+01  0.40544012396E+00 -0.23777184857E+02  0.24048747055E+02  0.00000000000E+00 0.  1.
</event>
<event>
 7    1  0.2950722E-010  0.4778727E+02  0.7816164E-02  0.1312668E+00
        -11   -1    0    0    0    0  0.00000000000E+00  0.00000000000E+00  0.45593999997E+02  0.45594000000E+02  0.51100000000E-03 0. -1.
         11   -1    0    0    0    0 -0.00000000000E+00 -0.00000000000E+00 -0.45593999997E+02  0.45594000000E+02  0.51100000000E-03 0.  1.
    9900012    2    1    2    0    0 -0.34921872354E+02 -0.13663982951E+02  0.21849066192E+02  0.47787270833E+02  0.19999999034E+02 0.  0.
        -12    1    1    2    0    0  0.34921872354E+02  0.13663982951E+02 -0.21849066192E+02  0.43400729167E+02  0.00000000000E+00 0.  1.
         11    1    3    3    0    0 -0.69528775158E+01 -0.56905196272E+01  0.53301382781E+01  0.10446764748E+02  0.51100000000E-03 0. -1.
        -11    1    3    3    0    0 -0.18656789337E+02 -0.53388319600E+01  0.14868277183E+01  0.19462517103E+02  0.51100000000E-03 0.  1.
        -12    1    3    3    0    0 -0.93122055013E+01 -0.26346313636E+01  0.15032100196E+02  0.17877988981E+02  0.00000000000E+00 0.  1.
</event>
<event>
 7    1  0.2950722E-010  0.4778727E+02  0.7816164E-02  0.1312668E+00
        -11   -1    0    0    0    0  0.00000000000E+00  0.00000000000E+00  0.45593999997E+02  0.45594000000E+02  0.51100000000E-03 0.  1.
         11   -1    0    0    0    0 -0.00000000000E+00 -0.00000000000E+00 -0.45593999997E+02  0.45594000000E+02  0.51100000000E-03 0. -1.
    9900012    2    1    2    0    0  0.38584363310E+02 -0.66517206623E+01  0.18724983945E+02  0.47787268399E+02  0.19999987936E+02 0.  0.
        -12    1    1    2    0    0 -0.38584363310E+02  0.66517206623E+01 -0.18724983945E+02  0.43400731601E+02  0.00000000000E+00 0.  1.
         11    1    3    3    0    0  0.43517034719E+01  0.44677411357E+01  0.57007681285E+01  0.84496622109E+01  0.51100000000E-03 0. -1.
        -11    1    3    3    0    0  0.16789734187E+02 -0.64081969540E+01  0.17858121986E+01  0.18059603753E+02  0.51100000000E-03 0.  1.
         12    1    3    3    0    0  0.17442925651E+02 -0.47112648440E+01  0.11238403618E+02  0.21278002434E+02  0.00000000000E+00 0. -1.
</event>
<event>
 7    1  0.2950722E-010  0.4778726E+02  0.7816164E-02  0.1312668E+00
        -11   -1    0    0    0    0  0.00000000000E+00  0.00000000000E+00  0.45593999997E+02  0.45594000000E+02  0.51100000000E-03 0.  1.
         11   -1    0    0    0    0 -0.00000000000E+00 -0.00000000000E+00 -0.45593999997E+02  0.45594000000E+02  0.51100000000E-03 0. -1.
    9900012    2    1    2    0    0  0.10882601245E+02 -0.10944335651E+02 -0.40563707209E+02  0.47787264577E+02  0.19999970512E+02 0.  0.
        -12    1    1    2    0    0 -0.10882601245E+02  0.10944335651E+02  0.40563707209E+02  0.43400735423E+02  0.00000000000E+00 0.  1.
         11    1    3    3    0    0  0.68171289372E+01 -0.43662003142E+01 -0.34266705745E+02  0.35209999645E+02  0.51100000000E-03 0. -1.
        -11    1    3    3    0    0 -0.16087155278E+00 -0.45885149612E+01  0.17606812247E+00  0.45947088537E+01  0.51100000000E-03 0.  1.
         12    1    3    3    0    0  0.42263438605E+01 -0.19896203753E+01 -0.64730695870E+01  0.79825560783E+01  0.00000000000E+00 0. -1.
</event>
<event>
 7    1  0.2950722E-010  0.4778727E+02  0.7816164E-02  0.1312668E+00
        -11   -1    0    0    0    0  0.00000000000E+00  0.00000000000E+00  0.45593999997E+02  0.45594000000E+02  0.51100000000E-03 0.  1.
         11   -1    0    0    0    0 -0.00000000000E+00 -0.00000000000E+00 -0.45593999997E+02  0.45594000000E+02  0.51100000000E-03 0. -1.
    9900012    2    1    2    0    0 -0.15706874456E+01 -0.22007420977E+02 -0.37374182986E+02  0.47787272000E+02  0.20000004355E+02 0.  0.
        -12    1    1    2    0    0  0.15706874456E+01  0.22007420977E+02  0.37374182986E+02  0.43400728000E+02  0.00000000000E+00 0.  1.
         11    1    3    3    0    0 -0.27226384470E+01 -0.17430539429E+02 -0.17275754278E+02  0.24691864066E+02  0.51100000000E-03 0. -1.
        -11    1    3    3    0    0  0.34258011308E+01  0.93384963477E+00 -0.14461088321E+02  0.14890643512E+02  0.51100000000E-03 0.  1.
        -12    1    3    3    0    0 -0.22738501294E+01 -0.55107311826E+01 -0.56373403866E+01  0.82047644215E+01  0.00000000000E+00 0.  1.
</event>
<event>
 7    1  0.2950722E-010  0.4778728E+02  0.7816164E-02  0.1312668E+00
        -11   -1    0    0    0    0  0.00000000000E+00  0.00000000000E+00  0.45593999997E+02  0.45594000000E+02  0.51100000000E-03 0.  1.
         11   -1    0    0    0    0 -0.00000000000E+00 -0.00000000000E+00 -0.45593999997E+02  0.45594000000E+02  0.51100000000E-03 0. -1.
    9900012    2    1    2    0    0 -0.73625586252E+01 -0.55999253484E+01 -0.42403494731E+02  0.47787276517E+02  0.20000024952E+02 0.  0.
        -12    1    1    2    0    0  0.73625586252E+01  0.55999253484E+01  0.42403494731E+02  0.43400723483E+02  0.00000000000E+00 0.  1.
         11    1    3    3    0    0 -0.71957790349E+01  0.21914043906E+01 -0.32362985560E+02  0.33225657612E+02  0.51100000000E-03 0. -1.
        -11    1    3    3    0    0 -0.59441518454E+00 -0.57019570550E+01 -0.17393942009E+01  0.59909211409E+01  0.51100000000E-03 0.  1.
         12    1    3    3    0    0  0.42763559426E+00 -0.20893726840E+01 -0.83011149702E+01  0.85706977640E+01  0.00000000000E+00 0. -1.
</event>
<event>
 7    1  0.2950722E-010  0.4778729E+02  0.7816164E-02  0.1312668E+00
        -11   -1    0    0    0    0  0.00000000000E+00  0.00000000000E+00  0.45593999997E+02  0.45594000000E+02  0.51100000000E-03 0. -1.
         11   -1    0    0    0    0 -0.00000000000E+00 -0.00000000000E+00 -0.45593999997E+02  0.45594000000E+02  0.51100000000E-03 0.  1.
    9900012    2    1    2    0    0  0.36957011639E+02 -0.14956455604E+02 -0.17149489485E+02  0.47787294209E+02  0.20000105618E+02 0.  0.
        -12    1    1    2    0    0 -0.36957011639E+02  0.14956455604E+02  0.17149489485E+02  0.43400705791E+02  0.00000000000E+00 0.  1.
         11    1    3    3    0    0  0.18849259507E+02 -0.17214890461E+01 -0.33115939887E+01  0.19215222182E+02  0.51100000000E-03 0. -1.
        -11    1    3    3    0    0  0.29147552351E+01 -0.63503450734E+01 -0.86171432741E+01  0.11094045209E+02  0.51100000000E-03 0.  1.
        -12    1    3    3    0    0  0.15192996897E+02 -0.68846214845E+01 -0.52207522223E+01  0.17478026819E+02  0.00000000000E+00 0.  1.
</event>
<event>
 7    1  0.2950722E-010  0.4778727E+02  0.7816164E-02  0.1312668E+00
        -11   -1    0    0    0    0  0.00000000000E+00  0.00000000000E+00  0.45593999997E+02  0.45594000000E+02  0.51100000000E-03 0.  1.
         11   -1    0    0    0    0 -0.00000000000E+00 -0.00000000000E+00 -0.45593999997E+02  0.45594000000E+02  0.51100000000E-03 0. -1.
    9900012    2    1    2    0    0 -0.28256316897E+02  0.10731171387E+02 -0.31145555576E+02  0.47787272862E+02  0.20000008289E+02 0.  0.
        -12    1    1    2    0    0  0.28256316897E+02 -0.10731171387E+02  0.31145555576E+02  0.43400727138E+02  0.00000000000E+00 0.  1.
         11    1    3    3    0    0 -0.92684603472E+01  0.68458568824E+01 -0.67076249341E+01  0.13332754636E+02  0.51100000000E-03 0. -1.
        -11    1    3    3    0    0 -0.79936953660E+01  0.90012754449E+01 -0.13908856705E+02  0.18395065109E+02  0.51100000000E-03 0.  1.
        -12    1    3    3    0    0 -0.10994161184E+02 -0.51159609403E+01 -0.10529073937E+02  0.16059453118E+02  0.00000000000E+00 0.  1.
</event>
<event>
 7    1  0.2950722E-010  0.4778727E+02  0.7816164E-02  0.1312668E+00
        -11   -1    0    0    0    0  0.00000000000E+00  0.00000000000E+00  0.45593999997E+02  0.45594000000E+02  0.51100000000E-03 0.  1.
         11   -1    0    0    0    0 -0.00000000000E+00 -0.00000000000E+00 -0.45593999997E+02  0.45594000000E+02  0.51100000000E-03 0. -1.
    9900012    2    1    2    0    0 -0.17207427575E+02 -0.38527704113E+02 -0.10155966384E+02  0.47787271882E+02  0.20000003820E+02 0.  0.
        -12    1    1    2    0    0  0.17207427575E+02  0.38527704113E+02  0.10155966384E+02  0.43400728118E+02  0.00000000000E+00 0.  1.
         11    1    3    3    0    0 -0.12264145928E+02 -0.27266217451E+02 -0.10451436907E+02  0.31671571213E+02  0.51100000000E-03 0. -1.
        -11    1    3    3    0    0 -0.73172635792E+01 -0.66742108771E+01  0.29153699737E+01  0.10324089280E+02  0.51100000000E-03 0.  1.
        -12    1    3    3    0    0  0.23739819330E+01 -0.45872757848E+01 -0.26198994514E+01  0.57916113888E+01  0.00000000000E+00 0.  1.
</event>
<event>
 7    1  0.3361533E-010  0.4778727E+02  0.7816164E-02  0.1312668E+00
        -11   -1    0    0    0    0  0.00000000000E+00  0.00000000000E+00  0.45593999997E+02  0.45594000000E+02  0.51100000000E-03 0.  1.
         11   -1    0    0    0    0 -0.00000000000E+00 -0.00000000000E+00 -0.45593999997E+02  0.45594000000E+02  0.51100000000E-03 0. -1.
    9900012    2    1    2    0    0  0.15082556631E+02 -0.38733731289E+02  0.12483515516E+02  0.47787267129E+02  0.19999982148E+02 0.  0.
        -12    1    1    2    0    0 -0.15082556631E+02  0.38733731289E+02 -0.12483515516E+02  0.43400732871E+02  0.00000000000E+00 0.  1.
         11    1    3    3    0    0  0.38271348479E+01 -0.25834788214E+02  0.94106077245E+01  0.27760453548E+02  0.51100000000E-03 0. -1.
        -11    1    3    3    0    0  0.55849253151E+01 -0.91997679390E+00  0.36940206961E+01  0.67589597751E+01  0.51100000000E-03 0.  1.
         12    1    3    3    0    0  0.56704964683E+01 -0.11978966282E+02 -0.62111290487E+00  0.13267853806E+02  0.00000000000E+00 0. -1.
</event>
<event>
 7    1  0.2950722E-010  0.4778727E+02  0.7816164E-02  0.1312668E+00
        -11   -1    0    0    0    0  0.00000000000E+00  0.00000000000E+00  0.45593999997E+02  0.45594000000E+02  0.51100000000E-03 0.  1.
         11   -1    0    0    0    0 -0.00000000000E+00 -0.00000000000E+00 -0.45593999997E+02  0.45594000000E+02  0.51100000000E-03 0. -1.
    9900012    2    1    2    0    0 -0.27130585357E+02 -0.19221988319E+02 -0.27893901950E+02  0.47787271173E+02  0.20000000585E+02 0.  0.
        -12    1    1    2    0    0  0.27130585357E+02  0.19221988319E+02  0.27893901950E+02  0.43400728827E+02  0.00000000000E+00 0.  1.
         11    1    3    3    0    0 -0.23141885365E+02 -0.18573670526E+02 -0.29380320565E+02  0.41758009194E+02  0.51100000000E-03 0. -1.
        -11    1    3    3    0    0 -0.99855380660E+00  0.17394667465E+01  0.33709774521E+00  0.20338361335E+01  0.51100000000E-03 0.  1.
         12    1    3    3    0    0 -0.29901461859E+01 -0.23877845398E+01  0.11493208707E+01  0.39954258453E+01  0.00000000000E+00 0. -1.
</event>
<event>
 7    1  0.2950722E-010  0.4778727E+02  0.7816164E-02  0.1312668E+00
        -11   -1    0    0    0    0  0.00000000000E+00  0.00000000000E+00  0.45593999997E+02  0.45594000000E+02  0.51100000000E-03 0.  1.
         11   -1    0    0    0    0 -0.00000000000E+00 -0.00000000000E+00 -0.45593999997E+02  0.45594000000E+02  0.51100000000E-03 0. -1.
    9900012    2    1    2    0    0 -0.29967802097E+02  0.12836390475E+02 -0.28649279251E+02  0.47787270922E+02  0.19999999441E+02 0.  0.
        -12    1    1    2    0    0  0.29967802097E+02 -0.12836390475E+02  0.28649279251E+02  0.43400729078E+02  0.00000000000E+00 0.  1.
         11    1    3    3    0    0 -0.17059264713E+02  0.13005288201E+02 -0.22271251661E+02  0.30921912692E+02  0.51100000000E-03 0. -1.
        -11    1    3    3    0    0  0.83757955201E-01 -0.23493241257E+01 -0.16353162208E+01  0.28636687389E+01  0.51100000000E-03 0.  1.
         12    1    3    3    0    0 -0.12992295339E+02  0.21804263993E+01 -0.47427113689E+01  0.14001689491E+02  0.00000000000E+00 0. -1.
</event>
<event>
 7    1  0.2950722E-010  0.4778729E+02  0.7816164E-02  0.1312668E+00
        -11   -1    0    0    0    0  0.00000000000E+00  0.00000000000E+00  0.45593999997E+02  0.45594000000E+02  0.51100000000E-03 0. -1.
         11   -1    0    0    0    0 -0.00000000000E+00 -0.00000000000E+00 -0.45593999997E+02  0.45594000000E+02  0.51100000000E-03 0.  1.
    9900012    2    1    2    0    0  0.54704406380E+01 -0.22375586288E+02  0.36783541096E+02  0.47787291733E+02  0.20000094327E+02 0.  0.
        -12    1    1    2    0    0 -0.54704406380E+01  0.22375586288E+02 -0.36783541096E+02  0.43400708267E+02  0.00000000000E+00 0.  1.
         11    1    3    3    0    0 -0.13369858392E+01 -0.26668373901E+00  0.11983167775E+02  0.12060471033E+02  0.51100000000E-03 0.  1.
        -11    1    3    3    0    0  0.72365341527E+01 -0.18161184505E+02  0.13524083843E+02  0.23771766725E+02  0.51100000000E-03 0. -1.
         12    1    3    3    0    0 -0.42910767541E+00 -0.39477180438E+01  0.11276289478E+02  0.11955053975E+02  0.00000000000E+00 0. -1.
</event>
<event>
 7    1  0.2950722E-010  0.4778727E+02  0.7816164E-02  0.1312668E+00
        -11   -1    0    0    0    0  0.00000000000E+00  0.00000000000E+00  0.45593999997E+02  0.45594000000E+02  0.51100000000E-03 0.  1.
         11   -1    0    0    0    0 -0.00000000000E+00 -0.00000000000E+00 -0.45593999997E+02  0.45594000000E+02  0.51100000000E-03 0. -1.
    9900012    2    1    2    0    0 -0.36545038628E+02 -0.13324154157E+02 -0.19249679101E+02  0.47787273303E+02  0.20000010297E+02 0.  0.
        -12    1    1    2    0    0  0.36545038628E+02  0.13324154157E+02  0.19249679101E+02  0.43400726697E+02  0.00000000000E+00 0.  1.
         11    1    3    3    0    0 -0.26293986879E+02 -0.32689916271E+01 -0.10887272112E+02  0.28645990061E+02  0.51100000000E-03 0. -1.
        -11    1    3    3    0    0 -0.90110894305E+01 -0.11600014878E+02 -0.55522497811E+01  0.15703106565E+02  0.51100000000E-03 0.  1.
         12    1    3    3    0    0 -0.12399623185E+01  0.15448523479E+01 -0.28101572079E+01  0.34381766769E+01  0.00000000000E+00 0. -1.
</event>
<event>
 7    1  0.2950722E-010  0.4778727E+02  0.7816164E-02  0.1312668E+00
        -11   -1    0    0    0    0  0.00000000000E+00  0.00000000000E+00  0.45593999997E+02  0.45594000000E+02  0.51100000000E-03 0.  1.
         11   -1    0    0    0    0 -0.00000000000E+00 -0.00000000000E+00 -0.45593999997E+02  0.45594000000E+02  0.51100000000E-03 0. -1.
    9900012    2    1    2    0    0 -0.27592079485E+02 -0.27183599220E+02 -0.19579389498E+02  0.47787269476E+02  0.19999992851E+02 0.  0.
        -12    1    1    2    0    0  0.27592079485E+02  0.27183599220E+02  0.19579389498E+02  0.43400730524E+02  0.00000000000E+00 0.  1.
         11    1    3    3    0    0 -0.75500322086E+01 -0.15060298318E+01 -0.27519522518E+01  0.81758396304E+01  0.51100000000E-03 0. -1.
        -11    1    3    3    0    0 -0.22260541098E+02 -0.25080308698E+02 -0.16119003610E+02  0.37207201615E+02  0.51100000000E-03 0.  1.
        -12    1    3    3    0    0  0.22184938220E+01 -0.59726069022E+00 -0.70843363656E+00  0.24042282312E+01  0.00000000000E+00 0.  1.
</event>
<event>
 7    1  0.2950722E-010  0.4778727E+02  0.7816164E-02  0.1312668E+00
        -11   -1    0    0    0    0  0.00000000000E+00  0.00000000000E+00  0.45593999997E+02  0.45594000000E+02  0.51100000000E-03 0.  1.
         11   -1    0    0    0    0 -0.00000000000E+00 -0.00000000000E+00 -0.45593999997E+02  0.45594000000E+02  0.51100000000E-03 0. -1.
    9900012    2    1    2    0    0  0.33854755421E+02 -0.58901742202E+01 -0.26510084361E+02  0.47787272013E+02  0.20000004418E+02 0.  0.
        -12    1    1    2    0    0 -0.33854755421E+02  0.58901742202E+01  0.26510084361E+02  0.43400727987E+02  0.00000000000E+00 0.  1.
         11    1    3    3    0    0 -0.17366298453E+01 -0.14142723055E+01 -0.92182780171E+00  0.24219447002E+01  0.51100000000E-03 0. -1.
        -11    1    3    3    0    0 -0.69108463324E+00  0.15144294150E+00 -0.12346907052E+01  0.14230229561E+01  0.51100000000E-03 0.  1.
         12    1    3    3    0    0  0.36282469900E+02 -0.46273448562E+01 -0.24353565854E+02  0.43942304357E+02  0.00000000000E+00 0. -1.
</event>
<event>
 7    1  0.2950722E-010  0.4778727E+02  0.7816164E-02  0.1312668E+00
        -11   -1    0    0    0    0  0.00000000000E+00  0.00000000000E+00  0.45593999997E+02  0.45594000000E+02  0.51100000000E-03 0. -1.
         11   -1    0    0    0    0 -0.00000000000E+00 -0.00000000000E+00 -0.45593999997E+02  0.45594000000E+02  0.51100000000E-03 0.  1.
    9900012    2    1    2    0    0  0.37310103583E+02  0.22012024602E+02  0.26553050834E+01  0.47787266117E+02  0.19999977536E+02 0.  0.
        -12    1    1    2    0    0 -0.37310103583E+02 -0.22012024602E+02 -0.26553050834E+01  0.43400733883E+02  0.00000000000E+00 0.  1.
         11    1    3    3    0    0  0.19115580249E+02  0.28606745248E+01 -0.18600644952E+01  0.19417742072E+02  0.51100000000E-03 0. -1.
        -11    1    3    3    0    0  0.19253449387E+02  0.17671805199E+02  0.46524229799E+01  0.26544925167E+02  0.51100000000E-03 0.  1.
        -12    1    3    3    0    0 -0.10589260528E+01  0.14795448782E+01 -0.13705340123E+00  0.18245988783E+01  0.00000000000E+00 0.  1.
</event>
<event>
 7    1  0.2950722E-010  0.4778727E+02  0.7816164E-02  0.1312668E+00
        -11   -1    0    0    0    0  0.00000000000E+00  0.00000000000E+00  0.45593999997E+02  0.45594000000E+02  0.51100000000E-03 0. -1.
         11   -1    0    0    0    0 -0.00000000000E+00 -0.00000000000E+00 -0.45593999997E+02  0.45594000000E+02  0.51100000000E-03 0.  1.
    9900012    2    1    2    0    0 -0.84392518907E+01 -0.17736467234E+02  0.38701676786E+02  0.47787273872E+02  0.20000012891E+02 0.  0.
        -12    1    1    2    0    0  0.84392518907E+01  0.17736467234E+02 -0.38701676786E+02  0.43400726128E+02  0.00000000000E+00 0.  1.
         11    1    3    3    0    0  0.37949501877E+01 -0.41944022669E+01  0.42651284688E+01  0.70842062660E+01  0.51100000000E-03 0.  1.
        -11    1    3    3    0    0 -0.65836863252E+01 -0.82281499474E+00  0.17893999043E+02  0.19084474112E+02  0.51100000000E-03 0. -1.
         12    1    3    3    0    0 -0.56505157531E+01 -0.12719249972E+02  0.16542549274E+02  0.21618593493E+02  0.00000000000E+00 0. -1.
</event>
<event>
 7    1  0.2950722E-010  0.4778727E+02  0.7816164E-02  0.1312668E+00
        -11   -1    0    0    0    0  0.00000000000E+00  0.00000000000E+00  0.45593999997E+02  0.45594000000E+02  0.51100000000E-03 0. -1.
         11   -1    0    0    0    0 -0.00000000000E+00 -0.00000000000E+00 -0.45593999997E+02  0.45594000000E+02  0.51100000000E-03 0.  1.
    9900012    2    1    2    0    0  0.22676440305E+02 -0.29018559111E+02  0.22963570268E+02  0.47787271006E+02  0.19999999823E+02 0.  0.
        -12    1    1    2    0    0 -0.22676440305E+02  0.29018559111E+02 -0.22963570268E+02  0.43400728994E+02  0.00000000000E+00 0.  1.
         11    1    3    3    0    0  0.99453203130E+01 -0.63368385465E+01  0.77048238827E+01  0.14086491054E+02  0.51100000000E-03 0. -1.
        -11    1    3    3    0    0  0.14159976962E+02 -0.23270837887E+02  0.16384975457E+02  0.31788429727E+02  0.51100000000E-03 0.  1.
        -12    1    3    3    0    0 -0.14288569699E+01  0.58911732224E+00 -0.11262290716E+01  0.19123502246E+01  0.00000000000E+00 0.  1.
</event>
<event>
 7    1  0.2950722E-010  0.4778724E+02  0.7816164E-02  0.1312668E+00
        -11   -1    0    0    0    0  0.00000000000E+00  0.00000000000E+00  0.45593999997E+02  0.45594000000E+02  0.51100000000E-03 0.  1.
         11   -1    0    0    0    0 -0.00000000000E+00 -0.00000000000E+00 -0.45593999997E+02  0.45594000000E+02  0.51100000000E-03 0. -1.
    9900012    2    1    2    0    0  0.22476045430E+01  0.11787464759E+02 -0.41708872436E+02  0.47787238584E+02  0.19999852000E+02 0.  0.
        -12    1    1    2    0    0 -0.22476045430E+01 -0.11787464759E+02  0.41708872436E+02  0.43400761416E+02  0.00000000000E+00 0.  1.
         11    1    3    3    0    0 -0.24391352955E+01  0.57048243212E+00 -0.96762956155E+01  0.99952752986E+01  0.51100000000E-03 0. -1.
        -11    1    3    3    0    0 -0.22391451886E+01 -0.60268804965E+00 -0.18116502881E+02  0.18264300725E+02  0.51100000000E-03 0.  1.
        -12    1    3    3    0    0  0.69258850272E+01  0.11819670376E+02 -0.13916073939E+02  0.19527662561E+02  0.00000000000E+00 0.  1.
</event>
<event>
 7    1  0.2950722E-010  0.4778728E+02  0.7816164E-02  0.1312668E+00
        -11   -1    0    0    0    0  0.00000000000E+00  0.00000000000E+00  0.45593999997E+02  0.45594000000E+02  0.51100000000E-03 0.  1.
         11   -1    0    0    0    0 -0.00000000000E+00 -0.00000000000E+00 -0.45593999997E+02  0.45594000000E+02  0.51100000000E-03 0. -1.
    9900012    2    1    2    0    0  0.33667389270E+02  0.24982347880E+01 -0.27274311226E+02  0.47787281917E+02  0.20000049570E+02 0.  0.
        -12    1    1    2    0    0 -0.33667389270E+02 -0.24982347880E+01  0.27274311226E+02  0.43400718083E+02  0.00000000000E+00 0.  1.
         11    1    3    3    0    0 -0.70989618253E+00  0.23282784192E+01 -0.10230072317E+01  0.26403365400E+01  0.51100000000E-03 0. -1.
        -11    1    3    3    0    0  0.23865272502E+02 -0.30128380737E+01 -0.11251917379E+02  0.26556243519E+02  0.51100000000E-03 0.  1.
        -12    1    3    3    0    0  0.10512012950E+02  0.31827944426E+01 -0.14999386616E+02  0.18590701858E+02  0.00000000000E+00 0.  1.
</event>
<event>
 7    1  0.2950722E-010  0.4778727E+02  0.7816164E-02  0.1312668E+00
        -11   -1    0    0    0    0  0.00000000000E+00  0.00000000000E+00  0.45593999997E+02  0.45594000000E+02  0.51100000000E-03 0.  1.
         11   -1    0    0    0    0 -0.00000000000E+00 -0.00000000000E+00 -0.45593999997E+02  0.45594000000E+02  0.51100000000E-03 0. -1.
    9900012    2    1    2    0    0 -0.26807909911E+01  0.23441635451E+02 -0.36426998206E+02  0.47787272917E+02  0.20000008540E+02 0.  0.
        -12    1    1    2    0    0  0.26807909911E+01 -0.23441635451E+02  0.36426998206E+02  0.43400727083E+02  0.00000000000E+00 0.  1.
         11    1    3    3    0    0  0.66162852875E+01  0.17425631340E+02 -0.26667984894E+02  0.32536276326E+02  0.51100000000E-03 0. -1.
        -11    1    3    3    0    0 -0.70024582467E+01  0.44478002898E+01 -0.48487665610E+01  0.96087401015E+01  0.51100000000E-03 0.  1.
         12    1    3    3    0    0 -0.22946180319E+01  0.15682038214E+01 -0.49102467511E+01  0.56422564896E+01  0.00000000000E+00 0. -1.
</event>
<event>
 7    1  0.2950722E-010  0.4778727E+02  0.7816164E-02  0.1312668E+00
        -11   -1    0    0    0    0  0.00000000000E+00  0.00000000000E+00  0.45593999997E+02  0.45594000000E+02  0.51100000000E-03 0.  1.
         11   -1    0    0    0    0 -0.00000000000E+00 -0.00000000000E+00 -0.45593999997E+02  0.45594000000E+02  0.51100000000E-03 0. -1.
    9900012    2    1    2    0    0 -0.97922529631E+01  0.38605160190E-01 -0.42281595915E+02  0.47787273490E+02  0.20000011152E+02 0.  0.
        -12    1    1    2    0    0  0.97922529631E+01 -0.38605160190E-01  0.42281595915E+02  0.43400726510E+02  0.00000000000E+00 0.  1.
         11    1    3    3    0    0 -0.25653587831E+01 -0.17516708206E+01 -0.17388380769E+01  0.35599121434E+01  0.51100000000E-03 0. -1.
        -11    1    3    3    0    0 -0.73393359617E+01 -0.18766395192E+01 -0.64836043039E+01  0.99711961808E+01  0.51100000000E-03 0.  1.
        -12    1    3    3    0    0  0.11244178175E+00  0.36669155000E+01 -0.34059153534E+02  0.34256165166E+02  0.00000000000E+00 0.  1.
</event>
<event>
 7    1  0.2950722E-010  0.4778727E+02  0.7816164E-02  0.1312668E+00
        -11   -1    0    0    0    0  0.00000000000E+00  0.00000000000E+00  0.45593999997E+02  0.45594000000E+02  0.51100000000E-03 0.  1.
         11   -1    0    0    0    0 -0.00000000000E+00 -0.00000000000E+00 -0.45593999997E+02  0.45594000000E+02  0.51100000000E-03 0. -1.
    9900012    2    1    2    0    0  0.46159938037E+01 -0.22899081748E+02 -0.36577968767E+02  0.47787272554E+02  0.20000006884E+02 0.  0.
        -12    1    1    2    0    0 -0.46159938037E+01  0.22899081748E+02  0.36577968767E+02  0.43400727446E+02  0.00000000000E+00 0.  1.
         11    1    3    3    0    0  0.96249016522E+00 -0.15424318181E+02 -0.15094747603E+02  0.21602948505E+02  0.51100000000E-03 0. -1.
        -11    1    3    3    0    0  0.17826828767E+01  0.23545061162E+01 -0.57982195756E+00  0.30096263977E+01  0.51100000000E-03 0.  1.
         12    1    3    3    0    0  0.18708207617E+01 -0.98292696833E+01 -0.20903399207E+02  0.23174697652E+02  0.00000000000E+00 0. -1.
</event>
<event>
 7    1  0.2950722E-010  0.4778727E+02  0.7816164E-02  0.1312668E+00
        -11   -1    0    0    0    0  0.00000000000E+00  0.00000000000E+00  0.45593999997E+02  0.45594000000E+02  0.51100000000E-03 0.  1.
         11   -1    0    0    0    0 -0.00000000000E+00 -0.00000000000E+00 -0.45593999997E+02  0.45594000000E+02  0.51100000000E-03 0. -1.
    9900012    2    1    2    0    0 -0.40139691154E+02 -0.58996995216E+00 -0.16494862007E+02  0.47787270247E+02  0.19999996363E+02 0.  0.
        -12    1    1    2    0    0  0.40139691154E+02  0.58996995216E+00  0.16494862007E+02  0.43400729753E+02  0.00000000000E+00 0.  1.
         11    1    3    3    0    0 -0.15935432969E+02  0.44466096071E+01 -0.11320331457E+02  0.20046452691E+02  0.51100000000E-03 0. -1.
        -11    1    3    3    0    0 -0.25175969958E+02 -0.35900986760E+01 -0.43018313567E+01  0.25791937212E+02  0.51100000000E-03 0.  1.
         12    1    3    3    0    0  0.97171177323E+00 -0.14464808833E+01 -0.87269919245E+00  0.19488803443E+01  0.00000000000E+00 0. -1.
</event>
<event>
 7    1  0.2950722E-010  0.4778727E+02  0.7816164E-02  0.1312668E+00
        -11   -1    0    0    0    0  0.00000000000E+00  0.00000000000E+00  0.45593999997E+02  0.45594000000E+02  0.51100000000E-03 0. -1.
         11   -1    0    0    0    0 -0.00000000000E+00 -0.00000000000E+00 -0.45593999997E+02  0.45594000000E+02  0.51100000000E-03 0.  1.
    9900012    2    1    2    0    0  0.35516437948E+02  0.34260703831E+01  0.24707645514E+02  0.47787273397E+02  0.20000010727E+02 0.  0.
        -12    1    1    2    0    0 -0.35516437948E+02 -0.34260703831E+01 -0.24707645514E+02  0.43400726603E+02  0.00000000000E+00 0.  1.
         11    1    3    3    0    0  0.23401010053E+01  0.18789972126E+01  0.59074712929E+01  0.66260788237E+01  0.51100000000E-03 0. -1.
        -11    1    3    3    0    0  0.28052468415E+02 -0.21510797428E+00  0.81520789131E+01  0.29213757829E+02  0.51100000000E-03 0.  1.
        -12    1    3    3    0    0  0.51238685280E+01  0.17621811447E+01  0.10648095308E+02  0.11947436745E+02  0.00000000000E+00 0.  1.
</event>
<event>
 7    1  0.2950722E-010  0.4778727E+02  0.7816164E-02  0.1312668E+00
        -11   -1    0    0    0    0  0.00000000000E+00  0.00000000000E+00  0.45593999997E+02  0.45594000000E+02  0.51100000000E-03 0.  1.
         11   -1    0    0    0    0 -0.00000000000E+00 -0.00000000000E+00 -0.45593999997E+02  0.45594000000E+02  0.51100000000E-03 0. -1.
    9900012    2    1    2    0    0  0.42630885123E+02 -0.50658260957E+01 -0.63693370085E+01  0.47787269426E+02  0.19999992621E+02 0.  0.
        -12    1    1    2    0    0 -0.42630885123E+02  0.50658260957E+01  0.63693370085E+01  0.43400730574E+02  0.00000000000E+00 0.  1.
         11    1    3    3    0    0  0.11425841152E+02  0.19472037440E+01 -0.39294687217E+01  0.12238552739E+02  0.51100000000E-03 0. -1.
        -11    1    3    3    0    0  0.30384876187E+02 -0.56071376291E+01 -0.61439169753E+01  0.31502831767E+02  0.51100000000E-03 0.  1.
        -12    1    3    3    0    0  0.82016778480E+00 -0.14058922105E+01  0.37040486884E+01  0.40458849204E+01  0.00000000000E+00 0.  1.
</event>
<event>
 7    1  0.2950722E-010  0.4778725E+02  0.7816164E-02  0.1312668E+00
        -11   -1    0    0    0    0  0.00000000000E+00  0.00000000000E+00  0.45593999997E+02  0.45594000000E+02  0.51100000000E-03 0.  1.
         11   -1    0    0    0    0 -0.00000000000E+00 -0.00000000000E+00 -0.45593999997E+02  0.45594000000E+02  0.51100000000E-03 0. -1.
    9900012    2    1    2    0    0 -0.34834444235E+02 -0.77839035089E+01  0.24690020145E+02  0.47787253996E+02  0.19999922267E+02 0.  0.
        -12    1    1    2    0    0  0.34834444235E+02  0.77839035089E+01 -0.24690020145E+02  0.43400746004E+02  0.00000000000E+00 0.  1.
         11    1    3    3    0    0 -0.75422886721E+01 -0.69786883534E+01  0.72844619370E+01  0.12595697500E+02  0.51100000000E-03 0. -1.
        -11    1    3    3    0    0 -0.22212180711E+02  0.50733488518E+01  0.12267192357E+02  0.25876704757E+02  0.51100000000E-03 0.  1.
        -12    1    3    3    0    0 -0.50799748516E+01 -0.58785640073E+01  0.51383658514E+01  0.93148517382E+01  0.00000000000E+00 0.  1.
</event>
<event>
 7    1  0.2950722E-010  0.4778727E+02  0.7816164E-02  0.1312668E+00
        -11   -1    0    0    0    0  0.00000000000E+00  0.00000000000E+00  0.45593999997E+02  0.45594000000E+02  0.51100000000E-03 0.  1.
         11   -1    0    0    0    0 -0.00000000000E+00 -0.00000000000E+00 -0.45593999997E+02  0.45594000000E+02  0.51100000000E-03 0. -1.
    9900012    2    1    2    0    0 -0.35785512648E+02  0.61701739775E+01 -0.23768661988E+02  0.47787271261E+02  0.20000000988E+02 0.  0.
        -12    1    1    2    0    0  0.35785512648E+02 -0.61701739775E+01  0.23768661988E+02  0.43400728739E+02  0.00000000000E+00 0.  1.
         11    1    3    3    0    0 -0.64014454455E+01  0.80909754989E+00 -0.29692909642E+01  0.71028044974E+01  0.51100000000E-03 0. -1.
        -11    1    3    3    0    0 -0.21489773608E+02  0.11801339262E+02 -0.16891852252E+02  0.29772750140E+02  0.51100000000E-03 0.  1.
        -12    1    3    3    0    0 -0.78942935941E+01 -0.64402628348E+01 -0.39075187715E+01  0.10911716624E+02  0.00000000000E+00 0.  1.
</event>
<event>
 7    1  0.2950722E-010  0.4778727E+02  0.7816164E-02  0.1312668E+00
        -11   -1    0    0    0    0  0.00000000000E+00  0.00000000000E+00  0.45593999997E+02  0.45594000000E+02  0.51100000000E-03 0.  1.
         11   -1    0    0    0    0 -0.00000000000E+00 -0.00000000000E+00 -0.45593999997E+02  0.45594000000E+02  0.51100000000E-03 0. -1.
    9900012    2    1    2    0    0 -0.34475499893E+02  0.22075007245E+02 -0.14413794874E+02  0.47787268204E+02  0.19999987051E+02 0.  0.
        -12    1    1    2    0    0  0.34475499893E+02 -0.22075007245E+02  0.14413794874E+02  0.43400731796E+02  0.00000000000E+00 0.  1.
         11    1    3    3    0    0 -0.74747305714E+00  0.40430264960E+01 -0.15080893112E+01  0.43793964025E+01  0.51100000000E-03 0. -1.
        -11    1    3    3    0    0 -0.55304224858E+01  0.38564558346E+01 -0.95211762062E+01  0.11666645666E+02  0.51100000000E-03 0.  1.
        -12    1    3    3    0    0 -0.28197604350E+02  0.14175524915E+02 -0.33845293568E+01  0.31741226136E+02  0.00000000000E+00 0.  1.
</event>
<event>
 7    1  0.2950722E-010  0.4778727E+02  0.7816164E-02  0.1312668E+00
        -11   -1    0    0    0    0  0.00000000000E+00  0.00000000000E+00  0.45593999997E+02  0.45594000000E+02  0.51100000000E-03 0. -1.
         11   -1    0    0    0    0 -0.00000000000E+00 -0.00000000000E+00 -0.45593999997E+02  0.45594000000E+02  0.51100000000E-03 0.  1.
    9900012    2    1    2    0    0 -0.34955447519E+02  0.13831562045E+02  0.21689351997E+02  0.47787269477E+02  0.19999992855E+02 0.  0.
        -12    1    1    2    0    0  0.34955447519E+02 -0.13831562045E+02 -0.21689351997E+02  0.43400730523E+02  0.00000000000E+00 0.  1.
         11    1    3    3    0    0 -0.81914282881E+01  0.35924895302E+01  0.65891797424E+01  0.11109580026E+02  0.51100000000E-03 0. -1.
        -11    1    3    3    0    0 -0.13141491654E+02 -0.33025705070E+01  0.27050346863E+01  0.13817488475E+02  0.51100000000E-03 0.  1.
        -12    1    3    3    0    0 -0.13622527577E+02  0.13541643022E+02  0.12395137569E+02  0.22860200976E+02  0.00000000000E+00 0.  1.
</event>
<event>
 7    1  0.2950722E-010  0.4778727E+02  0.7816164E-02  0.1312668E+00
        -11   -1    0    0    0    0  0.00000000000E+00  0.00000000000E+00  0.45593999997E+02  0.45594000000E+02  0.51100000000E-03 0. -1.
         11   -1    0    0    0    0 -0.00000000000E+00 -0.00000000000E+00 -0.45593999997E+02  0.45594000000E+02  0.51100000000E-03 0.  1.
    9900012    2    1    2    0    0  0.27653095066E+02 -0.14507418576E+02  0.30140747911E+02  0.47787267920E+02  0.19999985752E+02 0.  0.
        -12    1    1    2    0    0 -0.27653095066E+02  0.14507418576E+02 -0.30140747911E+02  0.43400732080E+02  0.00000000000E+00 0.  1.
         11    1    3    3    0    0  0.24889670970E+01  0.73796730413E+00 -0.24698104098E+01  0.35832271311E+01  0.51100000000E-03 0.  1.
        -11    1    3    3    0    0  0.16833464071E+02 -0.10581335327E+02  0.25306842497E+02  0.32183325611E+02  0.51100000000E-03 0. -1.
        -12    1    3    3    0    0  0.83306638984E+01 -0.46640505534E+01  0.73037158237E+01  0.12020715178E+02  0.00000000000E+00 0.  1.
</event>
<event>
 7    1  0.2950722E-010  0.4778727E+02  0.7816164E-02  0.1312668E+00
        -11   -1    0    0    0    0  0.00000000000E+00  0.00000000000E+00  0.45593999997E+02  0.45594000000E+02  0.51100000000E-03 0.  1.
         11   -1    0    0    0    0 -0.00000000000E+00 -0.00000000000E+00 -0.45593999997E+02  0.45594000000E+02  0.51100000000E-03 0. -1.
    9900012    2    1    2    0    0  0.22462403551E+02  0.92341324096E+01 -0.35969355835E+02  0.47787270353E+02  0.19999996849E+02 0.  0.
        -12    1    1    2    0    0 -0.22462403551E+02 -0.92341324096E+01  0.35969355835E+02  0.43400729647E+02  0.00000000000E+00 0.  1.
         11    1    3    3    0    0  0.94640848802E+01  0.77895602556E+01 -0.13468032493E+02  0.18210822362E+02  0.51100000000E-03 0. -1.
        -11    1    3    3    0    0  0.53425955670E+01 -0.63028850177E+01 -0.87583190796E+01  0.12040674412E+02  0.51100000000E-03 0.  1.
        -12    1    3    3    0    0  0.76557231039E+01  0.77474571717E+01 -0.13743004262E+02  0.17535773579E+02  0.00000000000E+00 0.  1.
</event>
<event>
 7    1  0.2950722E-010  0.4778727E+02  0.7816164E-02  0.1312668E+00
        -11   -1    0    0    0    0  0.00000000000E+00  0.00000000000E+00  0.45593999997E+02  0.45594000000E+02  0.51100000000E-03 0.  1.
         11   -1    0    0    0    0 -0.00000000000E+00 -0.00000000000E+00 -0.45593999997E+02  0.45594000000E+02  0.51100000000E-03 0. -1.
    9900012    2    1    2    0    0  0.31001130368E+02 -0.14287237794E+02 -0.26803512521E+02  0.47787268078E+02  0.19999986477E+02 0.  0.
        -12    1    1    2    0    0 -0.31001130368E+02  0.14287237794E+02  0.26803512521E+02  0.43400731922E+02  0.00000000000E+00 0.  1.
         11    1    3    3    0    0  0.13090725000E+02 -0.25723317908E+00 -0.15279471083E+02  0.20122014978E+02  0.51100000000E-03 0. -1.
        -11    1    3    3    0    0  0.16512631705E+02 -0.10276547714E+02 -0.51201040828E+01  0.20111934388E+02  0.51100000000E-03 0.  1.
         12    1    3    3    0    0  0.13977736624E+01 -0.37534569005E+01 -0.64039373554E+01  0.75533187121E+01  0.00000000000E+00 0. -1.
</event>
<event>
 7    1  0.2950722E-010  0.4778727E+02  0.7816164E-02  0.1312668E+00
        -11   -1    0    0    0    0  0.00000000000E+00  0.00000000000E+00  0.45593999997E+02  0.45594000000E+02  0.51100000000E-03 0.  1.
         11   -1    0    0    0    0 -0.00000000000E+00 -0.00000000000E+00 -0.45593999997E+02  0.45594000000E+02  0.51100000000E-03 0. -1.
    9900012    2    1    2    0    0 -0.96654155542E+00  0.11280497466E+02 -0.41897963995E+02  0.47787271751E+02  0.20000003220E+02 0.  0.
        -12    1    1    2    0    0  0.96654155542E+00 -0.11280497466E+02  0.41897963995E+02  0.43400728249E+02  0.00000000000E+00 0.  1.
         11    1    3    3    0    0 -0.86863481851E+01  0.31100613835E+01 -0.17856768392E+02  0.20099485174E+02  0.51100000000E-03 0. -1.
        -11    1    3    3    0    0  0.63471074200E+01  0.46357362462E+01 -0.80404432000E+01  0.11243867229E+02  0.51100000000E-03 0.  1.
         12    1    3    3    0    0  0.13726992096E+01  0.35346998361E+01 -0.16000752403E+02  0.16443919348E+02  0.00000000000E+00 0. -1.
</event>
<event>
 7    1  0.2950722E-010  0.4778727E+02  0.7816164E-02  0.1312668E+00
        -11   -1    0    0    0    0  0.00000000000E+00  0.00000000000E+00  0.45593999997E+02  0.45594000000E+02  0.51100000000E-03 0.  1.
         11   -1    0    0    0    0 -0.00000000000E+00 -0.00000000000E+00 -0.45593999997E+02  0.45594000000E+02  0.51100000000E-03 0. -1.
    9900012    2    1    2    0    0 -0.30077551573E+02  0.22743711747E+02 -0.21486922485E+02  0.47787269930E+02  0.19999994921E+02 0.  0.
        -12    1    1    2    0    0  0.30077551573E+02 -0.22743711747E+02  0.21486922485E+02  0.43400730070E+02  0.00000000000E+00 0.  1.
         11    1    3    3    0    0 -0.17767498775E+02  0.53186186356E+01 -0.88178221258E+01  0.20535961244E+02  0.51100000000E-03 0. -1.
        -11    1    3    3    0    0  0.14531013321E+01  0.61944578990E+01 -0.32352675805E+01  0.71379106693E+01  0.51100000000E-03 0.  1.
         12    1    3    3    0    0 -0.13763154130E+02  0.11230635212E+02 -0.94338327790E+01  0.20113398017E+02  0.00000000000E+00 0. -1.
</event>
<event>
 7    1  0.2950722E-010  0.4778727E+02  0.7816164E-02  0.1312668E+00
        -11   -1    0    0    0    0  0.00000000000E+00  0.00000000000E+00  0.45593999997E+02  0.45594000000E+02  0.51100000000E-03 0. -1.
         11   -1    0    0    0    0 -0.00000000000E+00 -0.00000000000E+00 -0.45593999997E+02  0.45594000000E+02  0.51100000000E-03 0.  1.
    9900012    2    1    2    0    0  0.31507439234E+02  0.16812062340E+02  0.24662907705E+02  0.47787272084E+02  0.20000004740E+02 0.  0.
        -12    1    1    2    0    0 -0.31507439234E+02 -0.16812062340E+02 -0.24662907705E+02  0.43400727916E+02  0.00000000000E+00 0.  1.
         11    1    3    3    0    0  0.28813582928E+02  0.17253752606E+02  0.20682788418E+02  0.39442265111E+02  0.51100000000E-03 0. -1.
        -11    1    3    3    0    0  0.16827513356E+01  0.31417038047E+01  0.14735943958E+01  0.38566093344E+01  0.51100000000E-03 0.  1.
         12    1    3    3    0    0  0.10111049703E+01 -0.35833940707E+01  0.25065248912E+01  0.44883976381E+01  0.00000000000E+00 0. -1.
</event>
<event>
 7    1  0.2950722E-010  0.4778727E+02  0.7816164E-02  0.1312668E+00
        -11   -1    0    0    0    0  0.00000000000E+00  0.00000000000E+00  0.45593999997E+02  0.45594000000E+02  0.51100000000E-03 0. -1.
         11   -1    0    0    0    0 -0.00000000000E+00 -0.00000000000E+00 -0.45593999997E+02  0.45594000000E+02  0.51100000000E-03 0.  1.
    9900012    2    1    2    0    0 -0.41499174746E+01 -0.42954560110E+02  0.46159728268E+01  0.47787271269E+02  0.20000001022E+02 0.  0.
        -12    1    1    2    0    0  0.41499174746E+01  0.42954560110E+02 -0.46159728268E+01  0.43400728731E+02  0.00000000000E+00 0.  1.
         11    1    3    3    0    0 -0.28918288410E+01 -0.27469697820E+02 -0.52078164388E+01  0.28108154060E+02  0.51100000000E-03 0. -1.
        -11    1    3    3    0    0 -0.11774774899E+01 -0.16244504924E+02  0.94196463277E+01  0.18814891195E+02  0.51100000000E-03 0.  1.
        -12    1    3    3    0    0 -0.80611143676E-01  0.75964263403E+00  0.40414293791E+00  0.86422601337E+00  0.00000000000E+00 0.  1.
</event>
<event>
 7    1  0.2950722E-010  0.4778727E+02  0.7816164E-02  0.1312668E+00
        -11   -1    0    0    0    0  0.00000000000E+00  0.00000000000E+00  0.45593999997E+02  0.45594000000E+02  0.51100000000E-03 0.  1.
         11   -1    0    0    0    0 -0.00000000000E+00 -0.00000000000E+00 -0.45593999997E+02  0.45594000000E+02  0.51100000000E-03 0. -1.
    9900012    2    1    2    0    0  0.28591990502E+02  0.32643984519E+02 -0.70112910902E+00  0.47787271571E+02  0.20000002402E+02 0.  0.
        -12    1    1    2    0    0 -0.28591990502E+02 -0.32643984519E+02  0.70112910902E+00  0.43400728429E+02  0.00000000000E+00 0.  1.
         11    1    3    3    0    0  0.20276000071E+02  0.29129675965E+02 -0.40359382627E+01  0.35720344324E+02  0.51100000000E-03 0. -1.
        -11    1    3    3    0    0  0.34641135392E+01 -0.21377994763E+01  0.51939382317E+00  0.41036617085E+01  0.51100000000E-03 0.  1.
         12    1    3    3    0    0  0.48518768916E+01  0.56521080304E+01  0.28154153305E+01  0.79632655388E+01  0.00000000000E+00 0. -1.
</event>
<event>
 7    1  0.3220430E-010  0.4778727E+02  0.7816164E-02  0.1312668E+00
        -11   -1    0    0    0    0  0.00000000000E+00  0.00000000000E+00  0.45593999997E+02  0.45594000000E+02  0.51100000000E-03 0. -1.
         11   -1    0    0    0    0 -0.00000000000E+00 -0.00000000000E+00 -0.45593999997E+02  0.45594000000E+02  0.51100000000E-03 0.  1.
    9900012    2    1    2    0    0 -0.42121087153E+02  0.15109268609E+01 -0.10351539937E+02  0.47787271181E+02  0.20000000622E+02 0.  0.
        -12    1    1    2    0    0  0.42121087153E+02 -0.15109268609E+01  0.10351539937E+02  0.43400728819E+02  0.00000000000E+00 0.  1.
         11    1    3    3    0    0 -0.28329222926E+02 -0.28981833709E+00 -0.13808121368E+01  0.28364335153E+02  0.51100000000E-03 0. -1.
        -11    1    3    3    0    0 -0.18784846416E+01 -0.34405425805E+01 -0.36691540256E+01  0.53692391753E+01  0.51100000000E-03 0.  1.
         12    1    3    3    0    0 -0.11913379586E+02  0.52412877785E+01 -0.53015737746E+01  0.14053696853E+02  0.00000000000E+00 0. -1.
</event>
<event>
 7    1  0.2950722E-010  0.4778727E+02  0.7816164E-02  0.1312668E+00
        -11   -1    0    0    0    0  0.00000000000E+00  0.00000000000E+00  0.45593999997E+02  0.45594000000E+02  0.51100000000E-03 0.  1.
         11   -1    0    0    0    0 -0.00000000000E+00 -0.00000000000E+00 -0.45593999997E+02  0.45594000000E+02  0.51100000000E-03 0. -1.
    9900012    2    1    2    0    0 -0.27605696455E+02 -0.23811782692E+02 -0.23548842186E+02  0.47787269130E+02  0.19999991270E+02 0.  0.
        -12    1    1    2    0    0  0.27605696455E+02  0.23811782692E+02  0.23548842186E+02  0.43400730870E+02  0.00000000000E+00 0.  1.
         11    1    3    3    0    0 -0.13075406456E+02 -0.16747782530E+01 -0.34357892708E+01  0.13622620319E+02  0.51100000000E-03 0. -1.
        -11    1    3    3    0    0  0.44477695634E-01 -0.46262289596E+01 -0.50703160690E+01  0.68638238579E+01  0.51100000000E-03 0.  1.
         12    1    3    3    0    0 -0.14574767695E+02 -0.17510775479E+02 -0.15042736847E+02  0.27300824953E+02  0.00000000000E+00 0. -1.
</event>
<event>
 7    1  0.2950722E-010  0.4778727E+02  0.7816164E-02  0.1312668E+00
        -11   -1    0    0    0    0  0.00000000000E+00  0.00000000000E+00  0.45593999997E+02  0.45594000000E+02  0.51100000000E-03 0.  1.
         11   -1    0    0    0    0 -0.00000000000E+00 -0.00000000000E+00 -0.45593999997E+02  0.45594000000E+02  0.51100000000E-03 0. -1.
    9900012    2    1    2    0    0  0.14840664562E+02 -0.35671004786E+02 -0.19772645945E+02  0.47787269191E+02  0.19999991549E+02 0.  0.
        -12    1    1    2    0    0 -0.14840664562E+02  0.35671004786E+02  0.19772645945E+02  0.43400730809E+02  0.00000000000E+00 0.  1.
         11    1    3    3    0    0 -0.11191738405E+01  0.12720183535E+01 -0.39173888059E+01  0.42680810788E+01  0.51100000000E-03 0. -1.
        -11    1    3    3    0    0  0.90047254604E+01 -0.17248503313E+02 -0.55792202265E+01  0.20241631500E+02  0.51100000000E-03 0.  1.
         12    1    3    3    0    0  0.69551129416E+01 -0.19694519826E+02 -0.10276036913E+02  0.23277556613E+02  0.00000000000E+00 0. -1.
</event>
<event>
 7    1  0.2950722E-010  0.4778727E+02  0.7816164E-02  0.1312668E+00
        -11   -1    0    0    0    0  0.00000000000E+00  0.00000000000E+00  0.45593999997E+02  0.45594000000E+02  0.51100000000E-03 0.  1.
         11   -1    0    0    0    0 -0.00000000000E+00 -0.00000000000E+00 -0.45593999997E+02  0.45594000000E+02  0.51100000000E-03 0. -1.
    9900012    2    1    2    0    0  0.28639201393E+02  0.18545397475E+02 -0.26823276506E+02  0.47787265139E+02  0.19999973075E+02 0.  0.
        -12    1    1    2    0    0 -0.28639201393E+02 -0.18545397475E+02  0.26823276506E+02  0.43400734861E+02  0.00000000000E+00 0.  1.
         11    1    3    3    0    0  0.13337830477E+02  0.64572269757E+01 -0.21919088115E+02  0.26458267632E+02  0.51100000000E-03 0. -1.
        -11    1    3    3    0    0  0.15909131612E+02  0.11250927417E+02 -0.53437142884E+01  0.20204928088E+02  0.51100000000E-03 0.  1.
         12    1    3    3    0    0 -0.60776069601E+00  0.83724308297E+00  0.43952589763E+00  0.11240694188E+01  0.00000000000E+00 0. -1.
</event>
<event>
 7    1  0.2950722E-010  0.4778727E+02  0.7816164E-02  0.1312668E+00
        -11   -1    0    0    0    0  0.00000000000E+00  0.00000000000E+00  0.45593999997E+02  0.45594000000E+02  0.51100000000E-03 0.  1.
         11   -1    0    0    0    0 -0.00000000000E+00 -0.00000000000E+00 -0.45593999997E+02  0.45594000000E+02  0.51100000000E-03 0. -1.
    9900012    2    1    2    0    0  0.18602392945E+02 -0.69159181869E+00 -0.39205817635E+02  0.47787268912E+02  0.19999990276E+02 0.  0.
        -12    1    1    2    0    0 -0.18602392945E+02  0.69159181869E+00  0.39205817635E+02  0.43400731088E+02  0.00000000000E+00 0.  1.
         11    1    3    3    0    0  0.12397434545E+02  0.47318264044E+00 -0.15965947236E+02  0.20219588436E+02  0.51100000000E-03 0. -1.
        -11    1    3    3    0    0 -0.38869049753E+01 -0.24952914984E+01 -0.64537866900E+01  0.79363639565E+01  0.51100000000E-03 0.  1.
        -12    1    3    3    0    0  0.10091863376E+02  0.13305170393E+01 -0.16786083709E+02  0.19631316519E+02  0.00000000000E+00 0.  1.
</event>
<event>
 7    1  0.2950722E-010  0.4778727E+02  0.7816164E-02  0.1312668E+00
        -11   -1    0    0    0    0  0.00000000000E+00  0.00000000000E+00  0.45593999997E+02  0.45594000000E+02  0.51100000000E-03 0.  1.
         11   -1    0    0    0    0 -0.00000000000E+00 -0.00000000000E+00 -0.45593999997E+02  0.45594000000E+02  0.51100000000E-03 0. -1.
    9900012    2    1    2    0    0  0.11447168808E+02 -0.13233709776E+02 -0.39717180152E+02  0.47787272502E+02  0.20000006644E+02 0.  0.
        -12    1    1    2    0    0 -0.11447168808E+02  0.13233709776E+02  0.39717180152E+02  0.43400727498E+02  0.00000000000E+00 0.  1.
         11    1    3    3    0    0  0.93048173701E+01 -0.68454461647E+01 -0.83552319664E+01  0.14256565539E+02  0.51100000000E-03 0. -1.
        -11    1    3    3    0    0 -0.36364292455E+01 -0.41659528498E+01 -0.17399841867E+02  0.18257417070E+02  0.51100000000E-03 0.  1.
         12    1    3    3    0    0  0.57787806834E+01 -0.22223107616E+01 -0.13962106318E+02  0.15273289893E+02  0.00000000000E+00 0. -1.
</event>
<event>
 7    1  0.2950722E-010  0.4778727E+02  0.7816164E-02  0.1312668E+00
        -11   -1    0    0    0    0  0.00000000000E+00  0.00000000000E+00  0.45593999997E+02  0.45594000000E+02  0.51100000000E-03 0. -1.
         11   -1    0    0    0    0 -0.00000000000E+00 -0.00000000000E+00 -0.45593999997E+02  0.45594000000E+02  0.51100000000E-03 0.  1.
    9900012    2    1    2    0    0  0.25455994594E+02  0.18341387696E+02  0.29986816084E+02  0.47787270718E+02  0.19999998511E+02 0.  0.
        -12    1    1    2    0    0 -0.25455994594E+02 -0.18341387696E+02 -0.29986816084E+02  0.43400729282E+02  0.00000000000E+00 0.  1.
         11    1    3    3    0    0  0.42997012840E+01  0.44805052411E+01  0.71964514358E+01  0.95053286043E+01  0.51100000000E-03 0. -1.
        -11    1    3    3    0    0  0.20949067545E+02  0.14873723130E+02  0.13668865809E+02  0.29102043975E+02  0.51100000000E-03 0.  1.
        -12    1    3    3    0    0  0.20722576452E+00 -0.10128406758E+01  0.91214988394E+01  0.91798981383E+01  0.00000000000E+00 0.  1.
</event>
<event>
 7    1  0.2950722E-010  0.4778727E+02  0.7816164E-02  0.1312668E+00
        -11   -1    0    0    0    0  0.00000000000E+00  0.00000000000E+00  0.45593999997E+02  0.45594000000E+02  0.51100000000E-03 0. -1.
         11   -1    0    0    0    0 -0.00000000000E+00 -0.00000000000E+00 -0.45593999997E+02  0.45594000000E+02  0.51100000000E-03 0.  1.
    9900012    2    1    2    0    0 -0.27233912484E+02  0.33712733659E+02  0.23214242321E+01  0.47787269472E+02  0.19999992829E+02 0.  0.
        -12    1    1    2    0    0  0.27233912484E+02 -0.33712733659E+02 -0.23214242321E+01  0.43400730528E+02  0.00000000000E+00 0.  1.
         11    1    3    3    0    0 -0.77542630909E+01  0.35812941736E+01 -0.13913461397E+01  0.86539071166E+01  0.51100000000E-03 0. -1.
        -11    1    3    3    0    0 -0.18032879742E+02  0.30197625482E+02  0.25838063392E-01  0.35172176566E+02  0.51100000000E-03 0.  1.
        -12    1    3    3    0    0 -0.14467696506E+01 -0.66185996398E-01  0.36869323084E+01  0.39611857890E+01  0.00000000000E+00 0.  1.
</event>
<event>
 7    1  0.2950722E-010  0.4778728E+02  0.7816164E-02  0.1312668E+00
        -11   -1    0    0    0    0  0.00000000000E+00  0.00000000000E+00  0.45593999997E+02  0.45594000000E+02  0.51100000000E-03 0. -1.
         11   -1    0    0    0    0 -0.00000000000E+00 -0.00000000000E+00 -0.45593999997E+02  0.45594000000E+02  0.51100000000E-03 0.  1.
    9900012    2    1    2    0    0  0.64019351101E+01 -0.39205095929E+02  0.17481354496E+02  0.47787284857E+02  0.20000062976E+02 0.  0.
        -12    1    1    2    0    0 -0.64019351101E+01  0.39205095929E+02 -0.17481354496E+02  0.43400715143E+02  0.00000000000E+00 0.  1.
         11    1    3    3    0    0  0.35350102537E+01  0.10012848663E+01  0.79396024499E+00  0.37588884007E+01  0.51100000000E-03 0. -1.
        -11    1    3    3    0    0  0.40456030829E+01 -0.38216377131E+02  0.15798754894E+02  0.41550680401E+02  0.51100000000E-03 0.  1.
         12    1    3    3    0    0 -0.11786782265E+01 -0.19900036643E+01  0.88863935665E+00  0.24777160555E+01  0.00000000000E+00 0. -1.
</event>
<event>
 7    1  0.2950722E-010  0.4778727E+02  0.7816164E-02  0.1312668E+00
        -11   -1    0    0    0    0  0.00000000000E+00  0.00000000000E+00  0.45593999997E+02  0.45594000000E+02  0.51100000000E-03 0. -1.
         11   -1    0    0    0    0 -0.00000000000E+00 -0.00000000000E+00 -0.45593999997E+02  0.45594000000E+02  0.51100000000E-03 0.  1.
    9900012    2    1    2    0    0 -0.92037490506E+01 -0.35531083782E+02  0.23161523188E+02  0.47787273420E+02  0.20000010831E+02 0.  0.
        -12    1    1    2    0    0  0.92037490506E+01  0.35531083782E+02 -0.23161523188E+02  0.43400726580E+02  0.00000000000E+00 0.  1.
         11    1    3    3    0    0 -0.13671972740E+02 -0.33207664070E+02  0.16914465710E+02  0.39695981435E+02  0.51100000000E-03 0. -1.
        -11    1    3    3    0    0  0.37429090019E+01 -0.18042595422E+01  0.44698673525E+01  0.61028218639E+01  0.51100000000E-03 0.  1.
         12    1    3    3    0    0  0.72531468784E+00 -0.51916016947E+00  0.17771901257E+01  0.19884701207E+01  0.00000000000E+00 0. -1.
</event>
<event>
 7    1  0.2950722E-010  0.4778727E+02  0.7816164E-02  0.1312668E+00
        -11   -1    0    0    0    0  0.00000000000E+00  0.00000000000E+00  0.45593999997E+02  0.45594000000E+02  0.51100000000E-03 0. -1.
         11   -1    0    0    0    0 -0.00000000000E+00 -0.00000000000E+00 -0.45593999997E+02  0.45594000000E+02  0.51100000000E-03 0.  1.
    9900012    2    1    2    0    0 -0.29157558415E+02  0.30832558511E+02  0.91001823223E+01  0.47787271949E+02  0.20000004126E+02 0.  0.
        -12    1    1    2    0    0  0.29157558415E+02 -0.30832558511E+02 -0.91001823223E+01  0.43400728051E+02  0.00000000000E+00 0.  1.
         11    1    3    3    0    0 -0.49960917256E+01  0.12011035295E+02 -0.11870722555E+01  0.13062734866E+02  0.51100000000E-03 0. -1.
        -11    1    3    3    0    0 -0.12086763410E+02  0.15525075183E+02  0.21432631527E+01  0.19791699936E+02  0.51100000000E-03 0.  1.
         12    1    3    3    0    0 -0.12074703280E+02  0.32964480323E+01  0.81439914251E+01  0.14932837147E+02  0.00000000000E+00 0. -1.
</event>
<event>
 7    1  0.2950722E-010  0.4778727E+02  0.7816164E-02  0.1312668E+00
        -11   -1    0    0    0    0  0.00000000000E+00  0.00000000000E+00  0.45593999997E+02  0.45594000000E+02  0.51100000000E-03 0.  1.
         11   -1    0    0    0    0 -0.00000000000E+00 -0.00000000000E+00 -0.45593999997E+02  0.45594000000E+02  0.51100000000E-03 0. -1.
    9900012    2    1    2    0    0 -0.38645960565E+02 -0.12430159232E+01 -0.19712128967E+02  0.47787269765E+02  0.19999994164E+02 0.  0.
        -12    1    1    2    0    0  0.38645960565E+02  0.12430159232E+01  0.19712128967E+02  0.43400730235E+02  0.00000000000E+00 0.  1.
         11    1    3    3    0    0 -0.14358697743E+02  0.10412960734E+01 -0.90372763674E+01  0.16997907600E+02  0.51100000000E-03 0. -1.
        -11    1    3    3    0    0 -0.14563007997E+02 -0.88025670194E+01 -0.78851091758E+01  0.18754768327E+02  0.51100000000E-03 0.  1.
        -12    1    3    3    0    0 -0.97242548253E+01  0.65182550227E+01 -0.27897434242E+01  0.12034593837E+02  0.00000000000E+00 0.  1.
</event>
<event>
 7    1  0.2950722E-010  0.4778727E+02  0.7816164E-02  0.1312668E+00
        -11   -1    0    0    0    0  0.00000000000E+00  0.00000000000E+00  0.45593999997E+02  0.45594000000E+02  0.51100000000E-03 0. -1.
         11   -1    0    0    0    0 -0.00000000000E+00 -0.00000000000E+00 -0.45593999997E+02  0.45594000000E+02  0.51100000000E-03 0.  1.
    9900012    2    1    2    0    0  0.13739985954E+02  0.44688485246E+01  0.40925122222E+02  0.47787269015E+02  0.19999990746E+02 0.  0.
        -12    1    1    2    0    0 -0.13739985954E+02 -0.44688485246E+01 -0.40925122222E+02  0.43400730985E+02  0.00000000000E+00 0.  1.
         11    1    3    3    0    0  0.94181895521E+01  0.47103379747E+01  0.25501682461E+02  0.27590313280E+02  0.51100000000E-03 0. -1.
        -11    1    3    3    0    0  0.54539963857E+01  0.10112359830E+01  0.95286775399E+00  0.56281997128E+01  0.51100000000E-03 0.  1.
        -12    1    3    3    0    0 -0.11321999843E+01 -0.12527254331E+01  0.14470572007E+02  0.14568756022E+02  0.00000000000E+00 0.  1.
</event>
<event>
 7    1  0.2950722E-010  0.4778727E+02  0.7816164E-02  0.1312668E+00
        -11   -1    0    0    0    0  0.00000000000E+00  0.00000000000E+00  0.45593999997E+02  0.45594000000E+02  0.51100000000E-03 0.  1.
         11   -1    0    0    0    0 -0.00000000000E+00 -0.00000000000E+00 -0.45593999997E+02  0.45594000000E+02  0.51100000000E-03 0. -1.
    9900012    2    1    2    0    0  0.28427304007E+02 -0.11687894544E+02 -0.30641550050E+02  0.47787273261E+02  0.20000010107E+02 0.  0.
        -12    1    1    2    0    0 -0.28427304007E+02  0.11687894544E+02  0.30641550050E+02  0.43400726739E+02  0.00000000000E+00 0.  1.
         11    1    3    3    0    0  0.21672756362E+02 -0.13377155017E+02 -0.29012526650E+02  0.38605483387E+02  0.51100000000E-03 0. -1.
        -11    1    3    3    0    0  0.27082349904E+01  0.36216246076E+01 -0.11906808257E+01  0.46763685325E+01  0.51100000000E-03 0.  1.
         12    1    3    3    0    0  0.40463126552E+01 -0.19323641353E+01 -0.43834257403E+00  0.45054213418E+01  0.00000000000E+00 0. -1.
</event>
<event>
 7    1  0.2950722E-010  0.4778727E+02  0.7816164E-02  0.1312668E+00
        -11   -1    0    0    0    0  0.00000000000E+00  0.00000000000E+00  0.45593999997E+02  0.45594000000E+02  0.51100000000E-03 0.  1.
         11   -1    0    0    0    0 -0.00000000000E+00 -0.00000000000E+00 -0.45593999997E+02  0.45594000000E+02  0.51100000000E-03 0. -1.
    9900012    2    1    2    0    0  0.41045343270E+02 -0.11068958415E+02 -0.87396254709E+01  0.47787273072E+02  0.20000009242E+02 0.  0.
        -12    1    1    2    0    0 -0.41045343270E+02  0.11068958415E+02  0.87396254709E+01  0.43400726928E+02  0.00000000000E+00 0.  1.
         11    1    3    3    0    0  0.11271442798E+02  0.90206058050E+00 -0.50124717492E+01  0.12368670476E+02  0.51100000000E-03 0. -1.
        -11    1    3    3    0    0  0.56881103876E+01 -0.34076650076E+01 -0.70061181751E+01  0.96463709617E+01  0.51100000000E-03 0.  1.
        -12    1    3    3    0    0  0.24085790085E+02 -0.85633539881E+01  0.32789644534E+01  0.25772231634E+02  0.00000000000E+00 0.  1.
</event>
<event>
 7    1  0.2950722E-010  0.4778726E+02  0.7816164E-02  0.1312668E+00
        -11   -1    0    0    0    0  0.00000000000E+00  0.00000000000E+00  0.45593999997E+02  0.45594000000E+02  0.51100000000E-03 0.  1.
         11   -1    0    0    0    0 -0.00000000000E+00 -0.00000000000E+00 -0.45593999997E+02  0.45594000000E+02  0.51100000000E-03 0. -1.
    9900012    2    1    2    0    0  0.27168718853E+01  0.30721583905E+02 -0.30535673107E+02  0.47787257580E+02  0.19999938610E+02 0.  0.
        -12    1    1    2    0    0 -0.27168718853E+01 -0.30721583905E+02  0.30535673107E+02  0.43400742420E+02  0.00000000000E+00 0.  1.
         11    1    3    3    0    0 -0.34535754135E+01  0.30155074789E+01 -0.10983002791E+02  0.11901546918E+02  0.51100000000E-03 0. -1.
        -11    1    3    3    0    0  0.65302677059E+01  0.13664358465E+02 -0.57693815738E+01  0.16206321377E+02  0.51100000000E-03 0.  1.
         12    1    3    3    0    0 -0.35982040712E+00  0.14041717961E+02 -0.13783288743E+02  0.19679389284E+02  0.00000000000E+00 0. -1.
</event>
<event>
 7    1  0.2950722E-010  0.4778727E+02  0.7816164E-02  0.1312668E+00
        -11   -1    0    0    0    0  0.00000000000E+00  0.00000000000E+00  0.45593999997E+02  0.45594000000E+02  0.51100000000E-03 0.  1.
         11   -1    0    0    0    0 -0.00000000000E+00 -0.00000000000E+00 -0.45593999997E+02  0.45594000000E+02  0.51100000000E-03 0. -1.
    9900012    2    1    2    0    0  0.41757661694E+02 -0.40929486616E+01 -0.11098137973E+02  0.47787271834E+02  0.20000003601E+02 0.  0.
        -12    1    1    2    0    0 -0.41757661694E+02  0.40929486616E+01  0.11098137973E+02  0.43400728166E+02  0.00000000000E+00 0.  1.
         11    1    3    3    0    0  0.16960184500E+02 -0.32415648589E+01 -0.65206016020E+01  0.18457352100E+02  0.51100000000E-03 0. -1.
        -11    1    3    3    0    0  0.20359095854E+02  0.22648780544E+01 -0.89588788551E+01  0.22358085052E+02  0.51100000000E-03 0.  1.
        -12    1    3    3    0    0  0.44383813395E+01 -0.31162618571E+01  0.43813424845E+01  0.69718346827E+01  0.00000000000E+00 0.  1.
</event>
<event>
 7    1  0.2950722E-010  0.4778727E+02  0.7816164E-02  0.1312668E+00
        -11   -1    0    0    0    0  0.00000000000E+00  0.00000000000E+00  0.45593999997E+02  0.45594000000E+02  0.51100000000E-03 0. -1.
         11   -1    0    0    0    0 -0.00000000000E+00 -0.00000000000E+00 -0.45593999997E+02  0.45594000000E+02  0.51100000000E-03 0.  1.
    9900012    2    1    2    0    0 -0.41685304689E+02  0.49558103999E+01  0.11018100394E+02  0.47787271665E+02  0.20000002829E+02 0.  0.
        -12    1    1    2    0    0  0.41685304689E+02 -0.49558103999E+01 -0.11018100394E+02  0.43400728335E+02  0.00000000000E+00 0.  1.
         11    1    3    3    0    0 -0.15546584665E+02  0.93106986399E+01  0.83032364764E+01  0.19933116669E+02  0.51100000000E-03 0. -1.
        -11    1    3    3    0    0 -0.57598835993E+01  0.21342837196E+01 -0.75013316334E+00  0.61882247937E+01  0.51100000000E-03 0.  1.
         12    1    3    3    0    0 -0.20378836425E+02 -0.64891719596E+01  0.34649970805E+01  0.21665930202E+02  0.00000000000E+00 0. -1.
</event>
<event>
 7    1  0.2950722E-010  0.4778727E+02  0.7816164E-02  0.1312668E+00
        -11   -1    0    0    0    0  0.00000000000E+00  0.00000000000E+00  0.45593999997E+02  0.45594000000E+02  0.51100000000E-03 0.  1.
         11   -1    0    0    0    0 -0.00000000000E+00 -0.00000000000E+00 -0.45593999997E+02  0.45594000000E+02  0.51100000000E-03 0. -1.
    9900012    2    1    2    0    0 -0.21347386946E+02  0.32679764850E+02 -0.18972224656E+02  0.47787271106E+02  0.20000000282E+02 0.  0.
        -12    1    1    2    0    0  0.21347386946E+02 -0.32679764850E+02  0.18972224656E+02  0.43400728894E+02  0.00000000000E+00 0.  1.
         11    1    3    3    0    0 -0.76767224525E+01  0.79551355879E+01 -0.60918885572E+01  0.12622494060E+02  0.51100000000E-03 0. -1.
        -11    1    3    3    0    0 -0.13339657307E+02  0.95550910399E+01 -0.20794411945E+01  0.16539960635E+02  0.51100000000E-03 0.  1.
        -12    1    3    3    0    0 -0.33100718626E+00  0.15169538223E+02 -0.10800894904E+02  0.18624816412E+02  0.00000000000E+00 0.  1.
</event>
<event>
 7    1  0.2950722E-010  0.4778727E+02  0.7816164E-02  0.1312668E+00
        -11   -1    0    0    0    0  0.00000000000E+00  0.00000000000E+00  0.45593999997E+02  0.45594000000E+02  0.51100000000E-03 0.  1.
         11   -1    0    0    0    0 -0.00000000000E+00 -0.00000000000E+00 -0.45593999997E+02  0.45594000000E+02  0.51100000000E-03 0. -1.
    9900012    2    1    2    0    0 -0.35316826699E+02 -0.21562119726E+02 -0.13092749317E+02  0.47787270284E+02  0.19999996534E+02 0.  0.
        -12    1    1    2    0    0  0.35316826699E+02  0.21562119726E+02  0.13092749317E+02  0.43400729716E+02  0.00000000000E+00 0.  1.
         11    1    3    3    0    0 -0.29076412012E+02 -0.12500241038E+02 -0.72085201455E+01  0.32460075854E+02  0.51100000000E-03 0. -1.
        -11    1    3    3    0    0 -0.45197844774E+01 -0.10147506803E+02 -0.25124224855E+01  0.11389144526E+02  0.51100000000E-03 0.  1.
         12    1    3    3    0    0 -0.17206302099E+01  0.10856281141E+01 -0.33718066857E+01  0.39380499041E+01  0.00000000000E+00 0. -1.
</event>
<event>
 7    1  0.2950722E-010  0.4778727E+02  0.7816164E-02  0.1312668E+00
        -11   -1    0    0    0    0  0.00000000000E+00  0.00000000000E+00  0.45593999997E+02  0.45594000000E+02  0.51100000000E-03 0.  1.
         11   -1    0    0    0    0 -0.00000000000E+00 -0.00000000000E+00 -0.45593999997E+02  0.45594000000E+02  0.51100000000E-03 0. -1.
    9900012    2    1    2    0    0 -0.20595120035E+02 -0.21033714990E+02 -0.31891177786E+02  0.47787270097E+02  0.19999995681E+02 0.  0.
        -12    1    1    2    0    0  0.20595120035E+02  0.21033714990E+02  0.31891177786E+02  0.43400729903E+02  0.00000000000E+00 0.  1.
         11    1    3    3    0    0 -0.14527200314E+02 -0.13232709888E+02 -0.24688211881E+02  0.31553953256E+02  0.51100000000E-03 0. -1.
        -11    1    3    3    0    0 -0.23253710284E+01 -0.79113269536E+01 -0.14910697963E+00  0.82473436778E+01  0.51100000000E-03 0.  1.
         12    1    3    3    0    0 -0.37425486922E+01  0.11032185142E+00 -0.70538589251E+01  0.79859731629E+01  0.00000000000E+00 0. -1.
</event>
<event>
 7    1  0.2950722E-010  0.4778727E+02  0.7816164E-02  0.1312668E+00
        -11   -1    0    0    0    0  0.00000000000E+00  0.00000000000E+00  0.45593999997E+02  0.45594000000E+02  0.51100000000E-03 0.  1.
         11   -1    0    0    0    0 -0.00000000000E+00 -0.00000000000E+00 -0.45593999997E+02  0.45594000000E+02  0.51100000000E-03 0. -1.
    9900012    2    1    2    0    0 -0.13320017497E+02  0.40681365242E+02 -0.71573168323E+01  0.47787268113E+02  0.19999986634E+02 0.  0.
        -12    1    1    2    0    0  0.13320017497E+02 -0.40681365242E+02  0.71573168323E+01  0.43400731887E+02  0.00000000000E+00 0.  1.
         11    1    3    3    0    0 -0.74882628024E+01  0.86703863658E+01 -0.96563037482E+00  0.11497048396E+02  0.51100000000E-03 0. -1.
        -11    1    3    3    0    0  0.44931073432E+00  0.26002872919E+02 -0.71457354977E+00  0.26016569640E+02  0.51100000000E-03 0.  1.
        -12    1    3    3    0    0 -0.62810654287E+01  0.60081059572E+01 -0.54771129077E+01  0.10273650078E+02  0.00000000000E+00 0.  1.
</event>
<event>
 7    1  0.2950722E-010  0.4778727E+02  0.7816164E-02  0.1312668E+00
        -11   -1    0    0    0    0  0.00000000000E+00  0.00000000000E+00  0.45593999997E+02  0.45594000000E+02  0.51100000000E-03 0.  1.
         11   -1    0    0    0    0 -0.00000000000E+00 -0.00000000000E+00 -0.45593999997E+02  0.45594000000E+02  0.51100000000E-03 0. -1.
    9900012    2    1    2    0    0  0.22149565347E+01 -0.42655342971E+02 -0.76966751715E+01  0.47787272758E+02  0.20000007811E+02 0.  0.
        -12    1    1    2    0    0 -0.22149565347E+01  0.42655342971E+02  0.76966751715E+01  0.43400727242E+02  0.00000000000E+00 0.  1.
         11    1    3    3    0    0 -0.49912201502E+00 -0.19449368269E+01 -0.18446149964E+01  0.27266291997E+01  0.51100000000E-03 0. -1.
        -11    1    3    3    0    0  0.70739541237E+01 -0.54732143881E+01  0.63660148347E+00  0.89667253996E+01  0.51100000000E-03 0.  1.
        -12    1    3    3    0    0 -0.43598755740E+01 -0.35237191756E+02 -0.64886616585E+01  0.36093918158E+02  0.00000000000E+00 0.  1.
</event>
<event>
 7    1  0.2950722E-010  0.4778727E+02  0.7816164E-02  0.1312668E+00
        -11   -1    0    0    0    0  0.00000000000E+00  0.00000000000E+00  0.45593999997E+02  0.45594000000E+02  0.51100000000E-03 0.  1.
         11   -1    0    0    0    0 -0.00000000000E+00 -0.00000000000E+00 -0.45593999997E+02  0.45594000000E+02  0.51100000000E-03 0. -1.
    9900012    2    1    2    0    0  0.31389930874E+02 -0.10995295230E+02 -0.27881879653E+02  0.47787268549E+02  0.19999988622E+02 0.  0.
        -12    1    1    2    0    0 -0.31389930874E+02  0.10995295230E+02  0.27881879653E+02  0.43400731451E+02  0.00000000000E+00 0.  1.
         11    1    3    3    0    0  0.19343718470E+02 -0.10368536411E+02 -0.12701793883E+02  0.25357869777E+02  0.51100000000E-03 0. -1.
        -11    1    3    3    0    0  0.63881418616E+01  0.52273401426E+01 -0.63140409803E+01  0.10392331556E+02  0.51100000000E-03 0.  1.
        -12    1    3    3    0    0  0.56580705427E+01 -0.58540989618E+01 -0.88660447905E+01  0.12037067215E+02  0.00000000000E+00 0.  1.
</event>
<event>
 7    1  0.2950722E-010  0.4778727E+02  0.7816164E-02  0.1312668E+00
        -11   -1    0    0    0    0  0.00000000000E+00  0.00000000000E+00  0.45593999997E+02  0.45594000000E+02  0.51100000000E-03 0.  1.
         11   -1    0    0    0    0 -0.00000000000E+00 -0.00000000000E+00 -0.45593999997E+02  0.45594000000E+02  0.51100000000E-03 0. -1.
    9900012    2    1    2    0    0  0.31834608983E+02  0.55780234191E+01 -0.28966648289E+02  0.47787269736E+02  0.19999994034E+02 0.  0.
        -12    1    1    2    0    0 -0.31834608983E+02 -0.55780234191E+01  0.28966648289E+02  0.43400730264E+02  0.00000000000E+00 0.  1.
         11    1    3    3    0    0  0.22775695482E+02  0.51780681359E+01 -0.24334023820E+02  0.33729651789E+02  0.51100000000E-03 0. -1.
        -11    1    3    3    0    0 -0.17279007079E+01  0.16595474275E+01 -0.11105874309E+01  0.26406709797E+01  0.51100000000E-03 0.  1.
         12    1    3    3    0    0  0.10786814209E+02 -0.12595921443E+01 -0.35220370382E+01  0.11416946967E+02  0.00000000000E+00 0. -1.
</event>
<event>
 7    1  0.2950722E-010  0.4778727E+02  0.7816164E-02  0.1312668E+00
        -11   -1    0    0    0    0  0.00000000000E+00  0.00000000000E+00  0.45593999997E+02  0.45594000000E+02  0.51100000000E-03 0. -1.
         11   -1    0    0    0    0 -0.00000000000E+00 -0.00000000000E+00 -0.45593999997E+02  0.45594000000E+02  0.51100000000E-03 0.  1.
    9900012    2    1    2    0    0 -0.27121338174E+02  0.33823990757E+02  0.19984656632E+01  0.47787271895E+02  0.20000003878E+02 0.  0.
        -12    1    1    2    0    0  0.27121338174E+02 -0.33823990757E+02 -0.19984656632E+01  0.43400728105E+02  0.00000000000E+00 0.  1.
         11    1    3    3    0    0 -0.57656433807E+01  0.65143477855E+01  0.50184398428E+01  0.10043112534E+02  0.51100000000E-03 0. -1.
        -11    1    3    3    0    0 -0.17005932114E+02  0.28328991448E+02 -0.36089375776E+01  0.33237898764E+02  0.51100000000E-03 0.  1.
        -12    1    3    3    0    0 -0.43497626789E+01 -0.10193484769E+01  0.58896339790E+00  0.45062605966E+01  0.00000000000E+00 0.  1.
</event>
<event>
 7    1  0.2950722E-010  0.4778726E+02  0.7816164E-02  0.1312668E+00
        -11   -1    0    0    0    0  0.00000000000E+00  0.00000000000E+00  0.45593999997E+02  0.45594000000E+02  0.51100000000E-03 0.  1.
         11   -1    0    0    0    0 -0.00000000000E+00 -0.00000000000E+00 -0.45593999997E+02  0.45594000000E+02  0.51100000000E-03 0. -1.
    9900012    2    1    2    0    0 -0.31168504303E+02  0.25846735203E+02 -0.15623527012E+02  0.47787262939E+02  0.19999963045E+02 0.  0.
        -12    1    1    2    0    0  0.31168504303E+02 -0.25846735203E+02  0.15623527012E+02  0.43400737061E+02  0.00000000000E+00 0.  1.
         11    1    3    3    0    0 -0.13846984948E+02  0.19780172008E+02 -0.51668074225E+01  0.24691903451E+02  0.51100000000E-03 0. -1.
        -11    1    3    3    0    0 -0.69062078982E+01 -0.64786395916E+00 -0.77693499812E+01  0.10415288505E+02  0.51100000000E-03 0.  1.
         12    1    3    3    0    0 -0.10415311456E+02  0.67144271545E+01 -0.26873696084E+01  0.12680070984E+02  0.00000000000E+00 0. -1.
</event>
<event>
 7    1  0.2950722E-010  0.4778728E+02  0.7816164E-02  0.1312668E+00
        -11   -1    0    0    0    0  0.00000000000E+00  0.00000000000E+00  0.45593999997E+02  0.45594000000E+02  0.51100000000E-03 0.  1.
         11   -1    0    0    0    0 -0.00000000000E+00 -0.00000000000E+00 -0.45593999997E+02  0.45594000000E+02  0.51100000000E-03 0. -1.
    9900012    2    1    2    0    0  0.41838180165E+02  0.10910260358E+02  0.37624151486E+01  0.47787275716E+02  0.20000021300E+02 0.  0.
        -12    1    1    2    0    0 -0.41838180165E+02 -0.10910260358E+02 -0.37624151486E+01  0.43400724284E+02  0.00000000000E+00 0.  1.
         11    1    3    3    0    0  0.12155850419E+02  0.37522683394E+01  0.33685067616E+01  0.13160207262E+02  0.51100000000E-03 0. -1.
        -11    1    3    3    0    0  0.19738822740E+02 -0.30260977954E+01  0.28868513458E+01  0.20177024111E+02  0.51100000000E-03 0.  1.
        -12    1    3    3    0    0  0.99435070057E+01  0.10184089814E+02 -0.24929429588E+01  0.14450044343E+02  0.00000000000E+00 0.  1.
</event>
<event>
 7    1  0.2950722E-010  0.4778727E+02  0.7816164E-02  0.1312668E+00
        -11   -1    0    0    0    0  0.00000000000E+00  0.00000000000E+00  0.45593999997E+02  0.45594000000E+02  0.51100000000E-03 0. -1.
         11   -1    0    0    0    0 -0.00000000000E+00 -0.00000000000E+00 -0.45593999997E+02  0.45594000000E+02  0.51100000000E-03 0.  1.
    9900012    2    1    2    0    0 -0.10337749647E+02 -0.41677856737E+02  0.63016178610E+01  0.47787271923E+02  0.20000004004E+02 0.  0.
        -12    1    1    2    0    0  0.10337749647E+02  0.41677856737E+02 -0.63016178610E+01  0.43400728077E+02  0.00000000000E+00 0.  1.
         11    1    3    3    0    0  0.15794774392E+01 -0.46378464448E+01 -0.40193617938E+01  0.63371632548E+01  0.51100000000E-03 0. -1.
        -11    1    3    3    0    0 -0.59021619939E+01 -0.11808470060E+02  0.79335868418E+01  0.15401859686E+02  0.51100000000E-03 0.  1.
         12    1    3    3    0    0 -0.60150650921E+01 -0.25231540233E+02  0.23873928130E+01  0.26048248982E+02  0.00000000000E+00 0. -1.
</event>
<event>
 7    1  0.2950722E-010  0.4778727E+02  0.7816164E-02  0.1312668E+00
        -11   -1    0    0    0    0  0.00000000000E+00  0.00000000000E+00  0.45593999997E+02  0.45594000000E+02  0.51100000000E-03 0. -1.
         11   -1    0    0    0    0 -0.00000000000E+00 -0.00000000000E+00 -0.45593999997E+02  0.45594000000E+02  0.51100000000E-03 0.  1.
    9900012    2    1    2    0    0  0.22851783075E+02  0.35576981731E+02 -0.97825323359E+01  0.47787267774E+02  0.19999985090E+02 0.  0.
        -12    1    1    2    0    0 -0.22851783075E+02 -0.35576981731E+02  0.97825323359E+01  0.43400732226E+02  0.00000000000E+00 0.  1.
         11    1    3    3    0    0  0.17750847800E+02  0.20866777005E+02  0.26479903967E+01  0.27523205366E+02  0.51100000000E-03 0. -1.
        -11    1    3    3    0    0  0.35346159538E+01  0.13389885623E+02 -0.99793659895E+01  0.17069572131E+02  0.51100000000E-03 0.  1.
         12    1    3    3    0    0  0.15663193213E+01  0.13203191030E+01 -0.24511567432E+01  0.31944902769E+01  0.00000000000E+00 0. -1.
</event>
<event>
 7    1  0.2950722E-010  0.4778727E+02  0.7816164E-02  0.1312668E+00
        -11   -1    0    0    0    0  0.00000000000E+00  0.00000000000E+00  0.45593999997E+02  0.45594000000E+02  0.51100000000E-03 0.  1.
         11   -1    0    0    0    0 -0.00000000000E+00 -0.00000000000E+00 -0.45593999997E+02  0.45594000000E+02  0.51100000000E-03 0. -1.
    9900012    2    1    2    0    0 -0.38842867457E+02 -0.18559805186E+02 -0.55125956807E+01  0.47787269223E+02  0.19999991695E+02 0.  0.
        -12    1    1    2    0    0  0.38842867457E+02  0.18559805186E+02  0.55125956807E+01  0.43400730777E+02  0.00000000000E+00 0.  1.
         11    1    3    3    0    0 -0.18226958861E+02 -0.45009163049E+01 -0.10940420036E+02  0.21729543661E+02  0.51100000000E-03 0. -1.
        -11    1    3    3    0    0 -0.15032932838E+02 -0.73643676374E+01  0.29746536976E+01  0.17002104143E+02  0.51100000000E-03 0.  1.
         12    1    3    3    0    0 -0.55829757585E+01 -0.66945212437E+01  0.24531706574E+01  0.90556214186E+01  0.00000000000E+00 0. -1.
</event>
<event>
 7    1  0.2950722E-010  0.4778727E+02  0.7816164E-02  0.1312668E+00
        -11   -1    0    0    0    0  0.00000000000E+00  0.00000000000E+00  0.45593999997E+02  0.45594000000E+02  0.51100000000E-03 0.  1.
         11   -1    0    0    0    0 -0.00000000000E+00 -0.00000000000E+00 -0.45593999997E+02  0.45594000000E+02  0.51100000000E-03 0. -1.
    9900012    2    1    2    0    0  0.31287006860E+02 -0.92562492148E+01 -0.28619373258E+02  0.47787268745E+02  0.19999989517E+02 0.  0.
        -12    1    1    2    0    0 -0.31287006860E+02  0.92562492148E+01  0.28619373258E+02  0.43400731255E+02  0.00000000000E+00 0.  1.
         11    1    3    3    0    0  0.18802221776E+02 -0.82552832185E+01 -0.18339881308E+02  0.27532244576E+02  0.51100000000E-03 0. -1.
        -11    1    3    3    0    0  0.19152841805E+01  0.48135074138E+01 -0.45727665947E+01  0.69100189367E+01  0.51100000000E-03 0.  1.
        -12    1    3    3    0    0  0.10569500903E+02 -0.58144734102E+01 -0.57067253557E+01  0.13345005233E+02  0.00000000000E+00 0.  1.
</event>
<event>
 7    1  0.2950722E-010  0.4778728E+02  0.7816164E-02  0.1312668E+00
        -11   -1    0    0    0    0  0.00000000000E+00  0.00000000000E+00  0.45593999997E+02  0.45594000000E+02  0.51100000000E-03 0.  1.
         11   -1    0    0    0    0 -0.00000000000E+00 -0.00000000000E+00 -0.45593999997E+02  0.45594000000E+02  0.51100000000E-03 0. -1.
    9900012    2    1    2    0    0  0.42495198594E+02  0.88181414452E+01 -0.14583155057E+00  0.47787276631E+02  0.20000025471E+02 0.  0.
        -12    1    1    2    0    0 -0.42495198594E+02 -0.88181414452E+01  0.14583155057E+00  0.43400723369E+02  0.00000000000E+00 0.  1.
         11    1    3    3    0    0  0.92207938946E+01  0.92548366885E+01 -0.26404568631E+01  0.13328430323E+02  0.51100000000E-03 0. -1.
        -11    1    3    3    0    0  0.31227133576E+01  0.18299163612E+01  0.21705688784E+01  0.42203438390E+01  0.51100000000E-03 0.  1.
         12    1    3    3    0    0  0.30151691342E+02 -0.22666116045E+01  0.32405643412E+00  0.30238502468E+02  0.00000000000E+00 0. -1.
</event>
<event>
 7    1  0.2950722E-010  0.4778727E+02  0.7816164E-02  0.1312668E+00
        -11   -1    0    0    0    0  0.00000000000E+00  0.00000000000E+00  0.45593999997E+02  0.45594000000E+02  0.51100000000E-03 0.  1.
         11   -1    0    0    0    0 -0.00000000000E+00 -0.00000000000E+00 -0.45593999997E+02  0.45594000000E+02  0.51100000000E-03 0. -1.
    9900012    2    1    2    0    0  0.35525718862E+02  0.49985502095E+01 -0.24424597065E+02  0.47787272510E+02  0.20000006681E+02 0.  0.
        -12    1    1    2    0    0 -0.35525718862E+02 -0.49985502095E+01  0.24424597065E+02  0.43400727490E+02  0.00000000000E+00 0.  1.
         11    1    3    3    0    0  0.16007682975E+02  0.79029050445E+01 -0.39100169552E+01  0.18275394804E+02  0.51100000000E-03 0. -1.
        -11    1    3    3    0    0  0.88565137635E+01 -0.40664594655E+01 -0.13673665907E+02  0.16791160419E+02  0.51100000000E-03 0.  1.
        -12    1    3    3    0    0  0.10661522123E+02  0.11621046305E+01 -0.68409142035E+01  0.12720717287E+02  0.00000000000E+00 0.  1.
</event>
<event>
 7    1  0.2950722E-010  0.4778727E+02  0.7816164E-02  0.1312668E+00
        -11   -1    0    0    0    0  0.00000000000E+00  0.00000000000E+00  0.45593999997E+02  0.45594000000E+02  0.51100000000E-03 0. -1.
         11   -1    0    0    0    0 -0.00000000000E+00 -0.00000000000E+00 -0.45593999997E+02  0.45594000000E+02  0.51100000000E-03 0.  1.
    9900012    2    1    2    0    0  0.14640485134E+02  0.54840642498E+01  0.40487093357E+02  0.47787268507E+02  0.19999988430E+02 0.  0.
        -12    1    1    2    0    0 -0.14640485134E+02 -0.54840642498E+01 -0.40487093357E+02  0.43400731493E+02  0.00000000000E+00 0.  1.
         11    1    3    3    0    0  0.90643476508E+01  0.44368999767E+01  0.15510291490E+02  0.18504529773E+02  0.51100000000E-03 0. -1.
        -11    1    3    3    0    0 -0.18221792213E+01 -0.52572801135E+01  0.92522913822E+01  0.10796491439E+02  0.51100000000E-03 0.  1.
        -12    1    3    3    0    0  0.73983167046E+01  0.63044443866E+01  0.15724510484E+02  0.18486247295E+02  0.00000000000E+00 0.  1.
</event>
<event>
 7    1  0.2950722E-010  0.4778727E+02  0.7816164E-02  0.1312668E+00
        -11   -1    0    0    0    0  0.00000000000E+00  0.00000000000E+00  0.45593999997E+02  0.45594000000E+02  0.51100000000E-03 0. -1.
         11   -1    0    0    0    0 -0.00000000000E+00 -0.00000000000E+00 -0.45593999997E+02  0.45594000000E+02  0.51100000000E-03 0.  1.
    9900012    2    1    2    0    0 -0.40014806301E+02  0.15806160560E+02  0.57099627151E+01  0.47787272942E+02  0.20000008652E+02 0.  0.
        -12    1    1    2    0    0  0.40014806301E+02 -0.15806160560E+02 -0.57099627151E+01  0.43400727058E+02  0.00000000000E+00 0.  1.
         11    1    3    3    0    0 -0.19205143780E+02  0.23889212754E+01  0.67831474305E+01  0.20507451861E+02  0.51100000000E-03 0. -1.
        -11    1    3    3    0    0 -0.12338834386E+01  0.53707655783E+01 -0.25321574252E+01  0.60646032619E+01  0.51100000000E-03 0.  1.
         12    1    3    3    0    0 -0.19575779082E+02  0.80464737068E+01  0.14589727098E+01  0.21215217820E+02  0.00000000000E+00 0. -1.
</event>
<event>
 7    1  0.2950722E-010  0.4778727E+02  0.7816164E-02  0.1312668E+00
        -11   -1    0    0    0    0  0.00000000000E+00  0.00000000000E+00  0.45593999997E+02  0.45594000000E+02  0.51100000000E-03 0.  1.
         11   -1    0    0    0    0 -0.00000000000E+00 -0.00000000000E+00 -0.45593999997E+02  0.45594000000E+02  0.51100000000E-03 0. -1.
    9900012    2    1    2    0    0  0.12020025081E+02  0.16544620935E+02 -0.38280780301E+02  0.47787266996E+02  0.19999981543E+02 0.  0.
        -12    1    1    2    0    0 -0.12020025081E+02 -0.16544620935E+02  0.38280780301E+02  0.43400733004E+02  0.00000000000E+00 0.  1.
         11    1    3    3    0    0  0.58707451369E+01  0.10565166308E+02 -0.29728518232E+02  0.32091637292E+02  0.51100000000E-03 0. -1.
        -11    1    3    3    0    0  0.68727346414E+01  0.57022373665E+01 -0.10390486404E+02  0.13700810210E+02  0.51100000000E-03 0.  1.
         12    1    3    3    0    0 -0.72345469683E+00  0.27721726072E+00  0.18382243352E+01  0.19948194942E+01  0.00000000000E+00 0. -1.
</event>
<event>
 7    1  0.2950722E-010  0.4778727E+02  0.7816164E-02  0.1312668E+00
        -11   -1    0    0    0    0  0.00000000000E+00  0.00000000000E+00  0.45593999997E+02  0.45594000000E+02  0.51100000000E-03 0.  1.
         11   -1    0    0    0    0 -0.00000000000E+00 -0.00000000000E+00 -0.45593999997E+02  0.45594000000E+02  0.51100000000E-03 0. -1.
    9900012    2    1    2    0    0 -0.36840032132E+02 -0.12640199375E+02 -0.19148384903E+02  0.47787271295E+02  0.20000001141E+02 0.  0.
        -12    1    1    2    0    0  0.36840032132E+02  0.12640199375E+02  0.19148384903E+02  0.43400728705E+02  0.00000000000E+00 0.  1.
         11    1    3    3    0    0 -0.15745481427E+02 -0.90299689615E+00 -0.77498467723E+01  0.17572584159E+02  0.51100000000E-03 0. -1.
        -11    1    3    3    0    0  0.15960692086E+01 -0.30261654338E+01 -0.12861801670E+00  0.34236905536E+01  0.51100000000E-03 0.  1.
        -12    1    3    3    0    0 -0.22690619914E+02 -0.87110370454E+01 -0.11269920114E+02  0.26790996582E+02  0.00000000000E+00 0.  1.
</event>
<event>
 7    1  0.2950722E-010  0.4778727E+02  0.7816164E-02  0.1312668E+00
        -11   -1    0    0    0    0  0.00000000000E+00  0.00000000000E+00  0.45593999997E+02  0.45594000000E+02  0.51100000000E-03 0.  1.
         11   -1    0    0    0    0 -0.00000000000E+00 -0.00000000000E+00 -0.45593999997E+02  0.45594000000E+02  0.51100000000E-03 0. -1.
    9900012    2    1    2    0    0 -0.12105283255E+01  0.32429820713E+02 -0.28817783029E+02  0.47787271101E+02  0.20000000256E+02 0.  0.
        -12    1    1    2    0    0  0.12105283255E+01 -0.32429820713E+02  0.28817783029E+02  0.43400728899E+02  0.00000000000E+00 0.  1.
         11    1    3    3    0    0 -0.86488154435E+01  0.71321749670E+01 -0.54412791388E+01  0.12461037166E+02  0.51100000000E-03 0. -1.
        -11    1    3    3    0    0  0.64366908343E+01  0.17935405725E+02 -0.16808936914E+02  0.25409646355E+02  0.51100000000E-03 0.  1.
         12    1    3    3    0    0  0.10015962837E+01  0.73622400208E+01 -0.65675669755E+01  0.99165875793E+01  0.00000000000E+00 0. -1.
</event>
<event>
 7    1  0.2950722E-010  0.4778721E+02  0.7816164E-02  0.1312668E+00
        -11   -1    0    0    0    0  0.00000000000E+00  0.00000000000E+00  0.45593999997E+02  0.45594000000E+02  0.51100000000E-03 0.  1.
         11   -1    0    0    0    0 -0.00000000000E+00 -0.00000000000E+00 -0.45593999997E+02  0.45594000000E+02  0.51100000000E-03 0. -1.
    9900012    2    1    2    0    0  0.21014593863E+02 -0.37955779990E+02 -0.11723117097E+01  0.47787208480E+02  0.19999714740E+02 0.  0.
        -12    1    1    2    0    0 -0.21014593863E+02  0.37955779990E+02  0.11723117097E+01  0.43400791520E+02  0.00000000000E+00 0.  1.
         11    1    3    3    0    0  0.22303496835E+02 -0.30111688171E+02 -0.15785121837E+01  0.37505352106E+02  0.51100000000E-03 0. -1.
        -11    1    3    3    0    0 -0.20554151832E+01 -0.56973846590E+01 -0.25306229804E+01  0.65642194096E+01  0.51100000000E-03 0.  1.
        -12    1    3    3    0    0  0.76651221149E+00 -0.21467071591E+01  0.29368234543E+01  0.37176369644E+01  0.00000000000E+00 0.  1.
</event>
<event>
 7    1  0.2950722E-010  0.4778732E+02  0.7816164E-02  0.1312668E+00
        -11   -1    0    0    0    0  0.00000000000E+00  0.00000000000E+00  0.45593999997E+02  0.45594000000E+02  0.51100000000E-03 0.  1.
         11   -1    0    0    0    0 -0.00000000000E+00 -0.00000000000E+00 -0.45593999997E+02  0.45594000000E+02  0.51100000000E-03 0. -1.
    9900012    2    1    2    0    0 -0.19094631121E+02 -0.12811603709E+02 -0.36808657450E+02  0.47787315783E+02  0.20000203979E+02 0.  0.
        -12    1    1    2    0    0  0.19094631121E+02  0.12811603709E+02  0.36808657450E+02  0.43400684217E+02  0.00000000000E+00 0.  1.
         11    1    3    3    0    0 -0.43074627620E+01  0.49976745490E+01 -0.71253898918E+01  0.97109303218E+01  0.51100000000E-03 0. -1.
        -11    1    3    3    0    0 -0.51944428061E+00 -0.34707973538E+01 -0.31793392377E+01  0.47354466401E+01  0.51100000000E-03 0.  1.
         12    1    3    3    0    0 -0.14267724079E+02 -0.14338480905E+02 -0.26503928320E+02  0.33340938821E+02  0.00000000000E+00 0. -1.
</event>
<event>
 7    1  0.2950722E-010  0.4778727E+02  0.7816164E-02  0.1312668E+00
        -11   -1    0    0    0    0  0.00000000000E+00  0.00000000000E+00  0.45593999997E+02  0.45594000000E+02  0.51100000000E-03 0. -1.
         11   -1    0    0    0    0 -0.00000000000E+00 -0.00000000000E+00 -0.45593999997E+02  0.45594000000E+02  0.51100000000E-03 0.  1.
    9900012    2    1    2    0    0  0.22803668106E+02  0.36136466819E+02 -0.76007685626E+01  0.47787271942E+02  0.20000004092E+02 0.  0.
        -12    1    1    2    0    0 -0.22803668106E+02 -0.36136466819E+02  0.76007685626E+01  0.43400728058E+02  0.00000000000E+00 0.  1.
         11    1    3    3    0    0  0.13810395450E+02  0.11034354656E+02 -0.10932169913E+02  0.20784521752E+02  0.51100000000E-03 0. -1.
        -11    1    3    3    0    0  0.89166172144E+01  0.23018137581E+02  0.27481082036E+01  0.24837327135E+02  0.51100000000E-03 0.  1.
         12    1    3    3    0    0  0.76655441301E-01  0.20839745816E+01  0.58329314687E+00  0.21654230554E+01  0.00000000000E+00 0. -1.
</event>
<event>
 7    1  0.2950722E-010  0.4778727E+02  0.7816164E-02  0.1312668E+00
        -11   -1    0    0    0    0  0.00000000000E+00  0.00000000000E+00  0.45593999997E+02  0.45594000000E+02  0.51100000000E-03 0.  1.
         11   -1    0    0    0    0 -0.00000000000E+00 -0.00000000000E+00 -0.45593999997E+02  0.45594000000E+02  0.51100000000E-03 0. -1.
    9900012    2    1    2    0    0 -0.91064707900E+01 -0.41979746347E+02 -0.61964692698E+01  0.47787272529E+02  0.20000006769E+02 0.  0.
        -12    1    1    2    0    0  0.91064707900E+01  0.41979746347E+02  0.61964692698E+01  0.43400727471E+02  0.00000000000E+00 0.  1.
         11    1    3    3    0    0 -0.17124797534E+01 -0.16217923812E+02 -0.51852838661E+01  0.17112592110E+02  0.51100000000E-03 0. -1.
        -11    1    3    3    0    0  0.13106089115E+01 -0.37582239106E+01  0.48723474039E+01  0.62913998575E+01  0.51100000000E-03 0.  1.
        -12    1    3    3    0    0 -0.87045999481E+01 -0.22003598624E+02 -0.58835328076E+01  0.24383280562E+02  0.00000000000E+00 0.  1.
</event>
<event>
 7    1  0.2950722E-010  0.4778728E+02  0.7816164E-02  0.1312668E+00
        -11   -1    0    0    0    0  0.00000000000E+00  0.00000000000E+00  0.45593999997E+02  0.45594000000E+02  0.51100000000E-03 0.  1.
         11   -1    0    0    0    0 -0.00000000000E+00 -0.00000000000E+00 -0.45593999997E+02  0.45594000000E+02  0.51100000000E-03 0. -1.
    9900012    2    1    2    0    0 -0.16168649477E+01 -0.21389276539E+02 -0.37729394896E+02  0.47787278320E+02  0.20000033173E+02 0.  0.
        -12    1    1    2    0    0  0.16168649477E+01  0.21389276539E+02  0.37729394896E+02  0.43400721680E+02  0.00000000000E+00 0.  1.
         11    1    3    3    0    0  0.12075152526E+01  0.23431752550E+01 -0.28985175267E+01  0.39179034540E+01  0.51100000000E-03 0. -1.
        -11    1    3    3    0    0 -0.33734890007E+01 -0.24977203658E+02 -0.32045878557E+02  0.40769835214E+02  0.51100000000E-03 0.  1.
        -12    1    3    3    0    0  0.54910880036E+00  0.12447518635E+01 -0.27849988118E+01  0.30995396525E+01  0.00000000000E+00 0.  1.
</event>
<event>
 7    1  0.2950722E-010  0.4778729E+02  0.7816164E-02  0.1312668E+00
        -11   -1    0    0    0    0  0.00000000000E+00  0.00000000000E+00  0.45593999997E+02  0.45594000000E+02  0.51100000000E-03 0. -1.
         11   -1    0    0    0    0 -0.00000000000E+00 -0.00000000000E+00 -0.45593999997E+02  0.45594000000E+02  0.51100000000E-03 0.  1.
    9900012    2    1    2    0    0 -0.28239874260E+02 -0.20887152868E+02  0.25492312333E+02  0.47787289853E+02  0.20000085758E+02 0.  0.
        -12    1    1    2    0    0  0.28239874260E+02  0.20887152868E+02 -0.25492312333E+02  0.43400710147E+02  0.00000000000E+00 0.  1.
         11    1    3    3    0    0 -0.13913580956E+02 -0.88457370029E+01  0.97389861428E+01  0.19148959489E+02  0.51100000000E-03 0. -1.
        -11    1    3    3    0    0 -0.12099869148E+02 -0.81225729798E+01  0.26902915028E+01  0.14819605050E+02  0.51100000000E-03 0.  1.
        -12    1    3    3    0    0 -0.22264241556E+01 -0.39188428851E+01  0.13063034687E+02  0.13818725314E+02  0.00000000000E+00 0.  1.
</event>
<event>
 7    1  0.2950722E-010  0.4778728E+02  0.7816164E-02  0.1312668E+00
        -11   -1    0    0    0    0  0.00000000000E+00  0.00000000000E+00  0.45593999997E+02  0.45594000000E+02  0.51100000000E-03 0.  1.
         11   -1    0    0    0    0 -0.00000000000E+00 -0.00000000000E+00 -0.45593999997E+02  0.45594000000E+02  0.51100000000E-03 0. -1.
    9900012    2    1    2    0    0  0.30218102649E+02  0.19035800614E+00 -0.31152087422E+02  0.47787279792E+02  0.20000039882E+02 0.  0.
        -12    1    1    2    0    0 -0.30218102649E+02 -0.19035800614E+00  0.31152087422E+02  0.43400720208E+02  0.00000000000E+00 0.  1.
         11    1    3    3    0    0  0.10627580356E+02  0.54810845901E+01 -0.18674200368E+02  0.22174614138E+02  0.51100000000E-03 0.  1.
        -11    1    3    3    0    0  0.18516293283E+02 -0.20388905129E+01 -0.88497139992E+01  0.20623472782E+02  0.51100000000E-03 0. -1.
        -12    1    3    3    0    0  0.10742290101E+01 -0.32518360711E+01 -0.36281730550E+01  0.49891928723E+01  0.00000000000E+00 0.  1.
</event>
<event>
 7    1  0.2950722E-010  0.4778727E+02  0.7816164E-02  0.1312668E+00
        -11   -1    0    0    0    0  0.00000000000E+00  0.00000000000E+00  0.45593999997E+02  0.45594000000E+02  0.51100000000E-03 0.  1.
         11   -1    0    0    0    0 -0.00000000000E+00 -0.00000000000E+00 -0.45593999997E+02  0.45594000000E+02  0.51100000000E-03 0. -1.
    9900012    2    1    2    0    0  0.14781243476E+02 -0.14168648455E+01 -0.40781497844E+02  0.47787271537E+02  0.20000002246E+02 0.  0.
        -12    1    1    2    0    0 -0.14781243476E+02  0.14168648455E+01  0.40781497844E+02  0.43400728463E+02  0.00000000000E+00 0.  1.
         11    1    3    3    0    0  0.56870803989E+01 -0.46253078585E+01 -0.32862566083E+02  0.33670233235E+02  0.51100000000E-03 0. -1.
        -11    1    3    3    0    0  0.30524224665E+01  0.32298420793E+01 -0.38629565529E+00  0.44607608505E+01  0.51100000000E-03 0.  1.
         12    1    3    3    0    0  0.60417406104E+01 -0.21399066366E-01 -0.75326361061E+01  0.96562774520E+01  0.00000000000E+00 0. -1.
</event>
<event>
 7    1  0.2950722E-010  0.4778727E+02  0.7816164E-02  0.1312668E+00
        -11   -1    0    0    0    0  0.00000000000E+00  0.00000000000E+00  0.45593999997E+02  0.45594000000E+02  0.51100000000E-03 0.  1.
         11   -1    0    0    0    0 -0.00000000000E+00 -0.00000000000E+00 -0.45593999997E+02  0.45594000000E+02  0.51100000000E-03 0. -1.
    9900012    2    1    2    0    0 -0.15328104725E+02 -0.31831750313E+02 -0.25207378278E+02  0.47787273715E+02  0.20000012174E+02 0.  0.
        -12    1    1    2    0    0  0.15328104725E+02  0.31831750313E+02  0.25207378278E+02  0.43400726285E+02  0.00000000000E+00 0.  1.
         11    1    3    3    0    0 -0.47552309365E+01 -0.15200553786E+02 -0.56220280832E+01  0.16890123051E+02  0.51100000000E-03 0. -1.
        -11    1    3    3    0    0 -0.25460264402E+01 -0.41773912905E+01 -0.14385734611E+02  0.15194808626E+02  0.51100000000E-03 0.  1.
        -12    1    3    3    0    0 -0.80268473480E+01 -0.12453805237E+02 -0.51996155833E+01  0.15702342037E+02  0.00000000000E+00 0.  1.
</event>
<event>
 7    1  0.2950722E-010  0.4778727E+02  0.7816164E-02  0.1312668E+00
        -11   -1    0    0    0    0  0.00000000000E+00  0.00000000000E+00  0.45593999997E+02  0.45594000000E+02  0.51100000000E-03 0.  1.
         11   -1    0    0    0    0 -0.00000000000E+00 -0.00000000000E+00 -0.45593999997E+02  0.45594000000E+02  0.51100000000E-03 0. -1.
    9900012    2    1    2    0    0 -0.23971842123E+02  0.34880250913E+02  0.96094995296E+01  0.47787267290E+02  0.19999982882E+02 0.  0.
        -12    1    1    2    0    0  0.23971842123E+02 -0.34880250913E+02 -0.96094995296E+01  0.43400732710E+02  0.00000000000E+00 0.  1.
         11    1    3    3    0    0  0.15102513637E+01  0.39456648827E+01 -0.20172157240E+00  0.42296362021E+01  0.51100000000E-03 0.  1.
        -11    1    3    3    0    0 -0.24503156458E+02  0.25689134782E+02  0.40929155918E+01  0.35736371955E+02  0.51100000000E-03 0. -1.
         12    1    3    3    0    0 -0.97893702932E+00  0.52454512493E+01  0.57183055102E+01  0.78212591329E+01  0.00000000000E+00 0. -1.
</event>
<event>
 7    1  0.2950722E-010  0.4778726E+02  0.7816164E-02  0.1312668E+00
        -11   -1    0    0    0    0  0.00000000000E+00  0.00000000000E+00  0.45593999997E+02  0.45594000000E+02  0.51100000000E-03 0. -1.
         11   -1    0    0    0    0 -0.00000000000E+00 -0.00000000000E+00 -0.45593999997E+02  0.45594000000E+02  0.51100000000E-03 0.  1.
    9900012    2    1    2    0    0  0.28001080718E+02  0.30165260160E+02  0.13770298911E+02  0.47787256066E+02  0.19999931708E+02 0.  0.
        -12    1    1    2    0    0 -0.28001080718E+02 -0.30165260160E+02 -0.13770298911E+02  0.43400743934E+02  0.00000000000E+00 0.  1.
         11    1    3    3    0    0  0.22495699246E+02  0.23034779395E+02  0.82529414809E+01  0.33238059355E+02  0.51100000000E-03 0. -1.
        -11    1    3    3    0    0  0.52826998665E+01 -0.88604763269E+00  0.30228191858E+01  0.61505637448E+01  0.51100000000E-03 0.  1.
         12    1    3    3    0    0  0.22268160547E+00  0.80165283979E+01  0.24945382438E+01  0.83986329662E+01  0.00000000000E+00 0. -1.
</event>
<event>
 7    1  0.2950722E-010  0.4778727E+02  0.7816164E-02  0.1312668E+00
        -11   -1    0    0    0    0  0.00000000000E+00  0.00000000000E+00  0.45593999997E+02  0.45594000000E+02  0.51100000000E-03 0.  1.
         11   -1    0    0    0    0 -0.00000000000E+00 -0.00000000000E+00 -0.45593999997E+02  0.45594000000E+02  0.51100000000E-03 0. -1.
    9900012    2    1    2    0    0  0.17100156929E+01  0.14439948202E+01 -0.43342984974E+02  0.47787267043E+02  0.19999981757E+02 0.  0.
        -12    1    1    2    0    0 -0.17100156929E+01 -0.14439948202E+01  0.43342984974E+02  0.43400732957E+02  0.00000000000E+00 0.  1.
         11    1    3    3    0    0 -0.71694917959E+01 -0.19201407049E+01 -0.21073768963E+02  0.22342611564E+02  0.51100000000E-03 0. -1.
        -11    1    3    3    0    0  0.65505507877E+01 -0.13272883198E+01 -0.92555592966E+01  0.11416513831E+02  0.51100000000E-03 0.  1.
        -12    1    3    3    0    0  0.23289567011E+01  0.46914238449E+01 -0.13013656714E+02  0.14028141648E+02  0.00000000000E+00 0.  1.
</event>
<event>
 7    1  0.2950722E-010  0.4778726E+02  0.7816164E-02  0.1312668E+00
        -11   -1    0    0    0    0  0.00000000000E+00  0.00000000000E+00  0.45593999997E+02  0.45594000000E+02  0.51100000000E-03 0. -1.
         11   -1    0    0    0    0 -0.00000000000E+00 -0.00000000000E+00 -0.45593999997E+02  0.45594000000E+02  0.51100000000E-03 0.  1.
    9900012    2    1    2    0    0  0.15783045494E+02 -0.25808166178E+02  0.31120065745E+02  0.47787257397E+02  0.19999937775E+02 0.  0.
        -12    1    1    2    0    0 -0.15783045494E+02  0.25808166178E+02 -0.31120065745E+02  0.43400742603E+02  0.00000000000E+00 0.  1.
         11    1    3    3    0    0  0.40454146446E+01 -0.11720379994E+02  0.14784236813E+01  0.12486729904E+02  0.51100000000E-03 0.  1.
        -11    1    3    3    0    0  0.92149264389E+01 -0.85513449257E+01  0.15878417441E+02  0.20252518609E+02  0.51100000000E-03 0. -1.
        -12    1    3    3    0    0  0.25227044101E+01 -0.55364412581E+01  0.13763224623E+02  0.15048008883E+02  0.00000000000E+00 0.  1.
</event>
<event>
 7    1  0.2950722E-010  0.4778728E+02  0.7816164E-02  0.1312668E+00
        -11   -1    0    0    0    0  0.00000000000E+00  0.00000000000E+00  0.45593999997E+02  0.45594000000E+02  0.51100000000E-03 0.  1.
         11   -1    0    0    0    0 -0.00000000000E+00 -0.00000000000E+00 -0.45593999997E+02  0.45594000000E+02  0.51100000000E-03 0. -1.
    9900012    2    1    2    0    0  0.61115053342E+01  0.81787535939E+01 -0.42182698390E+02  0.47787279370E+02  0.20000037958E+02 0.  0.
        -12    1    1    2    0    0 -0.61115053342E+01 -0.81787535939E+01  0.42182698390E+02  0.43400720630E+02  0.00000000000E+00 0.  1.
         11    1    3    3    0    0  0.97503721030E+00  0.22846097847E+01 -0.62567799717E+00  0.25615644921E+01  0.51100000000E-03 0.  1.
        -11    1    3    3    0    0 -0.23143284316E+01  0.90841203734E+01 -0.17694190000E+02  0.20024028542E+02  0.51100000000E-03 0. -1.
        -12    1    3    3    0    0  0.74507965555E+01 -0.31899765643E+01 -0.23862830392E+02  0.25201686335E+02  0.00000000000E+00 0.  1.
</event>
<event>
 7    1  0.2950722E-010  0.4778727E+02  0.7816164E-02  0.1312668E+00
        -11   -1    0    0    0    0  0.00000000000E+00  0.00000000000E+00  0.45593999997E+02  0.45594000000E+02  0.51100000000E-03 0.  1.
         11   -1    0    0    0    0 -0.00000000000E+00 -0.00000000000E+00 -0.45593999997E+02  0.45594000000E+02  0.51100000000E-03 0. -1.
    9900012    2    1    2    0    0  0.15393772056E+02  0.17097023992E+02 -0.36801455064E+02  0.47787267952E+02  0.19999985900E+02 0.  0.
        -12    1    1    2    0    0 -0.15393772056E+02 -0.17097023992E+02  0.36801455064E+02  0.43400732048E+02  0.00000000000E+00 0.  1.
         11    1    3    3    0    0  0.16596664220E+02  0.17100682573E+02 -0.30673711852E+02  0.38842749732E+02  0.51100000000E-03 0. -1.
        -11    1    3    3    0    0 -0.34332686942E+01  0.15667875596E+01 -0.32645894919E+01  0.49899601196E+01  0.51100000000E-03 0.  1.
         12    1    3    3    0    0  0.22303765296E+01 -0.15704461405E+01 -0.28631537205E+01  0.39545581007E+01  0.00000000000E+00 0. -1.
</event>
<event>
 7    1  0.2950722E-010  0.4778727E+02  0.7816164E-02  0.1312668E+00
        -11   -1    0    0    0    0  0.00000000000E+00  0.00000000000E+00  0.45593999997E+02  0.45594000000E+02  0.51100000000E-03 0.  1.
         11   -1    0    0    0    0 -0.00000000000E+00 -0.00000000000E+00 -0.45593999997E+02  0.45594000000E+02  0.51100000000E-03 0. -1.
    9900012    2    1    2    0    0 -0.17923050218E+02  0.19086496244E+02 -0.34613489940E+02  0.47787265515E+02  0.19999974790E+02 0.  0.
        -12    1    1    2    0    0  0.17923050218E+02 -0.19086496244E+02  0.34613489940E+02  0.43400734485E+02  0.00000000000E+00 0.  1.
         11    1    3    3    0    0 -0.12385854427E+02  0.46906183389E+01 -0.10866857325E+02  0.17131838158E+02  0.51100000000E-03 0. -1.
        -11    1    3    3    0    0  0.37092117278E+01  0.45027627631E+01 -0.76446535347E+01  0.96163325685E+01  0.51100000000E-03 0.  1.
        -12    1    3    3    0    0 -0.92464075187E+01  0.98931151420E+01 -0.16101979081E+02  0.21039094789E+02  0.00000000000E+00 0.  1.
</event>
<event>
 7    1  0.2950722E-010  0.4778727E+02  0.7816164E-02  0.1312668E+00
        -11   -1    0    0    0    0  0.00000000000E+00  0.00000000000E+00  0.45593999997E+02  0.45594000000E+02  0.51100000000E-03 0. -1.
         11   -1    0    0    0    0 -0.00000000000E+00 -0.00000000000E+00 -0.45593999997E+02  0.45594000000E+02  0.51100000000E-03 0.  1.
    9900012    2    1    2    0    0  0.39144644351E+02  0.10827635384E+02  0.15299768180E+02  0.47787265263E+02  0.19999973639E+02 0.  0.
        -12    1    1    2    0    0 -0.39144644351E+02 -0.10827635384E+02 -0.15299768180E+02  0.43400734737E+02  0.00000000000E+00 0.  1.
         11    1    3    3    0    0  0.23247696517E+02  0.10611251783E+02  0.14527972575E+01  0.25596184830E+02  0.51100000000E-03 0. -1.
        -11    1    3    3    0    0  0.12825575884E+02  0.19138366503E+01  0.76126884456E+01  0.15036994151E+02  0.51100000000E-03 0.  1.
         12    1    3    3    0    0  0.30713719499E+01 -0.16974530491E+01  0.62342824773E+01  0.71540862810E+01  0.00000000000E+00 0. -1.
</event>
<event>
 7    1  0.2950722E-010  0.4778726E+02  0.7816164E-02  0.1312668E+00
        -11   -1    0    0    0    0  0.00000000000E+00  0.00000000000E+00  0.45593999997E+02  0.45594000000E+02  0.51100000000E-03 0. -1.
         11   -1    0    0    0    0 -0.00000000000E+00 -0.00000000000E+00 -0.45593999997E+02  0.45594000000E+02  0.51100000000E-03 0.  1.
    9900012    2    1    2    0    0 -0.37406917032E+02  0.81363542085E+01  0.20448629997E+02  0.47787260717E+02  0.19999952911E+02 0.  0.
        -12    1    1    2    0    0  0.37406917032E+02 -0.81363542085E+01 -0.20448629997E+02  0.43400739283E+02  0.00000000000E+00 0.  1.
         11    1    3    3    0    0 -0.21510702734E+02  0.13190137300E+02  0.15391010383E+02  0.29556272684E+02  0.51100000000E-03 0. -1.
        -11    1    3    3    0    0 -0.45135123489E+01 -0.25421806986E+01 -0.70480456615E+00  0.52279275211E+01  0.51100000000E-03 0.  1.
        -12    1    3    3    0    0 -0.11382701949E+02 -0.25116023931E+01  0.57624241801E+01  0.13003060512E+02  0.00000000000E+00 0.  1.
</event>
<event>
 7    1  0.2950722E-010  0.4778726E+02  0.7816164E-02  0.1312668E+00
        -11   -1    0    0    0    0  0.00000000000E+00  0.00000000000E+00  0.45593999997E+02  0.45594000000E+02  0.51100000000E-03 0.  1.
         11   -1    0    0    0    0 -0.00000000000E+00 -0.00000000000E+00 -0.45593999997E+02  0.45594000000E+02  0.51100000000E-03 0. -1.
    9900012    2    1    2    0    0  0.26972250133E+02  0.30084121425E+02 -0.15845103904E+02  0.47787263175E+02  0.19999964122E+02 0.  0.
        -12    1    1    2    0    0 -0.26972250133E+02 -0.30084121425E+02  0.15845103904E+02  0.43400736825E+02  0.00000000000E+00 0.  1.
         11    1    3    3    0    0  0.10862329854E+02  0.12083274154E+02 -0.15741032804E+02  0.22622463132E+02  0.51100000000E-03 0. -1.
        -11    1    3    3    0    0  0.59541512325E-02  0.15939899240E+01 -0.14238431419E+01  0.21373275096E+01  0.51100000000E-03 0.  1.
         12    1    3    3    0    0  0.16103966128E+02  0.16406857347E+02  0.13197720423E+01  0.23027472534E+02  0.00000000000E+00 0. -1.
</event>
<event>
 7    1  0.2950722E-010  0.4778727E+02  0.7816164E-02  0.1312668E+00
        -11   -1    0    0    0    0  0.00000000000E+00  0.00000000000E+00  0.45593999997E+02  0.45594000000E+02  0.51100000000E-03 0.  1.
         11   -1    0    0    0    0 -0.00000000000E+00 -0.00000000000E+00 -0.45593999997E+02  0.45594000000E+02  0.51100000000E-03 0. -1.
    9900012    2    1    2    0    0  0.45624158694E+01  0.60149603613E+01 -0.42739064083E+02  0.47787274368E+02  0.20000015155E+02 0.  0.
        -12    1    1    2    0    0 -0.45624158694E+01 -0.60149603613E+01  0.42739064083E+02  0.43400725632E+02  0.00000000000E+00 0.  1.
         11    1    3    3    0    0  0.67144356451E+01  0.12312483065E+01 -0.60208985478E+01  0.91022435701E+01  0.51100000000E-03 0. -1.
        -11    1    3    3    0    0 -0.57906203301E+01  0.42924595459E+01 -0.31438248863E+02  0.32253991762E+02  0.51100000000E-03 0.  1.
        -12    1    3    3    0    0  0.36386005544E+01  0.49125250888E+00 -0.52799166717E+01  0.64310390360E+01  0.00000000000E+00 0.  1.
</event>
<event>
 7    1  0.3113230E-010  0.4778727E+02  0.7816164E-02  0.1312668E+00
        -11   -1    0    0    0    0  0.00000000000E+00  0.00000000000E+00  0.45593999997E+02  0.45594000000E+02  0.51100000000E-03 0. -1.
         11   -1    0    0    0    0 -0.00000000000E+00 -0.00000000000E+00 -0.45593999997E+02  0.45594000000E+02  0.51100000000E-03 0.  1.
    9900012    2    1    2    0    0 -0.39564807315E+02  0.14989168406E+02 -0.96733648444E+01  0.47787272647E+02  0.20000007306E+02 0.  0.
        -12    1    1    2    0    0  0.39564807315E+02 -0.14989168406E+02  0.96733648444E+01  0.43400727353E+02  0.00000000000E+00 0.  1.
         11    1    3    3    0    0 -0.24508077061E+02  0.14872499954E+02 -0.49952776690E+01  0.29099654557E+02  0.51100000000E-03 0. -1.
        -11    1    3    3    0    0 -0.38554881225E+01 -0.19755318996E+01  0.27073960758E+01  0.51085720824E+01  0.51100000000E-03 0.  1.
         12    1    3    3    0    0 -0.11201242132E+02  0.20922003509E+01 -0.73854832511E+01  0.13579046007E+02  0.00000000000E+00 0. -1.
</event>
<event>
 7    1  0.2950722E-010  0.4778727E+02  0.7816164E-02  0.1312668E+00
        -11   -1    0    0    0    0  0.00000000000E+00  0.00000000000E+00  0.45593999997E+02  0.45594000000E+02  0.51100000000E-03 0.  1.
         11   -1    0    0    0    0 -0.00000000000E+00 -0.00000000000E+00 -0.45593999997E+02  0.45594000000E+02  0.51100000000E-03 0. -1.
    9900012    2    1    2    0    0  0.61168282167E+01 -0.41091908281E+02  0.12556389501E+02  0.47787269236E+02  0.19999991753E+02 0.  0.
        -12    1    1    2    0    0 -0.61168282167E+01  0.41091908281E+02 -0.12556389501E+02  0.43400730764E+02  0.00000000000E+00 0.  1.
         11    1    3    3    0    0 -0.29882451923E+00 -0.15182921567E+02  0.75868996768E+01  0.16975613402E+02  0.51100000000E-03 0. -1.
        -11    1    3    3    0    0  0.55629782773E+01 -0.12496980091E+02 -0.44673708796E+01  0.14390227293E+02  0.51100000000E-03 0.  1.
        -12    1    3    3    0    0  0.85267445859E+00 -0.13412006623E+02  0.94368607036E+01  0.16421428541E+02  0.00000000000E+00 0.  1.
</event>
<event>
 7    1  0.2950722E-010  0.4778725E+02  0.7816164E-02  0.1312668E+00
        -11   -1    0    0    0    0  0.00000000000E+00  0.00000000000E+00  0.45593999997E+02  0.45594000000E+02  0.51100000000E-03 0. -1.
         11   -1    0    0    0    0 -0.00000000000E+00 -0.00000000000E+00 -0.45593999997E+02  0.45594000000E+02  0.51100000000E-03 0.  1.
    9900012    2    1    2    0    0  0.43062436436E+02 -0.14034126503E-01  0.54084481665E+01  0.47787251846E+02  0.19999912466E+02 0.  0.
        -12    1    1    2    0    0 -0.43062436436E+02  0.14034126503E-01 -0.54084481665E+01  0.43400748154E+02  0.00000000000E+00 0.  1.
         11    1    3    3    0    0  0.62905235871E+01 -0.20871750387E+00  0.50247808346E+01  0.80537365671E+01  0.51100000000E-03 0. -1.
        -11    1    3    3    0    0  0.34814103267E+02  0.45700537318E+00 -0.38818440449E+01  0.35032832510E+02  0.51100000000E-03 0.  1.
        -12    1    3    3    0    0  0.19578095820E+01 -0.26232199581E+00  0.42655113768E+01  0.47006827690E+01  0.00000000000E+00 0.  1.
</event>
<event>
 7    1  0.2950722E-010  0.4778727E+02  0.7816164E-02  0.1312668E+00
        -11   -1    0    0    0    0  0.00000000000E+00  0.00000000000E+00  0.45593999997E+02  0.45594000000E+02  0.51100000000E-03 0. -1.
         11   -1    0    0    0    0 -0.00000000000E+00 -0.00000000000E+00 -0.45593999997E+02  0.45594000000E+02  0.51100000000E-03 0.  1.
    9900012    2    1    2    0    0 -0.12872960597E+02 -0.41443386806E+02  0.59643940343E+00  0.47787272305E+02  0.20000005747E+02 0.  0.
        -12    1    1    2    0    0  0.12872960597E+02  0.41443386806E+02 -0.59643940343E+00  0.43400727695E+02  0.00000000000E+00 0.  1.
         11    1    3    3    0    0 -0.54088777712E+00 -0.17101853426E+02 -0.32354244676E+00  0.17113463419E+02  0.51100000000E-03 0. -1.
        -11    1    3    3    0    0 -0.88753793318E+00 -0.12689279864E+02  0.52748961773E+01  0.13770623697E+02  0.51100000000E-03 0.  1.
        -12    1    3    3    0    0 -0.11444534886E+02 -0.11652253515E+02 -0.43549143271E+01  0.16903185189E+02  0.00000000000E+00 0.  1.
</event>
<event>
 7    1  0.2950722E-010  0.4778727E+02  0.7816164E-02  0.1312668E+00
        -11   -1    0    0    0    0  0.00000000000E+00  0.00000000000E+00  0.45593999997E+02  0.45594000000E+02  0.51100000000E-03 0.  1.
         11   -1    0    0    0    0 -0.00000000000E+00 -0.00000000000E+00 -0.45593999997E+02  0.45594000000E+02  0.51100000000E-03 0. -1.
    9900012    2    1    2    0    0  0.73413334257E+01 -0.30072928425E+02 -0.30419513638E+02  0.47787274079E+02  0.20000013834E+02 0.  0.
        -12    1    1    2    0    0 -0.73413334257E+01  0.30072928425E+02  0.30419513638E+02  0.43400725921E+02  0.00000000000E+00 0.  1.
         11    1    3    3    0    0 -0.56345867161E+00 -0.14623042184E+02 -0.44247075898E+01  0.15288194331E+02  0.51100000000E-03 0. -1.
        -11    1    3    3    0    0  0.94779685082E+01 -0.12409808513E+02 -0.23686456711E+02  0.28370468205E+02  0.51100000000E-03 0.  1.
        -12    1    3    3    0    0 -0.15731764108E+01 -0.30400777273E+01 -0.23083493380E+01  0.41286115431E+01  0.00000000000E+00 0.  1.
</event>
<event>
 7    1  0.2950722E-010  0.4778727E+02  0.7816164E-02  0.1312668E+00
        -11   -1    0    0    0    0  0.00000000000E+00  0.00000000000E+00  0.45593999997E+02  0.45594000000E+02  0.51100000000E-03 0.  1.
         11   -1    0    0    0    0 -0.00000000000E+00 -0.00000000000E+00 -0.45593999997E+02  0.45594000000E+02  0.51100000000E-03 0. -1.
    9900012    2    1    2    0    0  0.29225181783E+02 -0.14976720389E+02 -0.28376218327E+02  0.47787272237E+02  0.20000005435E+02 0.  0.
        -12    1    1    2    0    0 -0.29225181783E+02  0.14976720389E+02  0.28376218327E+02  0.43400727763E+02  0.00000000000E+00 0.  1.
         11    1    3    3    0    0  0.20850307201E+02 -0.15967370228E+02 -0.23562483668E+02  0.35282897546E+02  0.51100000000E-03 0. -1.
        -11    1    3    3    0    0 -0.12688417480E+01 -0.67852974415E+00 -0.17145140190E+01  0.22382851868E+01  0.51100000000E-03 0.  1.
         12    1    3    3    0    0  0.96437163298E+01  0.16691795828E+01 -0.30992206403E+01  0.10266089504E+02  0.00000000000E+00 0. -1.
</event>
<event>
 7    1  0.2950722E-010  0.4778727E+02  0.7816164E-02  0.1312668E+00
        -11   -1    0    0    0    0  0.00000000000E+00  0.00000000000E+00  0.45593999997E+02  0.45594000000E+02  0.51100000000E-03 0.  1.
         11   -1    0    0    0    0 -0.00000000000E+00 -0.00000000000E+00 -0.45593999997E+02  0.45594000000E+02  0.51100000000E-03 0. -1.
    9900012    2    1    2    0    0  0.10213454977E+02  0.30110438613E+02 -0.29540990415E+02  0.47787270850E+02  0.19999999115E+02 0.  0.
        -12    1    1    2    0    0 -0.10213454977E+02 -0.30110438613E+02  0.29540990415E+02  0.43400729150E+02  0.00000000000E+00 0.  1.
         11    1    3    3    0    0  0.11338033521E+02  0.20797695235E+02 -0.14669313033E+02  0.27861871371E+02  0.51100000000E-03 0. -1.
        -11    1    3    3    0    0 -0.31764669485E+01  0.51555814239E+01 -0.13937587201E+02  0.15196259387E+02  0.51100000000E-03 0.  1.
        -12    1    3    3    0    0  0.20518884051E+01  0.41571619547E+01 -0.93409017975E+00  0.47291400919E+01  0.00000000000E+00 0.  1.
</event>
<event>
 7    1  0.2950722E-010  0.4778726E+02  0.7816164E-02  0.1312668E+00
        -11   -1    0    0    0    0  0.00000000000E+00  0.00000000000E+00  0.45593999997E+02  0.45594000000E+02  0.51100000000E-03 0. -1.
         11   -1    0    0    0    0 -0.00000000000E+00 -0.00000000000E+00 -0.45593999997E+02  0.45594000000E+02  0.51100000000E-03 0.  1.
    9900012    2    1    2    0    0 -0.80851285341E+01 -0.24004472036E+02  0.35242585965E+02  0.47787264446E+02  0.19999969916E+02 0.  0.
        -12    1    1    2    0    0  0.80851285341E+01  0.24004472036E+02 -0.35242585965E+02  0.43400735554E+02  0.00000000000E+00 0.  1.
         11    1    3    3    0    0 -0.41282480762E+01 -0.15668583460E+02  0.24142227214E+02  0.29075661212E+02  0.51100000000E-03 0. -1.
        -11    1    3    3    0    0  0.15438795273E+01 -0.12139412927E+00 -0.18540923491E+01  0.24157730086E+01  0.51100000000E-03 0.  1.
        -12    1    3    3    0    0 -0.55007599851E+01 -0.82144944472E+01  0.12954451100E+02  0.16295830225E+02  0.00000000000E+00 0.  1.
</event>
<event>
 7    1  0.2950722E-010  0.4778726E+02  0.7816164E-02  0.1312668E+00
        -11   -1    0    0    0    0  0.00000000000E+00  0.00000000000E+00  0.45593999997E+02  0.45594000000E+02  0.51100000000E-03 0.  1.
         11   -1    0    0    0    0 -0.00000000000E+00 -0.00000000000E+00 -0.45593999997E+02  0.45594000000E+02  0.51100000000E-03 0. -1.
    9900012    2    1    2    0    0  0.34743197559E+02 -0.17812122596E+02 -0.18954222611E+02  0.47787262186E+02  0.19999959613E+02 0.  0.
        -12    1    1    2    0    0 -0.34743197559E+02  0.17812122596E+02  0.18954222611E+02  0.43400737814E+02  0.00000000000E+00 0.  1.
         11    1    3    3    0    0  0.13655914302E+02 -0.63089372979E+01 -0.16332195199E+02  0.22204217742E+02  0.51100000000E-03 0. -1.
        -11    1    3    3    0    0  0.21227577718E+02 -0.92298385561E+01 -0.20720192992E+01  0.23239906192E+02  0.51100000000E-03 0.  1.
        -12    1    3    3    0    0 -0.14029446216E+00 -0.22733467424E+01 -0.55000811257E+00  0.23431382527E+01  0.00000000000E+00 0.  1.
</event>
<event>
 7    1  0.2950722E-010  0.4778727E+02  0.7816164E-02  0.1312668E+00
        -11   -1    0    0    0    0  0.00000000000E+00  0.00000000000E+00  0.45593999997E+02  0.45594000000E+02  0.51100000000E-03 0.  1.
         11   -1    0    0    0    0 -0.00000000000E+00 -0.00000000000E+00 -0.45593999997E+02  0.45594000000E+02  0.51100000000E-03 0. -1.
    9900012    2    1    2    0    0 -0.40491165253E+02 -0.13411149768E+02 -0.80143375514E+01  0.47787274108E+02  0.20000013966E+02 0.  0.
        -12    1    1    2    0    0  0.40491165253E+02  0.13411149768E+02  0.80143375514E+01  0.43400725892E+02  0.00000000000E+00 0.  1.
         11    1    3    3    0    0 -0.32950759947E+02 -0.84973301526E+01 -0.10037829812E+02  0.35478376913E+02  0.51100000000E-03 0. -1.
        -11    1    3    3    0    0 -0.47761814202E+01 -0.10916002272E+01  0.47805507004E+01  0.68452293808E+01  0.51100000000E-03 0.  1.
         12    1    3    3    0    0 -0.27642238856E+01 -0.38222193878E+01 -0.27570584394E+01  0.54636678135E+01  0.00000000000E+00 0. -1.
</event>
<event>
 7    1  0.2950722E-010  0.4778727E+02  0.7816164E-02  0.1312668E+00
        -11   -1    0    0    0    0  0.00000000000E+00  0.00000000000E+00  0.45593999997E+02  0.45594000000E+02  0.51100000000E-03 0. -1.
         11   -1    0    0    0    0 -0.00000000000E+00 -0.00000000000E+00 -0.45593999997E+02  0.45594000000E+02  0.51100000000E-03 0.  1.
    9900012    2    1    2    0    0 -0.14715644734E+02  0.16218950687E+02  0.37470234389E+02  0.47787273895E+02  0.20000012995E+02 0.  0.
        -12    1    1    2    0    0  0.14715644734E+02 -0.16218950687E+02 -0.37470234389E+02  0.43400726105E+02  0.00000000000E+00 0.  1.
         11    1    3    3    0    0 -0.63984772227E+01  0.90351126604E+01  0.26667533607E+02  0.28874402513E+02  0.51100000000E-03 0. -1.
        -11    1    3    3    0    0 -0.30436336516E+01  0.56654634977E+01 -0.39433000384E+00  0.64433437641E+01  0.51100000000E-03 0.  1.
        -12    1    3    3    0    0 -0.52735338601E+01  0.15183745288E+01  0.11197030786E+02  0.12469527617E+02  0.00000000000E+00 0.  1.
</event>
<event>
 7    1  0.2950722E-010  0.4778727E+02  0.7816164E-02  0.1312668E+00
        -11   -1    0    0    0    0  0.00000000000E+00  0.00000000000E+00  0.45593999997E+02  0.45594000000E+02  0.51100000000E-03 0.  1.
         11   -1    0    0    0    0 -0.00000000000E+00 -0.00000000000E+00 -0.45593999997E+02  0.45594000000E+02  0.51100000000E-03 0. -1.
    9900012    2    1    2    0    0  0.91861633256E+01  0.22002253806E+02 -0.36264844377E+02  0.47787266056E+02  0.19999977256E+02 0.  0.
        -12    1    1    2    0    0 -0.91861633256E+01 -0.22002253806E+02  0.36264844377E+02  0.43400733944E+02  0.00000000000E+00 0.  1.
         11    1    3    3    0    0  0.10838309609E+02  0.95670423661E+01 -0.86109116344E+01  0.16826914579E+02  0.51100000000E-03 0.  1.
        -11    1    3    3    0    0 -0.22761318473E+01  0.26381271315E+01 -0.11885969807E+02  0.12386152326E+02  0.51100000000E-03 0. -1.
        -12    1    3    3    0    0  0.62398556387E+00  0.97970843087E+01 -0.15767962936E+02  0.18574199150E+02  0.00000000000E+00 0.  1.
</event>
<event>
 7    1  0.2950722E-010  0.4778729E+02  0.7816164E-02  0.1312668E+00
        -11   -1    0    0    0    0  0.00000000000E+00  0.00000000000E+00  0.45593999997E+02  0.45594000000E+02  0.51100000000E-03 0.  1.
         11   -1    0    0    0    0 -0.00000000000E+00 -0.00000000000E+00 -0.45593999997E+02  0.45594000000E+02  0.51100000000E-03 0. -1.
    9900012    2    1    2    0    0 -0.98255260344E+01 -0.16531450467E+02 -0.38907482929E+02  0.47787285210E+02  0.20000064588E+02 0.  0.
        -12    1    1    2    0    0  0.98255260344E+01  0.16531450467E+02  0.38907482929E+02  0.43400714790E+02  0.00000000000E+00 0.  1.
         11    1    3    3    0    0  0.36784920084E+01 -0.57197441844E+00 -0.22886837196E+01  0.43699578511E+01  0.51100000000E-03 0.  1.
        -11    1    3    3    0    0 -0.50629942173E+01 -0.13174832321E+02 -0.25867558759E+02  0.29467621443E+02  0.51100000000E-03 0. -1.
         12    1    3    3    0    0 -0.84410238254E+01 -0.27846437279E+01 -0.10751240450E+02  0.13949705916E+02  0.00000000000E+00 0. -1.
</event>
<event>
 7    1  0.2950722E-010  0.4778729E+02  0.7816164E-02  0.1312668E+00
        -11   -1    0    0    0    0  0.00000000000E+00  0.00000000000E+00  0.45593999997E+02  0.45594000000E+02  0.51100000000E-03 0. -1.
         11   -1    0    0    0    0 -0.00000000000E+00 -0.00000000000E+00 -0.45593999997E+02  0.45594000000E+02  0.51100000000E-03 0.  1.
    9900012    2    1    2    0    0  0.21012981607E+02  0.10686592739E+02  0.36439992419E+02  0.47787289086E+02  0.20000082258E+02 0.  0.
        -12    1    1    2    0    0 -0.21012981607E+02 -0.10686592739E+02 -0.36439992419E+02  0.43400710914E+02  0.00000000000E+00 0.  1.
         11    1    3    3    0    0  0.37597994380E+01 -0.40579734298E+01  0.31754198806E+01  0.63785995211E+01  0.51100000000E-03 0. -1.
        -11    1    3    3    0    0  0.12906360392E+02  0.14987893244E+02  0.30137912589E+02  0.36048645716E+02  0.51100000000E-03 0.  1.
        -12    1    3    3    0    0  0.43468217770E+01 -0.24332707453E+00  0.31266599485E+01  0.53600438487E+01  0.00000000000E+00 0.  1.
</event>
<event>
 7    1  0.2950722E-010  0.4778726E+02  0.7816164E-02  0.1312668E+00
        -11   -1    0    0    0    0  0.00000000000E+00  0.00000000000E+00  0.45593999997E+02  0.45594000000E+02  0.51100000000E-03 0.  1.
         11   -1    0    0    0    0 -0.00000000000E+00 -0.00000000000E+00 -0.45593999997E+02  0.45594000000E+02  0.51100000000E-03 0. -1.
    9900012    2    1    2    0    0 -0.11132871112E+02 -0.12412597227E+02 -0.40070071080E+02  0.47787262846E+02  0.19999962622E+02 0.  0.
        -12    1    1    2    0    0  0.11132871112E+02  0.12412597227E+02  0.40070071080E+02  0.43400737154E+02  0.00000000000E+00 0.  1.
         11    1    3    3    0    0  0.19969956000E+01 -0.12534067937E+02 -0.20717666058E+02  0.24296348237E+02  0.51100000000E-03 0. -1.
        -11    1    3    3    0    0 -0.59569970270E+01  0.37940833759E+00 -0.69509271424E+01  0.91621587340E+01  0.51100000000E-03 0.  1.
         12    1    3    3    0    0 -0.71728696855E+01 -0.25793762669E+00 -0.12401477880E+02  0.14328755876E+02  0.00000000000E+00 0. -1.
</event>
<event>
 7    1  0.2950722E-010  0.4778727E+02  0.7816164E-02  0.1312668E+00
        -11   -1    0    0    0    0  0.00000000000E+00  0.00000000000E+00  0.45593999997E+02  0.45594000000E+02  0.51100000000E-03 0. -1.
         11   -1    0    0    0    0 -0.00000000000E+00 -0.00000000000E+00 -0.45593999997E+02  0.45594000000E+02  0.51100000000E-03 0.  1.
    9900012    2    1    2    0    0 -0.20692209205E+02 -0.13362248025E+01  0.38127029844E+02  0.47787269324E+02  0.19999992155E+02 0.  0.
        -12    1    1    2    0    0  0.20692209205E+02  0.13362248025E+01 -0.38127029844E+02  0.43400730676E+02  0.00000000000E+00 0.  1.
         11    1    3    3    0    0 -0.85115789037E+01  0.14486850167E+01  0.26656302245E+02  0.28019709373E+02  0.51100000000E-03 0. -1.
        -11    1    3    3    0    0 -0.30881044332E+01 -0.47712498844E+01  0.10214864701E+01  0.57744826019E+01  0.51100000000E-03 0.  1.
         12    1    3    3    0    0 -0.90925258685E+01  0.19863400652E+01  0.10449241129E+02  0.13993077349E+02  0.00000000000E+00 0. -1.
</event>
<event>
 7    1  0.2950722E-010  0.4778727E+02  0.7816164E-02  0.1312668E+00
        -11   -1    0    0    0    0  0.00000000000E+00  0.00000000000E+00  0.45593999997E+02  0.45594000000E+02  0.51100000000E-03 0.  1.
         11   -1    0    0    0    0 -0.00000000000E+00 -0.00000000000E+00 -0.45593999997E+02  0.45594000000E+02  0.51100000000E-03 0. -1.
    9900012    2    1    2    0    0  0.10377024590E+02 -0.40493802206E+02 -0.11670152871E+02  0.47787272765E+02  0.20000007847E+02 0.  0.
        -12    1    1    2    0    0 -0.10377024590E+02  0.40493802206E+02  0.11670152871E+02  0.43400727235E+02  0.00000000000E+00 0.  1.
         11    1    3    3    0    0  0.68533263047E+00 -0.14864089061E+02 -0.10973262599E+02  0.18488464424E+02  0.51100000000E-03 0. -1.
        -11    1    3    3    0    0  0.11550374453E+02 -0.18026813239E+02 -0.12973078195E+01  0.21449012877E+02  0.51100000000E-03 0.  1.
        -12    1    3    3    0    0 -0.18586824939E+01 -0.76028999062E+01  0.60041754775E+00  0.78497954641E+01  0.00000000000E+00 0.  1.
</event>
<event>
 7    1  0.2950722E-010  0.4778727E+02  0.7816164E-02  0.1312668E+00
        -11   -1    0    0    0    0  0.00000000000E+00  0.00000000000E+00  0.45593999997E+02  0.45594000000E+02  0.51100000000E-03 0.  1.
         11   -1    0    0    0    0 -0.00000000000E+00 -0.00000000000E+00 -0.45593999997E+02  0.45594000000E+02  0.51100000000E-03 0. -1.
    9900012    2    1    2    0    0  0.76071080398E+01  0.69563557592E+01 -0.42158800209E+02  0.47787269439E+02  0.19999992681E+02 0.  0.
        -12    1    1    2    0    0 -0.76071080398E+01 -0.69563557592E+01  0.42158800209E+02  0.43400730561E+02  0.00000000000E+00 0.  1.
         11    1    3    3    0    0 -0.30351093379E+01  0.68804091893E+01 -0.20379086893E+02  0.21722318066E+02  0.51100000000E-03 0. -1.
        -11    1    3    3    0    0  0.49503065774E+01 -0.43215274046E+01 -0.68464633972E+01  0.94897415997E+01  0.51100000000E-03 0.  1.
         12    1    3    3    0    0  0.56919108003E+01  0.43974739745E+01 -0.14933249918E+02  0.16575209774E+02  0.00000000000E+00 0. -1.
</event>
<event>
 7    1  0.2950722E-010  0.4778727E+02  0.7816164E-02  0.1312668E+00
        -11   -1    0    0    0    0  0.00000000000E+00  0.00000000000E+00  0.45593999997E+02  0.45594000000E+02  0.51100000000E-03 0.  1.
         11   -1    0    0    0    0 -0.00000000000E+00 -0.00000000000E+00 -0.45593999997E+02  0.45594000000E+02  0.51100000000E-03 0. -1.
    9900012    2    1    2    0    0 -0.34926417732E+02 -0.92587178431E+01 -0.24042560151E+02  0.47787271777E+02  0.20000003340E+02 0.  0.
        -12    1    1    2    0    0  0.34926417732E+02  0.92587178431E+01  0.24042560151E+02  0.43400728223E+02  0.00000000000E+00 0.  1.
         11    1    3    3    0    0 -0.79928371622E+01  0.42485121280E+00 -0.79233553191E+01  0.11262570942E+02  0.51100000000E-03 0. -1.
        -11    1    3    3    0    0 -0.21744363683E+02 -0.11352549105E+02 -0.18351269257E+02  0.30634405604E+02  0.51100000000E-03 0.  1.
        -12    1    3    3    0    0 -0.51892168870E+01  0.16689800490E+01  0.22320644250E+01  0.58902952304E+01  0.00000000000E+00 0.  1.
</event>
<event>
 7    1  0.2950722E-010  0.4778727E+02  0.7816164E-02  0.1312668E+00
        -11   -1    0    0    0    0  0.00000000000E+00  0.00000000000E+00  0.45593999997E+02  0.45594000000E+02  0.51100000000E-03 0.  1.
         11   -1    0    0    0    0 -0.00000000000E+00 -0.00000000000E+00 -0.45593999997E+02  0.45594000000E+02  0.51100000000E-03 0. -1.
    9900012    2    1    2    0    0 -0.28682417847E+02  0.11725777340E+02 -0.30388295482E+02  0.47787269014E+02  0.19999990744E+02 0.  0.
        -12    1    1    2    0    0  0.28682417847E+02 -0.11725777340E+02  0.30388295482E+02  0.43400730986E+02  0.00000000000E+00 0.  1.
         11    1    3    3    0    0 -0.47414871327E+01 -0.12726249219E+01 -0.10924140861E+02  0.11976565795E+02  0.51100000000E-03 0. -1.
        -11    1    3    3    0    0 -0.18063918611E+02  0.15265610101E+02 -0.16576411851E+02  0.28881160597E+02  0.51100000000E-03 0.  1.
        -12    1    3    3    0    0 -0.58770121031E+01 -0.22672078389E+01 -0.28877427699E+01  0.69295426220E+01  0.00000000000E+00 0.  1.
</event>
<event>
 7    1  0.2950722E-010  0.4778727E+02  0.7816164E-02  0.1312668E+00
        -11   -1    0    0    0    0  0.00000000000E+00  0.00000000000E+00  0.45593999997E+02  0.45594000000E+02  0.51100000000E-03 0. -1.
         11   -1    0    0    0    0 -0.00000000000E+00 -0.00000000000E+00 -0.45593999997E+02  0.45594000000E+02  0.51100000000E-03 0.  1.
    9900012    2    1    2    0    0  0.17534147180E+02  0.83880900442E+01  0.38804858455E+02  0.47787269457E+02  0.19999992763E+02 0.  0.
        -12    1    1    2    0    0 -0.17534147180E+02 -0.83880900442E+01 -0.38804858455E+02  0.43400730543E+02  0.00000000000E+00 0.  1.
         11    1    3    3    0    0  0.19349898051E+02  0.10540433961E+02  0.34814471536E+02  0.41201537972E+02  0.51100000000E-03 0. -1.
        -11    1    3    3    0    0 -0.30220213751E+00 -0.31959376724E+01  0.16494092611E+01  0.36091404669E+01  0.51100000000E-03 0.  1.
         12    1    3    3    0    0 -0.15135487333E+01  0.10435937559E+01  0.23409776578E+01  0.29765910182E+01  0.00000000000E+00 0. -1.
</event>
<event>
 7    1  0.2950722E-010  0.4778727E+02  0.7816164E-02  0.1312668E+00
        -11   -1    0    0    0    0  0.00000000000E+00  0.00000000000E+00  0.45593999997E+02  0.45594000000E+02  0.51100000000E-03 0. -1.
         11   -1    0    0    0    0 -0.00000000000E+00 -0.00000000000E+00 -0.45593999997E+02  0.45594000000E+02  0.51100000000E-03 0.  1.
    9900012    2    1    2    0    0  0.35863219834E+02 -0.30767771355E+01 -0.24248422602E+02  0.47787273127E+02  0.20000009496E+02 0.  0.
        -12    1    1    2    0    0 -0.35863219834E+02  0.30767771355E+01  0.24248422602E+02  0.43400726873E+02  0.00000000000E+00 0.  1.
         11    1    3    3    0    0  0.16480078490E+02 -0.59696124603E+01 -0.13312996857E+02  0.22010568951E+02  0.51100000000E-03 0. -1.
        -11    1    3    3    0    0  0.17200932106E+02 -0.17362603439E+00 -0.36621161743E+01  0.17587305264E+02  0.51100000000E-03 0.  1.
        -12    1    3    3    0    0  0.21822092371E+01  0.30664613592E+01 -0.72733095707E+01  0.81893989116E+01  0.00000000000E+00 0.  1.
</event>
<event>
 7    1  0.2950722E-010  0.4778727E+02  0.7816164E-02  0.1312668E+00
        -11   -1    0    0    0    0  0.00000000000E+00  0.00000000000E+00  0.45593999997E+02  0.45594000000E+02  0.51100000000E-03 0. -1.
         11   -1    0    0    0    0 -0.00000000000E+00 -0.00000000000E+00 -0.45593999997E+02  0.45594000000E+02  0.51100000000E-03 0.  1.
    9900012    2    1    2    0    0  0.42708563206E+01 -0.34022880908E+02  0.26605013583E+02  0.47787269744E+02  0.19999994070E+02 0.  0.
        -12    1    1    2    0    0 -0.42708563206E+01  0.34022880908E+02 -0.26605013583E+02  0.43400730256E+02  0.00000000000E+00 0.  1.
         11    1    3    3    0    0 -0.66772917711E+01 -0.22183999679E+02  0.17899331674E+02  0.29276306833E+02  0.51100000000E-03 0. -1.
        -11    1    3    3    0    0  0.80474535697E+01 -0.79595868857E+01  0.48252303477E+01  0.12304445559E+02  0.51100000000E-03 0.  1.
         12    1    3    3    0    0  0.29006945220E+01 -0.38792943436E+01  0.38804515617E+01  0.62065173517E+01  0.00000000000E+00 0. -1.
</event>
<event>
 7    1  0.2950722E-010  0.4778727E+02  0.7816164E-02  0.1312668E+00
        -11   -1    0    0    0    0  0.00000000000E+00  0.00000000000E+00  0.45593999997E+02  0.45594000000E+02  0.51100000000E-03 0.  1.
         11   -1    0    0    0    0 -0.00000000000E+00 -0.00000000000E+00 -0.45593999997E+02  0.45594000000E+02  0.51100000000E-03 0. -1.
    9900012    2    1    2    0    0  0.18352722501E+02  0.94115014937E+01 -0.38186703487E+02  0.47787272969E+02  0.20000008777E+02 0.  0.
        -12    1    1    2    0    0 -0.18352722501E+02 -0.94115014937E+01  0.38186703487E+02  0.43400727031E+02  0.00000000000E+00 0.  1.
         11    1    3    3    0    0  0.96659325239E+01  0.79593015663E+01 -0.29607353568E+02  0.32146168023E+02  0.51100000000E-03 0. -1.
        -11    1    3    3    0    0  0.94416648756E+01  0.62755981457E+00 -0.29644515342E+01  0.99159891137E+01  0.51100000000E-03 0.  1.
        -12    1    3    3    0    0 -0.75487489857E+00  0.82464011282E+00 -0.56148983851E+01  0.57251158331E+01  0.00000000000E+00 0.  1.
</event>
<event>
 7    1  0.2950722E-010  0.4778727E+02  0.7816164E-02  0.1312668E+00
        -11   -1    0    0    0    0  0.00000000000E+00  0.00000000000E+00  0.45593999997E+02  0.45594000000E+02  0.51100000000E-03 0.  1.
         11   -1    0    0    0    0 -0.00000000000E+00 -0.00000000000E+00 -0.45593999997E+02  0.45594000000E+02  0.51100000000E-03 0. -1.
    9900012    2    1    2    0    0  0.14918692636E+02 -0.33376609669E+02 -0.23389268308E+02  0.47787270341E+02  0.19999996791E+02 0.  0.
        -12    1    1    2    0    0 -0.14918692636E+02  0.33376609669E+02  0.23389268308E+02  0.43400729659E+02  0.00000000000E+00 0.  1.
         11    1    3    3    0    0  0.13660169435E+02 -0.21236220623E+02 -0.19987750535E+02  0.32203842427E+02  0.51100000000E-03 0. -1.
        -11    1    3    3    0    0 -0.11636428218E+01  0.11807296676E+01 -0.19341801783E+00  0.16690110711E+01  0.51100000000E-03 0.  1.
        -12    1    3    3    0    0  0.24221660224E+01 -0.13321118714E+02 -0.32080997553E+01  0.13914416843E+02  0.00000000000E+00 0.  1.
</event>
<event>
 7    1  0.2950722E-010  0.4778726E+02  0.7816164E-02  0.1312668E+00
        -11   -1    0    0    0    0  0.00000000000E+00  0.00000000000E+00  0.45593999997E+02  0.45594000000E+02  0.51100000000E-03 0.  1.
         11   -1    0    0    0    0 -0.00000000000E+00 -0.00000000000E+00 -0.45593999997E+02  0.45594000000E+02  0.51100000000E-03 0. -1.
    9900012    2    1    2    0    0  0.21699225940E+02  0.15640617568E+02 -0.34178048686E+02  0.47787258805E+02  0.19999944196E+02 0.  0.
        -12    1    1    2    0    0 -0.21699225940E+02 -0.15640617568E+02  0.34178048686E+02  0.43400741195E+02  0.00000000000E+00 0.  1.
         11    1    3    3    0    0  0.11686607497E+02  0.11581018278E+02 -0.95517523662E+01  0.19024530288E+02  0.51100000000E-03 0.  1.
        -11    1    3    3    0    0  0.10199915802E+02  0.50011641873E+01 -0.25201528149E+02  0.27643569720E+02  0.51100000000E-03 0. -1.
         12    1    3    3    0    0 -0.18729735879E+00 -0.94156489702E+00  0.57523182942E+00  0.11191587973E+01  0.00000000000E+00 0. -1.
</event>
<event>
 7    1  0.2950722E-010  0.4778726E+02  0.7816164E-02  0.1312668E+00
        -11   -1    0    0    0    0  0.00000000000E+00  0.00000000000E+00  0.45593999997E+02  0.45594000000E+02  0.51100000000E-03 0.  1.
         11   -1    0    0    0    0 -0.00000000000E+00 -0.00000000000E+00 -0.45593999997E+02  0.45594000000E+02  0.51100000000E-03 0. -1.
    9900012    2    1    2    0    0 -0.73406532787E+01  0.93230308726E+01 -0.41747092543E+02  0.47787264626E+02  0.19999970736E+02 0.  0.
        -12    1    1    2    0    0  0.73406532787E+01 -0.93230308726E+01  0.41747092543E+02  0.43400735374E+02  0.00000000000E+00 0.  1.
         11    1    3    3    0    0 -0.15459936485E+01  0.15312365434E+00 -0.11113477244E+02  0.11221538216E+02  0.51100000000E-03 0. -1.
        -11    1    3    3    0    0  0.57038605041E+01  0.24064853034E+01 -0.13495218284E+02  0.14847427823E+02  0.51100000000E-03 0.  1.
        -12    1    3    3    0    0 -0.11498520134E+02  0.67634219148E+01 -0.17138397016E+02  0.21718298588E+02  0.00000000000E+00 0.  1.
</event>
<event>
 7    1  0.2950722E-010  0.4778727E+02  0.7816164E-02  0.1312668E+00
        -11   -1    0    0    0    0  0.00000000000E+00  0.00000000000E+00  0.45593999997E+02  0.45594000000E+02  0.51100000000E-03 0.  1.
         11   -1    0    0    0    0 -0.00000000000E+00 -0.00000000000E+00 -0.45593999997E+02  0.45594000000E+02  0.51100000000E-03 0. -1.
    9900012    2    1    2    0    0  0.27114510401E+02  0.31679991604E+02  0.12033486735E+02  0.47787270221E+02  0.19999996247E+02 0.  0.
        -12    1    1    2    0    0 -0.27114510401E+02 -0.31679991604E+02 -0.12033486735E+02  0.43400729779E+02  0.00000000000E+00 0.  1.
         11    1    3    3    0    0  0.83336938118E+01  0.83147065906E+01  0.49463080949E+01  0.12769133184E+02  0.51100000000E-03 0. -1.
        -11    1    3    3    0    0  0.13417310560E+02  0.25212666010E+02  0.66767891208E+01  0.29330568750E+02  0.51100000000E-03 0.  1.
        -12    1    3    3    0    0  0.53635060293E+01 -0.18473809957E+01  0.41038951907E+00  0.56875682877E+01  0.00000000000E+00 0.  1.
</event>
<event>
 7    1  0.2950722E-010  0.4778731E+02  0.7816164E-02  0.1312668E+00
        -11   -1    0    0    0    0  0.00000000000E+00  0.00000000000E+00  0.45593999997E+02  0.45594000000E+02  0.51100000000E-03 0.  1.
         11   -1    0    0    0    0 -0.00000000000E+00 -0.00000000000E+00 -0.45593999997E+02  0.45594000000E+02  0.51100000000E-03 0. -1.
    9900012    2    1    2    0    0  0.21860860386E+02 -0.13491360179E+01 -0.37468688444E+02  0.47787308778E+02  0.20000172043E+02 0.  0.
        -12    1    1    2    0    0 -0.21860860386E+02  0.13491360179E+01  0.37468688444E+02  0.43400691222E+02  0.00000000000E+00 0.  1.
         11    1    3    3    0    0  0.13620335483E+02 -0.15210246624E+01 -0.25511502564E+02  0.28959692989E+02  0.51100000000E-03 0. -1.
        -11    1    3    3    0    0  0.82582003765E+01  0.24722922085E+01 -0.23303933660E+01  0.89297724341E+01  0.51100000000E-03 0.  1.
        -12    1    3    3    0    0 -0.17675473107E-01 -0.23004035641E+01 -0.96267925134E+01  0.98978433548E+01  0.00000000000E+00 0.  1.
</event>
<event>
 7    1  0.2950722E-010  0.4778727E+02  0.7816164E-02  0.1312668E+00
        -11   -1    0    0    0    0  0.00000000000E+00  0.00000000000E+00  0.45593999997E+02  0.45594000000E+02  0.51100000000E-03 0.  1.
         11   -1    0    0    0    0 -0.00000000000E+00 -0.00000000000E+00 -0.45593999997E+02  0.45594000000E+02  0.51100000000E-03 0. -1.
    9900012    2    1    2    0    0 -0.10619444931E+02  0.36742591739E+01 -0.41920763685E+02  0.47787271676E+02  0.20000002879E+02 0.  0.
        -12    1    1    2    0    0  0.10619444931E+02 -0.36742591739E+01  0.41920763685E+02  0.43400728324E+02  0.00000000000E+00 0.  1.
         11    1    3    3    0    0 -0.48537404064E+01  0.54969910389E+01 -0.25446590647E+02  0.26482157809E+02  0.51100000000E-03 0. -1.
        -11    1    3    3    0    0  0.16015179658E+01 -0.24796274867E+01  0.30547143900E+00  0.29676127323E+01  0.51100000000E-03 0.  1.
        -12    1    3    3    0    0 -0.73672224901E+01  0.65689562170E+00 -0.16779644477E+02  0.18337501134E+02  0.00000000000E+00 0.  1.
</event>
<event>
 7    1  0.2950722E-010  0.4778728E+02  0.7816164E-02  0.1312668E+00
        -11   -1    0    0    0    0  0.00000000000E+00  0.00000000000E+00  0.45593999997E+02  0.45594000000E+02  0.51100000000E-03 0. -1.
         11   -1    0    0    0    0 -0.00000000000E+00 -0.00000000000E+00 -0.45593999997E+02  0.45594000000E+02  0.51100000000E-03 0.  1.
    9900012    2    1    2    0    0 -0.32109744431E+02  0.28685917352E+02 -0.54502582364E+01  0.47787275852E+02  0.20000021919E+02 0.  0.
        -12    1    1    2    0    0  0.32109744431E+02 -0.28685917352E+02  0.54502582364E+01  0.43400724148E+02  0.00000000000E+00 0.  1.
         11    1    3    3    0    0 -0.10946532829E+02  0.94012575340E+01  0.44782398416E+01  0.15108436601E+02  0.51100000000E-03 0. -1.
        -11    1    3    3    0    0 -0.29680689145E+01  0.34643494402E+01  0.28618399727E+01  0.53852835037E+01  0.51100000000E-03 0.  1.
         12    1    3    3    0    0 -0.18195142687E+02  0.15820310378E+02 -0.12790338051E+02  0.27293555747E+02  0.00000000000E+00 0. -1.
</event>
<event>
 7    1  0.2950722E-010  0.4778727E+02  0.7816164E-02  0.1312668E+00
        -11   -1    0    0    0    0  0.00000000000E+00  0.00000000000E+00  0.45593999997E+02  0.45594000000E+02  0.51100000000E-03 0. -1.
         11   -1    0    0    0    0 -0.00000000000E+00 -0.00000000000E+00 -0.45593999997E+02  0.45594000000E+02  0.51100000000E-03 0.  1.
    9900012    2    1    2    0    0  0.36826540111E+02 -0.16377068018E+01  0.22907354031E+02  0.47787274098E+02  0.20000013924E+02 0.  0.
        -12    1    1    2    0    0 -0.36826540111E+02  0.16377068018E+01 -0.22907354031E+02  0.43400725902E+02  0.00000000000E+00 0.  1.
         11    1    3    3    0    0  0.33272217326E+01 -0.46673490884E+00 -0.74065836826E+00  0.34404681386E+01  0.51100000000E-03 0. -1.
        -11    1    3    3    0    0  0.15596917221E+02  0.74172301724E+01  0.78408211738E+01  0.18967277273E+02  0.51100000000E-03 0.  1.
        -12    1    3    3    0    0  0.17902401158E+02 -0.85882020653E+01  0.15807191225E+02  0.25379528687E+02  0.00000000000E+00 0.  1.
</event>
<event>
 7    1  0.2950722E-010  0.4778726E+02  0.7816164E-02  0.1312668E+00
        -11   -1    0    0    0    0  0.00000000000E+00  0.00000000000E+00  0.45593999997E+02  0.45594000000E+02  0.51100000000E-03 0.  1.
         11   -1    0    0    0    0 -0.00000000000E+00 -0.00000000000E+00 -0.45593999997E+02  0.45594000000E+02  0.51100000000E-03 0. -1.
    9900012    2    1    2    0    0  0.31012877784E+02 -0.16477217834E+02 -0.25501506240E+02  0.47787261337E+02  0.19999955742E+02 0.  0.
        -12    1    1    2    0    0 -0.31012877784E+02  0.16477217834E+02  0.25501506240E+02  0.43400738663E+02  0.00000000000E+00 0.  1.
         11    1    3    3    0    0  0.15079693386E+02 -0.13701061458E+02 -0.21092614170E+02  0.29326005703E+02  0.51100000000E-03 0. -1.
        -11    1    3    3    0    0  0.13419551399E+02 -0.27750025821E+01 -0.65230003194E+01  0.15176776090E+02  0.51100000000E-03 0.  1.
         12    1    3    3    0    0  0.25136329992E+01 -0.11537938122E-02  0.21141082498E+01  0.32844795444E+01  0.00000000000E+00 0. -1.
</event>
<event>
 7    1  0.2950722E-010  0.4778727E+02  0.7816164E-02  0.1312668E+00
        -11   -1    0    0    0    0  0.00000000000E+00  0.00000000000E+00  0.45593999997E+02  0.45594000000E+02  0.51100000000E-03 0. -1.
         11   -1    0    0    0    0 -0.00000000000E+00 -0.00000000000E+00 -0.45593999997E+02  0.45594000000E+02  0.51100000000E-03 0.  1.
    9900012    2    1    2    0    0  0.35382161437E+02 -0.70172410293E+01  0.24134714814E+02  0.47787268684E+02  0.19999989236E+02 0.  0.
        -12    1    1    2    0    0 -0.35382161437E+02  0.70172410293E+01 -0.24134714814E+02  0.43400731316E+02  0.00000000000E+00 0.  1.
         11    1    3    3    0    0  0.68698106006E+01 -0.60692113948E+01  0.26934248642E+00  0.91707235417E+01  0.51100000000E-03 0. -1.
        -11    1    3    3    0    0 -0.45016426542E+00  0.12175853588E+01  0.13014226179E+01  0.18381683991E+01  0.51100000000E-03 0.  1.
         12    1    3    3    0    0  0.28962515102E+02 -0.21656149934E+01  0.22563949710E+02  0.36778376743E+02  0.00000000000E+00 0. -1.
</event>
<event>
 7    1  0.2950722E-010  0.4778727E+02  0.7816164E-02  0.1312668E+00
        -11   -1    0    0    0    0  0.00000000000E+00  0.00000000000E+00  0.45593999997E+02  0.45594000000E+02  0.51100000000E-03 0. -1.
         11   -1    0    0    0    0 -0.00000000000E+00 -0.00000000000E+00 -0.45593999997E+02  0.45594000000E+02  0.51100000000E-03 0.  1.
    9900012    2    1    2    0    0  0.36379793433E+02 -0.11540436185E+02  0.20662819599E+02  0.47787272456E+02  0.20000006436E+02 0.  0.
        -12    1    1    2    0    0 -0.36379793433E+02  0.11540436185E+02 -0.20662819599E+02  0.43400727544E+02  0.00000000000E+00 0.  1.
         11    1    3    3    0    0  0.25672067435E+02 -0.83711705854E+01  0.19141421913E+02  0.33098724696E+02  0.51100000000E-03 0. -1.
        -11    1    3    3    0    0  0.61429727892E+00 -0.38272242782E+01 -0.14622079350E+01  0.41428322594E+01  0.51100000000E-03 0.  1.
        -12    1    3    3    0    0  0.10093428719E+02  0.65795867860E+00  0.29836056205E+01  0.10545715501E+02  0.00000000000E+00 0.  1.
</event>
<event>
 7    1  0.2950722E-010  0.4778726E+02  0.7816164E-02  0.1312668E+00
        -11   -1    0    0    0    0  0.00000000000E+00  0.00000000000E+00  0.45593999997E+02  0.45594000000E+02  0.51100000000E-03 0. -1.
         11   -1    0    0    0    0 -0.00000000000E+00 -0.00000000000E+00 -0.45593999997E+02  0.45594000000E+02  0.51100000000E-03 0.  1.
    9900012    2    1    2    0    0 -0.24990434881E+02 -0.32932808385E+02  0.13211071702E+02  0.47787261306E+02  0.19999955600E+02 0.  0.
        -12    1    1    2    0    0  0.24990434881E+02  0.32932808385E+02 -0.13211071702E+02  0.43400738694E+02  0.00000000000E+00 0.  1.
         11    1    3    3    0    0  0.80116738812E+00 -0.94656590933E+01  0.78596784189E+00  0.95319629124E+01  0.51100000000E-03 0.  1.
        -11    1    3    3    0    0 -0.10522085178E+02 -0.15822411578E+02  0.50998006235E+01  0.19674118819E+02  0.51100000000E-03 0. -1.
         12    1    3    3    0    0 -0.15269517091E+02 -0.76447377136E+01  0.73253032362E+01  0.18581179575E+02  0.00000000000E+00 0. -1.
</event>
<event>
 7    1  0.2950722E-010  0.4778726E+02  0.7816164E-02  0.1312668E+00
        -11   -1    0    0    0    0  0.00000000000E+00  0.00000000000E+00  0.45593999997E+02  0.45594000000E+02  0.51100000000E-03 0.  1.
         11   -1    0    0    0    0 -0.00000000000E+00 -0.00000000000E+00 -0.45593999997E+02  0.45594000000E+02  0.51100000000E-03 0. -1.
    9900012    2    1    2    0    0  0.38524163216E+01  0.42986861547E+02 -0.45730252938E+01  0.47787263399E+02  0.19999965141E+02 0.  0.
        -12    1    1    2    0    0 -0.38524163216E+01 -0.42986861547E+02  0.45730252938E+01  0.43400736601E+02  0.00000000000E+00 0.  1.
         11    1    3    3    0    0  0.87582175799E+01  0.15347682352E+02  0.30195369434E+01  0.17926944312E+02  0.51100000000E-03 0.  1.
        -11    1    3    3    0    0 -0.37944659449E+01  0.17758403634E+02 -0.15503523659E+01  0.18225324802E+02  0.51100000000E-03 0. -1.
        -12    1    3    3    0    0 -0.11113353134E+01  0.98807755614E+01 -0.60422098713E+01  0.11634994285E+02  0.00000000000E+00 0.  1.
</event>
<event>
 7    1  0.2950722E-010  0.4778727E+02  0.7816164E-02  0.1312668E+00
        -11   -1    0    0    0    0  0.00000000000E+00  0.00000000000E+00  0.45593999997E+02  0.45594000000E+02  0.51100000000E-03 0.  1.
         11   -1    0    0    0    0 -0.00000000000E+00 -0.00000000000E+00 -0.45593999997E+02  0.45594000000E+02  0.51100000000E-03 0. -1.
    9900012    2    1    2    0    0 -0.22637651824E+02  0.37018671691E+02 -0.88199813333E+00  0.47787271267E+02  0.20000001013E+02 0.  0.
        -12    1    1    2    0    0  0.22637651824E+02 -0.37018671691E+02  0.88199813333E+00  0.43400728733E+02  0.00000000000E+00 0.  1.
         11    1    3    3    0    0 -0.11799279802E+02  0.25371513970E+02  0.33108123773E+01  0.28176199244E+02  0.51100000000E-03 0. -1.
        -11    1    3    3    0    0 -0.56655830073E+01  0.59491666672E+01 -0.76029636603E+01  0.11193590645E+02  0.51100000000E-03 0.  1.
        -12    1    3    3    0    0 -0.51727890151E+01  0.56979910541E+01  0.34101531496E+01  0.84174813782E+01  0.00000000000E+00 0.  1.
</event>
<event>
 7    1  0.2950722E-010  0.4778727E+02  0.7816164E-02  0.1312668E+00
        -11   -1    0    0    0    0  0.00000000000E+00  0.00000000000E+00  0.45593999997E+02  0.45594000000E+02  0.51100000000E-03 0.  1.
         11   -1    0    0    0    0 -0.00000000000E+00 -0.00000000000E+00 -0.45593999997E+02  0.45594000000E+02  0.51100000000E-03 0. -1.
    9900012    2    1    2    0    0 -0.23646859015E+01 -0.29931544230E+02 -0.31339019980E+02  0.47787271288E+02  0.20000001109E+02 0.  0.
        -12    1    1    2    0    0  0.23646859015E+01  0.29931544230E+02  0.31339019980E+02  0.43400728712E+02  0.00000000000E+00 0.  1.
         11    1    3    3    0    0 -0.33362136212E+01 -0.17188858981E+02 -0.27465406679E+02  0.32572008822E+02  0.51100000000E-03 0. -1.
        -11    1    3    3    0    0 -0.15360025186E+01 -0.98633979312E+01 -0.30172227475E+00  0.99868392937E+01  0.51100000000E-03 0.  1.
         12    1    3    3    0    0  0.25075302384E+01 -0.28792873184E+01 -0.35718910265E+01  0.52284231718E+01  0.00000000000E+00 0. -1.
</event>
<event>
 7    1  0.2950722E-010  0.4778727E+02  0.7816164E-02  0.1312668E+00
        -11   -1    0    0    0    0  0.00000000000E+00  0.00000000000E+00  0.45593999997E+02  0.45594000000E+02  0.51100000000E-03 0.  1.
         11   -1    0    0    0    0 -0.00000000000E+00 -0.00000000000E+00 -0.45593999997E+02  0.45594000000E+02  0.51100000000E-03 0. -1.
    9900012    2    1    2    0    0 -0.42001928139E+02 -0.99874503197E+01 -0.44398340798E+01  0.47787271228E+02  0.20000000838E+02 0.  0.
        -12    1    1    2    0    0  0.42001928139E+02  0.99874503197E+01  0.44398340798E+01  0.43400728772E+02  0.00000000000E+00 0.  1.
         11    1    3    3    0    0 -0.34784159645E+02 -0.10898603127E+02 -0.10646744208E+02  0.37974603024E+02  0.51100000000E-03 0. -1.
        -11    1    3    3    0    0 -0.62719669340E+01  0.14090241781E+01  0.46913407249E+01  0.79581151294E+01  0.51100000000E-03 0.  1.
         12    1    3    3    0    0 -0.94580155991E+00 -0.49787137125E+00  0.15155694030E+01  0.18545530751E+01  0.00000000000E+00 0. -1.
</event>
<event>
 7    1  0.2950722E-010  0.4778728E+02  0.7816164E-02  0.1312668E+00
        -11   -1    0    0    0    0  0.00000000000E+00  0.00000000000E+00  0.45593999997E+02  0.45594000000E+02  0.51100000000E-03 0. -1.
         11   -1    0    0    0    0 -0.00000000000E+00 -0.00000000000E+00 -0.45593999997E+02  0.45594000000E+02  0.51100000000E-03 0.  1.
    9900012    2    1    2    0    0 -0.18679472745E+02  0.33569992853E+02  0.20192950450E+02  0.47787281457E+02  0.20000047476E+02 0.  0.
        -12    1    1    2    0    0  0.18679472745E+02 -0.33569992853E+02 -0.20192950450E+02  0.43400718543E+02  0.00000000000E+00 0.  1.
         11    1    3    3    0    0 -0.19475451819E+01  0.11896899064E+02  0.12810090916E+02  0.17590553405E+02  0.51100000000E-03 0.  1.
        -11    1    3    3    0    0  0.42285101217E+00  0.10325432971E+01  0.27411602294E+01  0.29595452866E+01  0.51100000000E-03 0. -1.
         12    1    3    3    0    0 -0.17154778575E+02  0.20640550492E+02  0.46416993049E+01  0.27237182766E+02  0.00000000000E+00 0. -1.
</event>
<event>
 7    1  0.2950722E-010  0.4778727E+02  0.7816164E-02  0.1312668E+00
        -11   -1    0    0    0    0  0.00000000000E+00  0.00000000000E+00  0.45593999997E+02  0.45594000000E+02  0.51100000000E-03 0.  1.
         11   -1    0    0    0    0 -0.00000000000E+00 -0.00000000000E+00 -0.45593999997E+02  0.45594000000E+02  0.51100000000E-03 0. -1.
    9900012    2    1    2    0    0 -0.16551858315E+02 -0.13324058614E+02 -0.37843476002E+02  0.47787271578E+02  0.20000002433E+02 0.  0.
        -12    1    1    2    0    0  0.16551858315E+02  0.13324058614E+02  0.37843476002E+02  0.43400728422E+02  0.00000000000E+00 0.  1.
         11    1    3    3    0    0 -0.15326517462E+02 -0.32607605504E+01 -0.29703447223E+02  0.33583172484E+02  0.51100000000E-03 0. -1.
        -11    1    3    3    0    0 -0.34800049626E+01 -0.71642780847E+01 -0.57192103373E+01  0.98054414565E+01  0.51100000000E-03 0.  1.
         12    1    3    3    0    0  0.22546641092E+01 -0.28990199793E+01 -0.24208184414E+01  0.43986576375E+01  0.00000000000E+00 0. -1.
</event>
<event>
 7    1  0.2950722E-010  0.4778727E+02  0.7816164E-02  0.1312668E+00
        -11   -1    0    0    0    0  0.00000000000E+00  0.00000000000E+00  0.45593999997E+02  0.45594000000E+02  0.51100000000E-03 0.  1.
         11   -1    0    0    0    0 -0.00000000000E+00 -0.00000000000E+00 -0.45593999997E+02  0.45594000000E+02  0.51100000000E-03 0. -1.
    9900012    2    1    2    0    0  0.41230588820E+02 -0.12256219229E+02 -0.57833640448E+01  0.47787266551E+02  0.19999979511E+02 0.  0.
        -12    1    1    2    0    0 -0.41230588820E+02  0.12256219229E+02  0.57833640448E+01  0.43400733449E+02  0.00000000000E+00 0.  1.
         11    1    3    3    0    0  0.23337862417E+02 -0.76095300942E+01 -0.41488315035E+01  0.24895252028E+02  0.51100000000E-03 0. -1.
        -11    1    3    3    0    0  0.19592074161E+00 -0.18795948241E+01 -0.43806599175E+01  0.47708954310E+01  0.51100000000E-03 0.  1.
        -12    1    3    3    0    0  0.17696805662E+02 -0.27670943112E+01  0.27461273762E+01  0.18121119092E+02  0.00000000000E+00 0.  1.
</event>
<event>
 7    1  0.2950722E-010  0.4778727E+02  0.7816164E-02  0.1312668E+00
        -11   -1    0    0    0    0  0.00000000000E+00  0.00000000000E+00  0.45593999997E+02  0.45594000000E+02  0.51100000000E-03 0.  1.
         11   -1    0    0    0    0 -0.00000000000E+00 -0.00000000000E+00 -0.45593999997E+02  0.45594000000E+02  0.51100000000E-03 0. -1.
    9900012    2    1    2    0    0 -0.98843736414E+01 -0.10619578478E+02 -0.40904121971E+02  0.47787268629E+02  0.19999988987E+02 0.  0.
        -12    1    1    2    0    0  0.98843736414E+01  0.10619578478E+02  0.40904121971E+02  0.43400731371E+02  0.00000000000E+00 0.  1.
         11    1    3    3    0    0  0.33197413638E+01 -0.25399701314E+01 -0.58979785890E+01  0.72289890502E+01  0.51100000000E-03 0. -1.
        -11    1    3    3    0    0 -0.23426000168E+01 -0.23301275599E+01  0.15860101157E+00  0.33079334676E+01  0.51100000000E-03 0.  1.
         12    1    3    3    0    0 -0.10861514988E+02 -0.57494807865E+01 -0.35164744393E+02  0.37250346111E+02  0.00000000000E+00 0. -1.
</event>
<event>
 7    1  0.2950722E-010  0.4778732E+02  0.7816164E-02  0.1312668E+00
        -11   -1    0    0    0    0  0.00000000000E+00  0.00000000000E+00  0.45593999997E+02  0.45594000000E+02  0.51100000000E-03 0.  1.
         11   -1    0    0    0    0 -0.00000000000E+00 -0.00000000000E+00 -0.45593999997E+02  0.45594000000E+02  0.51100000000E-03 0. -1.
    9900012    2    1    2    0    0 -0.18036782869E+02  0.26158007766E+02 -0.29564375759E+02  0.47787317741E+02  0.20000212906E+02 0.  0.
        -12    1    1    2    0    0  0.18036782869E+02 -0.26158007766E+02  0.29564375759E+02  0.43400682259E+02  0.00000000000E+00 0.  1.
         11    1    3    3    0    0 -0.19099957962E+02  0.17507453514E+02 -0.16458475752E+02  0.30695288678E+02  0.51100000000E-03 0. -1.
        -11    1    3    3    0    0 -0.45978005447E+00 -0.58920491694E+00  0.24313000286E+00  0.78592149229E+00  0.51100000000E-03 0.  1.
         12    1    3    3    0    0  0.15229551477E+01  0.92397591687E+01 -0.13349030010E+02  0.16306107570E+02  0.00000000000E+00 0. -1.
</event>
<event>
 7    1  0.2950722E-010  0.4778727E+02  0.7816164E-02  0.1312668E+00
        -11   -1    0    0    0    0  0.00000000000E+00  0.00000000000E+00  0.45593999997E+02  0.45594000000E+02  0.51100000000E-03 0.  1.
         11   -1    0    0    0    0 -0.00000000000E+00 -0.00000000000E+00 -0.45593999997E+02  0.45594000000E+02  0.51100000000E-03 0. -1.
    9900012    2    1    2    0    0 -0.10441454644E+02 -0.41107343670E+02 -0.92079002249E+01  0.47787272987E+02  0.20000008856E+02 0.  0.
        -12    1    1    2    0    0  0.10441454644E+02  0.41107343670E+02  0.92079002249E+01  0.43400727013E+02  0.00000000000E+00 0.  1.
         11    1    3    3    0    0 -0.34623170451E+00 -0.25011174773E+01 -0.26004165445E+00  0.25383236499E+01  0.51100000000E-03 0. -1.
        -11    1    3    3    0    0  0.38787411272E+01 -0.94133427551E+01  0.32107749117E+01  0.10675426472E+02  0.51100000000E-03 0.  1.
        -12    1    3    3    0    0 -0.13973964067E+02 -0.29192883438E+02 -0.12158633482E+02  0.34573522865E+02  0.00000000000E+00 0.  1.
</event>
<event>
 7    1  0.2950722E-010  0.4778727E+02  0.7816164E-02  0.1312668E+00
        -11   -1    0    0    0    0  0.00000000000E+00  0.00000000000E+00  0.45593999997E+02  0.45594000000E+02  0.51100000000E-03 0.  1.
         11   -1    0    0    0    0 -0.00000000000E+00 -0.00000000000E+00 -0.45593999997E+02  0.45594000000E+02  0.51100000000E-03 0. -1.
    9900012    2    1    2    0    0  0.30277721399E+01 -0.38997178719E+02 -0.18806275329E+02  0.47787270238E+02  0.19999996322E+02 0.  0.
        -12    1    1    2    0    0 -0.30277721399E+01  0.38997178719E+02  0.18806275329E+02  0.43400729762E+02  0.00000000000E+00 0.  1.
         11    1    3    3    0    0  0.66555538299E+01 -0.32155754543E+02 -0.99951527468E+01  0.34324801904E+02  0.51100000000E-03 0. -1.
        -11    1    3    3    0    0 -0.16532956346E+01 -0.28691867636E+01  0.30390991738E+00  0.33253542126E+01  0.51100000000E-03 0.  1.
         12    1    3    3    0    0 -0.19744860554E+01 -0.39722374118E+01 -0.91150324999E+01  0.10137114122E+02  0.00000000000E+00 0. -1.
</event>
<event>
 7    1  0.2950722E-010  0.4778728E+02  0.7816164E-02  0.1312668E+00
        -11   -1    0    0    0    0  0.00000000000E+00  0.00000000000E+00  0.45593999997E+02  0.45594000000E+02  0.51100000000E-03 0.  1.
         11   -1    0    0    0    0 -0.00000000000E+00 -0.00000000000E+00 -0.45593999997E+02  0.45594000000E+02  0.51100000000E-03 0. -1.
    9900012    2    1    2    0    0  0.31362357178E+02  0.13835209797E+02 -0.26619759842E+02  0.47787284661E+02  0.20000062085E+02 0.  0.
        -12    1    1    2    0    0 -0.31362357178E+02 -0.13835209797E+02  0.26619759842E+02  0.43400715339E+02  0.00000000000E+00 0.  1.
         11    1    3    3    0    0  0.13844599339E+02  0.13736344029E+02 -0.94292386769E+01  0.21662654972E+02  0.51100000000E-03 0. -1.
        -11    1    3    3    0    0  0.15504679879E+02  0.29870606350E+01 -0.15806090052E+02  0.22341667627E+02  0.51100000000E-03 0.  1.
         12    1    3    3    0    0  0.20130779600E+01 -0.28881948666E+01 -0.13844311128E+01  0.37829620625E+01  0.00000000000E+00 0. -1.
</event>
<event>
 7    1  0.2950722E-010  0.4778727E+02  0.7816164E-02  0.1312668E+00
        -11   -1    0    0    0    0  0.00000000000E+00  0.00000000000E+00  0.45593999997E+02  0.45594000000E+02  0.51100000000E-03 0.  1.
         11   -1    0    0    0    0 -0.00000000000E+00 -0.00000000000E+00 -0.45593999997E+02  0.45594000000E+02  0.51100000000E-03 0. -1.
    9900012    2    1    2    0    0  0.40632273680E+02 -0.10599444777E+02 -0.10967830421E+02  0.47787271917E+02  0.20000003978E+02 0.  0.
        -12    1    1    2    0    0 -0.40632273680E+02  0.10599444777E+02  0.10967830421E+02  0.43400728083E+02  0.00000000000E+00 0.  1.
         11    1    3    3    0    0  0.94666864568E+01 -0.53787676315E+01 -0.94494067315E+01  0.14416677202E+02  0.51100000000E-03 0.  1.
        -11    1    3    3    0    0  0.21358883027E+02 -0.57712747677E+01  0.34020479319E+01  0.22384892830E+02  0.51100000000E-03 0. -1.
        -12    1    3    3    0    0  0.98067041961E+01  0.55059762199E+00 -0.49204716214E+01  0.10985701885E+02  0.00000000000E+00 0.  1.
</event>
<event>
 7    1  0.2950722E-010  0.4778727E+02  0.7816164E-02  0.1312668E+00
        -11   -1    0    0    0    0  0.00000000000E+00  0.00000000000E+00  0.45593999997E+02  0.45594000000E+02  0.51100000000E-03 0.  1.
         11   -1    0    0    0    0 -0.00000000000E+00 -0.00000000000E+00 -0.45593999997E+02  0.45594000000E+02  0.51100000000E-03 0. -1.
    9900012    2    1    2    0    0 -0.11226105257E+02 -0.21106227083E+02 -0.36223269715E+02  0.47787268096E+02  0.19999986559E+02 0.  0.
        -12    1    1    2    0    0  0.11226105257E+02  0.21106227083E+02  0.36223269715E+02  0.43400731904E+02  0.00000000000E+00 0.  1.
         11    1    3    3    0    0 -0.66378723518E+01 -0.69436812652E+01 -0.91598157618E+01  0.13273216789E+02  0.51100000000E-03 0. -1.
        -11    1    3    3    0    0 -0.46080758100E+01 -0.99913044333E+01 -0.28132811001E+02  0.30207872849E+02  0.51100000000E-03 0.  1.
        -12    1    3    3    0    0  0.19842904661E-01 -0.41712413841E+01  0.10693570478E+01  0.43061784590E+01  0.00000000000E+00 0.  1.
</event>
<event>
 7    1  0.2950722E-010  0.4778727E+02  0.7816164E-02  0.1312668E+00
        -11   -1    0    0    0    0  0.00000000000E+00  0.00000000000E+00  0.45593999997E+02  0.45594000000E+02  0.51100000000E-03 0.  1.
         11   -1    0    0    0    0 -0.00000000000E+00 -0.00000000000E+00 -0.45593999997E+02  0.45594000000E+02  0.51100000000E-03 0. -1.
    9900012    2    1    2    0    0  0.38610699893E+02  0.19803728616E+02 -0.80603430440E+00  0.47787268386E+02  0.19999987880E+02 0.  0.
        -12    1    1    2    0    0 -0.38610699893E+02 -0.19803728616E+02  0.80603430440E+00  0.43400731614E+02  0.00000000000E+00 0.  1.
         11    1    3    3    0    0  0.24617574045E+02  0.15419891169E+02  0.20399454028E+00  0.29048917528E+02  0.51100000000E-03 0. -1.
        -11    1    3    3    0    0  0.15548995747E+01 -0.36025132349E+01 -0.40381765802E+00  0.39444750293E+01  0.51100000000E-03 0.  1.
        -12    1    3    3    0    0  0.12438226273E+02  0.79863506818E+01 -0.60621118667E+00  0.14793875829E+02  0.00000000000E+00 0.  1.
</event>
<event>
 7    1  0.2950722E-010  0.4778727E+02  0.7816164E-02  0.1312668E+00
        -11   -1    0    0    0    0  0.00000000000E+00  0.00000000000E+00  0.45593999997E+02  0.45594000000E+02  0.51100000000E-03 0.  1.
         11   -1    0    0    0    0 -0.00000000000E+00 -0.00000000000E+00 -0.45593999997E+02  0.45594000000E+02  0.51100000000E-03 0. -1.
    9900012    2    1    2    0    0 -0.10773320612E+02 -0.16486441445E+02 -0.38675010830E+02  0.47787266697E+02  0.19999980177E+02 0.  0.
        -12    1    1    2    0    0  0.10773320612E+02  0.16486441445E+02  0.38675010830E+02  0.43400733303E+02  0.00000000000E+00 0.  1.
         11    1    3    3    0    0 -0.35230171514E+01 -0.14344206504E+02 -0.18541295785E+02  0.23705433127E+02  0.51100000000E-03 0. -1.
        -11    1    3    3    0    0 -0.79081693384E+01  0.26011444533E+01 -0.14156303745E+02  0.16422729089E+02  0.51100000000E-03 0.  1.
        -12    1    3    3    0    0  0.65786587813E+00 -0.47433793945E+01 -0.59774112999E+01  0.76591044804E+01  0.00000000000E+00 0.  1.
</event>
<event>
 7    1  0.2950722E-010  0.4778727E+02  0.7816164E-02  0.1312668E+00
        -11   -1    0    0    0    0  0.00000000000E+00  0.00000000000E+00  0.45593999997E+02  0.45594000000E+02  0.51100000000E-03 0.  1.
         11   -1    0    0    0    0 -0.00000000000E+00 -0.00000000000E+00 -0.45593999997E+02  0.45594000000E+02  0.51100000000E-03 0. -1.
    9900012    2    1    2    0    0 -0.31122965564E+02 -0.10718162272E+02 -0.28286133957E+02  0.47787270026E+02  0.19999995359E+02 0.  0.
        -12    1    1    2    0    0  0.31122965564E+02  0.10718162272E+02  0.28286133957E+02  0.43400729974E+02  0.00000000000E+00 0.  1.
         11    1    3    3    0    0 -0.74328850186E+01 -0.11508622647E+02 -0.12818133187E+02  0.18761682057E+02  0.51100000000E-03 0. -1.
        -11    1    3    3    0    0 -0.18345590359E+02 -0.52387093960E+00 -0.14603974716E+02  0.23454449560E+02  0.51100000000E-03 0.  1.
         12    1    3    3    0    0 -0.53444901865E+01  0.13143313146E+01 -0.86402605330E+00  0.55711384096E+01  0.00000000000E+00 0. -1.
</event>
<event>
 7    1  0.2950722E-010  0.4778728E+02  0.7816164E-02  0.1312668E+00
        -11   -1    0    0    0    0  0.00000000000E+00  0.00000000000E+00  0.45593999997E+02  0.45594000000E+02  0.51100000000E-03 0.  1.
         11   -1    0    0    0    0 -0.00000000000E+00 -0.00000000000E+00 -0.45593999997E+02  0.45594000000E+02  0.51100000000E-03 0. -1.
    9900012    2    1    2    0    0 -0.49384506033E+01  0.15926712292E+02 -0.40069619093E+02  0.47787276123E+02  0.20000023155E+02 0.  0.
        -12    1    1    2    0    0  0.49384506033E+01 -0.15926712292E+02  0.40069619093E+02  0.43400723877E+02  0.00000000000E+00 0.  1.
         11    1    3    3    0    0  0.49147733039E+01  0.41462756207E+01 -0.81061480218E+01  0.10346798257E+02  0.51100000000E-03 0.  1.
        -11    1    3    3    0    0 -0.10674262028E+02  0.13684241439E+02 -0.27491076740E+02  0.32510884857E+02  0.51100000000E-03 0. -1.
        -12    1    3    3    0    0  0.82103812043E+00 -0.19038047674E+01 -0.44723943308E+01  0.49295930094E+01  0.00000000000E+00 0.  1.
</event>
<event>
 7    1  0.2950722E-010  0.4778727E+02  0.7816164E-02  0.1312668E+00
        -11   -1    0    0    0    0  0.00000000000E+00  0.00000000000E+00  0.45593999997E+02  0.45594000000E+02  0.51100000000E-03 0.  1.
         11   -1    0    0    0    0 -0.00000000000E+00 -0.00000000000E+00 -0.45593999997E+02  0.45594000000E+02  0.51100000000E-03 0. -1.
    9900012    2    1    2    0    0 -0.13395624304E+02 -0.14322102142E+02 -0.38717669796E+02  0.47787270574E+02  0.19999997855E+02 0.  0.
        -12    1    1    2    0    0  0.13395624304E+02  0.14322102142E+02  0.38717669796E+02  0.43400729426E+02  0.00000000000E+00 0.  1.
         11    1    3    3    0    0 -0.67070257381E+01 -0.48136807654E+01 -0.32918214281E+02  0.33937656791E+02  0.51100000000E-03 0. -1.
        -11    1    3    3    0    0 -0.69245058093E+01 -0.80817907455E+01 -0.62412332808E+01  0.12337630059E+02  0.51100000000E-03 0.  1.
         12    1    3    3    0    0  0.23590724377E+00 -0.14266306310E+01  0.44177776564E+00  0.15119837232E+01  0.00000000000E+00 0. -1.
</event>
<event>
 7    1  0.2950722E-010  0.4778727E+02  0.7816164E-02  0.1312668E+00
        -11   -1    0    0    0    0  0.00000000000E+00  0.00000000000E+00  0.45593999997E+02  0.45594000000E+02  0.51100000000E-03 0. -1.
         11   -1    0    0    0    0 -0.00000000000E+00 -0.00000000000E+00 -0.45593999997E+02  0.45594000000E+02  0.51100000000E-03 0.  1.
    9900012    2    1    2    0    0  0.35812487349E+01 -0.40939633133E+02  0.13955101207E+02  0.47787265522E+02  0.19999974820E+02 0.  0.
        -12    1    1    2    0    0 -0.35812487349E+01  0.40939633133E+02 -0.13955101207E+02  0.43400734478E+02  0.00000000000E+00 0.  1.
         11    1    3    3    0    0  0.49069988026E+01 -0.11241439194E+02 -0.32503097957E+01  0.12689093995E+02  0.51100000000E-03 0. -1.
        -11    1    3    3    0    0 -0.41767132658E+01 -0.13250025962E+02  0.74809029706E+01  0.15778847588E+02  0.51100000000E-03 0.  1.
         12    1    3    3    0    0  0.28509631981E+01 -0.16448167977E+02  0.97245080323E+01  0.19319323938E+02  0.00000000000E+00 0. -1.
</event>
<event>
 7    1  0.2950722E-010  0.4778727E+02  0.7816164E-02  0.1312668E+00
        -11   -1    0    0    0    0  0.00000000000E+00  0.00000000000E+00  0.45593999997E+02  0.45594000000E+02  0.51100000000E-03 0.  1.
         11   -1    0    0    0    0 -0.00000000000E+00 -0.00000000000E+00 -0.45593999997E+02  0.45594000000E+02  0.51100000000E-03 0. -1.
    9900012    2    1    2    0    0 -0.24397135812E+02 -0.35273180049E+02  0.66487296583E+01  0.47787273362E+02  0.20000010569E+02 0.  0.
        -12    1    1    2    0    0  0.24397135812E+02  0.35273180049E+02 -0.66487296583E+01  0.43400726638E+02  0.00000000000E+00 0.  1.
         11    1    3    3    0    0 -0.32002893131E+01 -0.27452788220E+01  0.28518170520E+00  0.42260781304E+01  0.51100000000E-03 0. -1.
        -11    1    3    3    0    0 -0.71998099401E+01 -0.26433842384E+02  0.11201481747E+01  0.27419701285E+02  0.51100000000E-03 0.  1.
        -12    1    3    3    0    0 -0.13997036559E+02 -0.60940588429E+01  0.52433997783E+01  0.16141493947E+02  0.00000000000E+00 0.  1.
</event>
<event>
 7    1  0.2950722E-010  0.4778727E+02  0.7816164E-02  0.1312668E+00
        -11   -1    0    0    0    0  0.00000000000E+00  0.00000000000E+00  0.45593999997E+02  0.45594000000E+02  0.51100000000E-03 0.  1.
         11   -1    0    0    0    0 -0.00000000000E+00 -0.00000000000E+00 -0.45593999997E+02  0.45594000000E+02  0.51100000000E-03 0. -1.
    9900012    2    1    2    0    0 -0.29701096924E+02 -0.63131149609E+01 -0.31009888310E+02  0.47787265537E+02  0.19999974888E+02 0.  0.
        -12    1    1    2    0    0  0.29701096924E+02  0.63131149609E+01  0.31009888310E+02  0.43400734463E+02  0.00000000000E+00 0.  1.
         11    1    3    3    0    0 -0.26245745588E+02 -0.10952695501E+02 -0.21810118443E+02  0.35839670296E+02  0.51100000000E-03 0. -1.
        -11    1    3    3    0    0  0.43755902636E+00  0.26287958830E+01 -0.14221005677E+01  0.30206615139E+01  0.51100000000E-03 0.  1.
         12    1    3    3    0    0 -0.38929103622E+01  0.20107846573E+01 -0.77776692994E+01  0.89269337265E+01  0.00000000000E+00 0. -1.
</event>
<event>
 7    1  0.2950722E-010  0.4778728E+02  0.7816164E-02  0.1312668E+00
        -11   -1    0    0    0    0  0.00000000000E+00  0.00000000000E+00  0.45593999997E+02  0.45594000000E+02  0.51100000000E-03 0. -1.
         11   -1    0    0    0    0 -0.00000000000E+00 -0.00000000000E+00 -0.45593999997E+02  0.45594000000E+02  0.51100000000E-03 0.  1.
    9900012    2    1    2    0    0  0.18470281552E+02  0.34660577460E+02  0.18469325136E+02  0.47787275335E+02  0.20000019564E+02 0.  0.
        -12    1    1    2    0    0 -0.18470281552E+02 -0.34660577460E+02 -0.18469325136E+02  0.43400724665E+02  0.00000000000E+00 0.  1.
         11    1    3    3    0    0  0.12959577013E+02  0.10168008914E+02  0.52303028190E+01  0.17282798080E+02  0.51100000000E-03 0. -1.
        -11    1    3    3    0    0 -0.27084806724E+01  0.11358523034E+02  0.79766457065E+01  0.14141385719E+02  0.51100000000E-03 0.  1.
        -12    1    3    3    0    0  0.82191852110E+01  0.13134045512E+02  0.52623766104E+01  0.16363091536E+02  0.00000000000E+00 0.  1.
</event>
<event>
 7    1  0.2950722E-010  0.4778727E+02  0.7816164E-02  0.1312668E+00
        -11   -1    0    0    0    0  0.00000000000E+00  0.00000000000E+00  0.45593999997E+02  0.45594000000E+02  0.51100000000E-03 0.  1.
         11   -1    0    0    0    0 -0.00000000000E+00 -0.00000000000E+00 -0.45593999997E+02  0.45594000000E+02  0.51100000000E-03 0. -1.
    9900012    2    1    2    0    0  0.21242438820E+00 -0.43398095032E+02 -0.42801734274E+00  0.47787274483E+02  0.20000015680E+02 0.  0.
        -12    1    1    2    0    0 -0.21242438820E+00  0.43398095032E+02  0.42801734274E+00  0.43400725517E+02  0.00000000000E+00 0.  1.
         11    1    3    3    0    0  0.90458815886E+01 -0.20481791357E+02  0.88300080172E+00  0.22407843305E+02  0.51100000000E-03 0. -1.
        -11    1    3    3    0    0 -0.58868615926E+01 -0.12160779017E+02 -0.36281594121E+01  0.13989396938E+02  0.51100000000E-03 0.  1.
         12    1    3    3    0    0 -0.29465956078E+01 -0.10755524658E+02  0.23171412676E+01  0.11390034241E+02  0.00000000000E+00 0. -1.
</event>
<event>
 7    1  0.2950722E-010  0.4778727E+02  0.7816164E-02  0.1312668E+00
        -11   -1    0    0    0    0  0.00000000000E+00  0.00000000000E+00  0.45593999997E+02  0.45594000000E+02  0.51100000000E-03 0. -1.
         11   -1    0    0    0    0 -0.00000000000E+00 -0.00000000000E+00 -0.45593999997E+02  0.45594000000E+02  0.51100000000E-03 0.  1.
    9900012    2    1    2    0    0 -0.34532350601E+02  0.25503751269E+02 -0.63795399066E+01  0.47787273091E+02  0.20000009330E+02 0.  0.
        -12    1    1    2    0    0  0.34532350601E+02 -0.25503751269E+02  0.63795399066E+01  0.43400726909E+02  0.00000000000E+00 0.  1.
         11    1    3    3    0    0 -0.12262559417E+02  0.61350428320E+01 -0.91313008140E+00  0.13742012982E+02  0.51100000000E-03 0. -1.
        -11    1    3    3    0    0 -0.80719316011E+01 -0.11249189421E+01 -0.39797055755E+01  0.90697066726E+01  0.51100000000E-03 0.  1.
        -12    1    3    3    0    0 -0.14197859583E+02  0.20493627379E+02 -0.14867042498E+01  0.24975553436E+02  0.00000000000E+00 0.  1.
</event>
<event>
 7    1  0.2950722E-010  0.4778727E+02  0.7816164E-02  0.1312668E+00
        -11   -1    0    0    0    0  0.00000000000E+00  0.00000000000E+00  0.45593999997E+02  0.45594000000E+02  0.51100000000E-03 0.  1.
         11   -1    0    0    0    0 -0.00000000000E+00 -0.00000000000E+00 -0.45593999997E+02  0.45594000000E+02  0.51100000000E-03 0. -1.
    9900012    2    1    2    0    0 -0.21674057246E+01 -0.12466639466E+02 -0.41515159932E+02  0.47787271304E+02  0.20000001186E+02 0.  0.
        -12    1    1    2    0    0  0.21674057246E+01  0.12466639466E+02  0.41515159932E+02  0.43400728696E+02  0.00000000000E+00 0.  1.
         11    1    3    3    0    0 -0.43978291440E+01 -0.15974841167E+01 -0.13071372710E+02  0.13883574520E+02  0.51100000000E-03 0. -1.
        -11    1    3    3    0    0  0.62998194603E+01 -0.12398688302E+02 -0.23618053018E+02  0.27408531983E+02  0.51100000000E-03 0.  1.
        -12    1    3    3    0    0 -0.40693960409E+01  0.15295329522E+01 -0.48257342042E+01  0.64951648016E+01  0.00000000000E+00 0.  1.
</event>
<event>
 7    1  0.2950722E-010  0.4778727E+02  0.7816164E-02  0.1312668E+00
        -11   -1    0    0    0    0  0.00000000000E+00  0.00000000000E+00  0.45593999997E+02  0.45594000000E+02  0.51100000000E-03 0.  1.
         11   -1    0    0    0    0 -0.00000000000E+00 -0.00000000000E+00 -0.45593999997E+02  0.45594000000E+02  0.51100000000E-03 0. -1.
    9900012    2    1    2    0    0 -0.25334032866E+02  0.56882303171E+01 -0.34777207041E+02  0.47787270571E+02  0.19999997842E+02 0.  0.
        -12    1    1    2    0    0  0.25334032866E+02 -0.56882303171E+01  0.34777207041E+02  0.43400729429E+02  0.00000000000E+00 0.  1.
         11    1    3    3    0    0 -0.69195800967E+01  0.24817956683E+01 -0.58202140550E+01  0.93762887306E+01  0.51100000000E-03 0. -1.
        -11    1    3    3    0    0 -0.18592025065E+02 -0.26157856260E+01 -0.18041179220E+02  0.26038238773E+02  0.51100000000E-03 0.  1.
        -12    1    3    3    0    0  0.17757229622E+00  0.58222202748E+01 -0.10915813766E+02  0.12372743068E+02  0.00000000000E+00 0.  1.
</event>
<event>
 7    1  0.2950722E-010  0.4778727E+02  0.7816164E-02  0.1312668E+00
        -11   -1    0    0    0    0  0.00000000000E+00  0.00000000000E+00  0.45593999997E+02  0.45594000000E+02  0.51100000000E-03 0.  1.
         11   -1    0    0    0    0 -0.00000000000E+00 -0.00000000000E+00 -0.45593999997E+02  0.45594000000E+02  0.51100000000E-03 0. -1.
    9900012    2    1    2    0    0 -0.39207961097E+02  0.17729169300E+01 -0.18526094057E+02  0.47787267185E+02  0.19999982404E+02 0.  0.
        -12    1    1    2    0    0  0.39207961097E+02 -0.17729169300E+01  0.18526094057E+02  0.43400732815E+02  0.00000000000E+00 0.  1.
         11    1    3    3    0    0 -0.22144812219E+02  0.13678378237E+01 -0.13455585814E+02  0.25948342498E+02  0.51100000000E-03 0. -1.
        -11    1    3    3    0    0 -0.68717826294E+01 -0.55411717863E+01  0.39268038225E+00  0.88362989659E+01  0.51100000000E-03 0.  1.
        -12    1    3    3    0    0 -0.10191366248E+02  0.59462508926E+01 -0.54631886251E+01  0.13002625721E+02  0.00000000000E+00 0.  1.
</event>
<event>
 7    1  0.2950722E-010  0.4778727E+02  0.7816164E-02  0.1312668E+00
        -11   -1    0    0    0    0  0.00000000000E+00  0.00000000000E+00  0.45593999997E+02  0.45594000000E+02  0.51100000000E-03 0. -1.
         11   -1    0    0    0    0 -0.00000000000E+00 -0.00000000000E+00 -0.45593999997E+02  0.45594000000E+02  0.51100000000E-03 0.  1.
    9900012    2    1    2    0    0  0.67125338886E+01 -0.33370532005E+01  0.42748441419E+02  0.47787270985E+02  0.19999999731E+02 0.  0.
        -12    1    1    2    0    0 -0.67125338886E+01  0.33370532005E+01 -0.42748441419E+02  0.43400729015E+02  0.00000000000E+00 0.  1.
         11    1    3    3    0    0  0.11512041049E+02 -0.19255531030E+00  0.33453878183E+02  0.35379741836E+02  0.51100000000E-03 0. -1.
        -11    1    3    3    0    0  0.39465121916E+00  0.11653884738E+01  0.51592679848E+00  0.13341891179E+01  0.51100000000E-03 0.  1.
         12    1    3    3    0    0 -0.51941583801E+01 -0.43098863640E+01  0.87786364377E+01  0.11073340031E+02  0.00000000000E+00 0. -1.
</event>
<event>
 7    1  0.2950722E-010  0.4778727E+02  0.7816164E-02  0.1312668E+00
        -11   -1    0    0    0    0  0.00000000000E+00  0.00000000000E+00  0.45593999997E+02  0.45594000000E+02  0.51100000000E-03 0.  1.
         11   -1    0    0    0    0 -0.00000000000E+00 -0.00000000000E+00 -0.45593999997E+02  0.45594000000E+02  0.51100000000E-03 0. -1.
    9900012    2    1    2    0    0 -0.73962630609E+01  0.57853745311E+00 -0.42761943305E+02  0.47787271802E+02  0.20000003455E+02 0.  0.
        -12    1    1    2    0    0  0.73962630609E+01 -0.57853745311E+00  0.42761943305E+02  0.43400728198E+02  0.00000000000E+00 0.  1.
         11    1    3    3    0    0 -0.38574056688E+01 -0.62005153675E+01 -0.25257148230E+02  0.26291624261E+02  0.51100000000E-03 0. -1.
        -11    1    3    3    0    0 -0.11616645494E+01 -0.34008437249E+00  0.97213749103E+00  0.15524733390E+01  0.51100000000E-03 0.  1.
         12    1    3    3    0    0 -0.23771928426E+01  0.71191371931E+01 -0.18476932566E+02  0.19943174202E+02  0.00000000000E+00 0. -1.
</event>
<event>
 7    1  0.2950722E-010  0.4778727E+02  0.7816164E-02  0.1312668E+00
        -11   -1    0    0    0    0  0.00000000000E+00  0.00000000000E+00  0.45593999997E+02  0.45594000000E+02  0.51100000000E-03 0. -1.
         11   -1    0    0    0    0 -0.00000000000E+00 -0.00000000000E+00 -0.45593999997E+02  0.45594000000E+02  0.51100000000E-03 0.  1.
    9900012    2    1    2    0    0 -0.23085378746E+02  0.20259905510E+02  0.30663086904E+02  0.47787269803E+02  0.19999994342E+02 0.  0.
        -12    1    1    2    0    0  0.23085378746E+02 -0.20259905510E+02 -0.30663086904E+02  0.43400730197E+02  0.00000000000E+00 0.  1.
         11    1    3    3    0    0 -0.17811394859E+02  0.63513489850E+01  0.23191983953E+02  0.29924129740E+02  0.51100000000E-03 0. -1.
        -11    1    3    3    0    0 -0.83106283112E+00  0.78502249922E+01  0.66195349216E+01  0.10302181356E+02  0.51100000000E-03 0.  1.
         12    1    3    3    0    0 -0.44429210555E+01  0.60583315325E+01  0.85156802970E+00  0.75609587072E+01  0.00000000000E+00 0. -1.
</event>
<event>
 7    1  0.2950722E-010  0.4778727E+02  0.7816164E-02  0.1312668E+00
        -11   -1    0    0    0    0  0.00000000000E+00  0.00000000000E+00  0.45593999997E+02  0.45594000000E+02  0.51100000000E-03 0.  1.
         11   -1    0    0    0    0 -0.00000000000E+00 -0.00000000000E+00 -0.45593999997E+02  0.45594000000E+02  0.51100000000E-03 0. -1.
    9900012    2    1    2    0    0 -0.19450509274E+01 -0.42188752147E+02  0.99974725657E+01  0.47787268572E+02  0.19999988726E+02 0.  0.
        -12    1    1    2    0    0  0.19450509274E+01  0.42188752147E+02 -0.99974725657E+01  0.43400731428E+02  0.00000000000E+00 0.  1.
         11    1    3    3    0    0  0.30053782812E+00 -0.13074558287E+00  0.42576946599E+01  0.42702905606E+01  0.51100000000E-03 0.  1.
        -11    1    3    3    0    0 -0.24888674765E+01 -0.36686229817E+02  0.17335832723E+01  0.36811400826E+02  0.51100000000E-03 0. -1.
         12    1    3    3    0    0  0.24327872101E+00 -0.53717767462E+01  0.40061946335E+01  0.67055771854E+01  0.00000000000E+00 0. -1.
</event>
<event>
 7    1  0.2950722E-010  0.4778726E+02  0.7816164E-02  0.1312668E+00
        -11   -1    0    0    0    0  0.00000000000E+00  0.00000000000E+00  0.45593999997E+02  0.45594000000E+02  0.51100000000E-03 0.  1.
         11   -1    0    0    0    0 -0.00000000000E+00 -0.00000000000E+00 -0.45593999997E+02  0.45594000000E+02  0.51100000000E-03 0. -1.
    9900012    2    1    2    0    0  0.12062793510E+02 -0.16360804242E+02 -0.38346281621E+02  0.47787260181E+02  0.19999950469E+02 0.  0.
        -12    1    1    2    0    0 -0.12062793510E+02  0.16360804242E+02  0.38346281621E+02  0.43400739819E+02  0.00000000000E+00 0.  1.
         11    1    3    3    0    0  0.95697871781E+01 -0.13700888518E+02 -0.18421544709E+02  0.24872645266E+02  0.51100000000E-03 0. -1.
        -11    1    3    3    0    0 -0.66774004670E+00  0.37240572567E+01 -0.10050034726E+02  0.10738606869E+02  0.51100000000E-03 0.  1.
        -12    1    3    3    0    0  0.31607463788E+01 -0.63839729810E+01 -0.98747021851E+01  0.12176008046E+02  0.00000000000E+00 0.  1.
</event>
<event>
 7    1  0.2950722E-010  0.4778727E+02  0.7816164E-02  0.1312668E+00
        -11   -1    0    0    0    0  0.00000000000E+00  0.00000000000E+00  0.45593999997E+02  0.45594000000E+02  0.51100000000E-03 0. -1.
         11   -1    0    0    0    0 -0.00000000000E+00 -0.00000000000E+00 -0.45593999997E+02  0.45594000000E+02  0.51100000000E-03 0.  1.
    9900012    2    1    2    0    0  0.35061057722E+02 -0.10645845604E+02  0.23259655905E+02  0.47787269706E+02  0.19999993898E+02 0.  0.
        -12    1    1    2    0    0 -0.35061057722E+02  0.10645845604E+02 -0.23259655905E+02  0.43400730294E+02  0.00000000000E+00 0.  1.
         11    1    3    3    0    0  0.13742989142E+02 -0.60973129547E+01  0.20471047709E+02  0.25399030895E+02  0.51100000000E-03 0. -1.
        -11    1    3    3    0    0  0.57442646957E+01 -0.27232528353E+01  0.20916316912E+01  0.66923543161E+01  0.51100000000E-03 0.  1.
         12    1    3    3    0    0  0.15573803885E+02 -0.18252798135E+01  0.69697650482E+00  0.15695884495E+02  0.00000000000E+00 0. -1.
</event>
<event>
 7    1  0.2950722E-010  0.4778727E+02  0.7816164E-02  0.1312668E+00
        -11   -1    0    0    0    0  0.00000000000E+00  0.00000000000E+00  0.45593999997E+02  0.45594000000E+02  0.51100000000E-03 0. -1.
         11   -1    0    0    0    0 -0.00000000000E+00 -0.00000000000E+00 -0.45593999997E+02  0.45594000000E+02  0.51100000000E-03 0.  1.
    9900012    2    1    2    0    0 -0.20141221249E+02  0.49476682064E+01  0.38124468942E+02  0.47787270211E+02  0.19999996202E+02 0.  0.
        -12    1    1    2    0    0  0.20141221249E+02 -0.49476682064E+01 -0.38124468942E+02  0.43400729789E+02  0.00000000000E+00 0.  1.
         11    1    3    3    0    0 -0.19357048226E+02  0.33317720293E+01  0.29211121515E+02  0.35200648308E+02  0.51100000000E-03 0. -1.
        -11    1    3    3    0    0  0.21255129512E+01  0.40968531433E+01  0.67979178985E+01  0.82166720149E+01  0.51100000000E-03 0.  1.
        -12    1    3    3    0    0 -0.29096859746E+01 -0.24809569662E+01  0.21154295281E+01  0.43699498884E+01  0.00000000000E+00 0.  1.
</event>
<event>
 7    1  0.2950722E-010  0.4778727E+02  0.7816164E-02  0.1312668E+00
        -11   -1    0    0    0    0  0.00000000000E+00  0.00000000000E+00  0.45593999997E+02  0.45594000000E+02  0.51100000000E-03 0. -1.
         11   -1    0    0    0    0 -0.00000000000E+00 -0.00000000000E+00 -0.45593999997E+02  0.45594000000E+02  0.51100000000E-03 0.  1.
    9900012    2    1    2    0    0  0.31918852018E+02 -0.29376030519E+02 -0.13634960956E+01  0.47787269536E+02  0.19999993123E+02 0.  0.
        -12    1    1    2    0    0 -0.31918852018E+02  0.29376030519E+02  0.13634960956E+01  0.43400730464E+02  0.00000000000E+00 0.  1.
         11    1    3    3    0    0  0.22428812081E+02 -0.12741471817E+02  0.33329816386E+01  0.26009718996E+02  0.51100000000E-03 0. -1.
        -11    1    3    3    0    0  0.96317517102E-01 -0.94203055516E+01 -0.20903411210E+01  0.96499202076E+01  0.51100000000E-03 0.  1.
         12    1    3    3    0    0  0.93937224201E+01 -0.72142531506E+01 -0.26061366132E+01  0.12127630332E+02  0.00000000000E+00 0. -1.
</event>
<event>
 7    1  0.2950722E-010  0.4778727E+02  0.7816164E-02  0.1312668E+00
        -11   -1    0    0    0    0  0.00000000000E+00  0.00000000000E+00  0.45593999997E+02  0.45594000000E+02  0.51100000000E-03 0.  1.
         11   -1    0    0    0    0 -0.00000000000E+00 -0.00000000000E+00 -0.45593999997E+02  0.45594000000E+02  0.51100000000E-03 0. -1.
    9900012    2    1    2    0    0 -0.24606845414E+01 -0.33857367195E+02  0.27041578972E+02  0.47787271031E+02  0.19999999938E+02 0.  0.
        -12    1    1    2    0    0  0.24606845414E+01  0.33857367195E+02 -0.27041578972E+02  0.43400728969E+02  0.00000000000E+00 0.  1.
         11    1    3    3    0    0  0.14713412384E+01 -0.11693899125E+02  0.19781473833E+02  0.23026481039E+02  0.51100000000E-03 0. -1.
        -11    1    3    3    0    0  0.16849317251E+01 -0.98501093447E+01  0.17360818975E+01  0.10142861018E+02  0.51100000000E-03 0.  1.
         12    1    3    3    0    0 -0.56169575049E+01 -0.12313358725E+02  0.55240232414E+01  0.14617928973E+02  0.00000000000E+00 0. -1.
</event>
<event>
 7    1  0.2950722E-010  0.4778727E+02  0.7816164E-02  0.1312668E+00
        -11   -1    0    0    0    0  0.00000000000E+00  0.00000000000E+00  0.45593999997E+02  0.45594000000E+02  0.51100000000E-03 0.  1.
         11   -1    0    0    0    0 -0.00000000000E+00 -0.00000000000E+00 -0.45593999997E+02  0.45594000000E+02  0.51100000000E-03 0. -1.
    9900012    2    1    2    0    0 -0.29542808497E+02 -0.25995319107E+02  0.18305437966E+02  0.47787271798E+02  0.20000003435E+02 0.  0.
        -12    1    1    2    0    0  0.29542808497E+02  0.25995319107E+02 -0.18305437966E+02  0.43400728202E+02  0.00000000000E+00 0.  1.
         11    1    3    3    0    0 -0.11246524443E+01 -0.67085414963E+01  0.10305675368E+01  0.68797850139E+01  0.51100000000E-03 0.  1.
        -11    1    3    3    0    0 -0.27686354027E+02 -0.13865565758E+02  0.11711295302E+02  0.33105023048E+02  0.51100000000E-03 0. -1.
         12    1    3    3    0    0 -0.73180202598E+00 -0.54212118528E+01  0.55635751272E+01  0.78024637362E+01  0.00000000000E+00 0. -1.
</event>
<event>
 7    1  0.2950722E-010  0.4778727E+02  0.7816164E-02  0.1312668E+00
        -11   -1    0    0    0    0  0.00000000000E+00  0.00000000000E+00  0.45593999997E+02  0.45594000000E+02  0.51100000000E-03 0.  1.
         11   -1    0    0    0    0 -0.00000000000E+00 -0.00000000000E+00 -0.45593999997E+02  0.45594000000E+02  0.51100000000E-03 0. -1.
    9900012    2    1    2    0    0  0.16899683177E+02 -0.28397683624E+02 -0.28135308273E+02  0.47787270763E+02  0.19999998718E+02 0.  0.
        -12    1    1    2    0    0 -0.16899683177E+02  0.28397683624E+02  0.28135308273E+02  0.43400729237E+02  0.00000000000E+00 0.  1.
         11    1    3    3    0    0  0.82760708803E+01 -0.18487514620E+02 -0.20901790921E+02  0.29106123240E+02  0.51100000000E-03 0. -1.
        -11    1    3    3    0    0  0.69969760797E+01 -0.51567550814E+00 -0.54972429471E+00  0.70374563978E+01  0.51100000000E-03 0.  1.
        -12    1    3    3    0    0  0.16266362173E+01 -0.93944934951E+01 -0.66837930567E+01  0.11643691126E+02  0.00000000000E+00 0.  1.
</event>
<event>
 7    1  0.2950722E-010  0.4778727E+02  0.7816164E-02  0.1312668E+00
        -11   -1    0    0    0    0  0.00000000000E+00  0.00000000000E+00  0.45593999997E+02  0.45594000000E+02  0.51100000000E-03 0.  1.
         11   -1    0    0    0    0 -0.00000000000E+00 -0.00000000000E+00 -0.45593999997E+02  0.45594000000E+02  0.51100000000E-03 0. -1.
    9900012    2    1    2    0    0 -0.24596132755E+01  0.11795758010E+02 -0.41694527586E+02  0.47787271491E+02  0.20000002036E+02 0.  0.
        -12    1    1    2    0    0  0.24596132755E+01 -0.11795758010E+02  0.41694527586E+02  0.43400728509E+02  0.00000000000E+00 0.  1.
         11    1    3    3    0    0  0.40135332675E+01  0.11871434618E+02 -0.31864880443E+02  0.34240473348E+02  0.51100000000E-03 0. -1.
        -11    1    3    3    0    0 -0.20218871264E+01 -0.27221237666E+01 -0.14320889916E+01  0.36808782231E+01  0.51100000000E-03 0.  1.
         12    1    3    3    0    0 -0.44512594167E+01  0.26464471583E+01 -0.83975581514E+01  0.98659199197E+01  0.00000000000E+00 0. -1.
</event>
<event>
 7    1  0.2950722E-010  0.4778728E+02  0.7816164E-02  0.1312668E+00
        -11   -1    0    0    0    0  0.00000000000E+00  0.00000000000E+00  0.45593999997E+02  0.45594000000E+02  0.51100000000E-03 0.  1.
         11   -1    0    0    0    0 -0.00000000000E+00 -0.00000000000E+00 -0.45593999997E+02  0.45594000000E+02  0.51100000000E-03 0. -1.
    9900012    2    1    2    0    0  0.15255128811E+02 -0.38943411284E+02  0.11589418984E+02  0.47787275699E+02  0.20000021221E+02 0.  0.
        -12    1    1    2    0    0 -0.15255128811E+02  0.38943411284E+02 -0.11589418984E+02  0.43400724301E+02  0.00000000000E+00 0.  1.
         11    1    3    3    0    0  0.14500474362E+02 -0.15887614367E+02  0.30843932484E+01  0.21730014472E+02  0.51100000000E-03 0. -1.
        -11    1    3    3    0    0 -0.15327146028E+01 -0.58286804952E+01 -0.12109981824E+01  0.61472959281E+01  0.51100000000E-03 0.  1.
         12    1    3    3    0    0  0.22873690518E+01 -0.17227116422E+02  0.97160239184E+01  0.19909965298E+02  0.00000000000E+00 0. -1.
</event>
<event>
 7    1  0.2950722E-010  0.4778728E+02  0.7816164E-02  0.1312668E+00
        -11   -1    0    0    0    0  0.00000000000E+00  0.00000000000E+00  0.45593999997E+02  0.45594000000E+02  0.51100000000E-03 0.  1.
         11   -1    0    0    0    0 -0.00000000000E+00 -0.00000000000E+00 -0.45593999997E+02  0.45594000000E+02  0.51100000000E-03 0. -1.
    9900012    2    1    2    0    0  0.37242976257E+02 -0.10376094444E+02 -0.19721054735E+02  0.47787278621E+02  0.20000034543E+02 0.  0.
        -12    1    1    2    0    0 -0.37242976257E+02  0.10376094444E+02  0.19721054735E+02  0.43400721379E+02  0.00000000000E+00 0.  1.
         11    1    3    3    0    0  0.17710436596E+02 -0.65325940454E+01 -0.13627408193E+02  0.23281765477E+02  0.51100000000E-03 0. -1.
        -11    1    3    3    0    0  0.12278862876E+02 -0.18653285564E+01  0.29294043128E+01  0.12760538156E+02  0.51100000000E-03 0.  1.
        -12    1    3    3    0    0  0.72536767844E+01 -0.19781718423E+01 -0.90230508549E+01  0.11744974988E+02  0.00000000000E+00 0.  1.
</event>
<event>
 7    1  0.2950722E-010  0.4778727E+02  0.7816164E-02  0.1312668E+00
        -11   -1    0    0    0    0  0.00000000000E+00  0.00000000000E+00  0.45593999997E+02  0.45594000000E+02  0.51100000000E-03 0.  1.
         11   -1    0    0    0    0 -0.00000000000E+00 -0.00000000000E+00 -0.45593999997E+02  0.45594000000E+02  0.51100000000E-03 0. -1.
    9900012    2    1    2    0    0 -0.37499449016E+02 -0.19996157110E+02 -0.88072927155E+01  0.47787269814E+02  0.19999994392E+02 0.  0.
        -12    1    1    2    0    0  0.37499449016E+02  0.19996157110E+02  0.88072927155E+01  0.43400730186E+02  0.00000000000E+00 0.  1.
         11    1    3    3    0    0 -0.56504844339E+01 -0.88585939265E+01  0.17742369076E+01  0.10656011334E+02  0.51100000000E-03 0. -1.
        -11    1    3    3    0    0 -0.32484345632E+02 -0.11413546928E+02 -0.11195568089E+02  0.36205559099E+02  0.51100000000E-03 0.  1.
        -12    1    3    3    0    0  0.63538105002E+00  0.27598374393E+00  0.61403846592E+00  0.92569938062E+00  0.00000000000E+00 0.  1.
</event>
<event>
 7    1  0.2950722E-010  0.4778727E+02  0.7816164E-02  0.1312668E+00
        -11   -1    0    0    0    0  0.00000000000E+00  0.00000000000E+00  0.45593999997E+02  0.45594000000E+02  0.51100000000E-03 0. -1.
         11   -1    0    0    0    0 -0.00000000000E+00 -0.00000000000E+00 -0.45593999997E+02  0.45594000000E+02  0.51100000000E-03 0.  1.
    9900012    2    1    2    0    0 -0.62184554272E+01 -0.85311554298E+01  0.42097194589E+02  0.47787267366E+02  0.19999983229E+02 0.  0.
        -12    1    1    2    0    0  0.62184554272E+01  0.85311554298E+01 -0.42097194589E+02  0.43400732634E+02  0.00000000000E+00 0.  1.
         11    1    3    3    0    0 -0.71556859380E+01  0.23239885460E+00  0.23613902332E+02  0.24675377080E+02  0.51100000000E-03 0. -1.
        -11    1    3    3    0    0  0.31287040042E+01  0.87837379983E+00  0.17902534406E+01  0.37101666972E+01  0.51100000000E-03 0.  1.
         12    1    3    3    0    0 -0.21914734935E+01 -0.96419280842E+01  0.16693038817E+02  0.19401723588E+02  0.00000000000E+00 0. -1.
</event>
<event>
 7    1  0.2950722E-010  0.4778727E+02  0.7816164E-02  0.1312668E+00
        -11   -1    0    0    0    0  0.00000000000E+00  0.00000000000E+00  0.45593999997E+02  0.45594000000E+02  0.51100000000E-03 0.  1.
         11   -1    0    0    0    0 -0.00000000000E+00 -0.00000000000E+00 -0.45593999997E+02  0.45594000000E+02  0.51100000000E-03 0. -1.
    9900012    2    1    2    0    0 -0.12888235915E+02  0.13210487991E+02 -0.39281035138E+02  0.47787270288E+02  0.19999996553E+02 0.  0.
        -12    1    1    2    0    0  0.12888235915E+02 -0.13210487991E+02  0.39281035138E+02  0.43400729712E+02  0.00000000000E+00 0.  1.
         11    1    3    3    0    0 -0.74348228695E+01  0.85745998477E+01 -0.17903361561E+02  0.21197422228E+02  0.51100000000E-03 0. -1.
        -11    1    3    3    0    0 -0.50050477628E+01 -0.44599276245E+01 -0.92241389568E+01  0.11402903020E+02  0.51100000000E-03 0.  1.
        -12    1    3    3    0    0 -0.44836528248E+00  0.90958157675E+01 -0.12153534621E+02  0.15186945041E+02  0.00000000000E+00 0.  1.
</event>
<event>
 7    1  0.2950722E-010  0.4778727E+02  0.7816164E-02  0.1312668E+00
        -11   -1    0    0    0    0  0.00000000000E+00  0.00000000000E+00  0.45593999997E+02  0.45594000000E+02  0.51100000000E-03 0.  1.
         11   -1    0    0    0    0 -0.00000000000E+00 -0.00000000000E+00 -0.45593999997E+02  0.45594000000E+02  0.51100000000E-03 0. -1.
    9900012    2    1    2    0    0  0.10080068084E+02  0.41372241170E+02  0.83876981584E+01  0.47787267375E+02  0.19999983271E+02 0.  0.
        -12    1    1    2    0    0 -0.10080068084E+02 -0.41372241170E+02 -0.83876981584E+01  0.43400732625E+02  0.00000000000E+00 0.  1.
         11    1    3    3    0    0  0.67595922313E+01  0.10757053865E+02  0.68667778421E-01  0.12704763301E+02  0.51100000000E-03 0. -1.
        -11    1    3    3    0    0  0.23754981613E+01 -0.90901337480E+00  0.63764532687E+00  0.26221915746E+01  0.51100000000E-03 0.  1.
         12    1    3    3    0    0  0.94497769099E+00  0.31524200679E+02  0.76813850531E+01  0.32460312500E+02  0.00000000000E+00 0. -1.
</event>
<event>
 7    1  0.2950722E-010  0.4778727E+02  0.7816164E-02  0.1312668E+00
        -11   -1    0    0    0    0  0.00000000000E+00  0.00000000000E+00  0.45593999997E+02  0.45594000000E+02  0.51100000000E-03 0.  1.
         11   -1    0    0    0    0 -0.00000000000E+00 -0.00000000000E+00 -0.45593999997E+02  0.45594000000E+02  0.51100000000E-03 0. -1.
    9900012    2    1    2    0    0 -0.39923166651E+02 -0.16494663243E+02 -0.42059818135E+01  0.47787269201E+02  0.19999991593E+02 0.  0.
        -12    1    1    2    0    0  0.39923166651E+02  0.16494663243E+02  0.42059818135E+01  0.43400730799E+02  0.00000000000E+00 0.  1.
         11    1    3    3    0    0 -0.32424529194E+02 -0.17672440835E+02 -0.51572555844E+00  0.36931439609E+02  0.51100000000E-03 0. -1.
        -11    1    3    3    0    0 -0.40808627794E+01  0.37348055074E+01 -0.55507562456E+00  0.55597052451E+01  0.51100000000E-03 0.  1.
         12    1    3    3    0    0 -0.34177746775E+01 -0.25570279154E+01 -0.31351806305E+01  0.52961243464E+01  0.00000000000E+00 0. -1.
</event>
<event>
 7    1  0.2950722E-010  0.4778727E+02  0.7816164E-02  0.1312668E+00
        -11   -1    0    0    0    0  0.00000000000E+00  0.00000000000E+00  0.45593999997E+02  0.45594000000E+02  0.51100000000E-03 0. -1.
         11   -1    0    0    0    0 -0.00000000000E+00 -0.00000000000E+00 -0.45593999997E+02  0.45594000000E+02  0.51100000000E-03 0.  1.
    9900012    2    1    2    0    0 -0.10774671164E+02 -0.16444054347E+02  0.38692670844E+02  0.47787271445E+02  0.20000001827E+02 0.  0.
        -12    1    1    2    0    0  0.10774671164E+02  0.16444054347E+02 -0.38692670844E+02  0.43400728555E+02  0.00000000000E+00 0.  1.
         11    1    3    3    0    0  0.48619815468E+01 -0.29782493625E+01  0.61621524338E+01  0.83952937236E+01  0.51100000000E-03 0. -1.
        -11    1    3    3    0    0 -0.13083112864E+02 -0.98543389846E+01  0.18637779125E+02  0.24812147227E+02  0.51100000000E-03 0.  1.
         12    1    3    3    0    0 -0.25535398472E+01 -0.36114659997E+01  0.13892739285E+02  0.14579830495E+02  0.00000000000E+00 0. -1.
</event>
<event>
 7    1  0.2950722E-010  0.4778727E+02  0.7816164E-02  0.1312668E+00
        -11   -1    0    0    0    0  0.00000000000E+00  0.00000000000E+00  0.45593999997E+02  0.45594000000E+02  0.51100000000E-03 0.  1.
         11   -1    0    0    0    0 -0.00000000000E+00 -0.00000000000E+00 -0.45593999997E+02  0.45594000000E+02  0.51100000000E-03 0. -1.
    9900012    2    1    2    0    0 -0.16685905775E+02  0.26963030168E+02 -0.29634422755E+02  0.47787268908E+02  0.19999990257E+02 0.  0.
        -12    1    1    2    0    0  0.16685905775E+02 -0.26963030168E+02  0.29634422755E+02  0.43400731092E+02  0.00000000000E+00 0.  1.
         11    1    3    3    0    0 -0.47389570423E+01  0.53515640852E+01  0.20354005224E+01  0.74323487239E+01  0.51100000000E-03 0.  1.
        -11    1    3    3    0    0 -0.11339104331E+02  0.17491923690E+02 -0.26530560609E+02  0.33740381265E+02  0.51100000000E-03 0. -1.
        -12    1    3    3    0    0 -0.60784440200E+00  0.41195423924E+01 -0.51392626677E+01  0.66145389187E+01  0.00000000000E+00 0.  1.
</event>
<event>
 7    1  0.2950722E-010  0.4778727E+02  0.7816164E-02  0.1312668E+00
        -11   -1    0    0    0    0  0.00000000000E+00  0.00000000000E+00  0.45593999997E+02  0.45594000000E+02  0.51100000000E-03 0. -1.
         11   -1    0    0    0    0 -0.00000000000E+00 -0.00000000000E+00 -0.45593999997E+02  0.45594000000E+02  0.51100000000E-03 0.  1.
    9900012    2    1    2    0    0 -0.37248136960E+02  0.16576508492E+02  0.14880152432E+02  0.47787271006E+02  0.19999999826E+02 0.  0.
        -12    1    1    2    0    0  0.37248136960E+02 -0.16576508492E+02 -0.14880152432E+02  0.43400728994E+02  0.00000000000E+00 0.  1.
         11    1    3    3    0    0 -0.13752279256E+02  0.62796331769E+01 -0.23730641874E+01  0.15303281069E+02  0.51100000000E-03 0. -1.
        -11    1    3    3    0    0 -0.88712048924E+01 -0.69024848537E-01  0.93635789258E+01  0.12898823638E+02  0.51100000000E-03 0.  1.
         12    1    3    3    0    0 -0.14624652812E+02  0.10365900163E+02  0.78896376937E+01  0.19585166300E+02  0.00000000000E+00 0. -1.
</event>
<event>
 7    1  0.2950722E-010  0.4778727E+02  0.7816164E-02  0.1312668E+00
        -11   -1    0    0    0    0  0.00000000000E+00  0.00000000000E+00  0.45593999997E+02  0.45594000000E+02  0.51100000000E-03 0. -1.
         11   -1    0    0    0    0 -0.00000000000E+00 -0.00000000000E+00 -0.45593999997E+02  0.45594000000E+02  0.51100000000E-03 0.  1.
    9900012    2    1    2    0    0 -0.35388782796E+02  0.33710924385E+01  0.24897645213E+02  0.47787274785E+02  0.20000017055E+02 0.  0.
        -12    1    1    2    0    0  0.35388782796E+02 -0.33710924385E+01 -0.24897645213E+02  0.43400725215E+02  0.00000000000E+00 0.  1.
         11    1    3    3    0    0 -0.45658518954E+01 -0.11161649094E+01 -0.33203678193E+00  0.47120140409E+01  0.51100000000E-03 0. -1.
        -11    1    3    3    0    0 -0.30177927875E+02  0.54217588667E+01  0.17583419386E+02  0.35345147299E+02  0.51100000000E-03 0.  1.
        -12    1    3    3    0    0 -0.64500302622E+00 -0.93450151886E+00  0.76462626091E+01  0.77301134455E+01  0.00000000000E+00 0.  1.
</event>
<event>
 7    1  0.2950722E-010  0.4778727E+02  0.7816164E-02  0.1312668E+00
        -11   -1    0    0    0    0  0.00000000000E+00  0.00000000000E+00  0.45593999997E+02  0.45594000000E+02  0.51100000000E-03 0.  1.
         11   -1    0    0    0    0 -0.00000000000E+00 -0.00000000000E+00 -0.45593999997E+02  0.45594000000E+02  0.51100000000E-03 0. -1.
    9900012    2    1    2    0    0  0.28053403342E+02 -0.32900127991E+02  0.37698038217E+01  0.47787270954E+02  0.19999999586E+02 0.  0.
        -12    1    1    2    0    0 -0.28053403342E+02  0.32900127991E+02 -0.37698038217E+01  0.43400729046E+02  0.00000000000E+00 0.  1.
         11    1    3    3    0    0  0.36720975957E+01 -0.40204154265E+01 -0.45846664421E+01  0.71180901652E+01  0.51100000000E-03 0. -1.
        -11    1    3    3    0    0  0.12657728318E+02 -0.16717704851E+02  0.10822782346E+02  0.23597295600E+02  0.51100000000E-03 0.  1.
        -12    1    3    3    0    0  0.11723577429E+02 -0.12162007714E+02 -0.24683120825E+01  0.17071885189E+02  0.00000000000E+00 0.  1.
</event>
<event>
 7    1  0.2950722E-010  0.4778727E+02  0.7816164E-02  0.1312668E+00
        -11   -1    0    0    0    0  0.00000000000E+00  0.00000000000E+00  0.45593999997E+02  0.45594000000E+02  0.51100000000E-03 0.  1.
         11   -1    0    0    0    0 -0.00000000000E+00 -0.00000000000E+00 -0.45593999997E+02  0.45594000000E+02  0.51100000000E-03 0. -1.
    9900012    2    1    2    0    0  0.48739761076E+00 -0.18778562331E+02 -0.39124816470E+02  0.47787271626E+02  0.20000002649E+02 0.  0.
        -12    1    1    2    0    0 -0.48739761076E+00  0.18778562331E+02  0.39124816470E+02  0.43400728374E+02  0.00000000000E+00 0.  1.
         11    1    3    3    0    0  0.95119217496E+00 -0.15651121320E+02 -0.18951284694E+02  0.24597023335E+02  0.51100000000E-03 0. -1.
        -11    1    3    3    0    0 -0.22082981581E+01 -0.59488673776E+00 -0.19978338619E+02  0.20108816107E+02  0.51100000000E-03 0.  1.
        -12    1    3    3    0    0  0.17445035939E+01 -0.25325542734E+01 -0.19519315707E+00  0.30814321841E+01  0.00000000000E+00 0.  1.
</event>
<event>
 7    1  0.2950722E-010  0.4778728E+02  0.7816164E-02  0.1312668E+00
        -11   -1    0    0    0    0  0.00000000000E+00  0.00000000000E+00  0.45593999997E+02  0.45594000000E+02  0.51100000000E-03 0.  1.
         11   -1    0    0    0    0 -0.00000000000E+00 -0.00000000000E+00 -0.45593999997E+02  0.45594000000E+02  0.51100000000E-03 0. -1.
    9900012    2    1    2    0    0 -0.34793628430E+02 -0.21506533578E+02 -0.14508457264E+02  0.47787275375E+02  0.20000019743E+02 0.  0.
        -12    1    1    2    0    0  0.34793628430E+02  0.21506533578E+02  0.14508457264E+02  0.43400724625E+02  0.00000000000E+00 0.  1.
         11    1    3    3    0    0 -0.73262606824E+01  0.10788910205E+01  0.79198089710E+00  0.74475053154E+01  0.51100000000E-03 0.  1.
        -11    1    3    3    0    0 -0.25063677709E+02 -0.14976372206E+02 -0.13460752188E+02  0.32150762269E+02  0.51100000000E-03 0. -1.
        -12    1    3    3    0    0 -0.24036900385E+01 -0.76090523919E+01 -0.18396859722E+01  0.81890077897E+01  0.00000000000E+00 0.  1.
</event>
<event>
 7    1  0.2950722E-010  0.4778726E+02  0.7816164E-02  0.1312668E+00
        -11   -1    0    0    0    0  0.00000000000E+00  0.00000000000E+00  0.45593999997E+02  0.45594000000E+02  0.51100000000E-03 0.  1.
         11   -1    0    0    0    0 -0.00000000000E+00 -0.00000000000E+00 -0.45593999997E+02  0.45594000000E+02  0.51100000000E-03 0. -1.
    9900012    2    1    2    0    0  0.20096055323E+02  0.75372461833E+01 -0.37722179930E+02  0.47787258322E+02  0.19999941991E+02 0.  0.
        -12    1    1    2    0    0 -0.20096055323E+02 -0.75372461833E+01  0.37722179930E+02  0.43400741678E+02  0.00000000000E+00 0.  1.
         11    1    3    3    0    0  0.25847863177E+01  0.67565625340E+00 -0.68434434234E+01  0.73464515129E+01  0.51100000000E-03 0. -1.
        -11    1    3    3    0    0  0.72127706534E+01 -0.34172880474E+01 -0.21981739838E+02  0.23385867627E+02  0.51100000000E-03 0.  1.
        -12    1    3    3    0    0  0.10298498352E+02  0.10278877977E+02 -0.88969966689E+01  0.17054939182E+02  0.00000000000E+00 0.  1.
</event>
<event>
 7    1  0.2950722E-010  0.4778729E+02  0.7816164E-02  0.1312668E+00
        -11   -1    0    0    0    0  0.00000000000E+00  0.00000000000E+00  0.45593999997E+02  0.45594000000E+02  0.51100000000E-03 0.  1.
         11   -1    0    0    0    0 -0.00000000000E+00 -0.00000000000E+00 -0.45593999997E+02  0.45594000000E+02  0.51100000000E-03 0. -1.
    9900012    2    1    2    0    0  0.14190628376E+02  0.12152455058E+02 -0.39173531657E+02  0.47787289405E+02  0.20000083715E+02 0.  0.
        -12    1    1    2    0    0 -0.14190628376E+02 -0.12152455058E+02  0.39173531657E+02  0.43400710595E+02  0.00000000000E+00 0.  1.
         11    1    3    3    0    0  0.13597471984E+02  0.16049469853E+02 -0.26628169947E+02  0.33934291828E+02  0.51100000000E-03 0. -1.
        -11    1    3    3    0    0  0.37201137974E+00 -0.14329131026E+01 -0.10607708571E+02  0.10710514171E+02  0.51100000000E-03 0.  1.
         12    1    3    3    0    0  0.22114501148E+00 -0.24641016924E+01 -0.19376531396E+01  0.31424834059E+01  0.00000000000E+00 0. -1.
</event>
<event>
 7    1  0.2950722E-010  0.4778727E+02  0.7816164E-02  0.1312668E+00
        -11   -1    0    0    0    0  0.00000000000E+00  0.00000000000E+00  0.45593999997E+02  0.45594000000E+02  0.51100000000E-03 0. -1.
         11   -1    0    0    0    0 -0.00000000000E+00 -0.00000000000E+00 -0.45593999997E+02  0.45594000000E+02  0.51100000000E-03 0.  1.
    9900012    2    1    2    0    0  0.18145374038E+02 -0.38972253693E+02  0.59608773111E+01  0.47787271721E+02  0.20000003083E+02 0.  0.
        -12    1    1    2    0    0 -0.18145374038E+02  0.38972253693E+02 -0.59608773111E+01  0.43400728279E+02  0.00000000000E+00 0.  1.
         11    1    3    3    0    0  0.15454007295E+02 -0.19869053161E+02  0.10198422456E+02  0.27159039671E+02  0.51100000000E-03 0. -1.
        -11    1    3    3    0    0  0.64587052823E+00 -0.47178298124E+01 -0.37989244324E+01  0.60915428245E+01  0.51100000000E-03 0.  1.
        -12    1    3    3    0    0  0.20454962145E+01 -0.14385370719E+02 -0.43862071283E+00  0.14536689225E+02  0.00000000000E+00 0.  1.
</event>
<event>
 7    1  0.2950722E-010  0.4778726E+02  0.7816164E-02  0.1312668E+00
        -11   -1    0    0    0    0  0.00000000000E+00  0.00000000000E+00  0.45593999997E+02  0.45594000000E+02  0.51100000000E-03 0.  1.
         11   -1    0    0    0    0 -0.00000000000E+00 -0.00000000000E+00 -0.45593999997E+02  0.45594000000E+02  0.51100000000E-03 0. -1.
    9900012    2    1    2    0    0 -0.11282001601E+01 -0.42581459987E+02 -0.83168776999E+01  0.47787262392E+02  0.19999960549E+02 0.  0.
        -12    1    1    2    0    0  0.11282001601E+01  0.42581459987E+02  0.83168776999E+01  0.43400737608E+02  0.00000000000E+00 0.  1.
         11    1    3    3    0    0  0.20555331845E+01 -0.16034609574E+02 -0.70619432931E+01  0.17641002358E+02  0.51100000000E-03 0. -1.
        -11    1    3    3    0    0 -0.80182113767E+01 -0.19993565927E+02  0.13837743843E+01  0.21585857035E+02  0.51100000000E-03 0.  1.
        -12    1    3    3    0    0  0.48344780320E+01 -0.65532844871E+01 -0.26387087912E+01  0.85604029984E+01  0.00000000000E+00 0.  1.
</event>
<event>
 7    1  0.2950722E-010  0.4778727E+02  0.7816164E-02  0.1312668E+00
        -11   -1    0    0    0    0  0.00000000000E+00  0.00000000000E+00  0.45593999997E+02  0.45594000000E+02  0.51100000000E-03 0.  1.
         11   -1    0    0    0    0 -0.00000000000E+00 -0.00000000000E+00 -0.45593999997E+02  0.45594000000E+02  0.51100000000E-03 0. -1.
    9900012    2    1    2    0    0 -0.15995057642E+02 -0.36513714639E+02 -0.17161880809E+02  0.47787269838E+02  0.19999994500E+02 0.  0.
        -12    1    1    2    0    0  0.15995057642E+02  0.36513714639E+02  0.17161880809E+02  0.43400730162E+02  0.00000000000E+00 0.  1.
         11    1    3    3    0    0 -0.42447086798E+01 -0.96319482421E+01 -0.17350888047E+01  0.10667826027E+02  0.51100000000E-03 0. -1.
        -11    1    3    3    0    0  0.16037425021E+01 -0.17025960052E+02 -0.66920805148E+01  0.18364074918E+02  0.51100000000E-03 0.  1.
        -12    1    3    3    0    0 -0.13354091464E+02 -0.98558063449E+01 -0.87347114891E+01  0.18755368894E+02  0.00000000000E+00 0.  1.
</event>
<event>
 7    1  0.2950722E-010  0.4778727E+02  0.7816164E-02  0.1312668E+00
        -11   -1    0    0    0    0  0.00000000000E+00  0.00000000000E+00  0.45593999997E+02  0.45594000000E+02  0.51100000000E-03 0. -1.
         11   -1    0    0    0    0 -0.00000000000E+00 -0.00000000000E+00 -0.45593999997E+02  0.45594000000E+02  0.51100000000E-03 0.  1.
    9900012    2    1    2    0    0 -0.42219748024E+02  0.93753383581E+01 -0.36357986366E+01  0.47787272768E+02  0.20000007860E+02 0.  0.
        -12    1    1    2    0    0  0.42219748024E+02 -0.93753383581E+01  0.36357986366E+01  0.43400727232E+02  0.00000000000E+00 0.  1.
         11    1    3    3    0    0 -0.10026561919E+02  0.97273794120E+01 -0.58113127928E+01  0.15130274643E+02  0.51100000000E-03 0. -1.
        -11    1    3    3    0    0 -0.29675134836E+01  0.35542232465E-01 -0.12667128661E+01  0.32267570829E+01  0.51100000000E-03 0.  1.
         12    1    3    3    0    0 -0.29225672621E+02 -0.38758328639E+00  0.34422270223E+01  0.29430241042E+02  0.00000000000E+00 0. -1.
</event>
<event>
 7    1  0.2950722E-010  0.4778727E+02  0.7816164E-02  0.1312668E+00
        -11   -1    0    0    0    0  0.00000000000E+00  0.00000000000E+00  0.45593999997E+02  0.45594000000E+02  0.51100000000E-03 0. -1.
         11   -1    0    0    0    0 -0.00000000000E+00 -0.00000000000E+00 -0.45593999997E+02  0.45594000000E+02  0.51100000000E-03 0.  1.
    9900012    2    1    2    0    0  0.10813901809E+02  0.20879056016E+02  0.36479415258E+02  0.47787272011E+02  0.20000004405E+02 0.  0.
        -12    1    1    2    0    0 -0.10813901809E+02 -0.20879056016E+02 -0.36479415258E+02  0.43400727989E+02  0.00000000000E+00 0.  1.
         11    1    3    3    0    0  0.51620244603E+01  0.12821210604E+02  0.27001548538E+02  0.30333373726E+02  0.51100000000E-03 0. -1.
        -11    1    3    3    0    0 -0.20783523490E+01  0.17908593219E+01 -0.10771335346E+01  0.29473619577E+01  0.51100000000E-03 0.  1.
         12    1    3    3    0    0  0.77302296978E+01  0.62669860902E+01  0.10555000254E+02  0.14506536327E+02  0.00000000000E+00 0. -1.
</event>
<event>
 7    1  0.2950722E-010  0.4778727E+02  0.7816164E-02  0.1312668E+00
        -11   -1    0    0    0    0  0.00000000000E+00  0.00000000000E+00  0.45593999997E+02  0.45594000000E+02  0.51100000000E-03 0.  1.
         11   -1    0    0    0    0 -0.00000000000E+00 -0.00000000000E+00 -0.45593999997E+02  0.45594000000E+02  0.51100000000E-03 0. -1.
    9900012    2    1    2    0    0 -0.29841037324E+02  0.23053709239E+01 -0.31429620776E+02  0.47787270677E+02  0.19999998323E+02 0.  0.
        -12    1    1    2    0    0  0.29841037324E+02 -0.23053709239E+01  0.31429620776E+02  0.43400729323E+02  0.00000000000E+00 0.  1.
         11    1    3    3    0    0 -0.43020798441E+01 -0.58382694971E+01 -0.10053357498E+02  0.12396099344E+02  0.51100000000E-03 0. -1.
        -11    1    3    3    0    0  0.40327024452E+00 -0.96572497348E-01  0.36673151222E+00  0.55357510830E+00  0.51100000000E-03 0.  1.
         12    1    3    3    0    0 -0.25942227724E+02  0.82402129183E+01 -0.21742994791E+02  0.34837596225E+02  0.00000000000E+00 0. -1.
</event>
<event>
 7    1  0.2950722E-010  0.4778727E+02  0.7816164E-02  0.1312668E+00
        -11   -1    0    0    0    0  0.00000000000E+00  0.00000000000E+00  0.45593999997E+02  0.45594000000E+02  0.51100000000E-03 0.  1.
         11   -1    0    0    0    0 -0.00000000000E+00 -0.00000000000E+00 -0.45593999997E+02  0.45594000000E+02  0.51100000000E-03 0. -1.
    9900012    2    1    2    0    0  0.93002784100E+01 -0.40028162226E+02 -0.13959739074E+02  0.47787271150E+02  0.20000000480E+02 0.  0.
        -12    1    1    2    0    0 -0.93002784100E+01  0.40028162226E+02  0.13959739074E+02  0.43400728850E+02  0.00000000000E+00 0.  1.
         11    1    3    3    0    0  0.38649877158E+01 -0.60974864875E+01 -0.41122107009E+01  0.83082939655E+01  0.51100000000E-03 0. -1.
        -11    1    3    3    0    0 -0.19076549097E+01 -0.14143154916E+02  0.32535694324E+01  0.14637407302E+02  0.51100000000E-03 0.  1.
        -12    1    3    3    0    0  0.73429456040E+01 -0.19787520823E+02 -0.13101097806E+02  0.24841569882E+02  0.00000000000E+00 0.  1.
</event>
<event>
 7    1  0.2950722E-010  0.4778727E+02  0.7816164E-02  0.1312668E+00
        -11   -1    0    0    0    0  0.00000000000E+00  0.00000000000E+00  0.45593999997E+02  0.45594000000E+02  0.51100000000E-03 0.  1.
         11   -1    0    0    0    0 -0.00000000000E+00 -0.00000000000E+00 -0.45593999997E+02  0.45594000000E+02  0.51100000000E-03 0. -1.
    9900012    2    1    2    0    0 -0.49941001920E+01  0.39451100807E+02 -0.17386578730E+02  0.47787268306E+02  0.19999987515E+02 0.  0.
        -12    1    1    2    0    0  0.49941001920E+01 -0.39451100807E+02  0.17386578730E+02  0.43400731694E+02  0.00000000000E+00 0.  1.
         11    1    3    3    0    0  0.24228644010E+01  0.97549234170E+01 -0.65865662253E+01  0.12017140162E+02  0.51100000000E-03 0. -1.
        -11    1    3    3    0    0 -0.35489523783E+01  0.59687249003E+01 -0.94026229534E+01  0.11688886114E+02  0.51100000000E-03 0.  1.
        -12    1    3    3    0    0 -0.38680122147E+01  0.23727452490E+02 -0.13973895510E+01  0.24081242030E+02  0.00000000000E+00 0.  1.
</event>
<event>
 7    1  0.2950722E-010  0.4778727E+02  0.7816164E-02  0.1312668E+00
        -11   -1    0    0    0    0  0.00000000000E+00  0.00000000000E+00  0.45593999997E+02  0.45594000000E+02  0.51100000000E-03 0.  1.
         11   -1    0    0    0    0 -0.00000000000E+00 -0.00000000000E+00 -0.45593999997E+02  0.45594000000E+02  0.51100000000E-03 0. -1.
    9900012    2    1    2    0    0 -0.11299508458E+02  0.17744724166E+02 -0.37961416503E+02  0.47787271089E+02  0.20000000201E+02 0.  0.
        -12    1    1    2    0    0  0.11299508458E+02 -0.17744724166E+02  0.37961416503E+02  0.43400728911E+02  0.00000000000E+00 0.  1.
         11    1    3    3    0    0  0.20049530777E+01  0.60270784313E+00 -0.14371715299E+02  0.14523405058E+02  0.51100000000E-03 0. -1.
        -11    1    3    3    0    0 -0.14080565610E+02  0.14395451406E+02 -0.18096737412E+02  0.27073663482E+02  0.51100000000E-03 0.  1.
         12    1    3    3    0    0  0.77610407419E+00  0.27465649167E+01 -0.54929637920E+01  0.61902025489E+01  0.00000000000E+00 0. -1.
</event>
<event>
 7    1  0.2950722E-010  0.4778727E+02  0.7816164E-02  0.1312668E+00
        -11   -1    0    0    0    0  0.00000000000E+00  0.00000000000E+00  0.45593999997E+02  0.45594000000E+02  0.51100000000E-03 0. -1.
         11   -1    0    0    0    0 -0.00000000000E+00 -0.00000000000E+00 -0.45593999997E+02  0.45594000000E+02  0.51100000000E-03 0.  1.
    9900012    2    1    2    0    0 -0.20733284771E+02 -0.35440821265E+02  0.14060675928E+02  0.47787268245E+02  0.19999987235E+02 0.  0.
        -12    1    1    2    0    0  0.20733284771E+02  0.35440821265E+02 -0.14060675928E+02  0.43400731755E+02  0.00000000000E+00 0.  1.
         11    1    3    3    0    0 -0.59309468955E+01 -0.18814863386E+02  0.13497596267E+02  0.23903144575E+02  0.51100000000E-03 0. -1.
        -11    1    3    3    0    0 -0.66689738999E+01 -0.52568245397E+01  0.41512190924E+01  0.94520916909E+01  0.51100000000E-03 0.  1.
         12    1    3    3    0    0 -0.81333639759E+01 -0.11369133339E+02 -0.35881394321E+01  0.14432031979E+02  0.00000000000E+00 0. -1.
</event>
<event>
 7    1  0.2950722E-010  0.4778727E+02  0.7816164E-02  0.1312668E+00
        -11   -1    0    0    0    0  0.00000000000E+00  0.00000000000E+00  0.45593999997E+02  0.45594000000E+02  0.51100000000E-03 0. -1.
         11   -1    0    0    0    0 -0.00000000000E+00 -0.00000000000E+00 -0.45593999997E+02  0.45594000000E+02  0.51100000000E-03 0.  1.
    9900012    2    1    2    0    0 -0.33324181200E+01  0.30726059425E+02  0.30470111245E+02  0.47787269389E+02  0.19999992451E+02 0.  0.
        -12    1    1    2    0    0  0.33324181200E+01 -0.30726059425E+02 -0.30470111245E+02  0.43400730611E+02  0.00000000000E+00 0.  1.
         11    1    3    3    0    0  0.14626445018E+01  0.18849782411E+02  0.92210965110E+01  0.21035261990E+02  0.51100000000E-03 0. -1.
        -11    1    3    3    0    0 -0.47254497545E+00  0.49339982287E+01  0.12007668036E+01  0.50999488676E+01  0.51100000000E-03 0.  1.
         12    1    3    3    0    0 -0.43225176464E+01  0.69422787855E+01  0.20048247931E+02  0.21652058531E+02  0.00000000000E+00 0. -1.
</event>
<event>
 7    1  0.2950722E-010  0.4778727E+02  0.7816164E-02  0.1312668E+00
        -11   -1    0    0    0    0  0.00000000000E+00  0.00000000000E+00  0.45593999997E+02  0.45594000000E+02  0.51100000000E-03 0.  1.
         11   -1    0    0    0    0 -0.00000000000E+00 -0.00000000000E+00 -0.45593999997E+02  0.45594000000E+02  0.51100000000E-03 0. -1.
    9900012    2    1    2    0    0  0.33317530183E+02  0.48904698245E+01 -0.27379717993E+02  0.47787268785E+02  0.19999989700E+02 0.  0.
        -12    1    1    2    0    0 -0.33317530183E+02 -0.48904698245E+01  0.27379717993E+02  0.43400731215E+02  0.00000000000E+00 0.  1.
         11    1    3    3    0    0  0.88579025071E+01 -0.61759666328E+00 -0.11811429905E+02  0.14776797323E+02  0.51100000000E-03 0. -1.
        -11    1    3    3    0    0  0.23542393970E+02  0.88635897763E+01 -0.15467241760E+02  0.29530375980E+02  0.51100000000E-03 0.  1.
        -12    1    3    3    0    0  0.91723370569E+00 -0.33555232885E+01 -0.10104632776E+00  0.34800954830E+01  0.00000000000E+00 0.  1.
</event>
<event>
 7    1  0.2950722E-010  0.4778727E+02  0.7816164E-02  0.1312668E+00
        -11   -1    0    0    0    0  0.00000000000E+00  0.00000000000E+00  0.45593999997E+02  0.45594000000E+02  0.51100000000E-03 0.  1.
         11   -1    0    0    0    0 -0.00000000000E+00 -0.00000000000E+00 -0.45593999997E+02  0.45594000000E+02  0.51100000000E-03 0. -1.
    9900012    2    1    2    0    0 -0.18106337531E+02 -0.35118304058E+02 -0.17957969185E+02  0.47787269638E+02  0.19999993588E+02 0.  0.
        -12    1    1    2    0    0  0.18106337531E+02  0.35118304058E+02  0.17957969185E+02  0.43400730362E+02  0.00000000000E+00 0.  1.
         11    1    3    3    0    0 -0.12557384025E+01 -0.81257928649E+01 -0.10532694127E+02  0.13361999643E+02  0.51100000000E-03 0. -1.
        -11    1    3    3    0    0 -0.18394505985E+02 -0.25005735373E+02 -0.73842401412E+01  0.31908802151E+02  0.51100000000E-03 0.  1.
        -12    1    3    3    0    0  0.15439068572E+01 -0.19867758209E+01 -0.41034916194E-01  0.25164678441E+01  0.00000000000E+00 0.  1.
</event>
<event>
 7    1  0.2950722E-010  0.4778727E+02  0.7816164E-02  0.1312668E+00
        -11   -1    0    0    0    0  0.00000000000E+00  0.00000000000E+00  0.45593999997E+02  0.45594000000E+02  0.51100000000E-03 0. -1.
         11   -1    0    0    0    0 -0.00000000000E+00 -0.00000000000E+00 -0.45593999997E+02  0.45594000000E+02  0.51100000000E-03 0.  1.
    9900012    2    1    2    0    0  0.38536526464E+02 -0.64118376891E+01  0.18906287236E+02  0.47787271533E+02  0.20000002226E+02 0.  0.
        -12    1    1    2    0    0 -0.38536526464E+02  0.64118376891E+01 -0.18906287236E+02  0.43400728467E+02  0.00000000000E+00 0.  1.
         11    1    3    3    0    0  0.17061853788E+02 -0.77963470033E+01  0.19560494333E+01  0.18860435067E+02  0.51100000000E-03 0. -1.
        -11    1    3    3    0    0  0.10217606470E+01 -0.23893277210E+01  0.24627318460E+01  0.35802137065E+01  0.51100000000E-03 0.  1.
         12    1    3    3    0    0  0.20452912029E+02  0.37738370353E+01  0.14487505957E+02  0.25346622759E+02  0.00000000000E+00 0. -1.
</event>
<event>
 7    1  0.2950722E-010  0.4778730E+02  0.7816164E-02  0.1312668E+00
        -11   -1    0    0    0    0  0.00000000000E+00  0.00000000000E+00  0.45593999997E+02  0.45594000000E+02  0.51100000000E-03 0. -1.
         11   -1    0    0    0    0 -0.00000000000E+00 -0.00000000000E+00 -0.45593999997E+02  0.45594000000E+02  0.51100000000E-03 0.  1.
    9900012    2    1    2    0    0  0.76828922523E+00 -0.29551399898E+02  0.31776495506E+02  0.47787295272E+02  0.20000110461E+02 0.  0.
        -12    1    1    2    0    0 -0.76828922523E+00  0.29551399898E+02 -0.31776495506E+02  0.43400704728E+02  0.00000000000E+00 0.  1.
         11    1    3    3    0    0 -0.56719594424E+01 -0.12782404641E+02  0.62789390597E+01  0.15329255308E+02  0.51100000000E-03 0. -1.
        -11    1    3    3    0    0  0.65406888738E+01 -0.62348625566E+01  0.15459616229E+02  0.17906810332E+02  0.51100000000E-03 0.  1.
        -12    1    3    3    0    0 -0.10044020623E+00 -0.10534132700E+02  0.10037940217E+02  0.14551229632E+02  0.00000000000E+00 0.  1.
</event>
<event>
 7    1  0.2950722E-010  0.4778727E+02  0.7816164E-02  0.1312668E+00
        -11   -1    0    0    0    0  0.00000000000E+00  0.00000000000E+00  0.45593999997E+02  0.45594000000E+02  0.51100000000E-03 0. -1.
         11   -1    0    0    0    0 -0.00000000000E+00 -0.00000000000E+00 -0.45593999997E+02  0.45594000000E+02  0.51100000000E-03 0.  1.
    9900012    2    1    2    0    0  0.33462168940E+02  0.22428976544E+02  0.16150786232E+02  0.47787266886E+02  0.19999981038E+02 0.  0.
        -12    1    1    2    0    0 -0.33462168940E+02 -0.22428976544E+02 -0.16150786232E+02  0.43400733114E+02  0.00000000000E+00 0.  1.
         11    1    3    3    0    0  0.25534966133E+02  0.13206101076E+02  0.16800124277E+02  0.33296843349E+02  0.51100000000E-03 0. -1.
        -11    1    3    3    0    0  0.67928676133E+00  0.34768345079E+01 -0.33284893945E+01  0.48609310435E+01  0.51100000000E-03 0.  1.
        -12    1    3    3    0    0  0.72479160458E+01  0.57460409601E+01  0.26791513498E+01  0.96294924932E+01  0.00000000000E+00 0.  1.
</event>
<event>
 7    1  0.2950722E-010  0.4778727E+02  0.7816164E-02  0.1312668E+00
        -11   -1    0    0    0    0  0.00000000000E+00  0.00000000000E+00  0.45593999997E+02  0.45594000000E+02  0.51100000000E-03 0. -1.
         11   -1    0    0    0    0 -0.00000000000E+00 -0.00000000000E+00 -0.45593999997E+02  0.45594000000E+02  0.51100000000E-03 0.  1.
    9900012    2    1    2    0    0  0.38583575649E+02 -0.16718384914E+02  0.10743662206E+02  0.47787274412E+02  0.20000015354E+02 0.  0.
        -12    1    1    2    0    0 -0.38583575649E+02  0.16718384914E+02 -0.10743662206E+02  0.43400725588E+02  0.00000000000E+00 0.  1.
         11    1    3    3    0    0  0.17396272864E+02 -0.16403450209E+02  0.87552977543E+01  0.25462889218E+02  0.51100000000E-03 0. -1.
        -11    1    3    3    0    0  0.19584192066E+02 -0.17589735681E+01  0.43865227438E+00  0.19667917606E+02  0.51100000000E-03 0.  1.
         12    1    3    3    0    0  0.16031107186E+01  0.14440388625E+01  0.15497121771E+01  0.26564675877E+01  0.00000000000E+00 0. -1.
</event>
<event>
 7    1  0.2950722E-010  0.4778726E+02  0.7816164E-02  0.1312668E+00
        -11   -1    0    0    0    0  0.00000000000E+00  0.00000000000E+00  0.45593999997E+02  0.45594000000E+02  0.51100000000E-03 0. -1.
         11   -1    0    0    0    0 -0.00000000000E+00 -0.00000000000E+00 -0.45593999997E+02  0.45594000000E+02  0.51100000000E-03 0.  1.
    9900012    2    1    2    0    0 -0.13906263603E+02  0.19215096084E+02 -0.36345835370E+02  0.47787264595E+02  0.19999970596E+02 0.  0.
        -12    1    1    2    0    0  0.13906263603E+02 -0.19215096084E+02  0.36345835370E+02  0.43400735405E+02  0.00000000000E+00 0.  1.
         11    1    3    3    0    0 -0.74776176446E+01  0.18487055754E+02 -0.35618422185E+02  0.40821048435E+02  0.51100000000E-03 0. -1.
        -11    1    3    3    0    0 -0.39885639028E+01  0.37271883776E+00 -0.16513861903E+01  0.43329710302E+01  0.51100000000E-03 0.  1.
         12    1    3    3    0    0 -0.24400820557E+01  0.35532149252E+00  0.92397300548E+00  0.26332451303E+01  0.00000000000E+00 0. -1.
</event>
<event>
 7    1  0.2950722E-010  0.4778727E+02  0.7816164E-02  0.1312668E+00
        -11   -1    0    0    0    0  0.00000000000E+00  0.00000000000E+00  0.45593999997E+02  0.45594000000E+02  0.51100000000E-03 0. -1.
         11   -1    0    0    0    0 -0.00000000000E+00 -0.00000000000E+00 -0.45593999997E+02  0.45594000000E+02  0.51100000000E-03 0.  1.
    9900012    2    1    2    0    0  0.19782919702E+02  0.32327146859E+02 -0.21147453386E+02  0.47787272809E+02  0.20000008047E+02 0.  0.
        -12    1    1    2    0    0 -0.19782919702E+02 -0.32327146859E+02  0.21147453386E+02  0.43400727191E+02  0.00000000000E+00 0.  1.
         11    1    3    3    0    0  0.92560442474E+01  0.28695901960E+02 -0.13498932740E+02  0.33035591864E+02  0.51100000000E-03 0. -1.
        -11    1    3    3    0    0  0.13436742374E+01 -0.11624662247E+01 -0.27950644831E+01  0.33119743214E+01  0.51100000000E-03 0.  1.
         12    1    3    3    0    0  0.91832012167E+01  0.47937111238E+01 -0.48534561627E+01  0.11439706624E+02  0.00000000000E+00 0. -1.
</event>
<event>
 7    1  0.2950722E-010  0.4778729E+02  0.7816164E-02  0.1312668E+00
        -11   -1    0    0    0    0  0.00000000000E+00  0.00000000000E+00  0.45593999997E+02  0.45594000000E+02  0.51100000000E-03 0.  1.
         11   -1    0    0    0    0 -0.00000000000E+00 -0.00000000000E+00 -0.45593999997E+02  0.45594000000E+02  0.51100000000E-03 0. -1.
    9900012    2    1    2    0    0  0.78091387481E+01  0.28923534781E+02 -0.31401727679E+02  0.47787285565E+02  0.20000066207E+02 0.  0.
        -12    1    1    2    0    0 -0.78091387481E+01 -0.28923534781E+02  0.31401727679E+02  0.43400714435E+02  0.00000000000E+00 0.  1.
         11    1    3    3    0    0  0.35517284775E+01  0.18943730555E+02 -0.16498545099E+02  0.25370882783E+02  0.51100000000E-03 0. -1.
        -11    1    3    3    0    0 -0.44696994259E+01  0.19313427183E+01 -0.41158267410E+01  0.63756041029E+01  0.51100000000E-03 0.  1.
        -12    1    3    3    0    0  0.87271096965E+01  0.80484615075E+01 -0.10787355839E+02  0.16040798680E+02  0.00000000000E+00 0.  1.
</event>
<event>
 7    1  0.2950722E-010  0.4778727E+02  0.7816164E-02  0.1312668E+00
        -11   -1    0    0    0    0  0.00000000000E+00  0.00000000000E+00  0.45593999997E+02  0.45594000000E+02  0.51100000000E-03 0. -1.
         11   -1    0    0    0    0 -0.00000000000E+00 -0.00000000000E+00 -0.45593999997E+02  0.45594000000E+02  0.51100000000E-03 0.  1.
    9900012    2    1    2    0    0  0.18298905009E+02  0.31400435832E+01  0.39228992431E+02  0.47787266765E+02  0.19999980487E+02 0.  0.
        -12    1    1    2    0    0 -0.18298905009E+02 -0.31400435832E+01 -0.39228992431E+02  0.43400733235E+02  0.00000000000E+00 0.  1.
         11    1    3    3    0    0 -0.30416094983E+00  0.48391359441E+01  0.58235073629E+01  0.75777957768E+01  0.51100000000E-03 0.  1.
        -11    1    3    3    0    0  0.19048573679E+02 -0.13500039870E+00  0.23884282327E+02  0.30550373596E+02  0.51100000000E-03 0. -1.
        -12    1    3    3    0    0 -0.44550772027E+00 -0.15640919623E+01  0.95212027409E+01  0.96590973920E+01  0.00000000000E+00 0.  1.
</event>
<event>
 7    1  0.2950722E-010  0.4778724E+02  0.7816164E-02  0.1312668E+00
        -11   -1    0    0    0    0  0.00000000000E+00  0.00000000000E+00  0.45593999997E+02  0.45594000000E+02  0.51100000000E-03 0.  1.
         11   -1    0    0    0    0 -0.00000000000E+00 -0.00000000000E+00 -0.45593999997E+02  0.45594000000E+02  0.51100000000E-03 0. -1.
    9900012    2    1    2    0    0 -0.20742358676E+02 -0.36761810495E+02 -0.10096999009E+02  0.47787244900E+02  0.19999880796E+02 0.  0.
        -12    1    1    2    0    0  0.20742358676E+02  0.36761810495E+02  0.10096999009E+02  0.43400755100E+02  0.00000000000E+00 0.  1.
         11    1    3    3    0    0 -0.94816814941E+00 -0.18657170817E+01  0.36532603133E+01  0.42102534658E+01  0.51100000000E-03 0. -1.
        -11    1    3    3    0    0 -0.23614017973E+00 -0.18833381558E+01  0.13628201692E+01  0.23366651169E+01  0.51100000000E-03 0.  1.
         12    1    3    3    0    0 -0.19558050347E+02 -0.33012755257E+02 -0.15113079492E+02  0.41240326317E+02  0.00000000000E+00 0. -1.
</event>
<event>
 7    1  0.2950722E-010  0.4778727E+02  0.7816164E-02  0.1312668E+00
        -11   -1    0    0    0    0  0.00000000000E+00  0.00000000000E+00  0.45593999997E+02  0.45594000000E+02  0.51100000000E-03 0.  1.
         11   -1    0    0    0    0 -0.00000000000E+00 -0.00000000000E+00 -0.45593999997E+02  0.45594000000E+02  0.51100000000E-03 0. -1.
    9900012    2    1    2    0    0 -0.29420990503E+02 -0.57404604150E+01 -0.31385916203E+02  0.47787270699E+02  0.19999998427E+02 0.  0.
        -12    1    1    2    0    0  0.29420990503E+02  0.57404604150E+01  0.31385916203E+02  0.43400729301E+02  0.00000000000E+00 0.  1.
         11    1    3    3    0    0 -0.13664330423E+02  0.34657540147E+01 -0.19368118183E+02  0.23955153496E+02  0.51100000000E-03 0. -1.
        -11    1    3    3    0    0 -0.51633118406E+01 -0.84276859584E+01 -0.47809526793E+01  0.10979216209E+02  0.51100000000E-03 0.  1.
        -12    1    3    3    0    0 -0.10593348240E+02 -0.77852847139E+00 -0.72368453404E+01  0.12852900995E+02  0.00000000000E+00 0.  1.
</event>
<event>
 7    1  0.2950722E-010  0.4778727E+02  0.7816164E-02  0.1312668E+00
        -11   -1    0    0    0    0  0.00000000000E+00  0.00000000000E+00  0.45593999997E+02  0.45594000000E+02  0.51100000000E-03 0. -1.
         11   -1    0    0    0    0 -0.00000000000E+00 -0.00000000000E+00 -0.45593999997E+02  0.45594000000E+02  0.51100000000E-03 0.  1.
    9900012    2    1    2    0    0 -0.16400285628E+02  0.13090961436E+02  0.37990533552E+02  0.47787270979E+02  0.19999999703E+02 0.  0.
        -12    1    1    2    0    0  0.16400285628E+02 -0.13090961436E+02 -0.37990533552E+02  0.43400729021E+02  0.00000000000E+00 0.  1.
         11    1    3    3    0    0 -0.64492219741E+01  0.11378270544E+01  0.11066916583E+02  0.12859384021E+02  0.51100000000E-03 0. -1.
        -11    1    3    3    0    0  0.14543812681E+01 -0.87698323335E+00  0.12183191591E+02  0.12300995166E+02  0.51100000000E-03 0.  1.
        -12    1    3    3    0    0 -0.11405444922E+02  0.12830117615E+02  0.14740425377E+02  0.22626891792E+02  0.00000000000E+00 0.  1.
</event>
<event>
 7    1  0.2950722E-010  0.4778727E+02  0.7816164E-02  0.1312668E+00
        -11   -1    0    0    0    0  0.00000000000E+00  0.00000000000E+00  0.45593999997E+02  0.45594000000E+02  0.51100000000E-03 0.  1.
         11   -1    0    0    0    0 -0.00000000000E+00 -0.00000000000E+00 -0.45593999997E+02  0.45594000000E+02  0.51100000000E-03 0. -1.
    9900012    2    1    2    0    0  0.11920393718E+02 -0.10715547624E+02 -0.40332424594E+02  0.47787271655E+02  0.20000002782E+02 0.  0.
        -12    1    1    2    0    0 -0.11920393718E+02  0.10715547624E+02  0.40332424594E+02  0.43400728345E+02  0.00000000000E+00 0.  1.
         11    1    3    3    0    0  0.63017200482E+01 -0.13235731560E+02 -0.37260795550E+02  0.40040768609E+02  0.51100000000E-03 0. -1.
        -11    1    3    3    0    0  0.55226595291E+01  0.11946229123E+01 -0.18616320969E+01  0.59491651938E+01  0.51100000000E-03 0.  1.
        -12    1    3    3    0    0  0.96014141126E-01  0.13255610239E+01 -0.12099969469E+01  0.17973378522E+01  0.00000000000E+00 0.  1.
</event>
<event>
 7    1  0.2950722E-010  0.4778728E+02  0.7816164E-02  0.1312668E+00
        -11   -1    0    0    0    0  0.00000000000E+00  0.00000000000E+00  0.45593999997E+02  0.45594000000E+02  0.51100000000E-03 0.  1.
         11   -1    0    0    0    0 -0.00000000000E+00 -0.00000000000E+00 -0.45593999997E+02  0.45594000000E+02  0.51100000000E-03 0. -1.
    9900012    2    1    2    0    0 -0.24212537175E+02  0.84337165703E+01 -0.35017828631E+02  0.47787275886E+02  0.20000022075E+02 0.  0.
        -12    1    1    2    0    0  0.24212537175E+02 -0.84337165703E+01  0.35017828631E+02  0.43400724114E+02  0.00000000000E+00 0.  1.
         11    1    3    3    0    0 -0.12527667426E+02  0.49402588615E+00 -0.97785380710E+01  0.15899884269E+02  0.51100000000E-03 0. -1.
        -11    1    3    3    0    0 -0.12870012489E+01  0.84761212387E+01 -0.78766578411E+01  0.11642282529E+02  0.51100000000E-03 0.  1.
        -12    1    3    3    0    0 -0.10397868500E+02 -0.53643055458E+00 -0.17362632718E+02  0.20245109088E+02  0.00000000000E+00 0.  1.
</event>
<event>
 7    1  0.2950722E-010  0.4778727E+02  0.7816164E-02  0.1312668E+00
        -11   -1    0    0    0    0  0.00000000000E+00  0.00000000000E+00  0.45593999997E+02  0.45594000000E+02  0.51100000000E-03 0.  1.
         11   -1    0    0    0    0 -0.00000000000E+00 -0.00000000000E+00 -0.45593999997E+02  0.45594000000E+02  0.51100000000E-03 0. -1.
    9900012    2    1    2    0    0  0.19686307553E+02  0.18473861520E+02 -0.33982186649E+02  0.47787271043E+02  0.19999999995E+02 0.  0.
        -12    1    1    2    0    0 -0.19686307553E+02 -0.18473861520E+02  0.33982186649E+02  0.43400728957E+02  0.00000000000E+00 0.  1.
         11    1    3    3    0    0  0.36219842769E+01  0.66978699787E+01  0.11485138564E+00  0.76153413224E+01  0.51100000000E-03 0.  1.
        -11    1    3    3    0    0  0.11912780812E+02  0.11340843247E+02 -0.30540827418E+02  0.34688199894E+02  0.51100000000E-03 0. -1.
         12    1    3    3    0    0  0.41515424639E+01  0.43514829465E+00 -0.35562106168E+01  0.54837298273E+01  0.00000000000E+00 0. -1.
</event>
<event>
 7    1  0.2950722E-010  0.4778727E+02  0.7816164E-02  0.1312668E+00
        -11   -1    0    0    0    0  0.00000000000E+00  0.00000000000E+00  0.45593999997E+02  0.45594000000E+02  0.51100000000E-03 0.  1.
         11   -1    0    0    0    0 -0.00000000000E+00 -0.00000000000E+00 -0.45593999997E+02  0.45594000000E+02  0.51100000000E-03 0. -1.
    9900012    2    1    2    0    0 -0.11754134101E+02  0.20387158835E+01 -0.41728977617E+02  0.47787267242E+02  0.19999982665E+02 0.  0.
        -12    1    1    2    0    0  0.11754134101E+02 -0.20387158835E+01  0.41728977617E+02  0.43400732758E+02  0.00000000000E+00 0.  1.
         11    1    3    3    0    0 -0.10225951638E+02 -0.19297405748E+01 -0.20586522579E+02  0.23067268970E+02  0.51100000000E-03 0. -1.
        -11    1    3    3    0    0  0.13301041970E+01  0.26568127423E+00  0.12498019940E+01  0.18443885165E+01  0.51100000000E-03 0.  1.
         12    1    3    3    0    0 -0.28582866603E+01  0.37027751841E+01 -0.22392257033E+02  0.22875609756E+02  0.00000000000E+00 0. -1.
</event>
<event>
 7    1  0.2950722E-010  0.4778727E+02  0.7816164E-02  0.1312668E+00
        -11   -1    0    0    0    0  0.00000000000E+00  0.00000000000E+00  0.45593999997E+02  0.45594000000E+02  0.51100000000E-03 0.  1.
         11   -1    0    0    0    0 -0.00000000000E+00 -0.00000000000E+00 -0.45593999997E+02  0.45594000000E+02  0.51100000000E-03 0. -1.
    9900012    2    1    2    0    0  0.11589242318E+02 -0.66085667051E+01 -0.41299390790E+02  0.47787269925E+02  0.19999994897E+02 0.  0.
        -12    1    1    2    0    0 -0.11589242318E+02  0.66085667051E+01  0.41299390790E+02  0.43400730075E+02  0.00000000000E+00 0.  1.
         11    1    3    3    0    0 -0.86927338957E+00 -0.20422504489E+01 -0.10565584506E+01  0.24581983530E+01  0.51100000000E-03 0. -1.
        -11    1    3    3    0    0  0.45611438241E+00  0.48342723469E+01 -0.52061031405E+01  0.71191108732E+01  0.51100000000E-03 0.  1.
        -12    1    3    3    0    0  0.12002401325E+02 -0.94005886031E+01 -0.35036729199E+02  0.38209960699E+02  0.00000000000E+00 0.  1.
</event>
<event>
 7    1  0.2950722E-010  0.4778727E+02  0.7816164E-02  0.1312668E+00
        -11   -1    0    0    0    0  0.00000000000E+00  0.00000000000E+00  0.45593999997E+02  0.45594000000E+02  0.51100000000E-03 0. -1.
         11   -1    0    0    0    0 -0.00000000000E+00 -0.00000000000E+00 -0.45593999997E+02  0.45594000000E+02  0.51100000000E-03 0.  1.
    9900012    2    1    2    0    0  0.30365094924E+02  0.24061833837E+02  0.19560479948E+02  0.47787271745E+02  0.20000003192E+02 0.  0.
        -12    1    1    2    0    0 -0.30365094924E+02 -0.24061833837E+02 -0.19560479948E+02  0.43400728255E+02  0.00000000000E+00 0.  1.
         11    1    3    3    0    0  0.27705374756E+02  0.22910809995E+02  0.14426295170E+02  0.38737720604E+02  0.51100000000E-03 0. -1.
        -11    1    3    3    0    0  0.22614416509E+01 -0.27323480540E+01  0.23505415463E+01  0.42549841422E+01  0.51100000000E-03 0.  1.
        -12    1    3    3    0    0  0.39827851627E+00  0.38833718960E+01  0.27836432315E+01  0.47945669981E+01  0.00000000000E+00 0.  1.
</event>
<event>
 7    1  0.2950722E-010  0.4778727E+02  0.7816164E-02  0.1312668E+00
        -11   -1    0    0    0    0  0.00000000000E+00  0.00000000000E+00  0.45593999997E+02  0.45594000000E+02  0.51100000000E-03 0.  1.
         11   -1    0    0    0    0 -0.00000000000E+00 -0.00000000000E+00 -0.45593999997E+02  0.45594000000E+02  0.51100000000E-03 0. -1.
    9900012    2    1    2    0    0  0.23101467125E+02  0.48325826897E+01 -0.36422409743E+02  0.47787267630E+02  0.19999984430E+02 0.  0.
        -12    1    1    2    0    0 -0.23101467125E+02 -0.48325826897E+01  0.36422409743E+02  0.43400732370E+02  0.00000000000E+00 0.  1.
         11    1    3    3    0    0  0.15361541085E+02  0.32320352186E+01 -0.25523226945E+02  0.29964280570E+02  0.51100000000E-03 0. -1.
        -11    1    3    3    0    0  0.60988414589E+01  0.51561025407E+01 -0.11353150093E+02  0.13880752064E+02  0.51100000000E-03 0.  1.
         12    1    3    3    0    0  0.16410845814E+01 -0.35555550696E+01  0.45396729477E+00  0.39422349957E+01  0.00000000000E+00 0. -1.
</event>
<event>
 7    1  0.2950722E-010  0.4778727E+02  0.7816164E-02  0.1312668E+00
        -11   -1    0    0    0    0  0.00000000000E+00  0.00000000000E+00  0.45593999997E+02  0.45594000000E+02  0.51100000000E-03 0. -1.
         11   -1    0    0    0    0 -0.00000000000E+00 -0.00000000000E+00 -0.45593999997E+02  0.45594000000E+02  0.51100000000E-03 0.  1.
    9900012    2    1    2    0    0  0.23285640182E+02 -0.30176408772E+02  0.20755399884E+02  0.47787270635E+02  0.19999998132E+02 0.  0.
        -12    1    1    2    0    0 -0.23285640182E+02  0.30176408772E+02 -0.20755399884E+02  0.43400729365E+02  0.00000000000E+00 0.  1.
         11    1    3    3    0    0  0.26020712253E+01 -0.93396375586E+01  0.26310529928E+01  0.10045996441E+02  0.51100000000E-03 0. -1.
        -11    1    3    3    0    0  0.69117883151E+01 -0.12118314966E+02  0.16120714756E+02  0.21319095193E+02  0.51100000000E-03 0.  1.
        -12    1    3    3    0    0  0.13771780642E+02 -0.87184562480E+01  0.20036321352E+01  0.16422179001E+02  0.00000000000E+00 0.  1.
</event>
<event>
 7    1  0.2950722E-010  0.4778727E+02  0.7816164E-02  0.1312668E+00
        -11   -1    0    0    0    0  0.00000000000E+00  0.00000000000E+00  0.45593999997E+02  0.45594000000E+02  0.51100000000E-03 0.  1.
         11   -1    0    0    0    0 -0.00000000000E+00 -0.00000000000E+00 -0.45593999997E+02  0.45594000000E+02  0.51100000000E-03 0. -1.
    9900012    2    1    2    0    0 -0.62937123801E+01 -0.41666362556E+02 -0.10388765333E+02  0.47787273862E+02  0.20000012846E+02 0.  0.
        -12    1    1    2    0    0  0.62937123801E+01  0.41666362556E+02  0.10388765333E+02  0.43400726138E+02  0.00000000000E+00 0.  1.
         11    1    3    3    0    0  0.23111871008E+00 -0.12999036525E+02 -0.11450276177E+02  0.17324467993E+02  0.51100000000E-03 0. -1.
        -11    1    3    3    0    0 -0.76251007687E+01 -0.21961343997E+02 -0.12600534712E+01  0.23281549066E+02  0.51100000000E-03 0.  1.
        -12    1    3    3    0    0  0.11002696785E+01 -0.67059820337E+01  0.23215643157E+01  0.71812568032E+01  0.00000000000E+00 0.  1.
</event>
<event>
 7    1  0.2950722E-010  0.4778727E+02  0.7816164E-02  0.1312668E+00
        -11   -1    0    0    0    0  0.00000000000E+00  0.00000000000E+00  0.45593999997E+02  0.45594000000E+02  0.51100000000E-03 0. -1.
         11   -1    0    0    0    0 -0.00000000000E+00 -0.00000000000E+00 -0.45593999997E+02  0.45594000000E+02  0.51100000000E-03 0.  1.
    9900012    2    1    2    0    0 -0.18376819182E+02  0.30550133417E+02  0.24750866700E+02  0.47787268008E+02  0.19999986156E+02 0.  0.
        -12    1    1    2    0    0  0.18376819182E+02 -0.30550133417E+02 -0.24750866700E+02  0.43400731992E+02  0.00000000000E+00 0.  1.
         11    1    3    3    0    0  0.43243466314E+00 -0.19761193517E+01  0.16608631339E+00  0.20296877480E+01  0.51100000000E-03 0.  1.
        -11    1    3    3    0    0 -0.17066070626E+01  0.10743014189E+02  0.75906208796E+01  0.13264327617E+02  0.51100000000E-03 0. -1.
         12    1    3    3    0    0 -0.17102646783E+02  0.21783238579E+02  0.16994159507E+02  0.32493252643E+02  0.00000000000E+00 0. -1.
</event>
<event>
 7    1  0.2950722E-010  0.4778727E+02  0.7816164E-02  0.1312668E+00
        -11   -1    0    0    0    0  0.00000000000E+00  0.00000000000E+00  0.45593999997E+02  0.45594000000E+02  0.51100000000E-03 0.  1.
         11   -1    0    0    0    0 -0.00000000000E+00 -0.00000000000E+00 -0.45593999997E+02  0.45594000000E+02  0.51100000000E-03 0. -1.
    9900012    2    1    2    0    0 -0.33236951206E+02 -0.83213206766E+01 -0.26639892070E+02  0.47787272440E+02  0.20000006362E+02 0.  0.
        -12    1    1    2    0    0  0.33236951206E+02  0.83213206766E+01  0.26639892070E+02  0.43400727560E+02  0.00000000000E+00 0.  1.
         11    1    3    3    0    0 -0.12496937097E+02  0.98281465684E+00 -0.89076707638E+01  0.15378100018E+02  0.51100000000E-03 0. -1.
        -11    1    3    3    0    0 -0.20303083249E+02 -0.68644031274E+01 -0.88497059305E+01  0.23187335229E+02  0.51100000000E-03 0.  1.
        -12    1    3    3    0    0 -0.43693085968E+00 -0.24397322061E+01 -0.88825153758E+01  0.92218371930E+01  0.00000000000E+00 0.  1.
</event>
<event>
 7    1  0.2950722E-010  0.4778727E+02  0.7816164E-02  0.1312668E+00
        -11   -1    0    0    0    0  0.00000000000E+00  0.00000000000E+00  0.45593999997E+02  0.45594000000E+02  0.51100000000E-03 0. -1.
         11   -1    0    0    0    0 -0.00000000000E+00 -0.00000000000E+00 -0.45593999997E+02  0.45594000000E+02  0.51100000000E-03 0.  1.
    9900012    2    1    2    0    0  0.43195315947E+02  0.41620677932E+01  0.68190217969E+00  0.47787272832E+02  0.20000008152E+02 0.  0.
        -12    1    1    2    0    0 -0.43195315947E+02 -0.41620677932E+01 -0.68190217969E+00  0.43400727168E+02  0.00000000000E+00 0.  1.
         11    1    3    3    0    0  0.28807261078E+02  0.10257974246E+01  0.42768140757E+00  0.28828691660E+02  0.51100000000E-03 0. -1.
        -11    1    3    3    0    0  0.33071787698E+01  0.10913615905E+01 -0.53423823513E+01  0.63772683012E+01  0.51100000000E-03 0.  1.
        -12    1    3    3    0    0  0.11080876099E+02  0.20449087782E+01  0.55966031234E+01  0.12581312871E+02  0.00000000000E+00 0.  1.
</event>
<event>
 7    1  0.2950722E-010  0.4778727E+02  0.7816164E-02  0.1312668E+00
        -11   -1    0    0    0    0  0.00000000000E+00  0.00000000000E+00  0.45593999997E+02  0.45594000000E+02  0.51100000000E-03 0. -1.
         11   -1    0    0    0    0 -0.00000000000E+00 -0.00000000000E+00 -0.45593999997E+02  0.45594000000E+02  0.51100000000E-03 0.  1.
    9900012    2    1    2    0    0  0.26467545805E+02  0.31305611880E+02  0.14249597357E+02  0.47787270271E+02  0.19999996474E+02 0.  0.
        -12    1    1    2    0    0 -0.26467545805E+02 -0.31305611880E+02 -0.14249597357E+02  0.43400729729E+02  0.00000000000E+00 0.  1.
         11    1    3    3    0    0  0.85219791544E+01  0.64987406609E+01 -0.23963531743E+01  0.10981815318E+02  0.51100000000E-03 0. -1.
        -11    1    3    3    0    0  0.19366687000E+02  0.20128144068E+02  0.14370993214E+02  0.31412357364E+02  0.51100000000E-03 0.  1.
        -12    1    3    3    0    0 -0.14211203488E+01  0.46787271518E+01  0.22749573173E+01  0.53930975888E+01  0.00000000000E+00 0.  1.
</event>
<event>
 7    1  0.2950722E-010  0.4778727E+02  0.7816164E-02  0.1312668E+00
        -11   -1    0    0    0    0  0.00000000000E+00  0.00000000000E+00  0.45593999997E+02  0.45594000000E+02  0.51100000000E-03 0.  1.
         11   -1    0    0    0    0 -0.00000000000E+00 -0.00000000000E+00 -0.45593999997E+02  0.45594000000E+02  0.51100000000E-03 0. -1.
    9900012    2    1    2    0    0  0.34258054016E+02  0.22226942324E+01 -0.26553126682E+02  0.47787272227E+02  0.20000005392E+02 0.  0.
        -12    1    1    2    0    0 -0.34258054016E+02 -0.22226942324E+01  0.26553126682E+02  0.43400727773E+02  0.00000000000E+00 0.  1.
         11    1    3    3    0    0  0.10913890377E+02 -0.14422140602E+01 -0.87234850422E+01  0.14046073334E+02  0.51100000000E-03 0. -1.
        -11    1    3    3    0    0  0.22897620650E+02  0.59957900780E+01 -0.10240968351E+02  0.25790074895E+02  0.51100000000E-03 0.  1.
        -12    1    3    3    0    0  0.44654298894E+00 -0.23308817854E+01 -0.75886732890E+01  0.79511239977E+01  0.00000000000E+00 0.  1.
</event>
<event>
 7    1  0.2950722E-010  0.4778730E+02  0.7816164E-02  0.1312668E+00
        -11   -1    0    0    0    0  0.00000000000E+00  0.00000000000E+00  0.45593999997E+02  0.45594000000E+02  0.51100000000E-03 0. -1.
         11   -1    0    0    0    0 -0.00000000000E+00 -0.00000000000E+00 -0.45593999997E+02  0.45594000000E+02  0.51100000000E-03 0.  1.
    9900012    2    1    2    0    0 -0.31826623450E+02  0.13603350006E+02  0.26184651461E+02  0.47787296507E+02  0.20000116092E+02 0.  0.
        -12    1    1    2    0    0  0.31826623450E+02 -0.13603350006E+02 -0.26184651461E+02  0.43400703493E+02  0.00000000000E+00 0.  1.
         11    1    3    3    0    0  0.23486439685E+00  0.22197442043E+01  0.26456897329E+01  0.34615170145E+01  0.51100000000E-03 0.  1.
        -11    1    3    3    0    0 -0.18415282882E+02  0.73575855872E+01  0.22600362210E+02  0.30067142890E+02  0.51100000000E-03 0. -1.
        -12    1    3    3    0    0 -0.13646204964E+02  0.40260202142E+01  0.93859951822E+00  0.14258636602E+02  0.00000000000E+00 0.  1.
</event>
<event>
 7    1  0.2950722E-010  0.4778727E+02  0.7816164E-02  0.1312668E+00
        -11   -1    0    0    0    0  0.00000000000E+00  0.00000000000E+00  0.45593999997E+02  0.45594000000E+02  0.51100000000E-03 0. -1.
         11   -1    0    0    0    0 -0.00000000000E+00 -0.00000000000E+00 -0.45593999997E+02  0.45594000000E+02  0.51100000000E-03 0.  1.
    9900012    2    1    2    0    0  0.43449140056E+01 -0.18157304423E+02  0.39179809725E+02  0.47787268766E+02  0.19999989610E+02 0.  0.
        -12    1    1    2    0    0 -0.43449140056E+01  0.18157304423E+02 -0.39179809725E+02  0.43400731234E+02  0.00000000000E+00 0.  1.
         11    1    3    3    0    0  0.12301453782E+01 -0.74128232444E+01  0.14475224795E+02  0.16309363545E+02  0.51100000000E-03 0. -1.
        -11    1    3    3    0    0 -0.62856081600E+01 -0.60972383042E+01  0.87011269044E+01  0.12344828656E+02  0.51100000000E-03 0.  1.
        -12    1    3    3    0    0  0.94003767874E+01 -0.46472428740E+01  0.16003458025E+02  0.19133076565E+02  0.00000000000E+00 0.  1.
</event>
<event>
 7    1  0.2950722E-010  0.4778727E+02  0.7816164E-02  0.1312668E+00
        -11   -1    0    0    0    0  0.00000000000E+00  0.00000000000E+00  0.45593999997E+02  0.45594000000E+02  0.51100000000E-03 0. -1.
         11   -1    0    0    0    0 -0.00000000000E+00 -0.00000000000E+00 -0.45593999997E+02  0.45594000000E+02  0.51100000000E-03 0.  1.
    9900012    2    1    2    0    0 -0.70362460564E+00  0.37545943657E+02  0.21758462025E+02  0.47787266799E+02  0.19999980644E+02 0.  0.
        -12    1    1    2    0    0  0.70362460564E+00 -0.37545943657E+02 -0.21758462025E+02  0.43400733201E+02  0.00000000000E+00 0.  1.
         11    1    3    3    0    0  0.62456108391E+01  0.58979849995E+01  0.35936575401E+01  0.93117268315E+01  0.51100000000E-03 0. -1.
        -11    1    3    3    0    0 -0.41856587052E+00 -0.66178625751E+00  0.11192444639E+01  0.13659673750E+01  0.51100000000E-03 0.  1.
         12    1    3    3    0    0 -0.65306695743E+01  0.32309744915E+02  0.17045560021E+02  0.37109572592E+02  0.00000000000E+00 0. -1.
</event>
<event>
 7    1  0.2950722E-010  0.4778727E+02  0.7816164E-02  0.1312668E+00
        -11   -1    0    0    0    0  0.00000000000E+00  0.00000000000E+00  0.45593999997E+02  0.45594000000E+02  0.51100000000E-03 0.  1.
         11   -1    0    0    0    0 -0.00000000000E+00 -0.00000000000E+00 -0.45593999997E+02  0.45594000000E+02  0.51100000000E-03 0. -1.
    9900012    2    1    2    0    0  0.39378129260E+01 -0.31532931173E+02 -0.29559960505E+02  0.47787269775E+02  0.19999994213E+02 0.  0.
        -12    1    1    2    0    0 -0.39378129260E+01  0.31532931173E+02  0.29559960505E+02  0.43400730225E+02  0.00000000000E+00 0.  1.
         11    1    3    3    0    0  0.19102634626E+01 -0.33978386452E+02 -0.25317099586E+02  0.42416216051E+02  0.51100000000E-03 0. -1.
        -11    1    3    3    0    0  0.44543590874E+00  0.10664883875E+01 -0.19154370586E+01  0.22371209212E+01  0.51100000000E-03 0.  1.
         12    1    3    3    0    0  0.15821135546E+01  0.13789668918E+01 -0.23274238598E+01  0.31339328027E+01  0.00000000000E+00 0. -1.
</event>
<event>
 7    1  0.2950722E-010  0.4778730E+02  0.7816164E-02  0.1312668E+00
        -11   -1    0    0    0    0  0.00000000000E+00  0.00000000000E+00  0.45593999997E+02  0.45594000000E+02  0.51100000000E-03 0. -1.
         11   -1    0    0    0    0 -0.00000000000E+00 -0.00000000000E+00 -0.45593999997E+02  0.45594000000E+02  0.51100000000E-03 0.  1.
    9900012    2    1    2    0    0  0.21230454604E+01 -0.40130046681E+02  0.16391861400E+02  0.47787296218E+02  0.20000114774E+02 0.  0.
        -12    1    1    2    0    0 -0.21230454604E+01  0.40130046681E+02 -0.16391861400E+02  0.43400703782E+02  0.00000000000E+00 0.  1.
         11    1    3    3    0    0 -0.18756386940E+01 -0.95441954194E+01  0.10273943610E+02  0.14147918726E+02  0.51100000000E-03 0. -1.
        -11    1    3    3    0    0  0.13194990428E+01 -0.13462604451E+02 -0.32865853681E+01  0.13920647973E+02  0.51100000000E-03 0.  1.
        -12    1    3    3    0    0  0.26791851116E+01 -0.17123246810E+02  0.94045031578E+01  0.19718729519E+02  0.00000000000E+00 0.  1.
</event>
<event>
 7    1  0.2950722E-010  0.4778727E+02  0.7816164E-02  0.1312668E+00
        -11   -1    0    0    0    0  0.00000000000E+00  0.00000000000E+00  0.45593999997E+02  0.45594000000E+02  0.51100000000E-03 0.  1.
         11   -1    0    0    0    0 -0.00000000000E+00 -0.00000000000E+00 -0.45593999997E+02  0.45594000000E+02  0.51100000000E-03 0. -1.
    9900012    2    1    2    0    0  0.11361033148E+02  0.11580847043E+02 -0.40254616774E+02  0.47787271158E+02  0.20000000519E+02 0.  0.
        -12    1    1    2    0    0 -0.11361033148E+02 -0.11580847043E+02  0.40254616774E+02  0.43400728842E+02  0.00000000000E+00 0.  1.
         11    1    3    3    0    0  0.36397667646E+00  0.30453864484E+00 -0.27211039784E+02  0.27215177919E+02  0.51100000000E-03 0. -1.
        -11    1    3    3    0    0  0.54027760965E+01  0.40955559033E+01 -0.49892126293E+01  0.84175893597E+01  0.51100000000E-03 0.  1.
         12    1    3    3    0    0  0.55942803746E+01  0.71807524946E+01 -0.80543643605E+01  0.12154503879E+02  0.00000000000E+00 0. -1.
</event>
<event>
 7    1  0.2950722E-010  0.4778727E+02  0.7816164E-02  0.1312668E+00
        -11   -1    0    0    0    0  0.00000000000E+00  0.00000000000E+00  0.45593999997E+02  0.45594000000E+02  0.51100000000E-03 0.  1.
         11   -1    0    0    0    0 -0.00000000000E+00 -0.00000000000E+00 -0.45593999997E+02  0.45594000000E+02  0.51100000000E-03 0. -1.
    9900012    2    1    2    0    0 -0.97059717720E+01 -0.80976799864E+01 -0.41519215224E+02  0.47787267956E+02  0.19999985917E+02 0.  0.
        -12    1    1    2    0    0  0.97059717720E+01  0.80976799864E+01  0.41519215224E+02  0.43400732044E+02  0.00000000000E+00 0.  1.
         11    1    3    3    0    0 -0.30010810976E+01 -0.30535971755E+01 -0.12711137765E+02  0.13412828450E+02  0.51100000000E-03 0. -1.
        -11    1    3    3    0    0  0.75693646627E+00 -0.34989542691E+01  0.91100253655E+00  0.36939896689E+01  0.51100000000E-03 0.  1.
        -12    1    3    3    0    0 -0.74618271407E+01 -0.15451285418E+01 -0.29719079995E+02  0.30680449837E+02  0.00000000000E+00 0.  1.
</event>
<event>
 7    1  0.2950722E-010  0.4778727E+02  0.7816164E-02  0.1312668E+00
        -11   -1    0    0    0    0  0.00000000000E+00  0.00000000000E+00  0.45593999997E+02  0.45594000000E+02  0.51100000000E-03 0.  1.
         11   -1    0    0    0    0 -0.00000000000E+00 -0.00000000000E+00 -0.45593999997E+02  0.45594000000E+02  0.51100000000E-03 0. -1.
    9900012    2    1    2    0    0  0.24506528027E+01  0.30220051343E+02 -0.31054245693E+02  0.47787269846E+02  0.19999994537E+02 0.  0.
        -12    1    1    2    0    0 -0.24506528027E+01 -0.30220051343E+02  0.31054245693E+02  0.43400730154E+02  0.00000000000E+00 0.  1.
         11    1    3    3    0    0 -0.19248096701E+01  0.14660887677E+02 -0.23613396081E+02  0.27861065925E+02  0.51100000000E-03 0. -1.
        -11    1    3    3    0    0 -0.15890116471E+01  0.83811296390E+01 -0.61240781262E+01  0.10501077335E+02  0.51100000000E-03 0.  1.
         12    1    3    3    0    0  0.59644741199E+01  0.71780340269E+01 -0.13167714859E+01  0.94251265862E+01  0.00000000000E+00 0. -1.
</event>
<event>
 7    1  0.2950722E-010  0.4778727E+02  0.7816164E-02  0.1312668E+00
        -11   -1    0    0    0    0  0.00000000000E+00  0.00000000000E+00  0.45593999997E+02  0.45594000000E+02  0.51100000000E-03 0. -1.
         11   -1    0    0    0    0 -0.00000000000E+00 -0.00000000000E+00 -0.45593999997E+02  0.45594000000E+02  0.51100000000E-03 0.  1.
    9900012    2    1    2    0    0 -0.40304907780E+02 -0.15501065800E+02  0.43421919499E+01  0.47787271170E+02  0.20000000571E+02 0.  0.
        -12    1    1    2    0    0  0.40304907780E+02  0.15501065800E+02 -0.43421919499E+01  0.43400728830E+02  0.00000000000E+00 0.  1.
         11    1    3    3    0    0 -0.14963954034E+02 -0.57598586477E+01 -0.28752918156E+00  0.16036787872E+02  0.51100000000E-03 0. -1.
        -11    1    3    3    0    0 -0.71733703712E+01 -0.95562048275E+01 -0.25443181548E+01  0.12216867369E+02  0.51100000000E-03 0.  1.
        -12    1    3    3    0    0 -0.18167583375E+02 -0.18500232503E+00  0.71740392862E+01  0.19533615928E+02  0.00000000000E+00 0.  1.
</event>
<event>
 7    1  0.2950722E-010  0.4778727E+02  0.7816164E-02  0.1312668E+00
        -11   -1    0    0    0    0  0.00000000000E+00  0.00000000000E+00  0.45593999997E+02  0.45594000000E+02  0.51100000000E-03 0. -1.
         11   -1    0    0    0    0 -0.00000000000E+00 -0.00000000000E+00 -0.45593999997E+02  0.45594000000E+02  0.51100000000E-03 0.  1.
    9900012    2    1    2    0    0 -0.17628901322E+02  0.15689418937E+01  0.39628068979E+02  0.47787267386E+02  0.19999983319E+02 0.  0.
        -12    1    1    2    0    0  0.17628901322E+02 -0.15689418937E+01 -0.39628068979E+02  0.43400732614E+02  0.00000000000E+00 0.  1.
         11    1    3    3    0    0 -0.88978143928E+01 -0.62876091633E+00  0.34340443756E+01  0.95581955563E+01  0.51100000000E-03 0.  1.
        -11    1    3    3    0    0 -0.59099682087E+01  0.53690866166E+01  0.25602070386E+02  0.26818292705E+02  0.51100000000E-03 0. -1.
         12    1    3    3    0    0 -0.28211187204E+01 -0.31713838066E+01  0.10591954217E+02  0.11410779124E+02  0.00000000000E+00 0. -1.
</event>
<event>
 7    1  0.2950722E-010  0.4778729E+02  0.7816164E-02  0.1312668E+00
        -11   -1    0    0    0    0  0.00000000000E+00  0.00000000000E+00  0.45593999997E+02  0.45594000000E+02  0.51100000000E-03 0.  1.
         11   -1    0    0    0    0 -0.00000000000E+00 -0.00000000000E+00 -0.45593999997E+02  0.45594000000E+02  0.51100000000E-03 0. -1.
    9900012    2    1    2    0    0 -0.36264034410E+02  0.98996069019E+01 -0.21691918366E+02  0.47787288821E+02  0.20000081049E+02 0.  0.
        -12    1    1    2    0    0  0.36264034410E+02 -0.98996069019E+01  0.21691918366E+02  0.43400711179E+02  0.00000000000E+00 0.  1.
         11    1    3    3    0    0 -0.25275469236E+02 -0.33606261778E+00 -0.95723941670E+01  0.27029484152E+02  0.51100000000E-03 0. -1.
        -11    1    3    3    0    0 -0.20558031623E+01  0.60081307365E+01 -0.75628877877E+01  0.98752839726E+01  0.51100000000E-03 0.  1.
        -12    1    3    3    0    0 -0.89327620119E+01  0.42275387832E+01 -0.45566364108E+01  0.10882520696E+02  0.00000000000E+00 0.  1.
</event>
<event>
 7    1  0.2950722E-010  0.4778727E+02  0.7816164E-02  0.1312668E+00
        -11   -1    0    0    0    0  0.00000000000E+00  0.00000000000E+00  0.45593999997E+02  0.45594000000E+02  0.51100000000E-03 0.  1.
         11   -1    0    0    0    0 -0.00000000000E+00 -0.00000000000E+00 -0.45593999997E+02  0.45594000000E+02  0.51100000000E-03 0. -1.
    9900012    2    1    2    0    0  0.23278394707E+02  0.27566806244E+02 -0.24120752177E+02  0.47787272446E+02  0.20000006389E+02 0.  0.
        -12    1    1    2    0    0 -0.23278394707E+02 -0.27566806244E+02  0.24120752177E+02  0.43400727554E+02  0.00000000000E+00 0.  1.
         11    1    3    3    0    0  0.18253547823E+02  0.29064005796E+02 -0.23797246718E+02  0.41763828760E+02  0.51100000000E-03 0. -1.
        -11    1    3    3    0    0  0.49566250333E+01 -0.12539100850E+01  0.52354893750E+00  0.51395063940E+01  0.51100000000E-03 0.  1.
        -12    1    3    3    0    0  0.68221851191E-01 -0.24328946718E+00 -0.84705439613E+00  0.88393729179E+00  0.00000000000E+00 0.  1.
</event>
<event>
 7    1  0.2950722E-010  0.4778727E+02  0.7816164E-02  0.1312668E+00
        -11   -1    0    0    0    0  0.00000000000E+00  0.00000000000E+00  0.45593999997E+02  0.45594000000E+02  0.51100000000E-03 0.  1.
         11   -1    0    0    0    0 -0.00000000000E+00 -0.00000000000E+00 -0.45593999997E+02  0.45594000000E+02  0.51100000000E-03 0. -1.
    9900012    2    1    2    0    0 -0.32632619132E+02 -0.70497166093E+01 -0.27731518246E+02  0.47787269132E+02  0.19999991279E+02 0.  0.
        -12    1    1    2    0    0  0.32632619132E+02  0.70497166093E+01  0.27731518246E+02  0.43400730868E+02  0.00000000000E+00 0.  1.
         11    1    3    3    0    0 -0.61603285393E+01 -0.46937141758E+01 -0.22034428134E+01  0.80520656337E+01  0.51100000000E-03 0.  1.
        -11    1    3    3    0    0 -0.12499454043E+02  0.24369192627E+01 -0.20495131588E+02  0.24129346156E+02  0.51100000000E-03 0. -1.
         12    1    3    3    0    0 -0.13972836550E+02 -0.47929216962E+01 -0.50329438455E+01  0.15605857342E+02  0.00000000000E+00 0. -1.
</event>
<event>
 7    1  0.2950722E-010  0.4778726E+02  0.7816164E-02  0.1312668E+00
        -11   -1    0    0    0    0  0.00000000000E+00  0.00000000000E+00  0.45593999997E+02  0.45594000000E+02  0.51100000000E-03 0.  1.
         11   -1    0    0    0    0 -0.00000000000E+00 -0.00000000000E+00 -0.45593999997E+02  0.45594000000E+02  0.51100000000E-03 0. -1.
    9900012    2    1    2    0    0  0.17062541249E+02 -0.24427462340E+02 -0.31556181768E+02  0.47787264545E+02  0.19999970367E+02 0.  0.
        -12    1    1    2    0    0 -0.17062541249E+02  0.24427462340E+02  0.31556181768E+02  0.43400735455E+02  0.00000000000E+00 0.  1.
         11    1    3    3    0    0  0.58069428469E+01  0.76400594719E+00 -0.39498022425E+01  0.70643632644E+01  0.51100000000E-03 0. -1.
        -11    1    3    3    0    0  0.12488467845E+02 -0.25714525178E+02 -0.26594013922E+02  0.39044080358E+02  0.51100000000E-03 0.  1.
         12    1    3    3    0    0 -0.12328694428E+01  0.52305689131E+00 -0.10123656034E+01  0.16788209224E+01  0.00000000000E+00 0. -1.
</event>
<event>
 7    1  0.2950722E-010  0.4778727E+02  0.7816164E-02  0.1312668E+00
        -11   -1    0    0    0    0  0.00000000000E+00  0.00000000000E+00  0.45593999997E+02  0.45594000000E+02  0.51100000000E-03 0. -1.
         11   -1    0    0    0    0 -0.00000000000E+00 -0.00000000000E+00 -0.45593999997E+02  0.45594000000E+02  0.51100000000E-03 0.  1.
    9900012    2    1    2    0    0 -0.18354057696E+02  0.36426118817E+02  0.14828683610E+02  0.47787269319E+02  0.19999992135E+02 0.  0.
        -12    1    1    2    0    0  0.18354057696E+02 -0.36426118817E+02 -0.14828683610E+02  0.43400730681E+02  0.00000000000E+00 0.  1.
         11    1    3    3    0    0 -0.14091519352E+02  0.14831149546E+02  0.12354555151E+02  0.23899141150E+02  0.51100000000E-03 0. -1.
        -11    1    3    3    0    0 -0.65543979796E+00 -0.53745837060E+00 -0.87122815105E+00  0.12155252285E+01  0.51100000000E-03 0.  1.
         12    1    3    3    0    0 -0.36070985467E+01  0.22132427642E+02  0.33453566107E+01  0.22672602941E+02  0.00000000000E+00 0. -1.
</event>
<event>
 7    1  0.2950722E-010  0.4778725E+02  0.7816164E-02  0.1312668E+00
        -11   -1    0    0    0    0  0.00000000000E+00  0.00000000000E+00  0.45593999997E+02  0.45594000000E+02  0.51100000000E-03 0. -1.
         11   -1    0    0    0    0 -0.00000000000E+00 -0.00000000000E+00 -0.45593999997E+02  0.45594000000E+02  0.51100000000E-03 0.  1.
    9900012    2    1    2    0    0  0.22716637461E+02  0.28983434536E+02  0.22968230898E+02  0.47787254320E+02  0.19999923745E+02 0.  0.
        -12    1    1    2    0    0 -0.22716637461E+02 -0.28983434536E+02 -0.22968230898E+02  0.43400745680E+02  0.00000000000E+00 0.  1.
         11    1    3    3    0    0  0.19252214111E+02  0.28634590665E+02  0.18497150861E+02  0.39150122873E+02  0.51100000000E-03 0. -1.
        -11    1    3    3    0    0  0.18023278156E+01 -0.27616906461E+01  0.38273314799E+01  0.50521072136E+01  0.51100000000E-03 0.  1.
        -12    1    3    3    0    0  0.16620955344E+01  0.31105345167E+01  0.64374855630E+00  0.35850242327E+01  0.00000000000E+00 0.  1.
</event>
<event>
 7    1  0.2950722E-010  0.4778727E+02  0.7816164E-02  0.1312668E+00
        -11   -1    0    0    0    0  0.00000000000E+00  0.00000000000E+00  0.45593999997E+02  0.45594000000E+02  0.51100000000E-03 0.  1.
         11   -1    0    0    0    0 -0.00000000000E+00 -0.00000000000E+00 -0.45593999997E+02  0.45594000000E+02  0.51100000000E-03 0. -1.
    9900012    2    1    2    0    0  0.28583208802E+02  0.28721804309E+02 -0.15546101110E+02  0.47787272726E+02  0.20000007668E+02 0.  0.
        -12    1    1    2    0    0 -0.28583208802E+02 -0.28721804309E+02  0.15546101110E+02  0.43400727274E+02  0.00000000000E+00 0.  1.
         11    1    3    3    0    0  0.36871112151E+01  0.13685136069E+02 -0.10312799849E+02  0.17528022688E+02  0.51100000000E-03 0. -1.
        -11    1    3    3    0    0  0.17862692475E+02  0.85791760520E+01 -0.10761019602E+01  0.19845302715E+02  0.51100000000E-03 0.  1.
         12    1    3    3    0    0  0.70334051126E+01  0.64574921874E+01 -0.41571993007E+01  0.10413947323E+02  0.00000000000E+00 0. -1.
</event>
<event>
 7    1  0.2950722E-010  0.4778726E+02  0.7816164E-02  0.1312668E+00
        -11   -1    0    0    0    0  0.00000000000E+00  0.00000000000E+00  0.45593999997E+02  0.45594000000E+02  0.51100000000E-03 0.  1.
         11   -1    0    0    0    0 -0.00000000000E+00 -0.00000000000E+00 -0.45593999997E+02  0.45594000000E+02  0.51100000000E-03 0. -1.
    9900012    2    1    2    0    0  0.38590553555E+02  0.49282437773E+01 -0.19238132768E+02  0.47787260803E+02  0.19999953306E+02 0.  0.
        -12    1    1    2    0    0 -0.38590553555E+02 -0.49282437773E+01  0.19238132768E+02  0.43400739197E+02  0.00000000000E+00 0.  1.
         11    1    3    3    0    0  0.21632875160E+01 -0.34514759126E+00 -0.21906778695E+01  0.30980654489E+01  0.51100000000E-03 0. -1.
        -11    1    3    3    0    0  0.21532672168E+02 -0.62899395464E+01 -0.99721660144E+01  0.24549203765E+02  0.51100000000E-03 0.  1.
        -12    1    3    3    0    0  0.14894593871E+02  0.11563330915E+02 -0.70752888839E+01  0.20139991590E+02  0.00000000000E+00 0.  1.
</event>
<event>
 7    1  0.2950722E-010  0.4778727E+02  0.7816164E-02  0.1312668E+00
        -11   -1    0    0    0    0  0.00000000000E+00  0.00000000000E+00  0.45593999997E+02  0.45594000000E+02  0.51100000000E-03 0. -1.
         11   -1    0    0    0    0 -0.00000000000E+00 -0.00000000000E+00 -0.45593999997E+02  0.45594000000E+02  0.51100000000E-03 0.  1.
    9900012    2    1    2    0    0 -0.10914295080E+02  0.37363905610E+02  0.19194789632E+02  0.47787271567E+02  0.20000002382E+02 0.  0.
        -12    1    1    2    0    0  0.10914295080E+02 -0.37363905610E+02 -0.19194789632E+02  0.43400728433E+02  0.00000000000E+00 0.  1.
         11    1    3    3    0    0 -0.67256098922E+01  0.47980850656E+01  0.50607475484E+01  0.96884784527E+01  0.51100000000E-03 0. -1.
        -11    1    3    3    0    0  0.24803465308E+01  0.22047135897E+02  0.52461634682E+01  0.22798038327E+02  0.51100000000E-03 0.  1.
         12    1    3    3    0    0 -0.66690317189E+01  0.10518684647E+02  0.88878786153E+01  0.15300754787E+02  0.00000000000E+00 0. -1.
</event>
<event>
 7    1  0.2950722E-010  0.4778727E+02  0.7816164E-02  0.1312668E+00
        -11   -1    0    0    0    0  0.00000000000E+00  0.00000000000E+00  0.45593999997E+02  0.45594000000E+02  0.51100000000E-03 0. -1.
         11   -1    0    0    0    0 -0.00000000000E+00 -0.00000000000E+00 -0.45593999997E+02  0.45594000000E+02  0.51100000000E-03 0.  1.
    9900012    2    1    2    0    0 -0.12154315701E+02  0.40482436864E+02 -0.98523090510E+01  0.47787273298E+02  0.20000010277E+02 0.  0.
        -12    1    1    2    0    0  0.12154315701E+02 -0.40482436864E+02  0.98523090510E+01  0.43400726702E+02  0.00000000000E+00 0.  1.
         11    1    3    3    0    0 -0.14330886430E+02  0.37970773276E+02 -0.53253764357E+01  0.40933037555E+02  0.51100000000E-03 0. -1.
        -11    1    3    3    0    0  0.29235636874E+00 -0.10080838243E+01 -0.15595907662E+01  0.18799012905E+01  0.51100000000E-03 0.  1.
         12    1    3    3    0    0  0.18842143599E+01  0.35197474117E+01 -0.29673418491E+01  0.49743344525E+01  0.00000000000E+00 0. -1.
</event>
<event>
 7    1  0.2950722E-010  0.4778728E+02  0.7816164E-02  0.1312668E+00
        -11   -1    0    0    0    0  0.00000000000E+00  0.00000000000E+00  0.45593999997E+02  0.45594000000E+02  0.51100000000E-03 0. -1.
         11   -1    0    0    0    0 -0.00000000000E+00 -0.00000000000E+00 -0.45593999997E+02  0.45594000000E+02  0.51100000000E-03 0.  1.
    9900012    2    1    2    0    0 -0.30229014106E+02 -0.11927961637E+02  0.28767227220E+02  0.47787275068E+02  0.20000018347E+02 0.  0.
        -12    1    1    2    0    0  0.30229014106E+02  0.11927961637E+02 -0.28767227220E+02  0.43400724932E+02  0.00000000000E+00 0.  1.
         11    1    3    3    0    0 -0.29432459994E+02 -0.10686390165E+02  0.19235752413E+02  0.36748915729E+02  0.51100000000E-03 0. -1.
        -11    1    3    3    0    0 -0.79799186154E+00 -0.26410938395E+01  0.20763997708E+01  0.34530571888E+01  0.51100000000E-03 0.  1.
         12    1    3    3    0    0  0.14377499239E-02  0.13995223674E+01  0.74550750361E+01  0.75853021507E+01  0.00000000000E+00 0. -1.
</event>
<event>
 7    1  0.2950722E-010  0.4778727E+02  0.7816164E-02  0.1312668E+00
        -11   -1    0    0    0    0  0.00000000000E+00  0.00000000000E+00  0.45593999997E+02  0.45594000000E+02  0.51100000000E-03 0. -1.
         11   -1    0    0    0    0 -0.00000000000E+00 -0.00000000000E+00 -0.45593999997E+02  0.45594000000E+02  0.51100000000E-03 0.  1.
    9900012    2    1    2    0    0 -0.19218716530E+02 -0.24347811325E+02  0.30355364309E+02  0.47787272775E+02  0.20000007889E+02 0.  0.
        -12    1    1    2    0    0  0.19218716530E+02  0.24347811325E+02 -0.30355364309E+02  0.43400727225E+02  0.00000000000E+00 0.  1.
         11    1    3    3    0    0 -0.11028713830E+02 -0.17077477190E+01  0.90256124490E+01  0.14353069754E+02  0.51100000000E-03 0. -1.
        -11    1    3    3    0    0 -0.82576236610E+01 -0.15560995111E+02  0.10537914781E+02  0.20527556249E+02  0.51100000000E-03 0.  1.
         12    1    3    3    0    0  0.67620961588E-01 -0.70790684946E+01  0.10791837079E+02  0.12906646771E+02  0.00000000000E+00 0. -1.
</event>
<event>
 7    1  0.2950722E-010  0.4778727E+02  0.7816164E-02  0.1312668E+00
        -11   -1    0    0    0    0  0.00000000000E+00  0.00000000000E+00  0.45593999997E+02  0.45594000000E+02  0.51100000000E-03 0.  1.
         11   -1    0    0    0    0 -0.00000000000E+00 -0.00000000000E+00 -0.45593999997E+02  0.45594000000E+02  0.51100000000E-03 0. -1.
    9900012    2    1    2    0    0 -0.15314128461E+02 -0.18197707374E+02 -0.36303499395E+02  0.47787272443E+02  0.20000006375E+02 0.  0.
        -12    1    1    2    0    0  0.15314128461E+02  0.18197707374E+02  0.36303499395E+02  0.43400727557E+02  0.00000000000E+00 0.  1.
         11    1    3    3    0    0 -0.10574686108E+02 -0.12502900838E+02 -0.23591253973E+02  0.28717482131E+02  0.51100000000E-03 0. -1.
        -11    1    3    3    0    0 -0.30049326869E+01  0.29641394887E+01 -0.80361791494E+01  0.90772197805E+01  0.51100000000E-03 0.  1.
        -12    1    3    3    0    0 -0.17345096661E+01 -0.86589460246E+01 -0.46760662723E+01  0.99925705313E+01  0.00000000000E+00 0.  1.
</event>
<event>
 7    1  0.2950722E-010  0.4778727E+02  0.7816164E-02  0.1312668E+00
        -11   -1    0    0    0    0  0.00000000000E+00  0.00000000000E+00  0.45593999997E+02  0.45594000000E+02  0.51100000000E-03 0.  1.
         11   -1    0    0    0    0 -0.00000000000E+00 -0.00000000000E+00 -0.45593999997E+02  0.45594000000E+02  0.51100000000E-03 0. -1.
    9900012    2    1    2    0    0  0.31462918948E+02  0.29823356052E+02  0.20676515829E+01  0.47787273992E+02  0.20000013439E+02 0.  0.
        -12    1    1    2    0    0 -0.31462918948E+02 -0.29823356052E+02 -0.20676515829E+01  0.43400726008E+02  0.00000000000E+00 0.  1.
         11    1    3    3    0    0  0.22447475819E+02  0.29549683250E+02  0.16652130793E+00  0.37109307194E+02  0.51100000000E-03 0. -1.
        -11    1    3    3    0    0  0.80684828148E+01  0.96426546605E+00  0.33715578438E+01  0.87975920215E+01  0.51100000000E-03 0.  1.
         12    1    3    3    0    0  0.94696031483E+00 -0.69059266393E+00 -0.14704275688E+01  0.18803747766E+01  0.00000000000E+00 0. -1.
</event>
<event>
 7    1  0.2950722E-010  0.4778727E+02  0.7816164E-02  0.1312668E+00
        -11   -1    0    0    0    0  0.00000000000E+00  0.00000000000E+00  0.45593999997E+02  0.45594000000E+02  0.51100000000E-03 0. -1.
         11   -1    0    0    0    0 -0.00000000000E+00 -0.00000000000E+00 -0.45593999997E+02  0.45594000000E+02  0.51100000000E-03 0.  1.
    9900012    2    1    2    0    0  0.33308724832E+02 -0.10869966714E+02  0.25612422090E+02  0.47787268536E+02  0.19999988562E+02 0.  0.
        -12    1    1    2    0    0 -0.33308724832E+02  0.10869966714E+02 -0.25612422090E+02  0.43400731464E+02  0.00000000000E+00 0.  1.
         11    1    3    3    0    0 -0.14163374829E-01 -0.48516333934E+01  0.21879427487E+01  0.53221838486E+01  0.51100000000E-03 0. -1.
        -11    1    3    3    0    0  0.55541569093E+01 -0.20769267593E+01  0.11007563381E-01  0.59297896392E+01  0.51100000000E-03 0.  1.
         12    1    3    3    0    0  0.27768731297E+02 -0.39414065616E+01  0.23413471778E+02  0.36535295048E+02  0.00000000000E+00 0. -1.
</event>
<event>
 7    1  0.2950722E-010  0.4778727E+02  0.7816164E-02  0.1312668E+00
        -11   -1    0    0    0    0  0.00000000000E+00  0.00000000000E+00  0.45593999997E+02  0.45594000000E+02  0.51100000000E-03 0.  1.
         11   -1    0    0    0    0 -0.00000000000E+00 -0.00000000000E+00 -0.45593999997E+02  0.45594000000E+02  0.51100000000E-03 0. -1.
    9900012    2    1    2    0    0 -0.15929319883E+02 -0.37069593434E+01 -0.40201224641E+02  0.47787271410E+02  0.20000001667E+02 0.  0.
        -12    1    1    2    0    0  0.15929319883E+02  0.37069593434E+01  0.40201224641E+02  0.43400728590E+02  0.00000000000E+00 0.  1.
         11    1    3    3    0    0 -0.11514971220E+02 -0.34757817117E+01 -0.83414515543E+01  0.14637466823E+02  0.51100000000E-03 0. -1.
        -11    1    3    3    0    0  0.28007296329E+00  0.32555402744E+01 -0.12994083020E+02  0.13398625942E+02  0.51100000000E-03 0.  1.
        -12    1    3    3    0    0 -0.46944216255E+01 -0.34867179060E+01 -0.18865690067E+02  0.19751178645E+02  0.00000000000E+00 0.  1.
</event>
<event>
 7    1  0.2950722E-010  0.4778725E+02  0.7816164E-02  0.1312668E+00
        -11   -1    0    0    0    0  0.00000000000E+00  0.00000000000E+00  0.45593999997E+02  0.45594000000E+02  0.51100000000E-03 0.  1.
         11   -1    0    0    0    0 -0.00000000000E+00 -0.00000000000E+00 -0.45593999997E+02  0.45594000000E+02  0.51100000000E-03 0. -1.
    9900012    2    1    2    0    0  0.15145257287E+02 -0.32726464410E+01 -0.40540550829E+02  0.47787247766E+02  0.19999893862E+02 0.  0.
        -12    1    1    2    0    0 -0.15145257287E+02  0.32726464410E+01  0.40540550829E+02  0.43400752234E+02  0.00000000000E+00 0.  1.
         11    1    3    3    0    0 -0.17714272433E+01  0.39714450916E+01 -0.13538088369E+02  0.14219358900E+02  0.51100000000E-03 0. -1.
        -11    1    3    3    0    0  0.82776401963E+01 -0.73475667480E+01 -0.12582927827E+02  0.16758166286E+02  0.51100000000E-03 0.  1.
         12    1    3    3    0    0  0.86390443344E+01  0.10347521541E+00 -0.14419534634E+02  0.16809722579E+02  0.00000000000E+00 0. -1.
</event>
<event>
 7    1  0.2950722E-010  0.4778727E+02  0.7816164E-02  0.1312668E+00
        -11   -1    0    0    0    0  0.00000000000E+00  0.00000000000E+00  0.45593999997E+02  0.45594000000E+02  0.51100000000E-03 0.  1.
         11   -1    0    0    0    0 -0.00000000000E+00 -0.00000000000E+00 -0.45593999997E+02  0.45594000000E+02  0.51100000000E-03 0. -1.
    9900012    2    1    2    0    0  0.25623470196E+02  0.33972205443E+02 -0.85411052190E+01  0.47787269063E+02  0.19999990964E+02 0.  0.
        -12    1    1    2    0    0 -0.25623470196E+02 -0.33972205443E+02  0.85411052190E+01  0.43400730937E+02  0.00000000000E+00 0.  1.
         11    1    3    3    0    0  0.14823255276E+02  0.13166269760E+02 -0.93304826884E+00  0.19848177138E+02  0.51100000000E-03 0. -1.
        -11    1    3    3    0    0 -0.27249760826E+01  0.10073463081E+01 -0.88401310385E+00  0.30367286122E+01  0.51100000000E-03 0.  1.
        -12    1    3    3    0    0  0.13525191003E+02  0.19798589375E+02 -0.67240438464E+01  0.24902363313E+02  0.00000000000E+00 0.  1.
</event>
<event>
 7    1  0.2950722E-010  0.4778727E+02  0.7816164E-02  0.1312668E+00
        -11   -1    0    0    0    0  0.00000000000E+00  0.00000000000E+00  0.45593999997E+02  0.45594000000E+02  0.51100000000E-03 0. -1.
         11   -1    0    0    0    0 -0.00000000000E+00 -0.00000000000E+00 -0.45593999997E+02  0.45594000000E+02  0.51100000000E-03 0.  1.
    9900012    2    1    2    0    0 -0.31571794207E+02  0.12412056367E+01 -0.29754071069E+02  0.47787268139E+02  0.19999986754E+02 0.  0.
        -12    1    1    2    0    0  0.31571794207E+02 -0.12412056367E+01  0.29754071069E+02  0.43400731861E+02  0.00000000000E+00 0.  1.
         11    1    3    3    0    0 -0.10911951020E+02  0.16633682246E+01 -0.12582064710E+01  0.11109480307E+02  0.51100000000E-03 0. -1.
        -11    1    3    3    0    0 -0.14004507360E+02 -0.50209936922E+01 -0.20235126721E+02  0.25115671557E+02  0.51100000000E-03 0.  1.
        -12    1    3    3    0    0 -0.66553358265E+01  0.45988311042E+01 -0.82607378768E+01  0.11562116275E+02  0.00000000000E+00 0.  1.
</event>
<event>
 7    1  0.2950722E-010  0.4778727E+02  0.7816164E-02  0.1312668E+00
        -11   -1    0    0    0    0  0.00000000000E+00  0.00000000000E+00  0.45593999997E+02  0.45594000000E+02  0.51100000000E-03 0.  1.
         11   -1    0    0    0    0 -0.00000000000E+00 -0.00000000000E+00 -0.45593999997E+02  0.45594000000E+02  0.51100000000E-03 0. -1.
    9900012    2    1    2    0    0 -0.13354294925E+02  0.31458038837E+02 -0.26752154707E+02  0.47787272104E+02  0.20000004832E+02 0.  0.
        -12    1    1    2    0    0  0.13354294925E+02 -0.31458038837E+02  0.26752154707E+02  0.43400727896E+02  0.00000000000E+00 0.  1.
         11    1    3    3    0    0 -0.77933791471E+01  0.78275529276E+01 -0.15078060499E+02  0.18691047376E+02  0.51100000000E-03 0. -1.
        -11    1    3    3    0    0 -0.79478083189E+01  0.17350001165E+02 -0.52318544378E+01  0.19787938211E+02  0.51100000000E-03 0.  1.
        -12    1    3    3    0    0  0.23868925409E+01  0.62804847444E+01 -0.64422397701E+01  0.93082865170E+01  0.00000000000E+00 0.  1.
</event>
<event>
 7    1  0.2950722E-010  0.4778727E+02  0.7816164E-02  0.1312668E+00
        -11   -1    0    0    0    0  0.00000000000E+00  0.00000000000E+00  0.45593999997E+02  0.45594000000E+02  0.51100000000E-03 0.  1.
         11   -1    0    0    0    0 -0.00000000000E+00 -0.00000000000E+00 -0.45593999997E+02  0.45594000000E+02  0.51100000000E-03 0. -1.
    9900012    2    1    2    0    0 -0.28202441384E+02  0.31345408063E+02  0.10281568667E+02  0.47787274650E+02  0.20000016438E+02 0.  0.
        -12    1    1    2    0    0  0.28202441384E+02 -0.31345408063E+02 -0.10281568667E+02  0.43400725350E+02  0.00000000000E+00 0.  1.
         11    1    3    3    0    0 -0.35360182246E+01  0.15437290801E+02  0.76545769670E+01  0.17589938060E+02  0.51100000000E-03 0. -1.
        -11    1    3    3    0    0 -0.22474371632E+02  0.15611813225E+02  0.88027263727E+00  0.27378841695E+02  0.51100000000E-03 0.  1.
        -12    1    3    3    0    0 -0.21920515278E+01  0.29630403759E+00  0.17467190632E+01  0.28184948942E+01  0.00000000000E+00 0.  1.
</event>
<event>
 7    1  0.2950722E-010  0.4778727E+02  0.7816164E-02  0.1312668E+00
        -11   -1    0    0    0    0  0.00000000000E+00  0.00000000000E+00  0.45593999997E+02  0.45594000000E+02  0.51100000000E-03 0.  1.
         11   -1    0    0    0    0 -0.00000000000E+00 -0.00000000000E+00 -0.45593999997E+02  0.45594000000E+02  0.51100000000E-03 0. -1.
    9900012    2    1    2    0    0  0.38579467151E+02 -0.10606041330E+02 -0.16815471580E+02  0.47787268637E+02  0.19999989022E+02 0.  0.
        -12    1    1    2    0    0 -0.38579467151E+02  0.10606041330E+02  0.16815471580E+02  0.43400731363E+02  0.00000000000E+00 0.  1.
         11    1    3    3    0    0  0.31336801899E+02 -0.11247541764E+01 -0.75245133194E+01  0.32247147567E+02  0.51100000000E-03 0. -1.
        -11    1    3    3    0    0  0.48417703256E+01 -0.40276978974E+01 -0.61567688712E+01  0.88074339869E+01  0.51100000000E-03 0.  1.
         12    1    3    3    0    0  0.24008949266E+01 -0.54535892567E+01 -0.31341893899E+01  0.67326870833E+01  0.00000000000E+00 0. -1.
</event>
<event>
 7    1  0.2950722E-010  0.4778727E+02  0.7816164E-02  0.1312668E+00
        -11   -1    0    0    0    0  0.00000000000E+00  0.00000000000E+00  0.45593999997E+02  0.45594000000E+02  0.51100000000E-03 0.  1.
         11   -1    0    0    0    0 -0.00000000000E+00 -0.00000000000E+00 -0.45593999997E+02  0.45594000000E+02  0.51100000000E-03 0. -1.
    9900012    2    1    2    0    0 -0.94925598023E+01 -0.25577067405E+02 -0.33753938116E+02  0.47787269511E+02  0.19999993011E+02 0.  0.
        -12    1    1    2    0    0  0.94925598023E+01  0.25577067405E+02  0.33753938116E+02  0.43400730489E+02  0.00000000000E+00 0.  1.
         11    1    3    3    0    0 -0.55066335361E+01 -0.17855102646E+02 -0.79719926068E+01  0.20314535924E+02  0.51100000000E-03 0. -1.
        -11    1    3    3    0    0 -0.17998385929E+01 -0.62020588181E+01 -0.21321613394E+02  0.22278154110E+02  0.51100000000E-03 0.  1.
         12    1    3    3    0    0 -0.21860876732E+01 -0.15199059406E+01 -0.44603321147E+01  0.51945794783E+01  0.00000000000E+00 0. -1.
</event>
<event>
 7    1  0.2950722E-010  0.4778727E+02  0.7816164E-02  0.1312668E+00
        -11   -1    0    0    0    0  0.00000000000E+00  0.00000000000E+00  0.45593999997E+02  0.45594000000E+02  0.51100000000E-03 0.  1.
         11   -1    0    0    0    0 -0.00000000000E+00 -0.00000000000E+00 -0.45593999997E+02  0.45594000000E+02  0.51100000000E-03 0. -1.
    9900012    2    1    2    0    0  0.21687241486E+02 -0.25964511620E+02 -0.27186961620E+02  0.47787272021E+02  0.20000004455E+02 0.  0.
        -12    1    1    2    0    0 -0.21687241486E+02  0.25964511620E+02  0.27186961620E+02  0.43400727979E+02  0.00000000000E+00 0.  1.
         11    1    3    3    0    0  0.14569374987E+02 -0.13235954085E+02 -0.25402641443E+02  0.32136449098E+02  0.51100000000E-03 0. -1.
        -11    1    3    3    0    0  0.55110317056E+01 -0.49909089232E+01  0.41838730965E+00  0.74468577629E+01  0.51100000000E-03 0.  1.
         12    1    3    3    0    0  0.16068347937E+01 -0.77376486116E+01 -0.22027074867E+01  0.82039651610E+01  0.00000000000E+00 0. -1.
</event>
<event>
 7    1  0.2950722E-010  0.4778727E+02  0.7816164E-02  0.1312668E+00
        -11   -1    0    0    0    0  0.00000000000E+00  0.00000000000E+00  0.45593999997E+02  0.45594000000E+02  0.51100000000E-03 0.  1.
         11   -1    0    0    0    0 -0.00000000000E+00 -0.00000000000E+00 -0.45593999997E+02  0.45594000000E+02  0.51100000000E-03 0. -1.
    9900012    2    1    2    0    0  0.16014691760E+02 -0.40110855829E+02  0.42746203500E+01  0.47787268593E+02  0.19999988824E+02 0.  0.
        -12    1    1    2    0    0 -0.16014691760E+02  0.40110855829E+02 -0.42746203500E+01  0.43400731407E+02  0.00000000000E+00 0.  1.
         11    1    3    3    0    0  0.51488651859E+01 -0.57692641052E+01 -0.42722195152E+01  0.88344258933E+01  0.51100000000E-03 0. -1.
        -11    1    3    3    0    0  0.96956965080E+01 -0.18177069095E+02  0.95662514490E+01  0.22713994336E+02  0.51100000000E-03 0.  1.
         12    1    3    3    0    0  0.11701300656E+01 -0.16164522629E+02 -0.10194115838E+01  0.16238848364E+02  0.00000000000E+00 0. -1.
</event>
<event>
 7    1  0.2950722E-010  0.4778724E+02  0.7816164E-02  0.1312668E+00
        -11   -1    0    0    0    0  0.00000000000E+00  0.00000000000E+00  0.45593999997E+02  0.45594000000E+02  0.51100000000E-03 0.  1.
         11   -1    0    0    0    0 -0.00000000000E+00 -0.00000000000E+00 -0.45593999997E+02  0.45594000000E+02  0.51100000000E-03 0. -1.
    9900012    2    1    2    0    0  0.23245864435E+02  0.15477129679E+02 -0.33222188922E+02  0.47787244325E+02  0.19999878174E+02 0.  0.
        -12    1    1    2    0    0 -0.23245864435E+02 -0.15477129679E+02  0.33222188922E+02  0.43400755675E+02  0.00000000000E+00 0.  1.
         11    1    3    3    0    0  0.11406411900E+02 -0.13398689933E+01 -0.13439668446E+02  0.17678409701E+02  0.51100000000E-03 0. -1.
        -11    1    3    3    0    0  0.27154318246E+01  0.11011223718E+02 -0.68452481973E+01  0.13246812481E+02  0.51100000000E-03 0.  1.
         12    1    3    3    0    0  0.91240207101E+01  0.58057749539E+01 -0.12937272278E+02  0.16862022143E+02  0.00000000000E+00 0. -1.
</event>
<event>
 7    1  0.2950722E-010  0.4778727E+02  0.7816164E-02  0.1312668E+00
        -11   -1    0    0    0    0  0.00000000000E+00  0.00000000000E+00  0.45593999997E+02  0.45594000000E+02  0.51100000000E-03 0.  1.
         11   -1    0    0    0    0 -0.00000000000E+00 -0.00000000000E+00 -0.45593999997E+02  0.45594000000E+02  0.51100000000E-03 0. -1.
    9900012    2    1    2    0    0  0.70419425963E+01  0.34064826538E+02 -0.25954229275E+02  0.47787269823E+02  0.19999994433E+02 0.  0.
        -12    1    1    2    0    0 -0.70419425963E+01 -0.34064826538E+02  0.25954229275E+02  0.43400730177E+02  0.00000000000E+00 0.  1.
         11    1    3    3    0    0  0.21506854061E+00  0.11442456138E+02  0.81783040201E+00  0.11473661306E+02  0.51100000000E-03 0. -1.
        -11    1    3    3    0    0  0.14764359077E+01  0.76791982030E+01 -0.46879037765E+01  0.91173674989E+01  0.51100000000E-03 0.  1.
         12    1    3    3    0    0  0.53504381480E+01  0.14943172198E+02 -0.22084155900E+02  0.27196241018E+02  0.00000000000E+00 0. -1.
</event>
<event>
 7    1  0.2950722E-010  0.4778726E+02  0.7816164E-02  0.1312668E+00
        -11   -1    0    0    0    0  0.00000000000E+00  0.00000000000E+00  0.45593999997E+02  0.45594000000E+02  0.51100000000E-03 0. -1.
         11   -1    0    0    0    0 -0.00000000000E+00 -0.00000000000E+00 -0.45593999997E+02  0.45594000000E+02  0.51100000000E-03 0.  1.
    9900012    2    1    2    0    0  0.17743094262E+02 -0.38762849723E+02 -0.81392902252E+01  0.47787263163E+02  0.19999964067E+02 0.  0.
        -12    1    1    2    0    0 -0.17743094262E+02  0.38762849723E+02  0.81392902252E+01  0.43400736837E+02  0.00000000000E+00 0.  1.
         11    1    3    3    0    0  0.17129722969E+02 -0.25184423652E+02 -0.26883905706E+01  0.30576298791E+02  0.51100000000E-03 0. -1.
        -11    1    3    3    0    0 -0.26155411770E+00 -0.14709552915E+02 -0.41707183306E+01  0.15291639846E+02  0.51100000000E-03 0.  1.
         12    1    3    3    0    0  0.87492541102E+00  0.11311268447E+01 -0.12801813239E+01  0.19193245259E+01  0.00000000000E+00 0. -1.
</event>
<event>
 7    1  0.2950722E-010  0.4778728E+02  0.7816164E-02  0.1312668E+00
        -11   -1    0    0    0    0  0.00000000000E+00  0.00000000000E+00  0.45593999997E+02  0.45594000000E+02  0.51100000000E-03 0.  1.
         11   -1    0    0    0    0 -0.00000000000E+00 -0.00000000000E+00 -0.45593999997E+02  0.45594000000E+02  0.51100000000E-03 0. -1.
    9900012    2    1    2    0    0  0.15573101675E+02 -0.13267695054E+02 -0.38276227907E+02  0.47787275921E+02  0.20000022233E+02 0.  0.
        -12    1    1    2    0    0 -0.15573101675E+02  0.13267695054E+02  0.38276227907E+02  0.43400724079E+02  0.00000000000E+00 0.  1.
         11    1    3    3    0    0  0.56448062319E+01  0.18658252538E+00 -0.20257906287E+02  0.21030487817E+02  0.51100000000E-03 0. -1.
        -11    1    3    3    0    0  0.11722733887E+02 -0.94022888197E+01 -0.11728550450E+02  0.19062644642E+02  0.51100000000E-03 0.  1.
         12    1    3    3    0    0 -0.17944384435E+01 -0.40519887594E+01 -0.62897711697E+01  0.76941434612E+01  0.00000000000E+00 0. -1.
</event>
<event>
 7    1  0.2950722E-010  0.4778727E+02  0.7816164E-02  0.1312668E+00
        -11   -1    0    0    0    0  0.00000000000E+00  0.00000000000E+00  0.45593999997E+02  0.45594000000E+02  0.51100000000E-03 0.  1.
         11   -1    0    0    0    0 -0.00000000000E+00 -0.00000000000E+00 -0.45593999997E+02  0.45594000000E+02  0.51100000000E-03 0. -1.
    9900012    2    1    2    0    0  0.35103468587E+02  0.24486974597E+02  0.71943031158E+01  0.47787269257E+02  0.19999991848E+02 0.  0.
        -12    1    1    2    0    0 -0.35103468587E+02 -0.24486974597E+02 -0.71943031158E+01  0.43400730743E+02  0.00000000000E+00 0.  1.
         11    1    3    3    0    0  0.10523330379E+02  0.16243927540E+02  0.16646391310E+01  0.19426185623E+02  0.51100000000E-03 0. -1.
        -11    1    3    3    0    0  0.92792359374E+01  0.43923265985E+00  0.62056634520E+01  0.11171723415E+02  0.51100000000E-03 0.  1.
         12    1    3    3    0    0  0.15300902271E+02  0.78038143977E+01 -0.67599946717E+00  0.17189360219E+02  0.00000000000E+00 0. -1.
</event>
<event>
 7    1  0.2950722E-010  0.4778725E+02  0.7816164E-02  0.1312668E+00
        -11   -1    0    0    0    0  0.00000000000E+00  0.00000000000E+00  0.45593999997E+02  0.45594000000E+02  0.51100000000E-03 0. -1.
         11   -1    0    0    0    0 -0.00000000000E+00 -0.00000000000E+00 -0.45593999997E+02  0.45594000000E+02  0.51100000000E-03 0.  1.
    9900012    2    1    2    0    0  0.27624290800E+02 -0.18953278681E+02 -0.27591609064E+02  0.47787249941E+02  0.19999903781E+02 0.  0.
        -12    1    1    2    0    0 -0.27624290800E+02  0.18953278681E+02  0.27591609064E+02  0.43400750059E+02  0.00000000000E+00 0.  1.
         11    1    3    3    0    0  0.21069327317E+02 -0.77193573253E+01 -0.13595069792E+02  0.26236062091E+02  0.51100000000E-03 0. -1.
        -11    1    3    3    0    0  0.59205280954E+01 -0.95636055053E+01 -0.15544504959E+02  0.19187152938E+02  0.51100000000E-03 0.  1.
         12    1    3    3    0    0  0.63443538657E+00 -0.16703158504E+01  0.15479656866E+01  0.23640349124E+01  0.00000000000E+00 0. -1.
</event>
<event>
 7    1  0.2950722E-010  0.4778728E+02  0.7816164E-02  0.1312668E+00
        -11   -1    0    0    0    0  0.00000000000E+00  0.00000000000E+00  0.45593999997E+02  0.45594000000E+02  0.51100000000E-03 0.  1.
         11   -1    0    0    0    0 -0.00000000000E+00 -0.00000000000E+00 -0.45593999997E+02  0.45594000000E+02  0.51100000000E-03 0. -1.
    9900012    2    1    2    0    0  0.24840455774E+02 -0.29933114032E+02  0.19250537318E+02  0.47787277128E+02  0.20000027738E+02 0.  0.
        -12    1    1    2    0    0 -0.24840455774E+02  0.29933114032E+02 -0.19250537318E+02  0.43400722872E+02  0.00000000000E+00 0.  1.
         11    1    3    3    0    0  0.15226650677E+02 -0.24887869380E+02  0.17292985747E+02  0.33916136121E+02  0.51100000000E-03 0. -1.
        -11    1    3    3    0    0  0.28970512031E+01  0.15217456695E+01  0.29749933154E+01  0.44225785515E+01  0.51100000000E-03 0.  1.
         12    1    3    3    0    0  0.67167538948E+01 -0.65669903216E+01 -0.10174417438E+01  0.94485624552E+01  0.00000000000E+00 0. -1.
</event>
<event>
 7    1  0.2950722E-010  0.4778727E+02  0.7816164E-02  0.1312668E+00
        -11   -1    0    0    0    0  0.00000000000E+00  0.00000000000E+00  0.45593999997E+02  0.45594000000E+02  0.51100000000E-03 0.  1.
         11   -1    0    0    0    0 -0.00000000000E+00 -0.00000000000E+00 -0.45593999997E+02  0.45594000000E+02  0.51100000000E-03 0. -1.
    9900012    2    1    2    0    0 -0.63786479190E+01  0.37821427671E+02 -0.20309493015E+02  0.47787273660E+02  0.20000011924E+02 0.  0.
        -12    1    1    2    0    0  0.63786479190E+01 -0.37821427671E+02  0.20309493015E+02  0.43400726340E+02  0.00000000000E+00 0.  1.
         11    1    3    3    0    0  0.63148631145E+00  0.76052718536E+01 -0.56193606343E+01  0.94771382352E+01  0.51100000000E-03 0. -1.
        -11    1    3    3    0    0 -0.15157480655E+01  0.29641782591E+01 -0.94512567579E+01  0.10020483996E+02  0.51100000000E-03 0.  1.
        -12    1    3    3    0    0 -0.54943861649E+01  0.27251977558E+02 -0.52388756228E+01  0.28289651429E+02  0.00000000000E+00 0.  1.
</event>
<event>
 7    1  0.2950722E-010  0.4778727E+02  0.7816164E-02  0.1312668E+00
        -11   -1    0    0    0    0  0.00000000000E+00  0.00000000000E+00  0.45593999997E+02  0.45594000000E+02  0.51100000000E-03 0.  1.
         11   -1    0    0    0    0 -0.00000000000E+00 -0.00000000000E+00 -0.45593999997E+02  0.45594000000E+02  0.51100000000E-03 0. -1.
    9900012    2    1    2    0    0  0.22815646000E+02 -0.15696831887E+02 -0.33416744850E+02  0.47787273392E+02  0.20000010706E+02 0.  0.
        -12    1    1    2    0    0 -0.22815646000E+02  0.15696831887E+02  0.33416744850E+02  0.43400726608E+02  0.00000000000E+00 0.  1.
         11    1    3    3    0    0  0.19585893429E+02 -0.10555922793E+02 -0.16511767067E+02  0.27706915732E+02  0.51100000000E-03 0. -1.
        -11    1    3    3    0    0 -0.76945578348E+00  0.11519430593E+01  0.21995347152E+00  0.14026456449E+01  0.51100000000E-03 0.  1.
         12    1    3    3    0    0  0.39992083551E+01 -0.62928521531E+01 -0.17124931254E+02  0.18677712016E+02  0.00000000000E+00 0. -1.
</event>
<event>
 7    1  0.2950722E-010  0.4778727E+02  0.7816164E-02  0.1312668E+00
        -11   -1    0    0    0    0  0.00000000000E+00  0.00000000000E+00  0.45593999997E+02  0.45594000000E+02  0.51100000000E-03 0. -1.
         11   -1    0    0    0    0 -0.00000000000E+00 -0.00000000000E+00 -0.45593999997E+02  0.45594000000E+02  0.51100000000E-03 0.  1.
    9900012    2    1    2    0    0 -0.13490773246E+01  0.36602150310E+02 -0.23282735259E+02  0.47787272148E+02  0.20000005031E+02 0.  0.
        -12    1    1    2    0    0  0.13490773246E+01 -0.36602150310E+02  0.23282735259E+02  0.43400727852E+02  0.00000000000E+00 0.  1.
         11    1    3    3    0    0  0.29646482422E+01  0.25698589592E+02 -0.14204411514E+02  0.29512233954E+02  0.51100000000E-03 0. -1.
        -11    1    3    3    0    0 -0.37385266645E+01 -0.23789139285E+00 -0.53122204580E+01  0.65002200264E+01  0.51100000000E-03 0.  1.
        -12    1    3    3    0    0 -0.57519890228E+00  0.11141452110E+02 -0.37661032867E+01  0.11774818167E+02  0.00000000000E+00 0.  1.
</event>
<event>
 7    1  0.2950722E-010  0.4778727E+02  0.7816164E-02  0.1312668E+00
        -11   -1    0    0    0    0  0.00000000000E+00  0.00000000000E+00  0.45593999997E+02  0.45594000000E+02  0.51100000000E-03 0.  1.
         11   -1    0    0    0    0 -0.00000000000E+00 -0.00000000000E+00 -0.45593999997E+02  0.45594000000E+02  0.51100000000E-03 0. -1.
    9900012    2    1    2    0    0 -0.16656871674E+02  0.18286153461E+01 -0.40035333866E+02  0.47787272289E+02  0.20000005676E+02 0.  0.
        -12    1    1    2    0    0  0.16656871674E+02 -0.18286153461E+01  0.40035333866E+02  0.43400727711E+02  0.00000000000E+00 0.  1.
         11    1    3    3    0    0 -0.52234323110E+00  0.42013643967E+01 -0.21365293942E+02  0.21780727507E+02  0.51100000000E-03 0. -1.
        -11    1    3    3    0    0 -0.15641536088E+02 -0.29523741823E+01 -0.19301002488E+02  0.25018050720E+02  0.51100000000E-03 0.  1.
        -12    1    3    3    0    0 -0.49299235481E+00  0.57962513168E+00  0.63096256402E+00  0.98849406290E+00  0.00000000000E+00 0.  1.
</event>
<event>
 7    1  0.2950722E-010  0.4778727E+02  0.7816164E-02  0.1312668E+00
        -11   -1    0    0    0    0  0.00000000000E+00  0.00000000000E+00  0.45593999997E+02  0.45594000000E+02  0.51100000000E-03 0.  1.
         11   -1    0    0    0    0 -0.00000000000E+00 -0.00000000000E+00 -0.45593999997E+02  0.45594000000E+02  0.51100000000E-03 0. -1.
    9900012    2    1    2    0    0 -0.13169892759E+02 -0.20914721333E+02 -0.35675643551E+02  0.47787272051E+02  0.20000004589E+02 0.  0.
        -12    1    1    2    0    0  0.13169892759E+02  0.20914721333E+02  0.35675643551E+02  0.43400727949E+02  0.00000000000E+00 0.  1.
         11    1    3    3    0    0 -0.21844639497E+01 -0.30226573601E+01 -0.86494898457E+01  0.94192364401E+01  0.51100000000E-03 0. -1.
        -11    1    3    3    0    0 -0.14761811193E+02 -0.83613456830E+01 -0.16183971307E+02  0.23446622333E+02  0.51100000000E-03 0.  1.
        -12    1    3    3    0    0  0.37763823835E+01 -0.95307182905E+01 -0.10842182398E+02  0.14921413277E+02  0.00000000000E+00 0.  1.
</event>
<event>
 7    1  0.2950722E-010  0.4778727E+02  0.7816164E-02  0.1312668E+00
        -11   -1    0    0    0    0  0.00000000000E+00  0.00000000000E+00  0.45593999997E+02  0.45594000000E+02  0.51100000000E-03 0.  1.
         11   -1    0    0    0    0 -0.00000000000E+00 -0.00000000000E+00 -0.45593999997E+02  0.45594000000E+02  0.51100000000E-03 0. -1.
    9900012    2    1    2    0    0  0.25186858348E+02 -0.22175549105E+01 -0.35275032835E+02  0.47787270459E+02  0.19999997329E+02 0.  0.
        -12    1    1    2    0    0 -0.25186858348E+02  0.22175549105E+01  0.35275032835E+02  0.43400729541E+02  0.00000000000E+00 0.  1.
         11    1    3    3    0    0  0.21077021990E+02 -0.64183162139E+01 -0.18523663664E+02  0.28784748649E+02  0.51100000000E-03 0. -1.
        -11    1    3    3    0    0 -0.17078182842E+01  0.95306277356E-01 -0.47409265962E+01  0.50400507765E+01  0.51100000000E-03 0.  1.
         12    1    3    3    0    0  0.58176546418E+01  0.41054550260E+01 -0.12010442574E+02  0.13962471033E+02  0.00000000000E+00 0. -1.
</event>
<event>
 7    1  0.2950722E-010  0.4778727E+02  0.7816164E-02  0.1312668E+00
        -11   -1    0    0    0    0  0.00000000000E+00  0.00000000000E+00  0.45593999997E+02  0.45594000000E+02  0.51100000000E-03 0. -1.
         11   -1    0    0    0    0 -0.00000000000E+00 -0.00000000000E+00 -0.45593999997E+02  0.45594000000E+02  0.51100000000E-03 0.  1.
    9900012    2    1    2    0    0  0.40445318287E+02 -0.58836739344E+01 -0.14600754826E+02  0.47787269225E+02  0.19999991706E+02 0.  0.
        -12    1    1    2    0    0 -0.40445318287E+02  0.58836739344E+01  0.14600754826E+02  0.43400730775E+02  0.00000000000E+00 0.  1.
         11    1    3    3    0    0  0.12038682176E+02 -0.60346485598E+01  0.25572199616E+01  0.13707159660E+02  0.51100000000E-03 0. -1.
        -11    1    3    3    0    0  0.28889097151E+02  0.35373650260E+00 -0.17045551099E+02  0.33544833823E+02  0.51100000000E-03 0.  1.
        -12    1    3    3    0    0 -0.48246103986E+00 -0.20276187722E+00 -0.11242368913E+00  0.53527574176E+00  0.00000000000E+00 0.  1.
</event>
<event>
 7    1  0.2950722E-010  0.4778727E+02  0.7816164E-02  0.1312668E+00
        -11   -1    0    0    0    0  0.00000000000E+00  0.00000000000E+00  0.45593999997E+02  0.45594000000E+02  0.51100000000E-03 0.  1.
         11   -1    0    0    0    0 -0.00000000000E+00 -0.00000000000E+00 -0.45593999997E+02  0.45594000000E+02  0.51100000000E-03 0. -1.
    9900012    2    1    2    0    0 -0.35217730824E+02  0.15943927469E+02 -0.19726274434E+02  0.47787270852E+02  0.19999999123E+02 0.  0.
        -12    1    1    2    0    0  0.35217730824E+02 -0.15943927469E+02  0.19726274434E+02  0.43400729148E+02  0.00000000000E+00 0.  1.
         11    1    3    3    0    0 -0.10531118616E+02  0.92200764016E+01  0.18994404046E+01  0.14125230698E+02  0.51100000000E-03 0. -1.
        -11    1    3    3    0    0 -0.75616032813E+01  0.96336642049E+00 -0.78457553069E+01  0.10939003412E+02  0.51100000000E-03 0.  1.
         12    1    3    3    0    0 -0.17125008926E+02  0.57604846473E+01 -0.13779959531E+02  0.22723036742E+02  0.00000000000E+00 0. -1.
</event>
<event>
 7    1  0.2950722E-010  0.4778727E+02  0.7816164E-02  0.1312668E+00
        -11   -1    0    0    0    0  0.00000000000E+00  0.00000000000E+00  0.45593999997E+02  0.45594000000E+02  0.51100000000E-03 0.  1.
         11   -1    0    0    0    0 -0.00000000000E+00 -0.00000000000E+00 -0.45593999997E+02  0.45594000000E+02  0.51100000000E-03 0. -1.
    9900012    2    1    2    0    0 -0.13410135717E+02  0.22913893534E+02 -0.34332856302E+02  0.47787270989E+02  0.19999999749E+02 0.  0.
        -12    1    1    2    0    0  0.13410135717E+02 -0.22913893534E+02  0.34332856302E+02  0.43400729011E+02  0.00000000000E+00 0.  1.
         11    1    3    3    0    0 -0.13915465528E+02  0.95539843687E+01 -0.15681643960E+02  0.23039808066E+02  0.51100000000E-03 0. -1.
        -11    1    3    3    0    0 -0.23945463757E+01  0.58500671737E+01 -0.26874399103E+01  0.68687314560E+01  0.51100000000E-03 0.  1.
         12    1    3    3    0    0  0.28998761869E+01  0.75098419917E+01 -0.15963772431E+02  0.17878731467E+02  0.00000000000E+00 0. -1.
</event>
<event>
 7    1  0.2950722E-010  0.4778727E+02  0.7816164E-02  0.1312668E+00
        -11   -1    0    0    0    0  0.00000000000E+00  0.00000000000E+00  0.45593999997E+02  0.45594000000E+02  0.51100000000E-03 0.  1.
         11   -1    0    0    0    0 -0.00000000000E+00 -0.00000000000E+00 -0.45593999997E+02  0.45594000000E+02  0.51100000000E-03 0. -1.
    9900012    2    1    2    0    0 -0.65017674518E+01  0.28269185542E+02 -0.32283173964E+02  0.47787272444E+02  0.20000006383E+02 0.  0.
        -12    1    1    2    0    0  0.65017674518E+01 -0.28269185542E+02  0.32283173964E+02  0.43400727556E+02  0.00000000000E+00 0.  1.
         11    1    3    3    0    0 -0.82674013388E+01  0.27255184041E+02 -0.33868261333E+02  0.44252165009E+02  0.51100000000E-03 0. -1.
        -11    1    3    3    0    0  0.10627107197E+01 -0.39443124114E+00  0.16001085921E+01  0.19609380014E+01  0.51100000000E-03 0.  1.
         12    1    3    3    0    0  0.70292316730E+00  0.14084327424E+01 -0.15021222223E-01  0.15741694337E+01  0.00000000000E+00 0. -1.
</event>
<event>
 7    1  0.2950722E-010  0.4778727E+02  0.7816164E-02  0.1312668E+00
        -11   -1    0    0    0    0  0.00000000000E+00  0.00000000000E+00  0.45593999997E+02  0.45594000000E+02  0.51100000000E-03 0.  1.
         11   -1    0    0    0    0 -0.00000000000E+00 -0.00000000000E+00 -0.45593999997E+02  0.45594000000E+02  0.51100000000E-03 0. -1.
    9900012    2    1    2    0    0 -0.18107217334E+02  0.36472391185E+02 -0.15017203533E+02  0.47787273736E+02  0.20000012270E+02 0.  0.
        -12    1    1    2    0    0  0.18107217334E+02 -0.36472391185E+02  0.15017203533E+02  0.43400726264E+02  0.00000000000E+00 0.  1.
         11    1    3    3    0    0 -0.37117757712E+01  0.16755412620E+02 -0.38420099624E+01  0.17586420109E+02  0.51100000000E-03 0. -1.
        -11    1    3    3    0    0 -0.15536012543E+02  0.12973898331E+02 -0.46922612548E+01  0.20777560964E+02  0.51100000000E-03 0.  1.
        -12    1    3    3    0    0  0.11405709802E+01  0.67430802334E+01 -0.64829323160E+01  0.94232926628E+01  0.00000000000E+00 0.  1.
</event>
<event>
 7    1  0.2950722E-010  0.4778728E+02  0.7816164E-02  0.1312668E+00
        -11   -1    0    0    0    0  0.00000000000E+00  0.00000000000E+00  0.45593999997E+02  0.45594000000E+02  0.51100000000E-03 0.  1.
         11   -1    0    0    0    0 -0.00000000000E+00 -0.00000000000E+00 -0.45593999997E+02  0.45594000000E+02  0.51100000000E-03 0. -1.
    9900012    2    1    2    0    0  0.96136279025E+01  0.31430940886E+02 -0.28342493930E+02  0.47787275944E+02  0.20000022337E+02 0.  0.
        -12    1    1    2    0    0 -0.96136279025E+01 -0.31430940886E+02  0.28342493930E+02  0.43400724056E+02  0.00000000000E+00 0.  1.
         11    1    3    3    0    0  0.11438825118E+02  0.29039115485E+02 -0.20724507578E+02  0.37464945787E+02  0.51100000000E-03 0. -1.
        -11    1    3    3    0    0 -0.17937447401E+01  0.29898336646E+01 -0.85391995272E+01  0.92235868490E+01  0.51100000000E-03 0.  1.
         12    1    3    3    0    0 -0.31452475213E-01 -0.59800826346E+00  0.92121317508E+00  0.10987433073E+01  0.00000000000E+00 0. -1.
</event>
<event>
 7    1  0.2950722E-010  0.4778727E+02  0.7816164E-02  0.1312668E+00
        -11   -1    0    0    0    0  0.00000000000E+00  0.00000000000E+00  0.45593999997E+02  0.45594000000E+02  0.51100000000E-03 0. -1.
         11   -1    0    0    0    0 -0.00000000000E+00 -0.00000000000E+00 -0.45593999997E+02  0.45594000000E+02  0.51100000000E-03 0.  1.
    9900012    2    1    2    0    0  0.14389871806E+02 -0.19574908096E+02  0.35963560842E+02  0.47787272517E+02  0.20000006716E+02 0.  0.
        -12    1    1    2    0    0 -0.14389871806E+02  0.19574908096E+02 -0.35963560842E+02  0.43400727483E+02  0.00000000000E+00 0.  1.
         11    1    3    3    0    0  0.14275586968E+02 -0.13328993322E+02  0.28665728823E+02  0.34686862866E+02  0.51100000000E-03 0. -1.
        -11    1    3    3    0    0  0.73292477710E+00  0.20200963187E+01  0.31976303251E+01  0.38526364768E+01  0.51100000000E-03 0.  1.
         12    1    3    3    0    0 -0.61863993874E+00 -0.82660110929E+01  0.41002016942E+01  0.92477731749E+01  0.00000000000E+00 0. -1.
</event>
<event>
 7    1  0.2950722E-010  0.4778727E+02  0.7816164E-02  0.1312668E+00
        -11   -1    0    0    0    0  0.00000000000E+00  0.00000000000E+00  0.45593999997E+02  0.45594000000E+02  0.51100000000E-03 0.  1.
         11   -1    0    0    0    0 -0.00000000000E+00 -0.00000000000E+00 -0.45593999997E+02  0.45594000000E+02  0.51100000000E-03 0. -1.
    9900012    2    1    2    0    0  0.26403212282E+02 -0.31655736832E+02 -0.13579692426E+02  0.47787270287E+02  0.19999996547E+02 0.  0.
        -12    1    1    2    0    0 -0.26403212282E+02  0.31655736832E+02  0.13579692426E+02  0.43400729713E+02  0.00000000000E+00 0.  1.
         11    1    3    3    0    0  0.82358380326E+01 -0.91712174634E+01 -0.58719842808E+01  0.13653587716E+02  0.51100000000E-03 0. -1.
        -11    1    3    3    0    0  0.11969984404E+02 -0.22446966351E+02 -0.16897890585E+01  0.25495140955E+02  0.51100000000E-03 0.  1.
        -12    1    3    3    0    0  0.61973898452E+01 -0.37553018326E-01 -0.60179190867E+01  0.86385416163E+01  0.00000000000E+00 0.  1.
</event>
<event>
 7    1  0.2950722E-010  0.4778727E+02  0.7816164E-02  0.1312668E+00
        -11   -1    0    0    0    0  0.00000000000E+00  0.00000000000E+00  0.45593999997E+02  0.45594000000E+02  0.51100000000E-03 0.  1.
         11   -1    0    0    0    0 -0.00000000000E+00 -0.00000000000E+00 -0.45593999997E+02  0.45594000000E+02  0.51100000000E-03 0. -1.
    9900012    2    1    2    0    0  0.17158379857E+02  0.21748056440E+02 -0.33410111639E+02  0.47787268233E+02  0.19999987180E+02 0.  0.
        -12    1    1    2    0    0 -0.17158379857E+02 -0.21748056440E+02  0.33410111639E+02  0.43400731767E+02  0.00000000000E+00 0.  1.
         11    1    3    3    0    0  0.13022311907E+02  0.35234558532E+01 -0.21630491937E+02  0.25492617171E+02  0.51100000000E-03 0. -1.
        -11    1    3    3    0    0  0.30908511113E+01  0.13334632939E+02 -0.69866411472E+01  0.15368114751E+02  0.51100000000E-03 0.  1.
         12    1    3    3    0    0  0.10452168385E+01  0.48899676482E+01 -0.47929785545E+01  0.69265363107E+01  0.00000000000E+00 0. -1.
</event>
<event>
 7    1  0.2950722E-010  0.4778727E+02  0.7816164E-02  0.1312668E+00
        -11   -1    0    0    0    0  0.00000000000E+00  0.00000000000E+00  0.45593999997E+02  0.45594000000E+02  0.51100000000E-03 0.  1.
         11   -1    0    0    0    0 -0.00000000000E+00 -0.00000000000E+00 -0.45593999997E+02  0.45594000000E+02  0.51100000000E-03 0. -1.
    9900012    2    1    2    0    0 -0.23537658093E+02 -0.16836433447E+01 -0.36424813365E+02  0.47787273830E+02  0.20000012701E+02 0.  0.
        -12    1    1    2    0    0  0.23537658093E+02  0.16836433447E+01  0.36424813365E+02  0.43400726170E+02  0.00000000000E+00 0.  1.
         11    1    3    3    0    0 -0.20283983117E+02 -0.43068539216E+01 -0.27250515665E+02  0.34242949144E+02  0.51100000000E-03 0. -1.
        -11    1    3    3    0    0 -0.79275530393E+00  0.43754502301E+01 -0.95163703518E+01  0.10504014976E+02  0.51100000000E-03 0.  1.
         12    1    3    3    0    0 -0.24609196717E+01 -0.17522396533E+01  0.34207265223E+00  0.30403097099E+01  0.00000000000E+00 0. -1.
</event>
<event>
 7    1  0.2950722E-010  0.4778727E+02  0.7816164E-02  0.1312668E+00
        -11   -1    0    0    0    0  0.00000000000E+00  0.00000000000E+00  0.45593999997E+02  0.45594000000E+02  0.51100000000E-03 0.  1.
         11   -1    0    0    0    0 -0.00000000000E+00 -0.00000000000E+00 -0.45593999997E+02  0.45594000000E+02  0.51100000000E-03 0. -1.
    9900012    2    1    2    0    0  0.22698879186E+01  0.42246572857E+02 -0.96797738225E+01  0.47787270392E+02  0.19999997024E+02 0.  0.
        -12    1    1    2    0    0 -0.22698879186E+01 -0.42246572857E+02  0.96797738225E+01  0.43400729608E+02  0.00000000000E+00 0.  1.
         11    1    3    3    0    0  0.48713071185E+01  0.22745835878E+02 -0.11521132099E+02  0.25958412277E+02  0.51100000000E-03 0. -1.
        -11    1    3    3    0    0 -0.23888493888E+01  0.24657542024E+00  0.85173988800E+00  0.25481094832E+01  0.51100000000E-03 0.  1.
         12    1    3    3    0    0 -0.21256981105E+00  0.19254161558E+02  0.98961838861E+00  0.19280748632E+02  0.00000000000E+00 0. -1.
</event>
<event>
 7    1  0.2950722E-010  0.4778727E+02  0.7816164E-02  0.1312668E+00
        -11   -1    0    0    0    0  0.00000000000E+00  0.00000000000E+00  0.45593999997E+02  0.45594000000E+02  0.51100000000E-03 0. -1.
         11   -1    0    0    0    0 -0.00000000000E+00 -0.00000000000E+00 -0.45593999997E+02  0.45594000000E+02  0.51100000000E-03 0.  1.
    9900012    2    1    2    0    0 -0.11191998869E+02  0.34682934810E+02  0.23568124574E+02  0.47787270725E+02  0.19999998542E+02 0.  0.
        -12    1    1    2    0    0  0.11191998869E+02 -0.34682934810E+02 -0.23568124574E+02  0.43400729275E+02  0.00000000000E+00 0.  1.
         11    1    3    3    0    0 -0.34125050697E+01  0.15470605492E+02  0.18524924113E+02  0.24375348998E+02  0.51100000000E-03 0. -1.
        -11    1    3    3    0    0 -0.50020578043E+01  0.17288336093E+02  0.72211349712E+01  0.19392058624E+02  0.51100000000E-03 0.  1.
         12    1    3    3    0    0 -0.27774359946E+01  0.19239932241E+01 -0.21779345096E+01  0.40198631019E+01  0.00000000000E+00 0. -1.
</event>
<event>
 7    1  0.2950722E-010  0.4778727E+02  0.7816164E-02  0.1312668E+00
        -11   -1    0    0    0    0  0.00000000000E+00  0.00000000000E+00  0.45593999997E+02  0.45594000000E+02  0.51100000000E-03 0.  1.
         11   -1    0    0    0    0 -0.00000000000E+00 -0.00000000000E+00 -0.45593999997E+02  0.45594000000E+02  0.51100000000E-03 0. -1.
    9900012    2    1    2    0    0 -0.18909127352E+02  0.20972918825E+02 -0.32957618343E+02  0.47787273876E+02  0.20000012910E+02 0.  0.
        -12    1    1    2    0    0  0.18909127352E+02 -0.20972918825E+02  0.32957618343E+02  0.43400726124E+02  0.00000000000E+00 0.  1.
         11    1    3    3    0    0  0.26620121446E+01  0.51784168427E+00 -0.95613897017E+01  0.99385432513E+01  0.51100000000E-03 0. -1.
        -11    1    3    3    0    0 -0.10838044507E+02  0.10603069693E+02 -0.12626290593E+02  0.19730978436E+02  0.51100000000E-03 0.  1.
         12    1    3    3    0    0 -0.10733094989E+02  0.98520074476E+01 -0.10769938049E+02  0.18117752188E+02  0.00000000000E+00 0. -1.
</event>
<event>
 7    1  0.2950722E-010  0.4778728E+02  0.7816164E-02  0.1312668E+00
        -11   -1    0    0    0    0  0.00000000000E+00  0.00000000000E+00  0.45593999997E+02  0.45594000000E+02  0.51100000000E-03 0.  1.
         11   -1    0    0    0    0 -0.00000000000E+00 -0.00000000000E+00 -0.45593999997E+02  0.45594000000E+02  0.51100000000E-03 0. -1.
    9900012    2    1    2    0    0  0.40336671677E+02  0.44886181319E+01 -0.15376215993E+02  0.47787276585E+02  0.20000025262E+02 0.  0.
        -12    1    1    2    0    0 -0.40336671677E+02 -0.44886181319E+01  0.15376215993E+02  0.43400723415E+02  0.00000000000E+00 0.  1.
         11    1    3    3    0    0  0.18717083292E+02 -0.27357922794E+01 -0.12405807754E+02  0.22621181062E+02  0.51100000000E-03 0. -1.
        -11    1    3    3    0    0  0.16208021768E+02  0.98573365245E+01 -0.21211271952E+01  0.19088379550E+02  0.51100000000E-03 0.  1.
        -12    1    3    3    0    0  0.54115666171E+01 -0.26329261132E+01 -0.84928104402E+00  0.60777159741E+01  0.00000000000E+00 0.  1.
</event>
<event>
 7    1  0.2950722E-010  0.4778726E+02  0.7816164E-02  0.1312668E+00
        -11   -1    0    0    0    0  0.00000000000E+00  0.00000000000E+00  0.45593999997E+02  0.45594000000E+02  0.51100000000E-03 0.  1.
         11   -1    0    0    0    0 -0.00000000000E+00 -0.00000000000E+00 -0.45593999997E+02  0.45594000000E+02  0.51100000000E-03 0. -1.
    9900012    2    1    2    0    0  0.42253644186E+02 -0.83991596288E+01  0.52638432369E+01  0.47787258357E+02  0.19999942155E+02 0.  0.
        -12    1    1    2    0    0 -0.42253644186E+02  0.83991596288E+01 -0.52638432369E+01  0.43400741643E+02  0.00000000000E+00 0.  1.
         11    1    3    3    0    0  0.20860469777E+02 -0.24935738226E+01 -0.15263169287E+01  0.21064347921E+02  0.51100000000E-03 0. -1.
        -11    1    3    3    0    0  0.13407408961E+02 -0.10132373228E+02  0.46660968861E+01  0.17441217351E+02  0.51100000000E-03 0.  1.
        -12    1    3    3    0    0  0.79857654492E+01  0.42267874218E+01  0.21240632795E+01  0.92816930855E+01  0.00000000000E+00 0.  1.
</event>
<event>
 7    1  0.2950722E-010  0.4778727E+02  0.7816164E-02  0.1312668E+00
        -11   -1    0    0    0    0  0.00000000000E+00  0.00000000000E+00  0.45593999997E+02  0.45594000000E+02  0.51100000000E-03 0.  1.
         11   -1    0    0    0    0 -0.00000000000E+00 -0.00000000000E+00 -0.45593999997E+02  0.45594000000E+02  0.51100000000E-03 0. -1.
    9900012    2    1    2    0    0  0.86333557639E+01 -0.36686679718E+02 -0.21521523068E+02  0.47787271254E+02  0.20000000957E+02 0.  0.
        -12    1    1    2    0    0 -0.86333557639E+01  0.36686679718E+02  0.21521523068E+02  0.43400728746E+02  0.00000000000E+00 0.  1.
         11    1    3    3    0    0 -0.27255999202E+01 -0.22299595896E+02 -0.59425753370E+01  0.23238224415E+02  0.51100000000E-03 0. -1.
        -11    1    3    3    0    0  0.47577310238E+01 -0.42444310999E+01 -0.81554613990E+01  0.10351944298E+02  0.51100000000E-03 0.  1.
         12    1    3    3    0    0  0.66012246604E+01 -0.10142652722E+02 -0.74234863316E+01  0.14197102542E+02  0.00000000000E+00 0. -1.
</event>
<event>
 7    1  0.2950722E-010  0.4778727E+02  0.7816164E-02  0.1312668E+00
        -11   -1    0    0    0    0  0.00000000000E+00  0.00000000000E+00  0.45593999997E+02  0.45594000000E+02  0.51100000000E-03 0.  1.
         11   -1    0    0    0    0 -0.00000000000E+00 -0.00000000000E+00 -0.45593999997E+02  0.45594000000E+02  0.51100000000E-03 0. -1.
    9900012    2    1    2    0    0 -0.32326417878E+01 -0.37791731450E+02 -0.21094036568E+02  0.47787270540E+02  0.19999997699E+02 0.  0.
        -12    1    1    2    0    0  0.32326417878E+01  0.37791731450E+02  0.21094036568E+02  0.43400729460E+02  0.00000000000E+00 0.  1.
         11    1    3    3    0    0 -0.17874730924E+01 -0.37979732782E+01 -0.44537310166E+01  0.61200801716E+01  0.51100000000E-03 0. -1.
        -11    1    3    3    0    0 -0.87934707188E+01 -0.25085989900E+02 -0.12748530728E+02  0.29481469647E+02  0.51100000000E-03 0.  1.
        -12    1    3    3    0    0  0.73483020235E+01 -0.89077682720E+01 -0.38917748235E+01  0.12185720721E+02  0.00000000000E+00 0.  1.
</event>
<event>
 7    1  0.2950722E-010  0.4778728E+02  0.7816164E-02  0.1312668E+00
        -11   -1    0    0    0    0  0.00000000000E+00  0.00000000000E+00  0.45593999997E+02  0.45594000000E+02  0.51100000000E-03 0.  1.
         11   -1    0    0    0    0 -0.00000000000E+00 -0.00000000000E+00 -0.45593999997E+02  0.45594000000E+02  0.51100000000E-03 0. -1.
    9900012    2    1    2    0    0 -0.13431509398E+02  0.29754806239E+02 -0.28598402225E+02  0.47787279398E+02  0.20000038086E+02 0.  0.
        -12    1    1    2    0    0  0.13431509398E+02 -0.29754806239E+02  0.28598402225E+02  0.43400720602E+02  0.00000000000E+00 0.  1.
         11    1    3    3    0    0 -0.14832067660E+01  0.76775471882E+01 -0.13325107425E+02  0.15450020107E+02  0.51100000000E-03 0. -1.
        -11    1    3    3    0    0  0.46027757556E+00  0.34704232772E+01  0.20420336068E+01  0.40528501924E+01  0.51100000000E-03 0.  1.
        -12    1    3    3    0    0 -0.12408580207E+02  0.18606835773E+02 -0.17315328406E+02  0.28284409099E+02  0.00000000000E+00 0.  1.
</event>
<event>
 7    1  0.2950722E-010  0.4778727E+02  0.7816164E-02  0.1312668E+00
        -11   -1    0    0    0    0  0.00000000000E+00  0.00000000000E+00  0.45593999997E+02  0.45594000000E+02  0.51100000000E-03 0. -1.
         11   -1    0    0    0    0 -0.00000000000E+00 -0.00000000000E+00 -0.45593999997E+02  0.45594000000E+02  0.51100000000E-03 0.  1.
    9900012    2    1    2    0    0  0.34305043749E+02 -0.17949271104E+02  0.19611502245E+02  0.47787269820E+02  0.19999994418E+02 0.  0.
        -12    1    1    2    0    0 -0.34305043749E+02  0.17949271104E+02 -0.19611502245E+02  0.43400730180E+02  0.00000000000E+00 0.  1.
         11    1    3    3    0    0  0.19958283059E+02 -0.89538258335E+01  0.11026256200E+02  0.24496579063E+02  0.51100000000E-03 0. -1.
        -11    1    3    3    0    0  0.11614286483E-01  0.28297976079E+01  0.23839840787E+01  0.37001715828E+01  0.51100000000E-03 0.  1.
        -12    1    3    3    0    0  0.14335146404E+02 -0.11825242879E+02  0.62012619666E+01  0.19590519175E+02  0.00000000000E+00 0.  1.
</event>
<event>
 7    1  0.2950722E-010  0.4778728E+02  0.7816164E-02  0.1312668E+00
        -11   -1    0    0    0    0  0.00000000000E+00  0.00000000000E+00  0.45593999997E+02  0.45594000000E+02  0.51100000000E-03 0. -1.
         11   -1    0    0    0    0 -0.00000000000E+00 -0.00000000000E+00 -0.45593999997E+02  0.45594000000E+02  0.51100000000E-03 0.  1.
    9900012    2    1    2    0    0  0.22633939005E+02 -0.83282804566E+01  0.36082786218E+02  0.47787275220E+02  0.20000019037E+02 0.  0.
        -12    1    1    2    0    0 -0.22633939005E+02  0.83282804566E+01 -0.36082786218E+02  0.43400724780E+02  0.00000000000E+00 0.  1.
         11    1    3    3    0    0  0.17273250929E+02 -0.17254008053E+01  0.32710470211E+02  0.37031298482E+02  0.51100000000E-03 0. -1.
        -11    1    3    3    0    0  0.63668515880E+01 -0.65704053739E+01  0.33677009136E+01  0.97492787233E+01  0.51100000000E-03 0.  1.
         12    1    3    3    0    0 -0.10061635124E+01 -0.32474277444E-01  0.46150928483E-02  0.10066980140E+01  0.00000000000E+00 0. -1.
</event>
<event>
 7    1  0.2950722E-010  0.4778727E+02  0.7816164E-02  0.1312668E+00
        -11   -1    0    0    0    0  0.00000000000E+00  0.00000000000E+00  0.45593999997E+02  0.45594000000E+02  0.51100000000E-03 0. -1.
         11   -1    0    0    0    0 -0.00000000000E+00 -0.00000000000E+00 -0.45593999997E+02  0.45594000000E+02  0.51100000000E-03 0.  1.
    9900012    2    1    2    0    0  0.30867688452E+02  0.28278241656E+02  0.11452086079E+02  0.47787269395E+02  0.19999992479E+02 0.  0.
        -12    1    1    2    0    0 -0.30867688452E+02 -0.28278241656E+02 -0.11452086079E+02  0.43400730605E+02  0.00000000000E+00 0.  1.
         11    1    3    3    0    0  0.10509659311E+02  0.14557246021E+02  0.85718398716E+01  0.19895798290E+02  0.51100000000E-03 0. -1.
        -11    1    3    3    0    0  0.15558887054E+02  0.13823905899E+02 -0.21677057777E+01  0.20925541552E+02  0.51100000000E-03 0.  1.
        -12    1    3    3    0    0  0.47991420870E+01 -0.10291026380E+00  0.50479519848E+01  0.69659295528E+01  0.00000000000E+00 0.  1.
</event>
<event>
 7    1  0.2950722E-010  0.4778727E+02  0.7816164E-02  0.1312668E+00
        -11   -1    0    0    0    0  0.00000000000E+00  0.00000000000E+00  0.45593999997E+02  0.45594000000E+02  0.51100000000E-03 0.  1.
         11   -1    0    0    0    0 -0.00000000000E+00 -0.00000000000E+00 -0.45593999997E+02  0.45594000000E+02  0.51100000000E-03 0. -1.
    9900012    2    1    2    0    0  0.30085110292E+02 -0.10284243848E+02 -0.29542232728E+02  0.47787273654E+02  0.20000011897E+02 0.  0.
        -12    1    1    2    0    0 -0.30085110292E+02  0.10284243848E+02  0.29542232728E+02  0.43400726346E+02  0.00000000000E+00 0.  1.
         11    1    3    3    0    0  0.13147005369E+02 -0.12312103769E+02 -0.11658449649E+02  0.21455794040E+02  0.51100000000E-03 0. -1.
        -11    1    3    3    0    0  0.10699442190E+01 -0.95987975625E+00  0.79366297129E+00  0.16419655755E+01  0.51100000000E-03 0.  1.
         12    1    3    3    0    0  0.15868160704E+02  0.29877396769E+01 -0.18677446050E+02  0.24689514039E+02  0.00000000000E+00 0. -1.
</event>
<event>
 7    1  0.2950722E-010  0.4778727E+02  0.7816164E-02  0.1312668E+00
        -11   -1    0    0    0    0  0.00000000000E+00  0.00000000000E+00  0.45593999997E+02  0.45594000000E+02  0.51100000000E-03 0. -1.
         11   -1    0    0    0    0 -0.00000000000E+00 -0.00000000000E+00 -0.45593999997E+02  0.45594000000E+02  0.51100000000E-03 0.  1.
    9900012    2    1    2    0    0  0.11530924287E+02 -0.93471432336E+00  0.41830461126E+02  0.47787269778E+02  0.19999994226E+02 0.  0.
        -12    1    1    2    0    0 -0.11530924287E+02  0.93471432336E+00 -0.41830461126E+02  0.43400730222E+02  0.00000000000E+00 0.  1.
         11    1    3    3    0    0  0.64771510938E+01  0.53434794375E+01  0.34776350227E+02  0.35775701170E+02  0.51100000000E-03 0. -1.
        -11    1    3    3    0    0  0.16116272866E+01 -0.39473773497E+01  0.55919473221E+00  0.43002127228E+01  0.51100000000E-03 0.  1.
         12    1    3    3    0    0  0.34421459061E+01 -0.23308164112E+01  0.64949161666E+01  0.77113558855E+01  0.00000000000E+00 0. -1.
</event>
<event>
 7    1  0.2950722E-010  0.4778729E+02  0.7816164E-02  0.1312668E+00
        -11   -1    0    0    0    0  0.00000000000E+00  0.00000000000E+00  0.45593999997E+02  0.45594000000E+02  0.51100000000E-03 0.  1.
         11   -1    0    0    0    0 -0.00000000000E+00 -0.00000000000E+00 -0.45593999997E+02  0.45594000000E+02  0.51100000000E-03 0. -1.
    9900012    2    1    2    0    0  0.26398615429E+02  0.27169094672E+02 -0.21179592703E+02  0.47787288613E+02  0.20000080101E+02 0.  0.
        -12    1    1    2    0    0 -0.26398615429E+02 -0.27169094672E+02  0.21179592703E+02  0.43400711387E+02  0.00000000000E+00 0.  1.
         11    1    3    3    0    0  0.16158778121E+02  0.21648718920E+02 -0.16539568664E+02  0.31675392233E+02  0.51100000000E-03 0. -1.
        -11    1    3    3    0    0 -0.35034993296E+00  0.37910881836E+01  0.10727483044E+01  0.39554878178E+01  0.51100000000E-03 0.  1.
         12    1    3    3    0    0  0.10590187240E+02  0.17292875684E+01 -0.57127723433E+01  0.12156408562E+02  0.00000000000E+00 0. -1.
</event>
<event>
 7    1  0.2950722E-010  0.4778728E+02  0.7816164E-02  0.1312668E+00
        -11   -1    0    0    0    0  0.00000000000E+00  0.00000000000E+00  0.45593999997E+02  0.45594000000E+02  0.51100000000E-03 0. -1.
         11   -1    0    0    0    0 -0.00000000000E+00 -0.00000000000E+00 -0.45593999997E+02  0.45594000000E+02  0.51100000000E-03 0.  1.
    9900012    2    1    2    0    0 -0.41315399413E+02 -0.12304785200E+02  0.50252006759E+01  0.47787278701E+02  0.20000034908E+02 0.  0.
        -12    1    1    2    0    0  0.41315399413E+02  0.12304785200E+02 -0.50252006759E+01  0.43400721299E+02  0.00000000000E+00 0.  1.
         11    1    3    3    0    0 -0.20271503778E+02 -0.10553475877E+02  0.86323508705E+01  0.24430047080E+02  0.51100000000E-03 0. -1.
        -11    1    3    3    0    0  0.26346647829E+00 -0.99253298889E+00 -0.16543054606E+01  0.19471166214E+01  0.51100000000E-03 0.  1.
         12    1    3    3    0    0 -0.21307362113E+02 -0.75877633434E+00 -0.19528447341E+01  0.21410115000E+02  0.00000000000E+00 0. -1.
</event>
<event>
 7    1  0.2950722E-010  0.4778726E+02  0.7816164E-02  0.1312668E+00
        -11   -1    0    0    0    0  0.00000000000E+00  0.00000000000E+00  0.45593999997E+02  0.45594000000E+02  0.51100000000E-03 0. -1.
         11   -1    0    0    0    0 -0.00000000000E+00 -0.00000000000E+00 -0.45593999997E+02  0.45594000000E+02  0.51100000000E-03 0.  1.
    9900012    2    1    2    0    0  0.26127996470E+02  0.34415170632E+02 -0.40679522362E+01  0.47787258019E+02  0.19999940611E+02 0.  0.
        -12    1    1    2    0    0 -0.26127996470E+02 -0.34415170632E+02  0.40679522362E+01  0.43400741981E+02  0.00000000000E+00 0.  1.
         11    1    3    3    0    0  0.21946911514E+02  0.19436895962E+02 -0.15768907862E+01  0.29358924273E+02  0.51100000000E-03 0. -1.
        -11    1    3    3    0    0  0.10187910612E+01 -0.12742404985E+01  0.23443433959E+00  0.16482062356E+01  0.51100000000E-03 0.  1.
         12    1    3    3    0    0  0.31622938943E+01  0.16252515168E+02 -0.27254957896E+01  0.16780127510E+02  0.00000000000E+00 0. -1.
</event>
<event>
 7    1  0.2950722E-010  0.4778729E+02  0.7816164E-02  0.1312668E+00
        -11   -1    0    0    0    0  0.00000000000E+00  0.00000000000E+00  0.45593999997E+02  0.45594000000E+02  0.51100000000E-03 0.  1.
         11   -1    0    0    0    0 -0.00000000000E+00 -0.00000000000E+00 -0.45593999997E+02  0.45594000000E+02  0.51100000000E-03 0. -1.
    9900012    2    1    2    0    0 -0.10071074060E+02 -0.23130208193E+00 -0.42215417030E+02  0.47787291844E+02  0.20000094834E+02 0.  0.
        -12    1    1    2    0    0  0.10071074060E+02  0.23130208193E+00  0.42215417030E+02  0.43400708156E+02  0.00000000000E+00 0.  1.
         11    1    3    3    0    0 -0.54386830647E+01 -0.13374040443E+01 -0.34035504697E+02  0.34493238516E+02  0.51100000000E-03 0. -1.
        -11    1    3    3    0    0 -0.59555021417E+01  0.31920291025E+01 -0.26876990786E+01  0.72719173640E+01  0.51100000000E-03 0.  1.
        -12    1    3    3    0    0  0.13231111465E+01 -0.20859271401E+01 -0.54922132549E+01  0.60221359647E+01  0.00000000000E+00 0.  1.
</event>
<event>
 7    1  0.2950722E-010  0.4778727E+02  0.7816164E-02  0.1312668E+00
        -11   -1    0    0    0    0  0.00000000000E+00  0.00000000000E+00  0.45593999997E+02  0.45594000000E+02  0.51100000000E-03 0.  1.
         11   -1    0    0    0    0 -0.00000000000E+00 -0.00000000000E+00 -0.45593999997E+02  0.45594000000E+02  0.51100000000E-03 0. -1.
    9900012    2    1    2    0    0 -0.38049773959E+01 -0.40932616746E+02 -0.13916399553E+02  0.47787272550E+02  0.20000006864E+02 0.  0.
        -12    1    1    2    0    0  0.38049773959E+01  0.40932616746E+02  0.13916399553E+02  0.43400727450E+02  0.00000000000E+00 0.  1.
         11    1    3    3    0    0 -0.12717437497E+01 -0.25120616002E+02 -0.60691385735E+00  0.25160107813E+02  0.51100000000E-03 0. -1.
        -11    1    3    3    0    0  0.24220690386E+01 -0.78611962037E+01 -0.31525205645E+01  0.88092684345E+01  0.51100000000E-03 0.  1.
         12    1    3    3    0    0 -0.49553026848E+01 -0.79508045407E+01 -0.10156965131E+02  0.13817896302E+02  0.00000000000E+00 0. -1.
</event>
<event>
 7    1  0.2950722E-010  0.4778728E+02  0.7816164E-02  0.1312668E+00
        -11   -1    0    0    0    0  0.00000000000E+00  0.00000000000E+00  0.45593999997E+02  0.45594000000E+02  0.51100000000E-03 0.  1.
         11   -1    0    0    0    0 -0.00000000000E+00 -0.00000000000E+00 -0.45593999997E+02  0.45594000000E+02  0.51100000000E-03 0. -1.
    9900012    2    1    2    0    0  0.15401333013E+02  0.15236197882E+02 -0.37606912009E+02  0.47787278631E+02  0.20000034592E+02 0.  0.
        -12    1    1    2    0    0 -0.15401333013E+02 -0.15236197882E+02  0.37606912009E+02  0.43400721369E+02  0.00000000000E+00 0.  1.
         11    1    3    3    0    0  0.25503045439E+01  0.55798573820E+01 -0.16365348472E+02  0.17477513912E+02  0.51100000000E-03 0. -1.
        -11    1    3    3    0    0  0.15673432859E+02  0.65832860285E+01 -0.19263983517E+02  0.25692357107E+02  0.51100000000E-03 0.  1.
        -12    1    3    3    0    0 -0.28224043895E+01  0.30730544716E+01 -0.19775800192E+01  0.46174076120E+01  0.00000000000E+00 0.  1.
</event>
<event>
 7    1  0.2950722E-010  0.4778727E+02  0.7816164E-02  0.1312668E+00
        -11   -1    0    0    0    0  0.00000000000E+00  0.00000000000E+00  0.45593999997E+02  0.45594000000E+02  0.51100000000E-03 0.  1.
         11   -1    0    0    0    0 -0.00000000000E+00 -0.00000000000E+00 -0.45593999997E+02  0.45594000000E+02  0.51100000000E-03 0. -1.
    9900012    2    1    2    0    0  0.39394276596E+02  0.12907839856E+02 -0.12849194409E+02  0.47787272411E+02  0.20000006230E+02 0.  0.
        -12    1    1    2    0    0 -0.39394276596E+02 -0.12907839856E+02  0.12849194409E+02  0.43400727589E+02  0.00000000000E+00 0.  1.
         11    1    3    3    0    0  0.17500716239E+02  0.97526246208E+01  0.70038926897E+00  0.20046927477E+02  0.51100000000E-03 0. -1.
        -11    1    3    3    0    0  0.12282729889E+02  0.47823623795E+01 -0.12086587823E+02  0.17883569245E+02  0.51100000000E-03 0.  1.
        -12    1    3    3    0    0  0.96108304684E+01 -0.16271471442E+01 -0.14629958547E+01  0.98567756894E+01  0.00000000000E+00 0.  1.
</event>
<event>
 7    1  0.2950722E-010  0.4778731E+02  0.7816164E-02  0.1312668E+00
        -11   -1    0    0    0    0  0.00000000000E+00  0.00000000000E+00  0.45593999997E+02  0.45594000000E+02  0.51100000000E-03 0. -1.
         11   -1    0    0    0    0 -0.00000000000E+00 -0.00000000000E+00 -0.45593999997E+02  0.45594000000E+02  0.51100000000E-03 0.  1.
    9900012    2    1    2    0    0 -0.12541004322E+01  0.42577872031E+02 -0.83169729058E+01  0.47787308843E+02  0.20000172340E+02 0.  0.
        -12    1    1    2    0    0  0.12541004322E+01 -0.42577872031E+02  0.83169729058E+01  0.43400691157E+02  0.00000000000E+00 0.  1.
         11    1    3    3    0    0 -0.14282130651E+01  0.33307834733E+02 -0.56357758747E+00  0.33343204212E+02  0.51100000000E-03 0. -1.
        -11    1    3    3    0    0  0.34441468450E+00  0.59204946555E+01 -0.90735641203E+01  0.10839762200E+02  0.51100000000E-03 0.  1.
         12    1    3    3    0    0 -0.17030205160E+00  0.33495426421E+01  0.13201688019E+01  0.36043424318E+01  0.00000000000E+00 0. -1.
</event>
<event>
 7    1  0.2950722E-010  0.4778733E+02  0.7816164E-02  0.1312667E+00
        -11   -1    0    0    0    0  0.00000000000E+00  0.00000000000E+00  0.45593999997E+02  0.45594000000E+02  0.51100000000E-03 0. -1.
         11   -1    0    0    0    0 -0.00000000000E+00 -0.00000000000E+00 -0.45593999997E+02  0.45594000000E+02  0.51100000000E-03 0.  1.
    9900012    2    1    2    0    0 -0.24946976838E+02 -0.33960671035E+01  0.35351562971E+02  0.47787332613E+02  0.20000280713E+02 0.  0.
        -12    1    1    2    0    0  0.24946976838E+02  0.33960671035E+01 -0.35351562971E+02  0.43400667387E+02  0.00000000000E+00 0.  1.
         11    1    3    3    0    0 -0.12950729690E+02 -0.26086686820E+01  0.19583173765E+02  0.23622600339E+02  0.51100000000E-03 0. -1.
        -11    1    3    3    0    0  0.59498106878E+00  0.38156625127E+01  0.74389878975E+01  0.83816361221E+01  0.51100000000E-03 0.  1.
        -12    1    3    3    0    0 -0.12591228217E+02 -0.46030609343E+01  0.83294013089E+01  0.15783096152E+02  0.00000000000E+00 0.  1.
</event>
<event>
 7    1  0.2950722E-010  0.4778727E+02  0.7816164E-02  0.1312668E+00
        -11   -1    0    0    0    0  0.00000000000E+00  0.00000000000E+00  0.45593999997E+02  0.45594000000E+02  0.51100000000E-03 0. -1.
         11   -1    0    0    0    0 -0.00000000000E+00 -0.00000000000E+00 -0.45593999997E+02  0.45594000000E+02  0.51100000000E-03 0.  1.
    9900012    2    1    2    0    0  0.19595961388E+01 -0.42799980621E+02 -0.69242304262E+01  0.47787270454E+02  0.19999997307E+02 0.  0.
        -12    1    1    2    0    0 -0.19595961388E+01  0.42799980621E+02  0.69242304262E+01  0.43400729546E+02  0.00000000000E+00 0.  1.
         11    1    3    3    0    0  0.14181612692E+01 -0.31112151747E+02 -0.28374510754E+00  0.31145748976E+02  0.51100000000E-03 0. -1.
        -11    1    3    3    0    0  0.13153463012E+01 -0.66169469942E+01 -0.87893439391E+01  0.11080013112E+02  0.51100000000E-03 0.  1.
         12    1    3    3    0    0 -0.77391143158E+00 -0.50708818794E+01  0.21488586204E+01  0.55615083663E+01  0.00000000000E+00 0. -1.
</event>
<event>
 7    1  0.2950722E-010  0.4778727E+02  0.7816164E-02  0.1312668E+00
        -11   -1    0    0    0    0  0.00000000000E+00  0.00000000000E+00  0.45593999997E+02  0.45594000000E+02  0.51100000000E-03 0.  1.
         11   -1    0    0    0    0 -0.00000000000E+00 -0.00000000000E+00 -0.45593999997E+02  0.45594000000E+02  0.51100000000E-03 0. -1.
    9900012    2    1    2    0    0  0.22849263009E+02  0.34712250049E+02 -0.12513774859E+02  0.47787266311E+02  0.19999978419E+02 0.  0.
        -12    1    1    2    0    0 -0.22849263009E+02 -0.34712250049E+02  0.12513774859E+02  0.43400733689E+02  0.00000000000E+00 0.  1.
         11    1    3    3    0    0  0.16458625734E+02  0.15773901057E+02 -0.56348480585E+01  0.23483054071E+02  0.51100000000E-03 0. -1.
        -11    1    3    3    0    0 -0.91133336281E+00  0.38345205840E+01  0.28932521195E+01  0.48892724096E+01  0.51100000000E-03 0.  1.
        -12    1    3    3    0    0  0.73019706380E+01  0.15103828407E+02 -0.97721789203E+01  0.19414939830E+02  0.00000000000E+00 0.  1.
</event>
<event>
 7    1  0.2950722E-010  0.4778727E+02  0.7816164E-02  0.1312668E+00
        -11   -1    0    0    0    0  0.00000000000E+00  0.00000000000E+00  0.45593999997E+02  0.45594000000E+02  0.51100000000E-03 0.  1.
         11   -1    0    0    0    0 -0.00000000000E+00 -0.00000000000E+00 -0.45593999997E+02  0.45594000000E+02  0.51100000000E-03 0. -1.
    9900012    2    1    2    0    0 -0.50183717141E+00  0.98534270301E+01 -0.42264427118E+02  0.47787266545E+02  0.19999979487E+02 0.  0.
        -12    1    1    2    0    0  0.50183717141E+00 -0.98534270301E+01  0.42264427118E+02  0.43400733455E+02  0.00000000000E+00 0.  1.
         11    1    3    3    0    0 -0.13903590009E+01  0.17538900351E+01 -0.28958257914E+02  0.29044619641E+02  0.51100000000E-03 0. -1.
        -11    1    3    3    0    0  0.14327506607E+01  0.10321586577E+02 -0.86043291159E+01  0.13513785692E+02  0.51100000000E-03 0.  1.
        -12    1    3    3    0    0 -0.54422883118E+00 -0.22220495823E+01 -0.47018400885E+01  0.52288612130E+01  0.00000000000E+00 0.  1.
</event>
<event>
 7    1  0.2950722E-010  0.4778727E+02  0.7816164E-02  0.1312668E+00
        -11   -1    0    0    0    0  0.00000000000E+00  0.00000000000E+00  0.45593999997E+02  0.45594000000E+02  0.51100000000E-03 0. -1.
         11   -1    0    0    0    0 -0.00000000000E+00 -0.00000000000E+00 -0.45593999997E+02  0.45594000000E+02  0.51100000000E-03 0.  1.
    9900012    2    1    2    0    0 -0.16586643261E+02  0.11665859536E+02  0.38372055463E+02  0.47787266667E+02  0.19999980040E+02 0.  0.
        -12    1    1    2    0    0  0.16586643261E+02 -0.11665859536E+02 -0.38372055463E+02  0.43400733333E+02  0.00000000000E+00 0.  1.
         11    1    3    3    0    0 -0.16606284792E+02  0.36167038021E+01  0.19899131008E+02  0.26169154669E+02  0.51100000000E-03 0. -1.
        -11    1    3    3    0    0 -0.38883395417E+01  0.36429424112E+01  0.82902924921E+01  0.98549055636E+01  0.51100000000E-03 0.  1.
         12    1    3    3    0    0  0.39079810718E+01  0.44062133223E+01  0.10182631963E+02  0.11763206434E+02  0.00000000000E+00 0. -1.
</event>
<event>
 7    1  0.2950722E-010  0.4778727E+02  0.7816164E-02  0.1312668E+00
        -11   -1    0    0    0    0  0.00000000000E+00  0.00000000000E+00  0.45593999997E+02  0.45594000000E+02  0.51100000000E-03 0. -1.
         11   -1    0    0    0    0 -0.00000000000E+00 -0.00000000000E+00 -0.45593999997E+02  0.45594000000E+02  0.51100000000E-03 0.  1.
    9900012    2    1    2    0    0 -0.40072744643E+02  0.15796882013E+02 -0.53157148838E+01  0.47787272250E+02  0.20000005495E+02 0.  0.
        -12    1    1    2    0    0  0.40072744643E+02 -0.15796882013E+02  0.53157148838E+01  0.43400727750E+02  0.00000000000E+00 0.  1.
         11    1    3    3    0    0 -0.35180456691E+02  0.96906261176E+01 -0.58169567585E+01  0.36951451308E+02  0.51100000000E-03 0. -1.
        -11    1    3    3    0    0  0.57962511494E+00  0.13236206847E+01 -0.25681928406E+01  0.29467866768E+01  0.51100000000E-03 0.  1.
        -12    1    3    3    0    0 -0.54719130663E+01  0.47826352106E+01  0.30694347153E+01  0.78890342650E+01  0.00000000000E+00 0.  1.
</event>
<event>
 7    1  0.2950722E-010  0.4778727E+02  0.7816164E-02  0.1312668E+00
        -11   -1    0    0    0    0  0.00000000000E+00  0.00000000000E+00  0.45593999997E+02  0.45594000000E+02  0.51100000000E-03 0. -1.
         11   -1    0    0    0    0 -0.00000000000E+00 -0.00000000000E+00 -0.45593999997E+02  0.45594000000E+02  0.51100000000E-03 0.  1.
    9900012    2    1    2    0    0 -0.13809141629E+02  0.30864063658E+02  0.27209195792E+02  0.47787272430E+02  0.20000006317E+02 0.  0.
        -12    1    1    2    0    0  0.13809141629E+02 -0.30864063658E+02 -0.27209195792E+02  0.43400727570E+02  0.00000000000E+00 0.  1.
         11    1    3    3    0    0 -0.74192510408E+01  0.21205392763E+02  0.18257347537E+02  0.28949001841E+02  0.51100000000E-03 0. -1.
        -11    1    3    3    0    0 -0.26799959317E+00  0.56748040342E+01 -0.16934505997E+01  0.59281531528E+01  0.51100000000E-03 0.  1.
         12    1    3    3    0    0 -0.61218909947E+01  0.39838668603E+01  0.10645298855E+02  0.12910117436E+02  0.00000000000E+00 0. -1.
</event>
<event>
 7    1  0.2950722E-010  0.4778727E+02  0.7816164E-02  0.1312668E+00
        -11   -1    0    0    0    0  0.00000000000E+00  0.00000000000E+00  0.45593999997E+02  0.45594000000E+02  0.51100000000E-03 0.  1.
         11   -1    0    0    0    0 -0.00000000000E+00 -0.00000000000E+00 -0.45593999997E+02  0.45594000000E+02  0.51100000000E-03 0. -1.
    9900012    2    1    2    0    0  0.42899035273E+02  0.13773635133E+01 -0.64342031108E+01  0.47787270429E+02  0.19999997193E+02 0.  0.
        -12    1    1    2    0    0 -0.42899035273E+02 -0.13773635133E+01  0.64342031108E+01  0.43400729571E+02  0.00000000000E+00 0.  1.
         11    1    3    3    0    0  0.28362638172E+02  0.97536888846E+00 -0.11632995472E+02  0.30671112997E+02  0.51100000000E-03 0. -1.
        -11    1    3    3    0    0  0.93108578189E+01  0.37641159197E+01  0.38645009618E+01  0.10760808981E+02  0.51100000000E-03 0.  1.
         12    1    3    3    0    0  0.52255392824E+01 -0.33621212949E+01  0.13342913995E+01  0.63553484508E+01  0.00000000000E+00 0. -1.
</event>
<event>
 7    1  0.2950722E-010  0.4778727E+02  0.7816164E-02  0.1312668E+00
        -11   -1    0    0    0    0  0.00000000000E+00  0.00000000000E+00  0.45593999997E+02  0.45594000000E+02  0.51100000000E-03 0.  1.
         11   -1    0    0    0    0 -0.00000000000E+00 -0.00000000000E+00 -0.45593999997E+02  0.45594000000E+02  0.51100000000E-03 0. -1.
    9900012    2    1    2    0    0 -0.41929571416E+01  0.21798268971E+00 -0.43197162060E+02  0.47787271711E+02  0.20000003037E+02 0.  0.
        -12    1    1    2    0    0  0.41929571416E+01 -0.21798268971E+00  0.43197162060E+02  0.43400728289E+02  0.00000000000E+00 0.  1.
         11    1    3    3    0    0 -0.52394248348E+01 -0.18344459346E+01 -0.82406028518E+01  0.99360102712E+01  0.51100000000E-03 0. -1.
        -11    1    3    3    0    0  0.45948845057E+01  0.69007592061E+01 -0.23417377159E+02  0.24841638322E+02  0.51100000000E-03 0.  1.
        -12    1    3    3    0    0 -0.35484168125E+01 -0.48483305818E+01 -0.11539182049E+02  0.13009623118E+02  0.00000000000E+00 0.  1.
</event>
<event>
 7    1  0.2950722E-010  0.4778727E+02  0.7816164E-02  0.1312668E+00
        -11   -1    0    0    0    0  0.00000000000E+00  0.00000000000E+00  0.45593999997E+02  0.45594000000E+02  0.51100000000E-03 0.  1.
         11   -1    0    0    0    0 -0.00000000000E+00 -0.00000000000E+00 -0.45593999997E+02  0.45594000000E+02  0.51100000000E-03 0. -1.
    9900012    2    1    2    0    0  0.11131278895E+02  0.77744368549E+01 -0.41222276575E+02  0.47787270463E+02  0.19999997351E+02 0.  0.
        -12    1    1    2    0    0 -0.11131278895E+02 -0.77744368549E+01  0.41222276575E+02  0.43400729537E+02  0.00000000000E+00 0.  1.
         11    1    3    3    0    0  0.67237274543E+01  0.11417068721E+02 -0.16560350824E+02  0.21208564042E+02  0.51100000000E-03 0.  1.
        -11    1    3    3    0    0  0.66252414779E+01 -0.18190161849E+01 -0.14987258220E+02  0.16486981341E+02  0.51100000000E-03 0. -1.
         12    1    3    3    0    0 -0.22176900372E+01 -0.18236156811E+01 -0.96746675311E+01  0.10091725080E+02  0.00000000000E+00 0. -1.
</event>
<event>
 7    1  0.2950722E-010  0.4778728E+02  0.7816164E-02  0.1312668E+00
        -11   -1    0    0    0    0  0.00000000000E+00  0.00000000000E+00  0.45593999997E+02  0.45594000000E+02  0.51100000000E-03 0.  1.
         11   -1    0    0    0    0 -0.00000000000E+00 -0.00000000000E+00 -0.45593999997E+02  0.45594000000E+02  0.51100000000E-03 0. -1.
    9900012    2    1    2    0    0 -0.26517300850E+01  0.20125511594E+01 -0.43272865442E+02  0.47787275142E+02  0.20000018683E+02 0.  0.
        -12    1    1    2    0    0  0.26517300850E+01 -0.20125511594E+01  0.43272865442E+02  0.43400724858E+02  0.00000000000E+00 0.  1.
         11    1    3    3    0    0  0.26652650842E+00 -0.66118141573E+01 -0.24762429500E+02  0.25631329225E+02  0.51100000000E-03 0. -1.
        -11    1    3    3    0    0 -0.56600442003E+01  0.67323382975E+01 -0.14279851899E+02  0.16771244731E+02  0.51100000000E-03 0.  1.
         12    1    3    3    0    0  0.27417876069E+01  0.18920270192E+01 -0.42305840436E+01  0.53847011869E+01  0.00000000000E+00 0. -1.
</event>
<event>
 7    1  0.2950722E-010  0.4778727E+02  0.7816164E-02  0.1312668E+00
        -11   -1    0    0    0    0  0.00000000000E+00  0.00000000000E+00  0.45593999997E+02  0.45594000000E+02  0.51100000000E-03 0.  1.
         11   -1    0    0    0    0 -0.00000000000E+00 -0.00000000000E+00 -0.45593999997E+02  0.45594000000E+02  0.51100000000E-03 0. -1.
    9900012    2    1    2    0    0  0.32861798392E+02 -0.25422012578E+02  0.12547770805E+02  0.47787273402E+02  0.20000010749E+02 0.  0.
        -12    1    1    2    0    0 -0.32861798392E+02  0.25422012578E+02 -0.12547770805E+02  0.43400726598E+02  0.00000000000E+00 0.  1.
         11    1    3    3    0    0  0.17469450654E+02 -0.11639925420E+02  0.23546316184E+01  0.21123774764E+02  0.51100000000E-03 0. -1.
        -11    1    3    3    0    0  0.93355399584E+01 -0.24668114454E+01  0.98950666885E+01  0.13825693836E+02  0.51100000000E-03 0.  1.
        -12    1    3    3    0    0  0.60568077793E+01 -0.11315275712E+02  0.29807249804E+00  0.12837804802E+02  0.00000000000E+00 0.  1.
</event>
<event>
 7    1  0.2950722E-010  0.4778727E+02  0.7816164E-02  0.1312668E+00
        -11   -1    0    0    0    0  0.00000000000E+00  0.00000000000E+00  0.45593999997E+02  0.45594000000E+02  0.51100000000E-03 0.  1.
         11   -1    0    0    0    0 -0.00000000000E+00 -0.00000000000E+00 -0.45593999997E+02  0.45594000000E+02  0.51100000000E-03 0. -1.
    9900012    2    1    2    0    0  0.28619713671E+02  0.19945348323E+02 -0.25820887118E+02  0.47787272565E+02  0.20000006933E+02 0.  0.
        -12    1    1    2    0    0 -0.28619713671E+02 -0.19945348323E+02  0.25820887118E+02  0.43400727435E+02  0.00000000000E+00 0.  1.
         11    1    3    3    0    0  0.72823185032E+01  0.77101342712E+01 -0.71452531699E+01  0.12788001266E+02  0.51100000000E-03 0. -1.
        -11    1    3    3    0    0  0.92778289029E+01  0.14578984221E+02 -0.10083167079E+02  0.20007377356E+02  0.51100000000E-03 0.  1.
        -12    1    3    3    0    0  0.12059566265E+02 -0.23437701690E+01 -0.85924668687E+01  0.14991893943E+02  0.00000000000E+00 0.  1.
</event>
<event>
 7    1  0.2950722E-010  0.4778727E+02  0.7816164E-02  0.1312668E+00
        -11   -1    0    0    0    0  0.00000000000E+00  0.00000000000E+00  0.45593999997E+02  0.45594000000E+02  0.51100000000E-03 0. -1.
         11   -1    0    0    0    0 -0.00000000000E+00 -0.00000000000E+00 -0.45593999997E+02  0.45594000000E+02  0.51100000000E-03 0.  1.
    9900012    2    1    2    0    0 -0.23886369628E+01  0.29077628214E+02  0.32131132193E+02  0.47787266077E+02  0.19999977349E+02 0.  0.
        -12    1    1    2    0    0  0.23886369628E+01 -0.29077628214E+02 -0.32131132193E+02  0.43400733923E+02  0.00000000000E+00 0.  1.
         11    1    3    3    0    0 -0.77331294800E+01  0.85427928171E+01  0.10318663960E+02  0.15467883722E+02  0.51100000000E-03 0. -1.
        -11    1    3    3    0    0  0.81421617782E+01  0.10207513288E+02  0.10569147216E+02  0.16798660633E+02  0.51100000000E-03 0.  1.
        -12    1    3    3    0    0 -0.27976692610E+01  0.10327322109E+02  0.11243321018E+02  0.15520721721E+02  0.00000000000E+00 0.  1.
</event>
<event>
 7    1  0.2950722E-010  0.4778727E+02  0.7816164E-02  0.1312668E+00
        -11   -1    0    0    0    0  0.00000000000E+00  0.00000000000E+00  0.45593999997E+02  0.45594000000E+02  0.51100000000E-03 0.  1.
         11   -1    0    0    0    0 -0.00000000000E+00 -0.00000000000E+00 -0.45593999997E+02  0.45594000000E+02  0.51100000000E-03 0. -1.
    9900012    2    1    2    0    0  0.40802666517E+02 -0.83114760008E+00  0.14767354901E+02  0.47787272219E+02  0.20000005353E+02 0.  0.
        -12    1    1    2    0    0 -0.40802666517E+02  0.83114760008E+00 -0.14767354901E+02  0.43400727781E+02  0.00000000000E+00 0.  1.
         11    1    3    3    0    0  0.13387966597E+02 -0.43092593387E+01  0.35747115057E+01  0.14511579110E+02  0.51100000000E-03 0. -1.
        -11    1    3    3    0    0  0.47555109723E+01  0.65781315454E+01  0.80483765292E+00  0.81568660124E+01  0.51100000000E-03 0.  1.
        -12    1    3    3    0    0  0.22659188947E+02 -0.31000198068E+01  0.10387805742E+02  0.25118827096E+02  0.00000000000E+00 0.  1.
</event>
<event>
 7    1  0.2950722E-010  0.4778727E+02  0.7816164E-02  0.1312668E+00
        -11   -1    0    0    0    0  0.00000000000E+00  0.00000000000E+00  0.45593999997E+02  0.45594000000E+02  0.51100000000E-03 0.  1.
         11   -1    0    0    0    0 -0.00000000000E+00 -0.00000000000E+00 -0.45593999997E+02  0.45594000000E+02  0.51100000000E-03 0. -1.
    9900012    2    1    2    0    0 -0.18974659055E+02 -0.17672361976E+02 -0.34803352518E+02  0.47787269469E+02  0.19999992818E+02 0.  0.
        -12    1    1    2    0    0  0.18974659055E+02  0.17672361976E+02  0.34803352518E+02  0.43400730531E+02  0.00000000000E+00 0.  1.
         11    1    3    3    0    0 -0.13871066104E+02 -0.19971086075E+02 -0.20821436925E+02  0.32012231877E+02  0.51100000000E-03 0. -1.
        -11    1    3    3    0    0 -0.72857830635E+00  0.25634070995E+01 -0.74189013646E+01  0.78830184590E+01  0.51100000000E-03 0.  1.
         12    1    3    3    0    0 -0.43750146449E+01 -0.26468300127E+00 -0.65630142282E+01  0.78920191329E+01  0.00000000000E+00 0. -1.
</event>
<event>
 7    1  0.2950722E-010  0.4778728E+02  0.7816164E-02  0.1312668E+00
        -11   -1    0    0    0    0  0.00000000000E+00  0.00000000000E+00  0.45593999997E+02  0.45594000000E+02  0.51100000000E-03 0. -1.
         11   -1    0    0    0    0 -0.00000000000E+00 -0.00000000000E+00 -0.45593999997E+02  0.45594000000E+02  0.51100000000E-03 0.  1.
    9900012    2    1    2    0    0 -0.41849832678E+02 -0.56971993806E+01  0.99878032120E+01  0.47787276631E+02  0.20000025471E+02 0.  0.
        -12    1    1    2    0    0  0.41849832678E+02  0.56971993806E+01 -0.99878032120E+01  0.43400723369E+02  0.00000000000E+00 0.  1.
         11    1    3    3    0    0 -0.26875882445E+02  0.21577470745E+01  0.13444342481E+02  0.30128379887E+02  0.51100000000E-03 0. -1.
        -11    1    3    3    0    0 -0.57747632129E+01 -0.35797963859E+01 -0.32035187193E+01  0.75116818873E+01  0.51100000000E-03 0.  1.
         12    1    3    3    0    0 -0.91991870201E+01 -0.42751500692E+01 -0.25302054963E+00  0.10147214856E+02  0.00000000000E+00 0. -1.
</event>
<event>
 7    1  0.2950722E-010  0.4778727E+02  0.7816164E-02  0.1312668E+00
        -11   -1    0    0    0    0  0.00000000000E+00  0.00000000000E+00  0.45593999997E+02  0.45594000000E+02  0.51100000000E-03 0.  1.
         11   -1    0    0    0    0 -0.00000000000E+00 -0.00000000000E+00 -0.45593999997E+02  0.45594000000E+02  0.51100000000E-03 0. -1.
    9900012    2    1    2    0    0  0.22039936132E+02  0.36940629729E+02 -0.57666548007E+01  0.47787271699E+02  0.20000002983E+02 0.  0.
        -12    1    1    2    0    0 -0.22039936132E+02 -0.36940629729E+02  0.57666548007E+01  0.43400728301E+02  0.00000000000E+00 0.  1.
         11    1    3    3    0    0  0.13715562142E+02  0.30714613725E+02 -0.11295110523E+02  0.35483568918E+02  0.51100000000E-03 0. -1.
        -11    1    3    3    0    0 -0.89570718760E-01 -0.18848672964E+00  0.59364569541E+00  0.62925800250E+00  0.51100000000E-03 0.  1.
         12    1    3    3    0    0  0.84139447085E+01  0.64145027341E+01  0.49348100273E+01  0.11674444779E+02  0.00000000000E+00 0. -1.
</event>
<event>
 7    1  0.2950722E-010  0.4778728E+02  0.7816164E-02  0.1312668E+00
        -11   -1    0    0    0    0  0.00000000000E+00  0.00000000000E+00  0.45593999997E+02  0.45594000000E+02  0.51100000000E-03 0.  1.
         11   -1    0    0    0    0 -0.00000000000E+00 -0.00000000000E+00 -0.45593999997E+02  0.45594000000E+02  0.51100000000E-03 0. -1.
    9900012    2    1    2    0    0 -0.21451772233E+02  0.37722043007E+02 -0.70115496868E+00  0.47787277900E+02  0.20000031257E+02 0.  0.
        -12    1    1    2    0    0  0.21451772233E+02 -0.37722043007E+02  0.70115496868E+00  0.43400722100E+02  0.00000000000E+00 0.  1.
         11    1    3    3    0    0 -0.19132071958E+02  0.22053850213E+02 -0.73778382962E+01  0.30113800571E+02  0.51100000000E-03 0. -1.
        -11    1    3    3    0    0 -0.29372821295E+01  0.80290892045E+01  0.47103863287E+01  0.97612314484E+01  0.51100000000E-03 0.  1.
         12    1    3    3    0    0  0.61758185492E+00  0.76391035888E+01  0.19662969989E+01  0.79122458806E+01  0.00000000000E+00 0. -1.
</event>
<event>
 7    1  0.2950722E-010  0.4778727E+02  0.7816164E-02  0.1312668E+00
        -11   -1    0    0    0    0  0.00000000000E+00  0.00000000000E+00  0.45593999997E+02  0.45594000000E+02  0.51100000000E-03 0.  1.
         11   -1    0    0    0    0 -0.00000000000E+00 -0.00000000000E+00 -0.45593999997E+02  0.45594000000E+02  0.51100000000E-03 0. -1.
    9900012    2    1    2    0    0  0.48712302951E+01  0.25116215679E+02 -0.35058093450E+02  0.47787273152E+02  0.20000009607E+02 0.  0.
        -12    1    1    2    0    0 -0.48712302951E+01 -0.25116215679E+02  0.35058093450E+02  0.43400726848E+02  0.00000000000E+00 0.  1.
         11    1    3    3    0    0  0.13500597062E+01  0.32066914201E+01 -0.29162574651E+01  0.45398335804E+01  0.51100000000E-03 0. -1.
        -11    1    3    3    0    0  0.54394940155E+01  0.19220723276E+02 -0.13023963100E+02  0.23846339624E+02  0.51100000000E-03 0.  1.
         12    1    3    3    0    0 -0.19183234266E+01  0.26888009829E+01 -0.19117872885E+02  0.19401099947E+02  0.00000000000E+00 0. -1.
</event>
<event>
 7    1  0.2950722E-010  0.4778722E+02  0.7816164E-02  0.1312668E+00
        -11   -1    0    0    0    0  0.00000000000E+00  0.00000000000E+00  0.45593999997E+02  0.45594000000E+02  0.51100000000E-03 0.  1.
         11   -1    0    0    0    0 -0.00000000000E+00 -0.00000000000E+00 -0.45593999997E+02  0.45594000000E+02  0.51100000000E-03 0. -1.
    9900012    2    1    2    0    0 -0.26086552482E+02 -0.15754014855E+01 -0.34650219836E+02  0.47787218384E+02  0.19999759897E+02 0.  0.
        -12    1    1    2    0    0  0.26086552482E+02  0.15754014855E+01  0.34650219836E+02  0.43400781616E+02  0.00000000000E+00 0.  1.
         11    1    3    3    0    0 -0.22242001538E+00  0.13561435267E+01 -0.10337422331E+02  0.10428369797E+02  0.51100000000E-03 0. -1.
        -11    1    3    3    0    0 -0.26078295436E+02 -0.71782799587E+00 -0.22980293935E+02  0.34766171481E+02  0.51100000000E-03 0.  1.
        -12    1    3    3    0    0  0.21416296922E+00 -0.22137170163E+01 -0.13325035703E+01  0.25926771050E+01  0.00000000000E+00 0.  1.
</event>
<event>
 7    1  0.2950722E-010  0.4778727E+02  0.7816164E-02  0.1312668E+00
        -11   -1    0    0    0    0  0.00000000000E+00  0.00000000000E+00  0.45593999997E+02  0.45594000000E+02  0.51100000000E-03 0.  1.
         11   -1    0    0    0    0 -0.00000000000E+00 -0.00000000000E+00 -0.45593999997E+02  0.45594000000E+02  0.51100000000E-03 0. -1.
    9900012    2    1    2    0    0  0.30884242547E+02  0.23565966583E+02 -0.19350241598E+02  0.47787273409E+02  0.20000010782E+02 0.  0.
        -12    1    1    2    0    0 -0.30884242547E+02 -0.23565966583E+02  0.19350241598E+02  0.43400726591E+02  0.00000000000E+00 0.  1.
         11    1    3    3    0    0  0.67321248441E+00  0.18668736077E+01 -0.26119716159E+01  0.32803701163E+01  0.51100000000E-03 0. -1.
        -11    1    3    3    0    0  0.10470395491E+02  0.16335945436E+02 -0.24561245142E+01  0.19558242327E+02  0.51100000000E-03 0.  1.
        -12    1    3    3    0    0  0.19740634572E+02  0.53631475392E+01 -0.14282145468E+02  0.24948660966E+02  0.00000000000E+00 0.  1.
</event>
<event>
 7    1  0.2950722E-010  0.4778727E+02  0.7816164E-02  0.1312668E+00
        -11   -1    0    0    0    0  0.00000000000E+00  0.00000000000E+00  0.45593999997E+02  0.45594000000E+02  0.51100000000E-03 0. -1.
         11   -1    0    0    0    0 -0.00000000000E+00 -0.00000000000E+00 -0.45593999997E+02  0.45594000000E+02  0.51100000000E-03 0.  1.
    9900012    2    1    2    0    0  0.25879506181E+02  0.22284698662E+02 -0.26781836622E+02  0.47787269505E+02  0.19999992983E+02 0.  0.
        -12    1    1    2    0    0 -0.25879506181E+02 -0.22284698662E+02  0.26781836622E+02  0.43400730495E+02  0.00000000000E+00 0.  1.
         11    1    3    3    0    0  0.16723138458E+02  0.13210176748E+02 -0.18838377279E+02  0.28443920060E+02  0.51100000000E-03 0. -1.
        -11    1    3    3    0    0 -0.13982122605E+01  0.27390839269E+01  0.18710081396E+01  0.35997569368E+01  0.51100000000E-03 0.  1.
        -12    1    3    3    0    0  0.10554579984E+02  0.63354379866E+01 -0.98144674825E+01  0.15743592509E+02  0.00000000000E+00 0.  1.
</event>
<event>
 7    1  0.2950722E-010  0.4778727E+02  0.7816164E-02  0.1312668E+00
        -11   -1    0    0    0    0  0.00000000000E+00  0.00000000000E+00  0.45593999997E+02  0.45594000000E+02  0.51100000000E-03 0.  1.
         11   -1    0    0    0    0 -0.00000000000E+00 -0.00000000000E+00 -0.45593999997E+02  0.45594000000E+02  0.51100000000E-03 0. -1.
    9900012    2    1    2    0    0 -0.41314525841E+02  0.61373947430E+01 -0.11792604625E+02  0.47787272085E+02  0.20000004744E+02 0.  0.
        -12    1    1    2    0    0  0.41314525841E+02 -0.61373947430E+01  0.11792604625E+02  0.43400727915E+02  0.00000000000E+00 0.  1.
         11    1    3    3    0    0 -0.35071366565E+02  0.89108440677E+01 -0.65323277268E+01  0.36770575199E+02  0.51100000000E-03 0. -1.
        -11    1    3    3    0    0 -0.60669060768E+01 -0.47228859135E+01 -0.38110674642E+01  0.85812141434E+01  0.51100000000E-03 0.  1.
        -12    1    3    3    0    0 -0.17625319986E+00  0.19494365888E+01 -0.14492094339E+01  0.24354827422E+01  0.00000000000E+00 0.  1.
</event>
<event>
 7    1  0.2950722E-010  0.4778723E+02  0.7816164E-02  0.1312668E+00
        -11   -1    0    0    0    0  0.00000000000E+00  0.00000000000E+00  0.45593999997E+02  0.45594000000E+02  0.51100000000E-03 0.  1.
         11   -1    0    0    0    0 -0.00000000000E+00 -0.00000000000E+00 -0.45593999997E+02  0.45594000000E+02  0.51100000000E-03 0. -1.
    9900012    2    1    2    0    0  0.11118016834E+02  0.39039331436E+02 -0.15360574881E+02  0.47787228602E+02  0.19999806485E+02 0.  0.
        -12    1    1    2    0    0 -0.11118016834E+02 -0.39039331436E+02  0.15360574881E+02  0.43400771398E+02  0.00000000000E+00 0.  1.
         11    1    3    3    0    0 -0.20507305968E+01  0.11658224970E+02  0.22664150757E+01  0.12052233941E+02  0.51100000000E-03 0. -1.
        -11    1    3    3    0    0  0.31213273968E+01  0.11007087876E+02 -0.95188242937E+01  0.14883100632E+02  0.51100000000E-03 0.  1.
         12    1    3    3    0    0  0.10047420034E+02  0.16374018591E+02 -0.81081656631E+01  0.20851894028E+02  0.00000000000E+00 0. -1.
</event>
<event>
 7    1  0.2950722E-010  0.4778728E+02  0.7816164E-02  0.1312668E+00
        -11   -1    0    0    0    0  0.00000000000E+00  0.00000000000E+00  0.45593999997E+02  0.45594000000E+02  0.51100000000E-03 0.  1.
         11   -1    0    0    0    0 -0.00000000000E+00 -0.00000000000E+00 -0.45593999997E+02  0.45594000000E+02  0.51100000000E-03 0. -1.
    9900012    2    1    2    0    0  0.13800544913E+02 -0.87588397718E+01 -0.40205105617E+02  0.47787276138E+02  0.20000023224E+02 0.  0.
        -12    1    1    2    0    0 -0.13800544913E+02  0.87588397718E+01  0.40205105617E+02  0.43400723862E+02  0.00000000000E+00 0.  1.
         11    1    3    3    0    0 -0.35981590126E+01  0.50534306974E+00 -0.13302234005E+02  0.13789544941E+02  0.51100000000E-03 0. -1.
        -11    1    3    3    0    0  0.97867764052E+01 -0.39541419851E+01 -0.91673766074E+01  0.13980594600E+02  0.51100000000E-03 0.  1.
         12    1    3    3    0    0  0.76119275203E+01 -0.53100408565E+01 -0.17735495005E+02  0.20017136597E+02  0.00000000000E+00 0. -1.
</event>
<event>
 7    1  0.2950722E-010  0.4778727E+02  0.7816164E-02  0.1312668E+00
        -11   -1    0    0    0    0  0.00000000000E+00  0.00000000000E+00  0.45593999997E+02  0.45594000000E+02  0.51100000000E-03 0. -1.
         11   -1    0    0    0    0 -0.00000000000E+00 -0.00000000000E+00 -0.45593999997E+02  0.45594000000E+02  0.51100000000E-03 0.  1.
    9900012    2    1    2    0    0  0.38471701862E+02  0.14249287354E+02  0.14160136539E+02  0.47787268427E+02  0.19999988066E+02 0.  0.
        -12    1    1    2    0    0 -0.38471701862E+02 -0.14249287354E+02 -0.14160136539E+02  0.43400731573E+02  0.00000000000E+00 0.  1.
         11    1    3    3    0    0  0.16742665225E+02  0.72302511477E+01 -0.10630329834E+01  0.18268098146E+02  0.51100000000E-03 0. -1.
        -11    1    3    3    0    0  0.38352291239E+01  0.32177542664E+01  0.88125954540E+01  0.10135322582E+02  0.51100000000E-03 0.  1.
        -12    1    3    3    0    0  0.17893807513E+02  0.38012819395E+01  0.64105740683E+01  0.19383847698E+02  0.00000000000E+00 0.  1.
</event>
<event>
 7    1  0.2950722E-010  0.4778727E+02  0.7816164E-02  0.1312668E+00
        -11   -1    0    0    0    0  0.00000000000E+00  0.00000000000E+00  0.45593999997E+02  0.45594000000E+02  0.51100000000E-03 0.  1.
         11   -1    0    0    0    0 -0.00000000000E+00 -0.00000000000E+00 -0.45593999997E+02  0.45594000000E+02  0.51100000000E-03 0. -1.
    9900012    2    1    2    0    0  0.22433593944E+02 -0.23110202491E+02 -0.29090820019E+02  0.47787269525E+02  0.19999993070E+02 0.  0.
        -12    1    1    2    0    0 -0.22433593944E+02  0.23110202491E+02  0.29090820019E+02  0.43400730475E+02  0.00000000000E+00 0.  1.
         11    1    3    3    0    0  0.43941711254E+00 -0.92506571939E+01 -0.20086867700E+01  0.94764217255E+01  0.51100000000E-03 0. -1.
        -11    1    3    3    0    0  0.11030091849E+02 -0.25557792083E+01 -0.10477914908E+02  0.15426653384E+02  0.51100000000E-03 0.  1.
         12    1    3    3    0    0  0.10964084983E+02 -0.11303766088E+02 -0.16604218341E+02  0.22884194415E+02  0.00000000000E+00 0. -1.
</event>
<event>
 7    1  0.2950722E-010  0.4778727E+02  0.7816164E-02  0.1312668E+00
        -11   -1    0    0    0    0  0.00000000000E+00  0.00000000000E+00  0.45593999997E+02  0.45594000000E+02  0.51100000000E-03 0.  1.
         11   -1    0    0    0    0 -0.00000000000E+00 -0.00000000000E+00 -0.45593999997E+02  0.45594000000E+02  0.51100000000E-03 0. -1.
    9900012    2    1    2    0    0  0.24837276364E+02  0.13466722485E+02 -0.32945110191E+02  0.47787271928E+02  0.20000004030E+02 0.  0.
        -12    1    1    2    0    0 -0.24837276364E+02 -0.13466722485E+02  0.32945110191E+02  0.43400728072E+02  0.00000000000E+00 0.  1.
         11    1    3    3    0    0  0.13567450153E+02  0.76987064924E+01 -0.16397499298E+02  0.22632361097E+02  0.51100000000E-03 0. -1.
        -11    1    3    3    0    0  0.14455925574E+02  0.32837700242E+01 -0.13921385521E+02  0.20336221499E+02  0.51100000000E-03 0.  1.
        -12    1    3    3    0    0 -0.31860993631E+01  0.24842459683E+01 -0.26262253715E+01  0.48186893327E+01  0.00000000000E+00 0.  1.
</event>
<event>
 7    1  0.2950722E-010  0.4778724E+02  0.7816164E-02  0.1312668E+00
        -11   -1    0    0    0    0  0.00000000000E+00  0.00000000000E+00  0.45593999997E+02  0.45594000000E+02  0.51100000000E-03 0.  1.
         11   -1    0    0    0    0 -0.00000000000E+00 -0.00000000000E+00 -0.45593999997E+02  0.45594000000E+02  0.51100000000E-03 0. -1.
    9900012    2    1    2    0    0 -0.22758779695E+02  0.25553607100E+02 -0.26696009920E+02  0.47787241543E+02  0.19999865492E+02 0.  0.
        -12    1    1    2    0    0  0.22758779695E+02 -0.25553607100E+02  0.26696009920E+02  0.43400758457E+02  0.00000000000E+00 0.  1.
         11    1    3    3    0    0 -0.44649700392E+01  0.57391660456E-01 -0.89515132049E+01  0.10003441416E+02  0.51100000000E-03 0. -1.
        -11    1    3    3    0    0 -0.18900066891E+02  0.18889945973E+02 -0.14390895406E+02  0.30350295850E+02  0.51100000000E-03 0.  1.
        -12    1    3    3    0    0  0.60625723523E+00  0.66062694663E+01 -0.33536013093E+01  0.74335042771E+01  0.00000000000E+00 0.  1.
</event>
<event>
 7    1  0.2950722E-010  0.4778724E+02  0.7816164E-02  0.1312668E+00
        -11   -1    0    0    0    0  0.00000000000E+00  0.00000000000E+00  0.45593999997E+02  0.45594000000E+02  0.51100000000E-03 0.  1.
         11   -1    0    0    0    0 -0.00000000000E+00 -0.00000000000E+00 -0.45593999997E+02  0.45594000000E+02  0.51100000000E-03 0. -1.
    9900012    2    1    2    0    0 -0.13626197167E+01  0.37712619589E+02 -0.21436588282E+02  0.47787242796E+02  0.19999871202E+02 0.  0.
        -12    1    1    2    0    0  0.13626197167E+01 -0.37712619589E+02  0.21436588282E+02  0.43400757204E+02  0.00000000000E+00 0.  1.
         11    1    3    3    0    0 -0.69317574933E+01  0.24649067279E+02 -0.10213839474E+02  0.27567159751E+02  0.51100000000E-03 0. -1.
        -11    1    3    3    0    0 -0.19787557785E+00 -0.81781210871E+00  0.65152348740E+00  0.10641684572E+01  0.51100000000E-03 0.  1.
         12    1    3    3    0    0  0.57670133544E+01  0.13881364419E+02 -0.11874272295E+02  0.19155914588E+02  0.00000000000E+00 0. -1.
</event>
<event>
 7    1  0.2950722E-010  0.4778727E+02  0.7816164E-02  0.1312668E+00
        -11   -1    0    0    0    0  0.00000000000E+00  0.00000000000E+00  0.45593999997E+02  0.45594000000E+02  0.51100000000E-03 0.  1.
         11   -1    0    0    0    0 -0.00000000000E+00 -0.00000000000E+00 -0.45593999997E+02  0.45594000000E+02  0.51100000000E-03 0. -1.
    9900012    2    1    2    0    0 -0.49871150584E+01 -0.87100584484E+01 -0.42224244136E+02  0.47787271577E+02  0.20000002428E+02 0.  0.
        -12    1    1    2    0    0  0.49871150584E+01  0.87100584484E+01  0.42224244136E+02  0.43400728423E+02  0.00000000000E+00 0.  1.
         11    1    3    3    0    0 -0.20712879787E+01  0.47478586744E+01 -0.25303780211E+02  0.25828544076E+02  0.51100000000E-03 0. -1.
        -11    1    3    3    0    0 -0.29735062438E+00 -0.64712643482E+01 -0.88517705294E+01  0.10969025546E+02  0.51100000000E-03 0.  1.
         12    1    3    3    0    0 -0.26184764553E+01 -0.69866527747E+01 -0.80686933959E+01  0.10989701955E+02  0.00000000000E+00 0. -1.
</event>
<event>
 7    1  0.2950722E-010  0.4778727E+02  0.7816164E-02  0.1312668E+00
        -11   -1    0    0    0    0  0.00000000000E+00  0.00000000000E+00  0.45593999997E+02  0.45594000000E+02  0.51100000000E-03 0. -1.
         11   -1    0    0    0    0 -0.00000000000E+00 -0.00000000000E+00 -0.45593999997E+02  0.45594000000E+02  0.51100000000E-03 0.  1.
    9900012    2    1    2    0    0 -0.39089036904E+02 -0.15621147735E+02  0.10566459006E+02  0.47787272834E+02  0.20000008158E+02 0.  0.
        -12    1    1    2    0    0  0.39089036904E+02  0.15621147735E+02 -0.10566459006E+02  0.43400727166E+02  0.00000000000E+00 0.  1.
         11    1    3    3    0    0 -0.11994099518E+02  0.58196339761E+00  0.95047441687E+01  0.15314609581E+02  0.51100000000E-03 0. -1.
        -11    1    3    3    0    0 -0.19530648740E+02 -0.75138892752E+01  0.10437370314E+01  0.20952187464E+02  0.51100000000E-03 0.  1.
         12    1    3    3    0    0 -0.75642886454E+01 -0.86892218579E+01  0.17977805835E-01  0.11520475789E+02  0.00000000000E+00 0. -1.
</event>
<event>
 7    1  0.2950722E-010  0.4778725E+02  0.7816164E-02  0.1312668E+00
        -11   -1    0    0    0    0  0.00000000000E+00  0.00000000000E+00  0.45593999997E+02  0.45594000000E+02  0.51100000000E-03 0.  1.
         11   -1    0    0    0    0 -0.00000000000E+00 -0.00000000000E+00 -0.45593999997E+02  0.45594000000E+02  0.51100000000E-03 0. -1.
    9900012    2    1    2    0    0 -0.38071545830E+02  0.16779143726E+02  0.12354873513E+02  0.47787249251E+02  0.19999900633E+02 0.  0.
        -12    1    1    2    0    0  0.38071545830E+02 -0.16779143726E+02 -0.12354873513E+02  0.43400750749E+02  0.00000000000E+00 0.  1.
         11    1    3    3    0    0 -0.21871386201E+01  0.22610632123E+01 -0.49847402842E+00  0.31850367049E+01  0.51100000000E-03 0. -1.
        -11    1    3    3    0    0 -0.81120858961E+01 -0.25461802888E+01  0.79491058242E+01  0.11639469718E+02  0.51100000000E-03 0.  1.
        -12    1    3    3    0    0 -0.27772321314E+02  0.17064260802E+02  0.49042417175E+01  0.32962742828E+02  0.00000000000E+00 0.  1.
</event>
<event>
 7    1  0.2950722E-010  0.4778727E+02  0.7816164E-02  0.1312668E+00
        -11   -1    0    0    0    0  0.00000000000E+00  0.00000000000E+00  0.45593999997E+02  0.45594000000E+02  0.51100000000E-03 0.  1.
         11   -1    0    0    0    0 -0.00000000000E+00 -0.00000000000E+00 -0.45593999997E+02  0.45594000000E+02  0.51100000000E-03 0. -1.
    9900012    2    1    2    0    0  0.49366035285E+01  0.74447875294E+01 -0.42471500601E+02  0.47787270984E+02  0.19999999726E+02 0.  0.
        -12    1    1    2    0    0 -0.49366035285E+01 -0.74447875294E+01  0.42471500601E+02  0.43400729016E+02  0.00000000000E+00 0.  1.
         11    1    3    3    0    0  0.23453058691E+01  0.79670031407E+01 -0.25412939000E+02  0.26735576813E+02  0.51100000000E-03 0. -1.
        -11    1    3    3    0    0  0.24315641207E+01 -0.20137217371E+01  0.69676219687E+00  0.32331187927E+01  0.51100000000E-03 0.  1.
        -12    1    3    3    0    0  0.15973353869E+00  0.14915061258E+01 -0.17755323798E+02  0.17818575378E+02  0.00000000000E+00 0.  1.
</event>
<event>
 7    1  0.2950722E-010  0.4778728E+02  0.7816164E-02  0.1312668E+00
        -11   -1    0    0    0    0  0.00000000000E+00  0.00000000000E+00  0.45593999997E+02  0.45594000000E+02  0.51100000000E-03 0. -1.
         11   -1    0    0    0    0 -0.00000000000E+00 -0.00000000000E+00 -0.45593999997E+02  0.45594000000E+02  0.51100000000E-03 0.  1.
    9900012    2    1    2    0    0  0.27003358254E+02  0.29720498751E+02 -0.16466126607E+02  0.47787277328E+02  0.20000028650E+02 0.  0.
        -12    1    1    2    0    0 -0.27003358254E+02 -0.29720498751E+02  0.16466126607E+02  0.43400722672E+02  0.00000000000E+00 0.  1.
         11    1    3    3    0    0  0.28163678143E+01 -0.13203474508E+01  0.11956731802E+01  0.33323984863E+01  0.51100000000E-03 0. -1.
        -11    1    3    3    0    0  0.22401069815E+02  0.31749272133E+02 -0.17103260321E+02  0.42454042489E+02  0.51100000000E-03 0.  1.
        -12    1    3    3    0    0  0.17859206240E+01 -0.70842593065E+00 -0.55853946642E+00  0.20008363526E+01  0.00000000000E+00 0.  1.
</event>
<event>
 7    1  0.2950722E-010  0.4778727E+02  0.7816164E-02  0.1312668E+00
        -11   -1    0    0    0    0  0.00000000000E+00  0.00000000000E+00  0.45593999997E+02  0.45594000000E+02  0.51100000000E-03 0. -1.
         11   -1    0    0    0    0 -0.00000000000E+00 -0.00000000000E+00 -0.45593999997E+02  0.45594000000E+02  0.51100000000E-03 0.  1.
    9900012    2    1    2    0    0  0.10566523412E+02  0.31589791309E+02  0.27821876190E+02  0.47787272740E+02  0.20000007731E+02 0.  0.
        -12    1    1    2    0    0 -0.10566523412E+02 -0.31589791309E+02 -0.27821876190E+02  0.43400727260E+02  0.00000000000E+00 0.  1.
         11    1    3    3    0    0  0.41056542958E+01  0.88670705287E+01  0.17053966346E+02  0.19655002044E+02  0.51100000000E-03 0. -1.
        -11    1    3    3    0    0  0.15143829488E+01  0.19995897829E+02  0.65953173415E+01  0.21109890971E+02  0.51100000000E-03 0.  1.
        -12    1    3    3    0    0  0.49464861674E+01  0.27268229515E+01  0.41725925018E+01  0.70223797249E+01  0.00000000000E+00 0.  1.
</event>
<event>
 7    1  0.2950722E-010  0.4778727E+02  0.7816164E-02  0.1312668E+00
        -11   -1    0    0    0    0  0.00000000000E+00  0.00000000000E+00  0.45593999997E+02  0.45594000000E+02  0.51100000000E-03 0.  1.
         11   -1    0    0    0    0 -0.00000000000E+00 -0.00000000000E+00 -0.45593999997E+02  0.45594000000E+02  0.51100000000E-03 0. -1.
    9900012    2    1    2    0    0 -0.39332632219E+02 -0.99602694665E+01 -0.15406506520E+02  0.47787269957E+02  0.19999995040E+02 0.  0.
        -12    1    1    2    0    0  0.39332632219E+02  0.99602694665E+01  0.15406506520E+02  0.43400730043E+02  0.00000000000E+00 0.  1.
         11    1    3    3    0    0 -0.36097862401E+01 -0.35925018400E+01 -0.81916473397E+01  0.96457095420E+01  0.51100000000E-03 0.  1.
        -11    1    3    3    0    0 -0.26723038952E+02 -0.28604603178E+01 -0.89522520610E+01  0.28327475378E+02  0.51100000000E-03 0. -1.
         12    1    3    3    0    0 -0.89998070274E+01 -0.35073073087E+01  0.17373928804E+01  0.98140850368E+01  0.00000000000E+00 0. -1.
</event>
<event>
 7    1  0.2950722E-010  0.4778727E+02  0.7816164E-02  0.1312668E+00
        -11   -1    0    0    0    0  0.00000000000E+00  0.00000000000E+00  0.45593999997E+02  0.45594000000E+02  0.51100000000E-03 0. -1.
         11   -1    0    0    0    0 -0.00000000000E+00 -0.00000000000E+00 -0.45593999997E+02  0.45594000000E+02  0.51100000000E-03 0.  1.
    9900012    2    1    2    0    0  0.20668173662E+02  0.35191627588E+02  0.14764799624E+02  0.47787270020E+02  0.19999995331E+02 0.  0.
        -12    1    1    2    0    0 -0.20668173662E+02 -0.35191627588E+02 -0.14764799624E+02  0.43400729980E+02  0.00000000000E+00 0.  1.
         11    1    3    3    0    0  0.27249237503E+01  0.69363252784E+01  0.64312600360E+01  0.98437250940E+01  0.51100000000E-03 0. -1.
        -11    1    3    3    0    0 -0.79133642214E-01  0.65359707390E+00  0.47379775357E+01  0.47835010880E+01  0.51100000000E-03 0.  1.
        -12    1    3    3    0    0  0.18022383554E+02  0.27601705236E+02  0.35955620525E+01  0.33160043838E+02  0.00000000000E+00 0.  1.
</event>
<event>
 7    1  0.2950722E-010  0.4778727E+02  0.7816164E-02  0.1312668E+00
        -11   -1    0    0    0    0  0.00000000000E+00  0.00000000000E+00  0.45593999997E+02  0.45594000000E+02  0.51100000000E-03 0. -1.
         11   -1    0    0    0    0 -0.00000000000E+00 -0.00000000000E+00 -0.45593999997E+02  0.45594000000E+02  0.51100000000E-03 0.  1.
    9900012    2    1    2    0    0 -0.42735631857E+02  0.75576280114E+01  0.41384986380E+00  0.47787271399E+02  0.20000001616E+02 0.  0.
        -12    1    1    2    0    0  0.42735631857E+02 -0.75576280114E+01 -0.41384986380E+00  0.43400728601E+02  0.00000000000E+00 0.  1.
         11    1    3    3    0    0 -0.18928695080E+02  0.44122712155E+01 -0.46365900940E+01  0.19981531539E+02  0.51100000000E-03 0. -1.
        -11    1    3    3    0    0 -0.25428116864E+02  0.27684826227E+01  0.41483641978E+01  0.25912594410E+02  0.51100000000E-03 0.  1.
        -12    1    3    3    0    0  0.16211800865E+01  0.37687417325E+00  0.90207575998E+00  0.18931454493E+01  0.00000000000E+00 0.  1.
</event>
<event>
 7    1  0.2950722E-010  0.4778727E+02  0.7816164E-02  0.1312668E+00
        -11   -1    0    0    0    0  0.00000000000E+00  0.00000000000E+00  0.45593999997E+02  0.45594000000E+02  0.51100000000E-03 0.  1.
         11   -1    0    0    0    0 -0.00000000000E+00 -0.00000000000E+00 -0.45593999997E+02  0.45594000000E+02  0.51100000000E-03 0. -1.
    9900012    2    1    2    0    0  0.17921693730E+02  0.12204467260E+02 -0.37596370512E+02  0.47787271861E+02  0.20000003725E+02 0.  0.
        -12    1    1    2    0    0 -0.17921693730E+02 -0.12204467260E+02  0.37596370512E+02  0.43400728139E+02  0.00000000000E+00 0.  1.
         11    1    3    3    0    0 -0.78724650603E+00  0.18974837582E+01 -0.15872255090E+02  0.16004645687E+02  0.51100000000E-03 0. -1.
        -11    1    3    3    0    0  0.85401638922E+01  0.77361196834E+01 -0.63079456626E+01  0.13136671032E+02  0.51100000000E-03 0.  1.
        -12    1    3    3    0    0  0.10168776344E+02  0.25708638187E+01 -0.15416169760E+02  0.18645955142E+02  0.00000000000E+00 0.  1.
</event>
<event>
 7    1  0.2950722E-010  0.4778727E+02  0.7816164E-02  0.1312668E+00
        -11   -1    0    0    0    0  0.00000000000E+00  0.00000000000E+00  0.45593999997E+02  0.45594000000E+02  0.51100000000E-03 0.  1.
         11   -1    0    0    0    0 -0.00000000000E+00 -0.00000000000E+00 -0.45593999997E+02  0.45594000000E+02  0.51100000000E-03 0. -1.
    9900012    2    1    2    0    0  0.39706068627E+02  0.25896245679E+01 -0.17330464030E+02  0.47787273915E+02  0.20000013088E+02 0.  0.
        -12    1    1    2    0    0 -0.39706068627E+02 -0.25896245679E+01  0.17330464030E+02  0.43400726085E+02  0.00000000000E+00 0.  1.
         11    1    3    3    0    0  0.13561462439E+02  0.54223169523E+01 -0.91388758848E+01  0.17228866397E+02  0.51100000000E-03 0.  1.
        -11    1    3    3    0    0  0.11634353680E+02 -0.78182394938E+01 -0.27879700142E+01  0.14291809941E+02  0.51100000000E-03 0. -1.
         12    1    3    3    0    0  0.14510252508E+02  0.49855471094E+01 -0.54036181306E+01  0.16266597577E+02  0.00000000000E+00 0. -1.
</event>
<event>
 7    1  0.2950722E-010  0.4778727E+02  0.7816164E-02  0.1312668E+00
        -11   -1    0    0    0    0  0.00000000000E+00  0.00000000000E+00  0.45593999997E+02  0.45594000000E+02  0.51100000000E-03 0.  1.
         11   -1    0    0    0    0 -0.00000000000E+00 -0.00000000000E+00 -0.45593999997E+02  0.45594000000E+02  0.51100000000E-03 0. -1.
    9900012    2    1    2    0    0  0.34552927228E+02 -0.59571116257E+01 -0.25577946519E+02  0.47787270662E+02  0.19999998257E+02 0.  0.
        -12    1    1    2    0    0 -0.34552927228E+02  0.59571116257E+01  0.25577946519E+02  0.43400729338E+02  0.00000000000E+00 0.  1.
         11    1    3    3    0    0  0.44354593751E+01  0.80977282508E+00 -0.41607280811E+01  0.61352009195E+01  0.51100000000E-03 0. -1.
        -11    1    3    3    0    0  0.26290397204E+01 -0.76873134872E+01 -0.61942529887E+01  0.10216428380E+02  0.51100000000E-03 0.  1.
        -12    1    3    3    0    0  0.27488428132E+02  0.92042903637E+00 -0.15222965449E+02  0.31435641362E+02  0.00000000000E+00 0.  1.
</event>
<event>
 7    1  0.2950722E-010  0.4778727E+02  0.7816164E-02  0.1312668E+00
        -11   -1    0    0    0    0  0.00000000000E+00  0.00000000000E+00  0.45593999997E+02  0.45594000000E+02  0.51100000000E-03 0.  1.
         11   -1    0    0    0    0 -0.00000000000E+00 -0.00000000000E+00 -0.45593999997E+02  0.45594000000E+02  0.51100000000E-03 0. -1.
    9900012    2    1    2    0    0 -0.80728688473E+01  0.16013837652E+02 -0.39522259926E+02  0.47787271464E+02  0.20000001914E+02 0.  0.
        -12    1    1    2    0    0  0.80728688473E+01 -0.16013837652E+02  0.39522259926E+02  0.43400728536E+02  0.00000000000E+00 0.  1.
         11    1    3    3    0    0  0.12879233242E+01  0.73422844116E+01 -0.10132149140E+02  0.12578884423E+02  0.51100000000E-03 0. -1.
        -11    1    3    3    0    0  0.33195932615E+01  0.25825606207E+01 -0.25854668860E+01  0.49369988921E+01  0.51100000000E-03 0.  1.
         12    1    3    3    0    0 -0.12680385433E+02  0.60889926196E+01 -0.26804643901E+02  0.30271388149E+02  0.00000000000E+00 0. -1.
</event>
<event>
 7    1  0.2950722E-010  0.4778727E+02  0.7816164E-02  0.1312668E+00
        -11   -1    0    0    0    0  0.00000000000E+00  0.00000000000E+00  0.45593999997E+02  0.45594000000E+02  0.51100000000E-03 0. -1.
         11   -1    0    0    0    0 -0.00000000000E+00 -0.00000000000E+00 -0.45593999997E+02  0.45594000000E+02  0.51100000000E-03 0.  1.
    9900012    2    1    2    0    0 -0.41993013108E+02 -0.65412247233E+01 -0.87990038407E+01  0.47787271442E+02  0.20000001813E+02 0.  0.
        -12    1    1    2    0    0  0.41993013108E+02  0.65412247233E+01  0.87990038407E+01  0.43400728558E+02  0.00000000000E+00 0.  1.
         11    1    3    3    0    0 -0.30537550898E+02  0.10026245535E+01 -0.40550351641E+01  0.30821917223E+02  0.51100000000E-03 0. -1.
        -11    1    3    3    0    0  0.12186382052E+01 -0.16360423451E+01 -0.16976275461E+01  0.26539881644E+01  0.51100000000E-03 0.  1.
         12    1    3    3    0    0 -0.12674100415E+02 -0.59078069318E+01 -0.30463411305E+01  0.14311366055E+02  0.00000000000E+00 0. -1.
</event>
<event>
 7    1  0.2950722E-010  0.4778727E+02  0.7816164E-02  0.1312668E+00
        -11   -1    0    0    0    0  0.00000000000E+00  0.00000000000E+00  0.45593999997E+02  0.45594000000E+02  0.51100000000E-03 0.  1.
         11   -1    0    0    0    0 -0.00000000000E+00 -0.00000000000E+00 -0.45593999997E+02  0.45594000000E+02  0.51100000000E-03 0. -1.
    9900012    2    1    2    0    0  0.22427849618E+02 -0.37087938653E+02 -0.22581884227E+01  0.47787273659E+02  0.20000011919E+02 0.  0.
        -12    1    1    2    0    0 -0.22427849618E+02  0.37087938653E+02  0.22581884227E+01  0.43400726341E+02  0.00000000000E+00 0.  1.
         11    1    3    3    0    0  0.37665302326E+01 -0.17572926277E+02 -0.20001864310E+01  0.18083009538E+02  0.51100000000E-03 0. -1.
        -11    1    3    3    0    0  0.38919868379E+01  0.79290797510E+00 -0.21607492467E+01  0.45216260539E+01  0.51100000000E-03 0.  1.
        -12    1    3    3    0    0  0.14769332547E+02 -0.20307920351E+02  0.19027472550E+01  0.25182638067E+02  0.00000000000E+00 0.  1.
</event>
<event>
 7    1  0.2950722E-010  0.4778727E+02  0.7816164E-02  0.1312668E+00
        -11   -1    0    0    0    0  0.00000000000E+00  0.00000000000E+00  0.45593999997E+02  0.45594000000E+02  0.51100000000E-03 0. -1.
         11   -1    0    0    0    0 -0.00000000000E+00 -0.00000000000E+00 -0.45593999997E+02  0.45594000000E+02  0.51100000000E-03 0.  1.
    9900012    2    1    2    0    0 -0.54541334937E+01 -0.36915587498E+02  0.22161123016E+02  0.47787267911E+02  0.19999985714E+02 0.  0.
        -12    1    1    2    0    0  0.54541334937E+01  0.36915587498E+02 -0.22161123016E+02  0.43400732089E+02  0.00000000000E+00 0.  1.
         11    1    3    3    0    0 -0.40825725385E+01 -0.93603652560E+01  0.10512447533E+02  0.14655899483E+02  0.51100000000E-03 0. -1.
        -11    1    3    3    0    0  0.64326478627E+01 -0.12574318954E+02  0.52689213250E+01  0.15074945701E+02  0.51100000000E-03 0.  1.
        -12    1    3    3    0    0 -0.78042088179E+01 -0.14980903288E+02  0.63797541579E+01  0.18056422728E+02  0.00000000000E+00 0.  1.
</event>
<event>
 7    1  0.2950722E-010  0.4778727E+02  0.7816164E-02  0.1312668E+00
        -11   -1    0    0    0    0  0.00000000000E+00  0.00000000000E+00  0.45593999997E+02  0.45594000000E+02  0.51100000000E-03 0.  1.
         11   -1    0    0    0    0 -0.00000000000E+00 -0.00000000000E+00 -0.45593999997E+02  0.45594000000E+02  0.51100000000E-03 0. -1.
    9900012    2    1    2    0    0 -0.41382660570E+02 -0.12410651662E+02 -0.41321283181E+01  0.47787270110E+02  0.19999995741E+02 0.  0.
        -12    1    1    2    0    0  0.41382660570E+02  0.12410651662E+02  0.41321283181E+01  0.43400729890E+02  0.00000000000E+00 0.  1.
         11    1    3    3    0    0 -0.32641267196E+02 -0.95613695739E+01 -0.59487105988E+01  0.34529107581E+02  0.51100000000E-03 0. -1.
        -11    1    3    3    0    0 -0.91698042946E+01 -0.51729146747E+01  0.47036125319E+00  0.10538766389E+02  0.51100000000E-03 0.  1.
         12    1    3    3    0    0  0.42841092036E+00  0.23236325867E+01  0.13462210275E+01  0.27193961406E+01  0.00000000000E+00 0. -1.
</event>
<event>
 7    1  0.2950722E-010  0.4778727E+02  0.7816164E-02  0.1312668E+00
        -11   -1    0    0    0    0  0.00000000000E+00  0.00000000000E+00  0.45593999997E+02  0.45594000000E+02  0.51100000000E-03 0.  1.
         11   -1    0    0    0    0 -0.00000000000E+00 -0.00000000000E+00 -0.45593999997E+02  0.45594000000E+02  0.51100000000E-03 0. -1.
    9900012    2    1    2    0    0  0.19997354993E+02 -0.15471542439E+02 -0.35275496034E+02  0.47787268986E+02  0.19999990614E+02 0.  0.
        -12    1    1    2    0    0 -0.19997354993E+02  0.15471542439E+02  0.35275496034E+02  0.43400731014E+02  0.00000000000E+00 0.  1.
         11    1    3    3    0    0  0.15586388598E+02  0.29600079544E+00 -0.16121099321E+02  0.22425721161E+02  0.51100000000E-03 0. -1.
        -11    1    3    3    0    0 -0.22954802587E+00 -0.17038793309E+01 -0.29080632098E+01  0.33782730741E+01  0.51100000000E-03 0.  1.
         12    1    3    3    0    0  0.46405144204E+01 -0.14063663904E+02 -0.16246333503E+02  0.21983274751E+02  0.00000000000E+00 0. -1.
</event>
<event>
 7    1  0.2950722E-010  0.4778730E+02  0.7816164E-02  0.1312668E+00
        -11   -1    0    0    0    0  0.00000000000E+00  0.00000000000E+00  0.45593999997E+02  0.45594000000E+02  0.51100000000E-03 0. -1.
         11   -1    0    0    0    0 -0.00000000000E+00 -0.00000000000E+00 -0.45593999997E+02  0.45594000000E+02  0.51100000000E-03 0.  1.
    9900012    2    1    2    0    0 -0.28676642499E+02  0.32034249954E+02  0.59226739917E+01  0.47787296522E+02  0.20000116164E+02 0.  0.
        -12    1    1    2    0    0  0.28676642499E+02 -0.32034249954E+02 -0.59226739917E+01  0.43400703478E+02  0.00000000000E+00 0.  1.
         11    1    3    3    0    0 -0.19265299722E+02  0.23584268364E+02  0.97821840691E+01  0.31985318712E+02  0.51100000000E-03 0. -1.
        -11    1    3    3    0    0 -0.27252963252E+01  0.26492153506E+01 -0.56125631667E+01  0.67783808978E+01  0.51100000000E-03 0.  1.
        -12    1    3    3    0    0 -0.66860464512E+01  0.58007662394E+01  0.17530530893E+01  0.90235969129E+01  0.00000000000E+00 0.  1.
</event>
<event>
 7    1  0.2950722E-010  0.4778727E+02  0.7816164E-02  0.1312668E+00
        -11   -1    0    0    0    0  0.00000000000E+00  0.00000000000E+00  0.45593999997E+02  0.45594000000E+02  0.51100000000E-03 0.  1.
         11   -1    0    0    0    0 -0.00000000000E+00 -0.00000000000E+00 -0.45593999997E+02  0.45594000000E+02  0.51100000000E-03 0. -1.
    9900012    2    1    2    0    0 -0.28272837180E+02 -0.46015800501E+00 -0.32925036770E+02  0.47787272888E+02  0.20000008403E+02 0.  0.
        -12    1    1    2    0    0  0.28272837180E+02  0.46015800501E+00  0.32925036770E+02  0.43400727112E+02  0.00000000000E+00 0.  1.
         11    1    3    3    0    0 -0.17483651842E+02  0.26581749422E+01 -0.11713517265E+02  0.21212035799E+02  0.51100000000E-03 0.  1.
        -11    1    3    3    0    0 -0.15858529035E+01 -0.51860334905E+01 -0.12936510266E+02  0.14027229624E+02  0.51100000000E-03 0. -1.
         12    1    3    3    0    0 -0.92033324347E+01  0.20677005433E+01 -0.82750092390E+01  0.12548007465E+02  0.00000000000E+00 0. -1.
</event>
<event>
 7    1  0.2950722E-010  0.4778727E+02  0.7816164E-02  0.1312668E+00
        -11   -1    0    0    0    0  0.00000000000E+00  0.00000000000E+00  0.45593999997E+02  0.45594000000E+02  0.51100000000E-03 0.  1.
         11   -1    0    0    0    0 -0.00000000000E+00 -0.00000000000E+00 -0.45593999997E+02  0.45594000000E+02  0.51100000000E-03 0. -1.
    9900012    2    1    2    0    0 -0.30212235043E+02 -0.14255776092E+02 -0.27705899568E+02  0.47787272251E+02  0.20000005501E+02 0.  0.
        -12    1    1    2    0    0  0.30212235043E+02  0.14255776092E+02  0.27705899568E+02  0.43400727749E+02  0.00000000000E+00 0.  1.
         11    1    3    3    0    0 -0.76474425475E+01 -0.10057893451E+02 -0.56670984736E+01  0.13847765291E+02  0.51100000000E-03 0.  1.
        -11    1    3    3    0    0 -0.13372428511E+02 -0.47815173594E-01 -0.19315009745E+02  0.23492418612E+02  0.51100000000E-03 0. -1.
         12    1    3    3    0    0 -0.91923639851E+01 -0.41500674670E+01 -0.27237913494E+01  0.10447088347E+02  0.00000000000E+00 0. -1.
</event>
<event>
 7    1  0.2950722E-010  0.4778727E+02  0.7816164E-02  0.1312668E+00
        -11   -1    0    0    0    0  0.00000000000E+00  0.00000000000E+00  0.45593999997E+02  0.45594000000E+02  0.51100000000E-03 0. -1.
         11   -1    0    0    0    0 -0.00000000000E+00 -0.00000000000E+00 -0.45593999997E+02  0.45594000000E+02  0.51100000000E-03 0.  1.
    9900012    2    1    2    0    0 -0.20630912850E+02  0.27296478621E+02  0.26700016872E+02  0.47787271767E+02  0.20000003296E+02 0.  0.
        -12    1    1    2    0    0  0.20630912850E+02 -0.27296478621E+02 -0.26700016872E+02  0.43400728233E+02  0.00000000000E+00 0.  1.
         11    1    3    3    0    0 -0.39777358808E+01  0.12189240395E+02  0.14740666337E+02  0.19536816744E+02  0.51100000000E-03 0. -1.
        -11    1    3    3    0    0 -0.17192003116E+02  0.15472687934E+02  0.83618313428E+01  0.24594496675E+02  0.51100000000E-03 0.  1.
        -12    1    3    3    0    0  0.53882614686E+00 -0.36544970775E+00  0.35975191923E+01  0.36559583483E+01  0.00000000000E+00 0.  1.
</event>
<event>
 7    1  0.2950722E-010  0.4778727E+02  0.7816164E-02  0.1312668E+00
        -11   -1    0    0    0    0  0.00000000000E+00  0.00000000000E+00  0.45593999997E+02  0.45594000000E+02  0.51100000000E-03 0.  1.
         11   -1    0    0    0    0 -0.00000000000E+00 -0.00000000000E+00 -0.45593999997E+02  0.45594000000E+02  0.51100000000E-03 0. -1.
    9900012    2    1    2    0    0 -0.32882094092E+02 -0.72356950732E+01 -0.27386779085E+02  0.47787273466E+02  0.20000011039E+02 0.  0.
        -12    1    1    2    0    0  0.32882094092E+02  0.72356950732E+01  0.27386779085E+02  0.43400726534E+02  0.00000000000E+00 0.  1.
         11    1    3    3    0    0 -0.20814722615E+02 -0.73606703382E+00 -0.16368587243E+02  0.26490094768E+02  0.51100000000E-03 0. -1.
        -11    1    3    3    0    0  0.22590378338E+00 -0.41540085964E+01  0.62109977592E+00  0.42062554762E+01  0.51100000000E-03 0.  1.
        -12    1    3    3    0    0 -0.12293275260E+02 -0.23456194430E+01 -0.11639291618E+02  0.17090923221E+02  0.00000000000E+00 0.  1.
</event>
<event>
 7    1  0.2950722E-010  0.4778727E+02  0.7816164E-02  0.1312668E+00
        -11   -1    0    0    0    0  0.00000000000E+00  0.00000000000E+00  0.45593999997E+02  0.45594000000E+02  0.51100000000E-03 0.  1.
         11   -1    0    0    0    0 -0.00000000000E+00 -0.00000000000E+00 -0.45593999997E+02  0.45594000000E+02  0.51100000000E-03 0. -1.
    9900012    2    1    2    0    0  0.19124065602E+01  0.52410842762E+01 -0.43040645853E+02  0.47787268915E+02  0.19999990293E+02 0.  0.
        -12    1    1    2    0    0 -0.19124065602E+01 -0.52410842762E+01  0.43040645853E+02  0.43400731085E+02  0.00000000000E+00 0.  1.
         11    1    3    3    0    0  0.81756922805E+01  0.32072603742E+01 -0.33363501257E+02  0.34500024345E+02  0.51100000000E-03 0. -1.
        -11    1    3    3    0    0 -0.40202055161E+01 -0.31840318387E+00 -0.91436189437E+01  0.99934578914E+01  0.51100000000E-03 0.  1.
         12    1    3    3    0    0 -0.22430802043E+01  0.23522270859E+01 -0.53352565178E+00  0.32937866791E+01  0.00000000000E+00 0. -1.
</event>
<event>
 7    1  0.2950722E-010  0.4778727E+02  0.7816164E-02  0.1312668E+00
        -11   -1    0    0    0    0  0.00000000000E+00  0.00000000000E+00  0.45593999997E+02  0.45594000000E+02  0.51100000000E-03 0.  1.
         11   -1    0    0    0    0 -0.00000000000E+00 -0.00000000000E+00 -0.45593999997E+02  0.45594000000E+02  0.51100000000E-03 0. -1.
    9900012    2    1    2    0    0 -0.28343930335E+02 -0.22988853239E+02 -0.23489516541E+02  0.47787272502E+02  0.20000006644E+02 0.  0.
        -12    1    1    2    0    0  0.28343930335E+02  0.22988853239E+02  0.23489516541E+02  0.43400727498E+02  0.00000000000E+00 0.  1.
         11    1    3    3    0    0 -0.11567430913E+02 -0.11127853391E+02 -0.84368259792E+01  0.18133246038E+02  0.51100000000E-03 0. -1.
        -11    1    3    3    0    0 -0.10998781610E+02 -0.15267108421E+02 -0.11679996966E+02  0.22146785903E+02  0.51100000000E-03 0.  1.
        -12    1    3    3    0    0 -0.57777178119E+01  0.34061085742E+01 -0.33726935961E+01  0.75072405600E+01  0.00000000000E+00 0.  1.
</event>
<event>
 7    1  0.2950722E-010  0.4778729E+02  0.7816164E-02  0.1312668E+00
        -11   -1    0    0    0    0  0.00000000000E+00  0.00000000000E+00  0.45593999997E+02  0.45594000000E+02  0.51100000000E-03 0.  1.
         11   -1    0    0    0    0 -0.00000000000E+00 -0.00000000000E+00 -0.45593999997E+02  0.45594000000E+02  0.51100000000E-03 0. -1.
    9900012    2    1    2    0    0 -0.18558296974E+02 -0.12338452760E+02 -0.37242098805E+02  0.47787288871E+02  0.20000081277E+02 0.  0.
        -12    1    1    2    0    0  0.18558296974E+02  0.12338452760E+02  0.37242098805E+02  0.43400711129E+02  0.00000000000E+00 0.  1.
         11    1    3    3    0    0 -0.20153193726E+02 -0.10285848411E+02 -0.30539973976E+02  0.38008418878E+02  0.51100000000E-03 0. -1.
        -11    1    3    3    0    0  0.18387071941E+01 -0.40537863124E+01 -0.63148676642E+01  0.77260327135E+01  0.51100000000E-03 0.  1.
         12    1    3    3    0    0 -0.24381044268E+00  0.20011819635E+01 -0.38725716501E+00  0.20528372792E+01  0.00000000000E+00 0. -1.
</event>
<event>
 7    1  0.2950722E-010  0.4778727E+02  0.7816164E-02  0.1312668E+00
        -11   -1    0    0    0    0  0.00000000000E+00  0.00000000000E+00  0.45593999997E+02  0.45594000000E+02  0.51100000000E-03 0.  1.
         11   -1    0    0    0    0 -0.00000000000E+00 -0.00000000000E+00 -0.45593999997E+02  0.45594000000E+02  0.51100000000E-03 0. -1.
    9900012    2    1    2    0    0 -0.35033046654E+02 -0.13492669985E+02 -0.21777437616E+02  0.47787270856E+02  0.19999999139E+02 0.  0.
        -12    1    1    2    0    0  0.35033046654E+02  0.13492669985E+02  0.21777437616E+02  0.43400729144E+02  0.00000000000E+00 0.  1.
         11    1    3    3    0    0 -0.34458740829E+02 -0.14203765328E+02 -0.18687097133E+02  0.41693637027E+02  0.51100000000E-03 0. -1.
        -11    1    3    3    0    0 -0.20463474353E+01  0.23028228166E+01 -0.19172182776E+01  0.36285337171E+01  0.51100000000E-03 0.  1.
         12    1    3    3    0    0  0.14720416107E+01 -0.15917274729E+01 -0.11731222053E+01  0.24651001116E+01  0.00000000000E+00 0. -1.
</event>
<event>
 7    1  0.2950722E-010  0.4778727E+02  0.7816164E-02  0.1312668E+00
        -11   -1    0    0    0    0  0.00000000000E+00  0.00000000000E+00  0.45593999997E+02  0.45594000000E+02  0.51100000000E-03 0.  1.
         11   -1    0    0    0    0 -0.00000000000E+00 -0.00000000000E+00 -0.45593999997E+02  0.45594000000E+02  0.51100000000E-03 0. -1.
    9900012    2    1    2    0    0 -0.10532397158E+02  0.91775441863E+01 -0.41090931730E+02  0.47787269850E+02  0.19999994552E+02 0.  0.
        -12    1    1    2    0    0  0.10532397158E+02 -0.91775441863E+01  0.41090931730E+02  0.43400730150E+02  0.00000000000E+00 0.  1.
         11    1    3    3    0    0 -0.14182780014E+02  0.15302202432E+01 -0.25670761615E+02  0.29368023854E+02  0.51100000000E-03 0. -1.
        -11    1    3    3    0    0  0.20504712081E+01  0.74444234669E+01 -0.14796504279E+02  0.16690129181E+02  0.51100000000E-03 0.  1.
        -12    1    3    3    0    0  0.15999116484E+01  0.20290047622E+00 -0.62366583602E+00  0.17291168153E+01  0.00000000000E+00 0.  1.
</event>
<event>
 7    1  0.2950722E-010  0.4778727E+02  0.7816164E-02  0.1312668E+00
        -11   -1    0    0    0    0  0.00000000000E+00  0.00000000000E+00  0.45593999997E+02  0.45594000000E+02  0.51100000000E-03 0.  1.
         11   -1    0    0    0    0 -0.00000000000E+00 -0.00000000000E+00 -0.45593999997E+02  0.45594000000E+02  0.51100000000E-03 0. -1.
    9900012    2    1    2    0    0 -0.12290435946E+02 -0.35003887067E+02 -0.22523238288E+02  0.47787272028E+02  0.20000004485E+02 0.  0.
        -12    1    1    2    0    0  0.12290435946E+02  0.35003887067E+02  0.22523238288E+02  0.43400727972E+02  0.00000000000E+00 0.  1.
         11    1    3    3    0    0  0.28393719534E+01 -0.67856221313E+00  0.59345798297E+00  0.29790388392E+01  0.51100000000E-03 0.  1.
        -11    1    3    3    0    0 -0.64643878161E+01 -0.11623183235E+02 -0.39944520063E+01  0.13886768719E+02  0.51100000000E-03 0. -1.
         12    1    3    3    0    0 -0.86654200831E+01 -0.22702141619E+02 -0.19122244264E+02  0.30921464470E+02  0.00000000000E+00 0. -1.
</event>
<event>
 7    1  0.2950722E-010  0.4778727E+02  0.7816164E-02  0.1312668E+00
        -11   -1    0    0    0    0  0.00000000000E+00  0.00000000000E+00  0.45593999997E+02  0.45594000000E+02  0.51100000000E-03 0.  1.
         11   -1    0    0    0    0 -0.00000000000E+00 -0.00000000000E+00 -0.45593999997E+02  0.45594000000E+02  0.51100000000E-03 0. -1.
    9900012    2    1    2    0    0  0.22383399581E+02 -0.13087527334E+02 -0.34804069514E+02  0.47787271858E+02  0.20000003710E+02 0.  0.
        -12    1    1    2    0    0 -0.22383399581E+02  0.13087527334E+02  0.34804069514E+02  0.43400728142E+02  0.00000000000E+00 0.  1.
         11    1    3    3    0    0  0.14945249511E+02 -0.78923479010E+01 -0.89982955786E+01  0.19147296465E+02  0.51100000000E-03 0. -1.
        -11    1    3    3    0    0  0.50183842091E+00 -0.52585115467E+01 -0.86564720494E+01  0.10140921757E+02  0.51100000000E-03 0.  1.
         12    1    3    3    0    0  0.69363116490E+01  0.63332113289E-01 -0.17149301886E+02  0.18499053636E+02  0.00000000000E+00 0. -1.
</event>
<event>
 7    1  0.2950722E-010  0.4778727E+02  0.7816164E-02  0.1312668E+00
        -11   -1    0    0    0    0  0.00000000000E+00  0.00000000000E+00  0.45593999997E+02  0.45594000000E+02  0.51100000000E-03 0.  1.
         11   -1    0    0    0    0 -0.00000000000E+00 -0.00000000000E+00 -0.45593999997E+02  0.45594000000E+02  0.51100000000E-03 0. -1.
    9900012    2    1    2    0    0  0.17831994596E+01  0.25687238444E+02 -0.34937223280E+02  0.47787267406E+02  0.19999983409E+02 0.  0.
        -12    1    1    2    0    0 -0.17831994596E+01 -0.25687238444E+02  0.34937223280E+02  0.43400732594E+02  0.00000000000E+00 0.  1.
         11    1    3    3    0    0  0.27501575119E+01  0.85947100747E+01 -0.11721366434E+02  0.14792661658E+02  0.51100000000E-03 0. -1.
        -11    1    3    3    0    0  0.70708658210E+01  0.58380898690E+01 -0.62075728242E+01  0.11073138553E+02  0.51100000000E-03 0.  1.
        -12    1    3    3    0    0 -0.80378238733E+01  0.11254438501E+02 -0.17008284022E+02  0.21921467195E+02  0.00000000000E+00 0.  1.
</event>
<event>
 7    1  0.2950722E-010  0.4778727E+02  0.7816164E-02  0.1312668E+00
        -11   -1    0    0    0    0  0.00000000000E+00  0.00000000000E+00  0.45593999997E+02  0.45594000000E+02  0.51100000000E-03 0.  1.
         11   -1    0    0    0    0 -0.00000000000E+00 -0.00000000000E+00 -0.45593999997E+02  0.45594000000E+02  0.51100000000E-03 0. -1.
    9900012    2    1    2    0    0 -0.17446551589E+02  0.39367386058E+02 -0.54267899536E+01  0.47787270782E+02  0.19999998806E+02 0.  0.
        -12    1    1    2    0    0  0.17446551589E+02 -0.39367386058E+02  0.54267899536E+01  0.43400729218E+02  0.00000000000E+00 0.  1.
         11    1    3    3    0    0 -0.82433752445E+01  0.90570827504E+01 -0.31932590127E+01  0.12656258798E+02  0.51100000000E-03 0.  1.
        -11    1    3    3    0    0 -0.93790490444E+01  0.28666792844E+02  0.23549685027E+01  0.30253883219E+02  0.51100000000E-03 0. -1.
        -12    1    3    3    0    0  0.17587269997E+00  0.16435104638E+01 -0.45884994435E+01  0.48771287654E+01  0.00000000000E+00 0.  1.
</event>
<event>
 7    1  0.2950722E-010  0.4778727E+02  0.7816164E-02  0.1312668E+00
        -11   -1    0    0    0    0  0.00000000000E+00  0.00000000000E+00  0.45593999997E+02  0.45594000000E+02  0.51100000000E-03 0.  1.
         11   -1    0    0    0    0 -0.00000000000E+00 -0.00000000000E+00 -0.45593999997E+02  0.45594000000E+02  0.51100000000E-03 0. -1.
    9900012    2    1    2    0    0  0.12100266003E+02  0.25413335894E+01 -0.41602269098E+02  0.47787267197E+02  0.19999982457E+02 0.  0.
        -12    1    1    2    0    0 -0.12100266003E+02 -0.25413335894E+01  0.41602269098E+02  0.43400732803E+02  0.00000000000E+00 0.  1.
         11    1    3    3    0    0  0.34610340883E+01  0.40889817651E+01 -0.35388773243E+02  0.35791951619E+02  0.51100000000E-03 0. -1.
        -11    1    3    3    0    0  0.40030833717E+01 -0.33564959594E+01 -0.38288837948E+01  0.64769663410E+01  0.51100000000E-03 0.  1.
         12    1    3    3    0    0  0.46361485430E+01  0.18088477838E+01 -0.23846120607E+01  0.55183492366E+01  0.00000000000E+00 0. -1.
</event>
<event>
 7    1  0.2950722E-010  0.4778728E+02  0.7816164E-02  0.1312668E+00
        -11   -1    0    0    0    0  0.00000000000E+00  0.00000000000E+00  0.45593999997E+02  0.45594000000E+02  0.51100000000E-03 0.  1.
         11   -1    0    0    0    0 -0.00000000000E+00 -0.00000000000E+00 -0.45593999997E+02  0.45594000000E+02  0.51100000000E-03 0. -1.
    9900012    2    1    2    0    0 -0.55952665941E+01 -0.10812634788E+02 -0.41658161166E+02  0.47787280293E+02  0.20000042168E+02 0.  0.
        -12    1    1    2    0    0  0.55952665941E+01  0.10812634788E+02  0.41658161166E+02  0.43400719707E+02  0.00000000000E+00 0.  1.
         11    1    3    3    0    0 -0.25116431273E+01 -0.15076498478E+01 -0.23211796817E+02  0.23395915690E+02  0.51100000000E-03 0. -1.
        -11    1    3    3    0    0 -0.37839704875E+01 -0.41765579336E+01 -0.43672742550E+00  0.56526807736E+01  0.51100000000E-03 0.  1.
        -12    1    3    3    0    0  0.70034702070E+00 -0.51284270063E+01 -0.18009636924E+02  0.18738683829E+02  0.00000000000E+00 0.  1.
</event>
<event>
 7    1  0.2950722E-010  0.4778727E+02  0.7816164E-02  0.1312668E+00
        -11   -1    0    0    0    0  0.00000000000E+00  0.00000000000E+00  0.45593999997E+02  0.45594000000E+02  0.51100000000E-03 0.  1.
         11   -1    0    0    0    0 -0.00000000000E+00 -0.00000000000E+00 -0.45593999997E+02  0.45594000000E+02  0.51100000000E-03 0. -1.
    9900012    2    1    2    0    0  0.44325457000E+01 -0.17108664430E+02 -0.39639237476E+02  0.47787274112E+02  0.20000013986E+02 0.  0.
        -12    1    1    2    0    0 -0.44325457000E+01  0.17108664430E+02  0.39639237476E+02  0.43400725888E+02  0.00000000000E+00 0.  1.
         11    1    3    3    0    0 -0.61570755634E+01 -0.35559074109E+01 -0.12262224254E+02  0.14174491205E+02  0.51100000000E-03 0. -1.
        -11    1    3    3    0    0  0.89667297280E+01 -0.99899816079E+01 -0.12906499622E+02  0.18622022106E+02  0.51100000000E-03 0.  1.
        -12    1    3    3    0    0  0.16228915354E+01 -0.35627754108E+01 -0.14470513600E+02  0.14990760801E+02  0.00000000000E+00 0.  1.
</event>
<event>
 7    1  0.2950722E-010  0.4778727E+02  0.7816164E-02  0.1312668E+00
        -11   -1    0    0    0    0  0.00000000000E+00  0.00000000000E+00  0.45593999997E+02  0.45594000000E+02  0.51100000000E-03 0.  1.
         11   -1    0    0    0    0 -0.00000000000E+00 -0.00000000000E+00 -0.45593999997E+02  0.45594000000E+02  0.51100000000E-03 0. -1.
    9900012    2    1    2    0    0  0.22185538916E+02  0.10048769154E+02 -0.35922799835E+02  0.47787269056E+02  0.19999990935E+02 0.  0.
        -12    1    1    2    0    0 -0.22185538916E+02 -0.10048769154E+02  0.35922799835E+02  0.43400730944E+02  0.00000000000E+00 0.  1.
         11    1    3    3    0    0  0.71482320158E+01  0.65343485424E+01 -0.34202014221E+01  0.10270964407E+02  0.51100000000E-03 0.  1.
        -11    1    3    3    0    0  0.82938271453E+01 -0.34302801979E+01 -0.13899555384E+02  0.16545453487E+02  0.51100000000E-03 0. -1.
        -12    1    3    3    0    0  0.67434797546E+01  0.69447008096E+01 -0.18603043029E+02  0.20970851162E+02  0.00000000000E+00 0.  1.
</event>
<event>
 7    1  0.2950722E-010  0.4778727E+02  0.7816164E-02  0.1312668E+00
        -11   -1    0    0    0    0  0.00000000000E+00  0.00000000000E+00  0.45593999997E+02  0.45594000000E+02  0.51100000000E-03 0. -1.
         11   -1    0    0    0    0 -0.00000000000E+00 -0.00000000000E+00 -0.45593999997E+02  0.45594000000E+02  0.51100000000E-03 0.  1.
    9900012    2    1    2    0    0  0.37423409604E+02 -0.21037018359E+02  0.63683075258E+01  0.47787273410E+02  0.20000010783E+02 0.  0.
        -12    1    1    2    0    0 -0.37423409604E+02  0.21037018359E+02 -0.63683075258E+01  0.43400726590E+02  0.00000000000E+00 0.  1.
         11    1    3    3    0    0  0.65024954612E+01 -0.10107666355E+02  0.72252409309E+01  0.14023247596E+02  0.51100000000E-03 0. -1.
        -11    1    3    3    0    0  0.23906763540E+02 -0.11843176934E+02 -0.73026647893E+00  0.26689463693E+02  0.51100000000E-03 0.  1.
         12    1    3    3    0    0  0.70141506030E+01  0.91382492978E+00 -0.12666692619E+00  0.70745621203E+01  0.00000000000E+00 0. -1.
</event>
<event>
 7    1  0.2950722E-010  0.4778727E+02  0.7816164E-02  0.1312668E+00
        -11   -1    0    0    0    0  0.00000000000E+00  0.00000000000E+00  0.45593999997E+02  0.45594000000E+02  0.51100000000E-03 0. -1.
         11   -1    0    0    0    0 -0.00000000000E+00 -0.00000000000E+00 -0.45593999997E+02  0.45594000000E+02  0.51100000000E-03 0.  1.
    9900012    2    1    2    0    0  0.58245147431E+01  0.34454354843E+02  0.25740942432E+02  0.47787266631E+02  0.19999979878E+02 0.  0.
        -12    1    1    2    0    0 -0.58245147431E+01 -0.34454354843E+02 -0.25740942432E+02  0.43400733369E+02  0.00000000000E+00 0.  1.
         11    1    3    3    0    0 -0.47117566591E+00  0.79890812344E+01  0.81000430807E+01  0.11386752111E+02  0.51100000000E-03 0. -1.
        -11    1    3    3    0    0  0.25675902526E+01  0.84105325456E+01  0.15526783585E+02  0.17844063051E+02  0.51100000000E-03 0.  1.
        -12    1    3    3    0    0  0.37281001564E+01  0.18054741063E+02  0.21141157663E+01  0.18556451469E+02  0.00000000000E+00 0.  1.
</event>
<event>
 7    1  0.2950722E-010  0.4778727E+02  0.7816164E-02  0.1312668E+00
        -11   -1    0    0    0    0  0.00000000000E+00  0.00000000000E+00  0.45593999997E+02  0.45594000000E+02  0.51100000000E-03 0.  1.
         11   -1    0    0    0    0 -0.00000000000E+00 -0.00000000000E+00 -0.45593999997E+02  0.45594000000E+02  0.51100000000E-03 0. -1.
    9900012    2    1    2    0    0  0.25754100743E+02  0.11929546751E+02 -0.32833452259E+02  0.47787269844E+02  0.19999994529E+02 0.  0.
        -12    1    1    2    0    0 -0.25754100743E+02 -0.11929546751E+02  0.32833452259E+02  0.43400730156E+02  0.00000000000E+00 0.  1.
         11    1    3    3    0    0  0.20023259359E+02 -0.43325361740E+00 -0.20760775872E+02  0.28846636531E+02  0.51100000000E-03 0. -1.
        -11    1    3    3    0    0  0.55161425368E+01  0.10221050804E+02 -0.73347400170E+01  0.13736670608E+02  0.51100000000E-03 0.  1.
         12    1    3    3    0    0  0.21469884699E+00  0.21417495650E+01 -0.47379363700E+01  0.52039627055E+01  0.00000000000E+00 0. -1.
</event>
<event>
 7    1  0.2950722E-010  0.4778727E+02  0.7816164E-02  0.1312668E+00
        -11   -1    0    0    0    0  0.00000000000E+00  0.00000000000E+00  0.45593999997E+02  0.45594000000E+02  0.51100000000E-03 0.  1.
         11   -1    0    0    0    0 -0.00000000000E+00 -0.00000000000E+00 -0.45593999997E+02  0.45594000000E+02  0.51100000000E-03 0. -1.
    9900012    2    1    2    0    0  0.93786420625E+01  0.37307251388E+02  0.20095603741E+02  0.47787271633E+02  0.20000002682E+02 0.  0.
        -12    1    1    2    0    0 -0.93786420625E+01 -0.37307251388E+02 -0.20095603741E+02  0.43400728367E+02  0.00000000000E+00 0.  1.
         11    1    3    3    0    0 -0.12428570145E+01  0.15281018934E+01  0.20112295221E+01  0.28151080631E+01  0.51100000000E-03 0.  1.
        -11    1    3    3    0    0  0.48109271991E-02  0.25947656851E+01 -0.32185919884E+01  0.41342673782E+01  0.51100000000E-03 0. -1.
        -12    1    3    3    0    0  0.10616688150E+02  0.33184383810E+02  0.21302966207E+02  0.40837896191E+02  0.00000000000E+00 0.  1.
</event>
<event>
 7    1  0.2950722E-010  0.4778728E+02  0.7816164E-02  0.1312668E+00
        -11   -1    0    0    0    0  0.00000000000E+00  0.00000000000E+00  0.45593999997E+02  0.45594000000E+02  0.51100000000E-03 0. -1.
         11   -1    0    0    0    0 -0.00000000000E+00 -0.00000000000E+00 -0.45593999997E+02  0.45594000000E+02  0.51100000000E-03 0.  1.
    9900012    2    1    2    0    0  0.40433866920E+02  0.14646965299E+02  0.58473536167E+01  0.47787277300E+02  0.20000028520E+02 0.  0.
        -12    1    1    2    0    0 -0.40433866920E+02 -0.14646965299E+02 -0.58473536167E+01  0.43400722700E+02  0.00000000000E+00 0.  1.
         11    1    3    3    0    0  0.25897159960E+02 -0.51654381508E+00  0.21937042828E+01  0.25995038954E+02  0.51100000000E-03 0.  1.
        -11    1    3    3    0    0  0.13871640691E+02  0.12327482662E+02  0.34168925698E+01  0.18869668766E+02  0.51100000000E-03 0. -1.
        -12    1    3    3    0    0  0.66506626923E+00  0.28360264527E+01  0.23675676404E+00  0.29225695797E+01  0.00000000000E+00 0.  1.
</event>
<event>
 7    1  0.2950722E-010  0.4778727E+02  0.7816164E-02  0.1312668E+00
        -11   -1    0    0    0    0  0.00000000000E+00  0.00000000000E+00  0.45593999997E+02  0.45594000000E+02  0.51100000000E-03 0. -1.
         11   -1    0    0    0    0 -0.00000000000E+00 -0.00000000000E+00 -0.45593999997E+02  0.45594000000E+02  0.51100000000E-03 0.  1.
    9900012    2    1    2    0    0 -0.22772877863E+02 -0.47418605613E+01  0.36640602325E+02  0.47787274816E+02  0.20000017196E+02 0.  0.
        -12    1    1    2    0    0  0.22772877863E+02  0.47418605613E+01 -0.36640602325E+02  0.43400725184E+02  0.00000000000E+00 0.  1.
         11    1    3    3    0    0  0.12001920090E+01  0.31458244463E+00  0.13773491756E+02  0.13829262395E+02  0.51100000000E-03 0. -1.
        -11    1    3    3    0    0 -0.18232897667E+02 -0.15623822288E+01  0.15451420621E+02  0.23950490497E+02  0.51100000000E-03 0.  1.
        -12    1    3    3    0    0 -0.57401722049E+01 -0.34940607771E+01  0.74156899479E+01  0.10007521924E+02  0.00000000000E+00 0.  1.
</event>
<event>
 7    1  0.2950722E-010  0.4778727E+02  0.7816164E-02  0.1312668E+00
        -11   -1    0    0    0    0  0.00000000000E+00  0.00000000000E+00  0.45593999997E+02  0.45594000000E+02  0.51100000000E-03 0.  1.
         11   -1    0    0    0    0 -0.00000000000E+00 -0.00000000000E+00 -0.45593999997E+02  0.45594000000E+02  0.51100000000E-03 0. -1.
    9900012    2    1    2    0    0 -0.38365214468E+02 -0.19715021404E+02 -0.48012139204E+01  0.47787269531E+02  0.19999993098E+02 0.  0.
        -12    1    1    2    0    0  0.38365214468E+02  0.19715021404E+02  0.48012139204E+01  0.43400730469E+02  0.00000000000E+00 0.  1.
         11    1    3    3    0    0 -0.23368817732E+02 -0.11663350028E+02 -0.65929288313E+01  0.26937002189E+02  0.51100000000E-03 0. -1.
        -11    1    3    3    0    0 -0.13733235572E+01 -0.68604957249E+01  0.15838706605E+01  0.71736368541E+01  0.51100000000E-03 0.  1.
        -12    1    3    3    0    0 -0.13623073179E+02 -0.11911756516E+01  0.20784425041E+00  0.13676630488E+02  0.00000000000E+00 0.  1.
</event>
<event>
 7    1  0.2950722E-010  0.4778727E+02  0.7816164E-02  0.1312668E+00
        -11   -1    0    0    0    0  0.00000000000E+00  0.00000000000E+00  0.45593999997E+02  0.45594000000E+02  0.51100000000E-03 0. -1.
         11   -1    0    0    0    0 -0.00000000000E+00 -0.00000000000E+00 -0.45593999997E+02  0.45594000000E+02  0.51100000000E-03 0.  1.
    9900012    2    1    2    0    0  0.11016266419E+02  0.34229847503E+02  0.24301908124E+02  0.47787270463E+02  0.19999997348E+02 0.  0.
        -12    1    1    2    0    0 -0.11016266419E+02 -0.34229847503E+02 -0.24301908124E+02  0.43400729537E+02  0.00000000000E+00 0.  1.
         11    1    3    3    0    0 -0.11838962473E+01  0.14043869008E+02  0.47892649814E+01  0.14885191512E+02  0.51100000000E-03 0. -1.
        -11    1    3    3    0    0  0.10053679846E+02  0.10003341724E+02  0.17106593220E+02  0.22221135343E+02  0.51100000000E-03 0.  1.
         12    1    3    3    0    0  0.21464828209E+01  0.10182636771E+02  0.24060499227E+01  0.10680943607E+02  0.00000000000E+00 0. -1.
</event>
<event>
 7    1  0.2950722E-010  0.4778724E+02  0.7816164E-02  0.1312668E+00
        -11   -1    0    0    0    0  0.00000000000E+00  0.00000000000E+00  0.45593999997E+02  0.45594000000E+02  0.51100000000E-03 0.  1.
         11   -1    0    0    0    0 -0.00000000000E+00 -0.00000000000E+00 -0.45593999997E+02  0.45594000000E+02  0.51100000000E-03 0. -1.
    9900012    2    1    2    0    0  0.25962450089E+02  0.20467921264E+02 -0.28118338762E+02  0.47787244358E+02  0.19999878327E+02 0.  0.
        -12    1    1    2    0    0 -0.25962450089E+02 -0.20467921264E+02  0.28118338762E+02  0.43400755642E+02  0.00000000000E+00 0.  1.
         11    1    3    3    0    0  0.13023060400E+01 -0.40455383038E+00 -0.12245166737E+00  0.13691820535E+01  0.51100000000E-03 0. -1.
        -11    1    3    3    0    0 -0.35558343935E+00  0.46034433462E+00  0.21610383989E+01  0.22379552523E+01  0.51100000000E-03 0.  1.
        -12    1    3    3    0    0  0.25015727489E+02  0.20412130760E+02 -0.30156925494E+02  0.44180107053E+02  0.00000000000E+00 0.  1.
</event>
<event>
 7    1  0.2950722E-010  0.4778727E+02  0.7816164E-02  0.1312668E+00
        -11   -1    0    0    0    0  0.00000000000E+00  0.00000000000E+00  0.45593999997E+02  0.45594000000E+02  0.51100000000E-03 0.  1.
         11   -1    0    0    0    0 -0.00000000000E+00 -0.00000000000E+00 -0.45593999997E+02  0.45594000000E+02  0.51100000000E-03 0. -1.
    9900012    2    1    2    0    0  0.33587464062E+02  0.22934628146E+02 -0.15149523420E+02  0.47787274544E+02  0.20000015955E+02 0.  0.
        -12    1    1    2    0    0 -0.33587464062E+02 -0.22934628146E+02  0.15149523420E+02  0.43400725456E+02  0.00000000000E+00 0.  1.
         11    1    3    3    0    0  0.18956994663E+02  0.88925369405E+01 -0.11224960833E+02  0.23758042972E+02  0.51100000000E-03 0. -1.
        -11    1    3    3    0    0  0.76069484030E+01  0.10162643587E+02  0.34250217924E+01  0.13148222816E+02  0.51100000000E-03 0.  1.
        -12    1    3    3    0    0  0.70235209951E+01  0.38794476188E+01 -0.73495843792E+01  0.10881008756E+02  0.00000000000E+00 0.  1.
</event>
<event>
 7    1  0.2950722E-010  0.4778727E+02  0.7816164E-02  0.1312668E+00
        -11   -1    0    0    0    0  0.00000000000E+00  0.00000000000E+00  0.45593999997E+02  0.45594000000E+02  0.51100000000E-03 0.  1.
         11   -1    0    0    0    0 -0.00000000000E+00 -0.00000000000E+00 -0.45593999997E+02  0.45594000000E+02  0.51100000000E-03 0. -1.
    9900012    2    1    2    0    0  0.30644044049E+02 -0.79353088810E+01 -0.29691695362E+02  0.47787270326E+02  0.19999996725E+02 0.  0.
        -12    1    1    2    0    0 -0.30644044049E+02  0.79353088810E+01  0.29691695362E+02  0.43400729674E+02  0.00000000000E+00 0.  1.
         11    1    3    3    0    0  0.92105596763E+01 -0.70427347909E+01 -0.21566580815E+01  0.11793459935E+02  0.51100000000E-03 0. -1.
        -11    1    3    3    0    0  0.58593848954E+01 -0.76523714069E+00 -0.23029478026E+01  0.63420460481E+01  0.51100000000E-03 0.  1.
         12    1    3    3    0    0  0.15574099478E+02 -0.12733694943E+00 -0.25232089478E+02  0.29651764343E+02  0.00000000000E+00 0. -1.
</event>
<event>
 7    1  0.2950722E-010  0.4778727E+02  0.7816164E-02  0.1312668E+00
        -11   -1    0    0    0    0  0.00000000000E+00  0.00000000000E+00  0.45593999997E+02  0.45594000000E+02  0.51100000000E-03 0.  1.
         11   -1    0    0    0    0 -0.00000000000E+00 -0.00000000000E+00 -0.45593999997E+02  0.45594000000E+02  0.51100000000E-03 0. -1.
    9900012    2    1    2    0    0  0.42767617880E+02 -0.35072579370E+01  0.65002594722E+01  0.47787269931E+02  0.19999994922E+02 0.  0.
        -12    1    1    2    0    0 -0.42767617880E+02  0.35072579370E+01 -0.65002594722E+01  0.43400730069E+02  0.00000000000E+00 0.  1.
         11    1    3    3    0    0  0.14067922510E+02  0.31989936852E+01 -0.34659615281E+01  0.14837550132E+02  0.51100000000E-03 0. -1.
        -11    1    3    3    0    0  0.15143722188E+02 -0.90282067287E+01  0.49822954932E+01  0.18321138259E+02  0.51100000000E-03 0.  1.
        -12    1    3    3    0    0  0.13555973182E+02  0.23219551065E+01  0.49839255071E+01  0.14628581541E+02  0.00000000000E+00 0.  1.
</event>
<event>
 7    1  0.2950722E-010  0.4778728E+02  0.7816164E-02  0.1312668E+00
        -11   -1    0    0    0    0  0.00000000000E+00  0.00000000000E+00  0.45593999997E+02  0.45594000000E+02  0.51100000000E-03 0.  1.
         11   -1    0    0    0    0 -0.00000000000E+00 -0.00000000000E+00 -0.45593999997E+02  0.45594000000E+02  0.51100000000E-03 0. -1.
    9900012    2    1    2    0    0 -0.26408675422E+02 -0.12406119875E+02 -0.32129309609E+02  0.47787280146E+02  0.20000041496E+02 0.  0.
        -12    1    1    2    0    0  0.26408675422E+02  0.12406119875E+02  0.32129309609E+02  0.43400719854E+02  0.00000000000E+00 0.  1.
         11    1    3    3    0    0 -0.84559915247E+01 -0.10276682315E+00 -0.52249686823E+01  0.99405559039E+01  0.51100000000E-03 0. -1.
        -11    1    3    3    0    0 -0.32944130767E+01 -0.11414580525E+02 -0.13219692418E+02  0.17773746763E+02  0.51100000000E-03 0.  1.
        -12    1    3    3    0    0 -0.14658270821E+02 -0.88877252615E+00 -0.13684648509E+02  0.20072977479E+02  0.00000000000E+00 0.  1.
</event>
<event>
 7    1  0.3112775E-010  0.4778727E+02  0.7816164E-02  0.1312668E+00
        -11   -1    0    0    0    0  0.00000000000E+00  0.00000000000E+00  0.45593999997E+02  0.45594000000E+02  0.51100000000E-03 0. -1.
         11   -1    0    0    0    0 -0.00000000000E+00 -0.00000000000E+00 -0.45593999997E+02  0.45594000000E+02  0.51100000000E-03 0.  1.
    9900012    2    1    2    0    0 -0.10775071415E+02 -0.28766952923E+02  0.30659154713E+02  0.47787268298E+02  0.19999987480E+02 0.  0.
        -12    1    1    2    0    0  0.10775071415E+02  0.28766952923E+02 -0.30659154713E+02  0.43400731702E+02  0.00000000000E+00 0.  1.
         11    1    3    3    0    0 -0.12891144457E+02 -0.24087409978E+02  0.21826711605E+02  0.34968418103E+02  0.51100000000E-03 0. -1.
        -11    1    3    3    0    0  0.12704484739E+01  0.82281098274E+00 -0.78601092180E+00  0.17055411659E+01  0.51100000000E-03 0.  1.
         12    1    3    3    0    0  0.84562456839E+00 -0.55023539280E+01  0.96184540305E+01  0.11113309030E+02  0.00000000000E+00 0. -1.
</event>
<event>
 7    1  0.2950722E-010  0.4778727E+02  0.7816164E-02  0.1312668E+00
        -11   -1    0    0    0    0  0.00000000000E+00  0.00000000000E+00  0.45593999997E+02  0.45594000000E+02  0.51100000000E-03 0.  1.
         11   -1    0    0    0    0 -0.00000000000E+00 -0.00000000000E+00 -0.45593999997E+02  0.45594000000E+02  0.51100000000E-03 0. -1.
    9900012    2    1    2    0    0  0.16352735444E+02 -0.14296943483E+02 -0.37574043821E+02  0.47787270530E+02  0.19999997653E+02 0.  0.
        -12    1    1    2    0    0 -0.16352735444E+02  0.14296943483E+02  0.37574043821E+02  0.43400729470E+02  0.00000000000E+00 0.  1.
         11    1    3    3    0    0  0.59828941540E+01 -0.47895260378E+01 -0.14285465048E+02  0.16211387789E+02  0.51100000000E-03 0. -1.
        -11    1    3    3    0    0  0.85856314695E+01  0.97368573697E+00 -0.17387481178E+02  0.19416117883E+02  0.51100000000E-03 0.  1.
        -12    1    3    3    0    0  0.17842098209E+01 -0.10481103182E+02 -0.59010975945E+01  0.12159764858E+02  0.00000000000E+00 0.  1.
</event>
<event>
 7    1  0.2950722E-010  0.4778727E+02  0.7816164E-02  0.1312668E+00
        -11   -1    0    0    0    0  0.00000000000E+00  0.00000000000E+00  0.45593999997E+02  0.45594000000E+02  0.51100000000E-03 0. -1.
         11   -1    0    0    0    0 -0.00000000000E+00 -0.00000000000E+00 -0.45593999997E+02  0.45594000000E+02  0.51100000000E-03 0.  1.
    9900012    2    1    2    0    0 -0.36413553869E+02 -0.23572195632E+02  0.14241829420E+01  0.47787267180E+02  0.19999982381E+02 0.  0.
        -12    1    1    2    0    0  0.36413553869E+02  0.23572195632E+02 -0.14241829420E+01  0.43400732820E+02  0.00000000000E+00 0.  1.
         11    1    3    3    0    0 -0.12057050458E+01 -0.59290386424E+01 -0.46284054632E+01  0.76177005240E+01  0.51100000000E-03 0.  1.
        -11    1    3    3    0    0 -0.32068398165E+02 -0.16869340607E+02  0.42924059347E+01  0.36488101654E+02  0.51100000000E-03 0. -1.
        -12    1    3    3    0    0 -0.31394506582E+01 -0.77381638202E+00  0.17601824705E+01  0.36814650016E+01  0.00000000000E+00 0.  1.
</event>
<event>
 7    1  0.2950722E-010  0.4778727E+02  0.7816164E-02  0.1312668E+00
        -11   -1    0    0    0    0  0.00000000000E+00  0.00000000000E+00  0.45593999997E+02  0.45594000000E+02  0.51100000000E-03 0. -1.
         11   -1    0    0    0    0 -0.00000000000E+00 -0.00000000000E+00 -0.45593999997E+02  0.45594000000E+02  0.51100000000E-03 0.  1.
    9900012    2    1    2    0    0 -0.41480576994E+02  0.24483736285E+01  0.12529588376E+02  0.47787269752E+02  0.19999994107E+02 0.  0.
        -12    1    1    2    0    0  0.41480576994E+02 -0.24483736285E+01 -0.12529588376E+02  0.43400730248E+02  0.00000000000E+00 0.  1.
         11    1    3    3    0    0 -0.10506813894E+02  0.36889271124E+01 -0.97236742660E+00  0.11177961358E+02  0.51100000000E-03 0. -1.
        -11    1    3    3    0    0 -0.31895014803E+02 -0.28823410583E+01  0.13425200351E+02  0.34725147429E+02  0.51100000000E-03 0.  1.
        -12    1    3    3    0    0  0.92125170351E+00  0.16417875744E+01  0.76755452255E-01  0.18841609645E+01  0.00000000000E+00 0.  1.
</event>
<event>
 7    1  0.2950722E-010  0.4778727E+02  0.7816164E-02  0.1312668E+00
        -11   -1    0    0    0    0  0.00000000000E+00  0.00000000000E+00  0.45593999997E+02  0.45594000000E+02  0.51100000000E-03 0.  1.
         11   -1    0    0    0    0 -0.00000000000E+00 -0.00000000000E+00 -0.45593999997E+02  0.45594000000E+02  0.51100000000E-03 0. -1.
    9900012    2    1    2    0    0  0.73584810417E+01  0.25890594810E+02 -0.34046339480E+02  0.47787269881E+02  0.19999994696E+02 0.  0.
        -12    1    1    2    0    0 -0.73584810417E+01 -0.25890594810E+02  0.34046339480E+02  0.43400730119E+02  0.00000000000E+00 0.  1.
         11    1    3    3    0    0  0.97028487199E+01  0.15662921560E+02 -0.17889111859E+02  0.25680590111E+02  0.51100000000E-03 0. -1.
        -11    1    3    3    0    0  0.11554418522E+01  0.56272817209E+01 -0.93029978214E+00  0.58195191714E+01  0.51100000000E-03 0.  1.
         12    1    3    3    0    0 -0.34998095304E+01  0.46003915299E+01 -0.15226927838E+02  0.16287160599E+02  0.00000000000E+00 0. -1.
</event>
<event>
 7    1  0.2950722E-010  0.4778727E+02  0.7816164E-02  0.1312668E+00
        -11   -1    0    0    0    0  0.00000000000E+00  0.00000000000E+00  0.45593999997E+02  0.45594000000E+02  0.51100000000E-03 0. -1.
         11   -1    0    0    0    0 -0.00000000000E+00 -0.00000000000E+00 -0.45593999997E+02  0.45594000000E+02  0.51100000000E-03 0.  1.
    9900012    2    1    2    0    0  0.20169145553E+02 -0.13069284694E+02  0.36138933367E+02  0.47787272590E+02  0.20000007048E+02 0.  0.
        -12    1    1    2    0    0 -0.20169145553E+02  0.13069284694E+02 -0.36138933367E+02  0.43400727410E+02  0.00000000000E+00 0.  1.
         11    1    3    3    0    0  0.18662943588E+02 -0.89231013644E+01  0.24323959329E+02  0.31930897247E+02  0.51100000000E-03 0. -1.
        -11    1    3    3    0    0 -0.37644606834E-01  0.28755001589E+01  0.58344984064E+01  0.65047129218E+01  0.51100000000E-03 0.  1.
         12    1    3    3    0    0  0.15438465723E+01 -0.70216834887E+01  0.59804756319E+01  0.93516624211E+01  0.00000000000E+00 0. -1.
</event>
<event>
 7    1  0.2950722E-010  0.4778723E+02  0.7816164E-02  0.1312668E+00
        -11   -1    0    0    0    0  0.00000000000E+00  0.00000000000E+00  0.45593999997E+02  0.45594000000E+02  0.51100000000E-03 0. -1.
         11   -1    0    0    0    0 -0.00000000000E+00 -0.00000000000E+00 -0.45593999997E+02  0.45594000000E+02  0.51100000000E-03 0.  1.
    9900012    2    1    2    0    0 -0.30401133838E+02  0.30972556992E+02  0.31349217248E+00  0.47787233847E+02  0.19999830402E+02 0.  0.
        -12    1    1    2    0    0  0.30401133838E+02 -0.30972556992E+02 -0.31349217248E+00  0.43400766153E+02  0.00000000000E+00 0.  1.
         11    1    3    3    0    0 -0.17910689860E+02  0.12331537355E+02  0.40037847201E+01  0.22110855188E+02  0.51100000000E-03 0. -1.
        -11    1    3    3    0    0 -0.90780544984E+01  0.14500102138E+02 -0.79124444388E+01  0.18848628936E+02  0.51100000000E-03 0.  1.
        -12    1    3    3    0    0 -0.34123894805E+01  0.41409174989E+01  0.42221518911E+01  0.68277497239E+01  0.00000000000E+00 0.  1.
</event>
<event>
 7    1  0.3197452E-010  0.4778727E+02  0.7816164E-02  0.1312668E+00
        -11   -1    0    0    0    0  0.00000000000E+00  0.00000000000E+00  0.45593999997E+02  0.45594000000E+02  0.51100000000E-03 0. -1.
         11   -1    0    0    0    0 -0.00000000000E+00 -0.00000000000E+00 -0.45593999997E+02  0.45594000000E+02  0.51100000000E-03 0.  1.
    9900012    2    1    2    0    0  0.71928872575E+01  0.19190301055E+02  0.38257260249E+02  0.47787271395E+02  0.20000001599E+02 0.  0.
        -12    1    1    2    0    0 -0.71928872575E+01 -0.19190301055E+02 -0.38257260249E+02  0.43400728605E+02  0.00000000000E+00 0.  1.
         11    1    3    3    0    0  0.19599563234E+01  0.19201935330E+02  0.23263752188E+02  0.30228428926E+02  0.51100000000E-03 0. -1.
        -11    1    3    3    0    0  0.17509923510E+01 -0.23005651082E+01  0.11664496322E+01  0.31175597887E+01  0.51100000000E-03 0.  1.
         12    1    3    3    0    0  0.34819385830E+01  0.22889308326E+01  0.13827058429E+02  0.14441282680E+02  0.00000000000E+00 0. -1.
</event>
<event>
 7    1  0.2950722E-010  0.4778728E+02  0.7816164E-02  0.1312668E+00
        -11   -1    0    0    0    0  0.00000000000E+00  0.00000000000E+00  0.45593999997E+02  0.45594000000E+02  0.51100000000E-03 0. -1.
         11   -1    0    0    0    0 -0.00000000000E+00 -0.00000000000E+00 -0.45593999997E+02  0.45594000000E+02  0.51100000000E-03 0.  1.
    9900012    2    1    2    0    0  0.13241213349E+01 -0.31631775803E+02  0.29686702740E+02  0.47787275843E+02  0.20000021879E+02 0.  0.
        -12    1    1    2    0    0 -0.13241213349E+01  0.31631775803E+02 -0.29686702740E+02  0.43400724157E+02  0.00000000000E+00 0.  1.
         11    1    3    3    0    0 -0.36376327819E+01 -0.13384325831E+02  0.17058875051E+02  0.21985853826E+02  0.51100000000E-03 0. -1.
        -11    1    3    3    0    0  0.76978106721E+01 -0.92559587527E+01  0.31287260523E+01  0.12438568589E+02  0.51100000000E-03 0.  1.
        -12    1    3    3    0    0 -0.27360565553E+01 -0.89914912194E+01  0.94991016366E+01  0.13362853427E+02  0.00000000000E+00 0.  1.
</event>
<event>
 7    1  0.2950722E-010  0.4778727E+02  0.7816164E-02  0.1312668E+00
        -11   -1    0    0    0    0  0.00000000000E+00  0.00000000000E+00  0.45593999997E+02  0.45594000000E+02  0.51100000000E-03 0. -1.
         11   -1    0    0    0    0 -0.00000000000E+00 -0.00000000000E+00 -0.45593999997E+02  0.45594000000E+02  0.51100000000E-03 0.  1.
    9900012    2    1    2    0    0  0.41299352188E+02  0.12064013758E+02  0.56961863463E+01  0.47787268923E+02  0.19999990327E+02 0.  0.
        -12    1    1    2    0    0 -0.41299352188E+02 -0.12064013758E+02 -0.56961863463E+01  0.43400731077E+02  0.00000000000E+00 0.  1.
         11    1    3    3    0    0  0.32120877313E+02  0.15068108190E+02  0.46040296485E+00  0.35482539578E+02  0.51100000000E-03 0. -1.
        -11    1    3    3    0    0  0.97016237152E+01 -0.28505445280E+01  0.38575280956E+01  0.10822551921E+02  0.51100000000E-03 0.  1.
         12    1    3    3    0    0 -0.52314883948E+00 -0.15354990419E+00  0.13782552858E+01  0.14821774233E+01  0.00000000000E+00 0. -1.
</event>
<event>
 7    1  0.2950722E-010  0.4778728E+02  0.7816164E-02  0.1312668E+00
        -11   -1    0    0    0    0  0.00000000000E+00  0.00000000000E+00  0.45593999997E+02  0.45594000000E+02  0.51100000000E-03 0. -1.
         11   -1    0    0    0    0 -0.00000000000E+00 -0.00000000000E+00 -0.45593999997E+02  0.45594000000E+02  0.51100000000E-03 0.  1.
    9900012    2    1    2    0    0 -0.10127394057E+02  0.68659257491E+01  0.41640330033E+02  0.47787284199E+02  0.20000059976E+02 0.  0.
        -12    1    1    2    0    0  0.10127394057E+02 -0.68659257491E+01 -0.41640330033E+02  0.43400715801E+02  0.00000000000E+00 0.  1.
         11    1    3    3    0    0  0.11286887841E+00 -0.48306160004E+00  0.73395812001E+01  0.73563265525E+01  0.51100000000E-03 0. -1.
        -11    1    3    3    0    0 -0.93717687151E+01 -0.31558979566E+01  0.22678397772E+02  0.24740644020E+02  0.51100000000E-03 0.  1.
        -12    1    3    3    0    0 -0.86849421990E+00  0.10504885306E+02  0.11622351062E+02  0.15690313626E+02  0.00000000000E+00 0.  1.
</event>
<event>
 7    1  0.2950722E-010  0.4778728E+02  0.7816164E-02  0.1312668E+00
        -11   -1    0    0    0    0  0.00000000000E+00  0.00000000000E+00  0.45593999997E+02  0.45594000000E+02  0.51100000000E-03 0.  1.
         11   -1    0    0    0    0 -0.00000000000E+00 -0.00000000000E+00 -0.45593999997E+02  0.45594000000E+02  0.51100000000E-03 0. -1.
    9900012    2    1    2    0    0  0.38913445280E+02  0.97722727807E+01 -0.16548991409E+02  0.47787278169E+02  0.20000032482E+02 0.  0.
        -12    1    1    2    0    0 -0.38913445280E+02 -0.97722727807E+01  0.16548991409E+02  0.43400721831E+02  0.00000000000E+00 0.  1.
         11    1    3    3    0    0  0.72929200660E+01  0.49250951479E+01 -0.40816943483E+00  0.88096451604E+01  0.51100000000E-03 0. -1.
        -11    1    3    3    0    0  0.15525364440E+02  0.81953610678E+01 -0.13886988567E+02  0.22384131338E+02  0.51100000000E-03 0.  1.
        -12    1    3    3    0    0  0.16095160774E+02 -0.33481834349E+01 -0.22538334065E+01  0.16593501670E+02  0.00000000000E+00 0.  1.
</event>
<event>
 7    1  0.2950722E-010  0.4778727E+02  0.7816164E-02  0.1312668E+00
        -11   -1    0    0    0    0  0.00000000000E+00  0.00000000000E+00  0.45593999997E+02  0.45594000000E+02  0.51100000000E-03 0. -1.
         11   -1    0    0    0    0 -0.00000000000E+00 -0.00000000000E+00 -0.45593999997E+02  0.45594000000E+02  0.51100000000E-03 0.  1.
    9900012    2    1    2    0    0 -0.20757086606E+02  0.30597428223E+02  0.22728048199E+02  0.47787269209E+02  0.19999991632E+02 0.  0.
        -12    1    1    2    0    0  0.20757086606E+02 -0.30597428223E+02 -0.22728048199E+02  0.43400730791E+02  0.00000000000E+00 0.  1.
         11    1    3    3    0    0 -0.15032835770E+02  0.23987178065E+02  0.16567801137E+02  0.32800349047E+02  0.51100000000E-03 0. -1.
        -11    1    3    3    0    0  0.61530961591E-01  0.18581550197E+01  0.71925248826E+01  0.74289259374E+01  0.51100000000E-03 0.  1.
        -12    1    3    3    0    0 -0.57857817975E+01  0.47520951376E+01 -0.10322778196E+01  0.75579942248E+01  0.00000000000E+00 0.  1.
</event>
<event>
 7    1  0.2950722E-010  0.4778727E+02  0.7816164E-02  0.1312668E+00
        -11   -1    0    0    0    0  0.00000000000E+00  0.00000000000E+00  0.45593999997E+02  0.45594000000E+02  0.51100000000E-03 0. -1.
         11   -1    0    0    0    0 -0.00000000000E+00 -0.00000000000E+00 -0.45593999997E+02  0.45594000000E+02  0.51100000000E-03 0.  1.
    9900012    2    1    2    0    0  0.39676611834E+01 -0.28894972878E+02  0.32139725598E+02  0.47787265508E+02  0.19999974757E+02 0.  0.
        -12    1    1    2    0    0 -0.39676611834E+01  0.28894972878E+02 -0.32139725598E+02  0.43400734492E+02  0.00000000000E+00 0.  1.
         11    1    3    3    0    0 -0.24792538677E+01  0.13722670663E+01 -0.36356067523E+00  0.28569202417E+01  0.51100000000E-03 0.  1.
        -11    1    3    3    0    0  0.60746268663E+01 -0.24791980354E+02  0.26375668637E+02  0.36704485799E+02  0.51100000000E-03 0. -1.
        -12    1    3    3    0    0  0.37228818475E+00 -0.54752595904E+01  0.61276176367E+01  0.82258594673E+01  0.00000000000E+00 0.  1.
</event>
<event>
 7    1  0.2950722E-010  0.4778727E+02  0.7816164E-02  0.1312668E+00
        -11   -1    0    0    0    0  0.00000000000E+00  0.00000000000E+00  0.45593999997E+02  0.45594000000E+02  0.51100000000E-03 0.  1.
         11   -1    0    0    0    0 -0.00000000000E+00 -0.00000000000E+00 -0.45593999997E+02  0.45594000000E+02  0.51100000000E-03 0. -1.
    9900012    2    1    2    0    0 -0.14096657950E+02  0.12534200267E+02 -0.39087100127E+02  0.47787270305E+02  0.19999996629E+02 0.  0.
        -12    1    1    2    0    0  0.14096657950E+02 -0.12534200267E+02  0.39087100127E+02  0.43400729695E+02  0.00000000000E+00 0.  1.
         11    1    3    3    0    0 -0.74102976355E+01 -0.32104960987E+01 -0.86200196652E+01  0.11812050437E+02  0.51100000000E-03 0. -1.
        -11    1    3    3    0    0  0.63718658410E+00  0.80100675758E+01 -0.93845198752E+01  0.12354610591E+02  0.51100000000E-03 0.  1.
         12    1    3    3    0    0 -0.73235468991E+01  0.77346287896E+01 -0.21082560587E+02  0.23620609277E+02  0.00000000000E+00 0. -1.
</event>
<event>
 7    1  0.2950722E-010  0.4778727E+02  0.7816164E-02  0.1312668E+00
        -11   -1    0    0    0    0  0.00000000000E+00  0.00000000000E+00  0.45593999997E+02  0.45594000000E+02  0.51100000000E-03 0.  1.
         11   -1    0    0    0    0 -0.00000000000E+00 -0.00000000000E+00 -0.45593999997E+02  0.45594000000E+02  0.51100000000E-03 0. -1.
    9900012    2    1    2    0    0  0.15780545535E+02  0.24966919015E+02 -0.31800171961E+02  0.47787267296E+02  0.19999982911E+02 0.  0.
        -12    1    1    2    0    0 -0.15780545535E+02 -0.24966919015E+02  0.31800171961E+02  0.43400732704E+02  0.00000000000E+00 0.  1.
         11    1    3    3    0    0  0.11755832569E+02  0.12978607019E+02 -0.21545106927E+02  0.27763923936E+02  0.51100000000E-03 0. -1.
        -11    1    3    3    0    0  0.80212862704E+01  0.64197141742E+01 -0.52608918632E+01  0.11542562409E+02  0.51100000000E-03 0.  1.
        -12    1    3    3    0    0 -0.39965733052E+01  0.55685978226E+01 -0.49941731702E+01  0.84807809515E+01  0.00000000000E+00 0.  1.
</event>
<event>
 7    1  0.2950722E-010  0.4778727E+02  0.7816164E-02  0.1312668E+00
        -11   -1    0    0    0    0  0.00000000000E+00  0.00000000000E+00  0.45593999997E+02  0.45594000000E+02  0.51100000000E-03 0.  1.
         11   -1    0    0    0    0 -0.00000000000E+00 -0.00000000000E+00 -0.45593999997E+02  0.45594000000E+02  0.51100000000E-03 0. -1.
    9900012    2    1    2    0    0  0.89102338819E+01  0.31755843875E+01 -0.42357369024E+02  0.47787270575E+02  0.19999997859E+02 0.  0.
        -12    1    1    2    0    0 -0.89102338819E+01 -0.31755843875E+01  0.42357369024E+02  0.43400729425E+02  0.00000000000E+00 0.  1.
         11    1    3    3    0    0  0.73334574436E+01  0.98472779098E+01 -0.26048174028E+02  0.28796802787E+02  0.51100000000E-03 0. -1.
        -11    1    3    3    0    0  0.67918194525E+00 -0.32281312752E+01 -0.12681260199E+01  0.35341566898E+01  0.51100000000E-03 0.  1.
        -12    1    3    3    0    0  0.89759449300E+00 -0.34435622470E+01 -0.15041068976E+02  0.15456311098E+02  0.00000000000E+00 0.  1.
</event>
<event>
 7    1  0.2950722E-010  0.4778724E+02  0.7816164E-02  0.1312668E+00
        -11   -1    0    0    0    0  0.00000000000E+00  0.00000000000E+00  0.45593999997E+02  0.45594000000E+02  0.51100000000E-03 0.  1.
         11   -1    0    0    0    0 -0.00000000000E+00 -0.00000000000E+00 -0.45593999997E+02  0.45594000000E+02  0.51100000000E-03 0. -1.
    9900012    2    1    2    0    0  0.41245122562E+02 -0.49020768639E+01 -0.12587126270E+02  0.47787236868E+02  0.19999844175E+02 0.  0.
        -12    1    1    2    0    0 -0.41245122562E+02  0.49020768639E+01  0.12587126270E+02  0.43400763132E+02  0.00000000000E+00 0.  1.
         11    1    3    3    0    0  0.27403366463E+01 -0.25136605273E+01 -0.41881322862E+01  0.56007487436E+01  0.51100000000E-03 0.  1.
        -11    1    3    3    0    0  0.15387149686E+02  0.13112980164E+01 -0.10509467284E+02  0.18679742525E+02  0.51100000000E-03 0. -1.
        -12    1    3    3    0    0  0.23117636229E+02 -0.36997143530E+01  0.21104732999E+01  0.23506745599E+02  0.00000000000E+00 0.  1.
</event>
<event>
 7    1  0.2950722E-010  0.4778727E+02  0.7816164E-02  0.1312668E+00
        -11   -1    0    0    0    0  0.00000000000E+00  0.00000000000E+00  0.45593999997E+02  0.45594000000E+02  0.51100000000E-03 0. -1.
         11   -1    0    0    0    0 -0.00000000000E+00 -0.00000000000E+00 -0.45593999997E+02  0.45594000000E+02  0.51100000000E-03 0.  1.
    9900012    2    1    2    0    0 -0.81603261205E+01  0.41807531931E+02  0.83164026339E+01  0.47787271880E+02  0.20000003810E+02 0.  0.
        -12    1    1    2    0    0  0.81603261205E+01 -0.41807531931E+02 -0.83164026339E+01  0.43400728120E+02  0.00000000000E+00 0.  1.
         11    1    3    3    0    0 -0.74730429652E+01  0.29815251702E+02  0.10236137694E+02  0.32397131361E+02  0.51100000000E-03 0. -1.
        -11    1    3    3    0    0 -0.11099966713E+01  0.15102710366E+01 -0.42490911797E+01  0.46441131908E+01  0.51100000000E-03 0.  1.
        -12    1    3    3    0    0  0.42271351606E+00  0.10482009192E+02  0.23293561192E+01  0.10746027329E+02  0.00000000000E+00 0.  1.
</event>
<event>
 7    1  0.2950722E-010  0.4778727E+02  0.7816164E-02  0.1312668E+00
        -11   -1    0    0    0    0  0.00000000000E+00  0.00000000000E+00  0.45593999997E+02  0.45594000000E+02  0.51100000000E-03 0. -1.
         11   -1    0    0    0    0 -0.00000000000E+00 -0.00000000000E+00 -0.45593999997E+02  0.45594000000E+02  0.51100000000E-03 0.  1.
    9900012    2    1    2    0    0  0.40958222493E+01  0.38872870490E+02  0.18861264813E+02  0.47787272697E+02  0.20000007537E+02 0.  0.
        -12    1    1    2    0    0 -0.40958222493E+01 -0.38872870490E+02 -0.18861264813E+02  0.43400727303E+02  0.00000000000E+00 0.  1.
         11    1    3    3    0    0  0.37252847357E+01 -0.71297202431E+00  0.32589216034E+01  0.50006645306E+01  0.51100000000E-03 0.  1.
        -11    1    3    3    0    0  0.18456886780E+01  0.32719118146E+02  0.12053452584E+02  0.34917516785E+02  0.51100000000E-03 0. -1.
        -12    1    3    3    0    0 -0.14751511644E+01  0.68667243686E+01  0.35488906253E+01  0.78690913823E+01  0.00000000000E+00 0.  1.
</event>
<event>
 7    1  0.2950722E-010  0.4778727E+02  0.7816164E-02  0.1312668E+00
        -11   -1    0    0    0    0  0.00000000000E+00  0.00000000000E+00  0.45593999997E+02  0.45594000000E+02  0.51100000000E-03 0. -1.
         11   -1    0    0    0    0 -0.00000000000E+00 -0.00000000000E+00 -0.45593999997E+02  0.45594000000E+02  0.51100000000E-03 0.  1.
    9900012    2    1    2    0    0  0.15804348752E+02 -0.25476728034E+02  0.31381239087E+02  0.47787271004E+02  0.19999999815E+02 0.  0.
        -12    1    1    2    0    0 -0.15804348752E+02  0.25476728034E+02 -0.31381239087E+02  0.43400728996E+02  0.00000000000E+00 0.  1.
         11    1    3    3    0    0  0.12310189183E+02 -0.22739653113E+02  0.29800299993E+02  0.39454916821E+02  0.51100000000E-03 0. -1.
        -11    1    3    3    0    0  0.42124667807E+01 -0.24229791148E+01 -0.15530999150E+01  0.51017471298E+01  0.51100000000E-03 0.  1.
        -12    1    3    3    0    0 -0.71830721104E+00 -0.31409580585E+00  0.31340390088E+01  0.32306070533E+01  0.00000000000E+00 0.  1.
</event>
<event>
 7    1  0.2950722E-010  0.4778727E+02  0.7816164E-02  0.1312668E+00
        -11   -1    0    0    0    0  0.00000000000E+00  0.00000000000E+00  0.45593999997E+02  0.45594000000E+02  0.51100000000E-03 0.  1.
         11   -1    0    0    0    0 -0.00000000000E+00 -0.00000000000E+00 -0.45593999997E+02  0.45594000000E+02  0.51100000000E-03 0. -1.
    9900012    2    1    2    0    0  0.37696997744E+02  0.21450210020E+02  0.15647816954E+01  0.47787266244E+02  0.19999978111E+02 0.  0.
        -12    1    1    2    0    0 -0.37696997744E+02 -0.21450210020E+02 -0.15647816954E+01  0.43400733756E+02  0.00000000000E+00 0.  1.
         11    1    3    3    0    0  0.53276504320E+01  0.30494775216E+01  0.17329937901E+00  0.61411078167E+01  0.51100000000E-03 0. -1.
        -11    1    3    3    0    0  0.20268229573E+01  0.96182811255E+01 -0.14275754006E+01  0.99326388687E+01  0.51100000000E-03 0.  1.
        -12    1    3    3    0    0  0.30342524355E+02  0.87824513728E+01  0.28190577170E+01  0.31713519558E+02  0.00000000000E+00 0.  1.
</event>
<event>
 7    1  0.2950722E-010  0.4778730E+02  0.7816164E-02  0.1312668E+00
        -11   -1    0    0    0    0  0.00000000000E+00  0.00000000000E+00  0.45593999997E+02  0.45594000000E+02  0.51100000000E-03 0.  1.
         11   -1    0    0    0    0 -0.00000000000E+00 -0.00000000000E+00 -0.45593999997E+02  0.45594000000E+02  0.51100000000E-03 0. -1.
    9900012    2    1    2    0    0 -0.36611111780E+02 -0.31241869512E+01 -0.23097339549E+02  0.47787295580E+02  0.20000111869E+02 0.  0.
        -12    1    1    2    0    0  0.36611111780E+02  0.31241869512E+01  0.23097339549E+02  0.43400704420E+02  0.00000000000E+00 0.  1.
         11    1    3    3    0    0 -0.22568313958E+02 -0.93318053108E+01 -0.20884753886E+02  0.32133850227E+02  0.51100000000E-03 0. -1.
        -11    1    3    3    0    0 -0.13132157669E+02  0.58835607878E+01 -0.15318861135E+01  0.14471231044E+02  0.51100000000E-03 0.  1.
         12    1    3    3    0    0 -0.91064015283E+00  0.32405757189E+00 -0.68069954966E+00  0.11822143100E+01  0.00000000000E+00 0. -1.
</event>
<event>
 7    1  0.2950722E-010  0.4778727E+02  0.7816164E-02  0.1312668E+00
        -11   -1    0    0    0    0  0.00000000000E+00  0.00000000000E+00  0.45593999997E+02  0.45594000000E+02  0.51100000000E-03 0.  1.
         11   -1    0    0    0    0 -0.00000000000E+00 -0.00000000000E+00 -0.45593999997E+02  0.45594000000E+02  0.51100000000E-03 0. -1.
    9900012    2    1    2    0    0  0.11023659572E+02 -0.63072606030E+01 -0.41500857093E+02  0.47787265604E+02  0.19999975196E+02 0.  0.
        -12    1    1    2    0    0 -0.11023659572E+02  0.63072606030E+01  0.41500857093E+02  0.43400734396E+02  0.00000000000E+00 0.  1.
         11    1    3    3    0    0  0.56707067904E+01  0.20567582162E+01 -0.14630566322E+02  0.15825316459E+02  0.51100000000E-03 0. -1.
        -11    1    3    3    0    0 -0.12987069865E+01 -0.89747517527E+01 -0.21688791736E+02  0.23508221883E+02  0.51100000000E-03 0.  1.
        -12    1    3    3    0    0  0.66516597677E+01  0.61073293348E+00 -0.51814990349E+01  0.84537272626E+01  0.00000000000E+00 0.  1.
</event>
<event>
 7    1  0.2950722E-010  0.4778727E+02  0.7816164E-02  0.1312668E+00
        -11   -1    0    0    0    0  0.00000000000E+00  0.00000000000E+00  0.45593999997E+02  0.45594000000E+02  0.51100000000E-03 0.  1.
         11   -1    0    0    0    0 -0.00000000000E+00 -0.00000000000E+00 -0.45593999997E+02  0.45594000000E+02  0.51100000000E-03 0. -1.
    9900012    2    1    2    0    0  0.39796682613E+01 -0.78038263218E+01 -0.42507479672E+02  0.47787270827E+02  0.19999999008E+02 0.  0.
        -12    1    1    2    0    0 -0.39796682613E+01  0.78038263218E+01  0.42507479672E+02  0.43400729173E+02  0.00000000000E+00 0.  1.
         11    1    3    3    0    0  0.23268360682E+01  0.56195812948E+00 -0.13292264704E+02  0.13506082491E+02  0.51100000000E-03 0. -1.
        -11    1    3    3    0    0  0.38943068229E+01  0.17641869908E+01 -0.19847780828E+02  0.20303014196E+02  0.51100000000E-03 0.  1.
        -12    1    3    3    0    0 -0.22414746298E+01 -0.10129971442E+02 -0.93674341392E+01  0.13978174140E+02  0.00000000000E+00 0.  1.
</event>
<event>
 7    1  0.2950722E-010  0.4778728E+02  0.7816164E-02  0.1312668E+00
        -11   -1    0    0    0    0  0.00000000000E+00  0.00000000000E+00  0.45593999997E+02  0.45594000000E+02  0.51100000000E-03 0.  1.
         11   -1    0    0    0    0 -0.00000000000E+00 -0.00000000000E+00 -0.45593999997E+02  0.45594000000E+02  0.51100000000E-03 0. -1.
    9900012    2    1    2    0    0 -0.35737787473E+02 -0.10387982624E+02 -0.22327633768E+02  0.47787275741E+02  0.20000021414E+02 0.  0.
        -12    1    1    2    0    0  0.35737787473E+02  0.10387982624E+02  0.22327633768E+02  0.43400724259E+02  0.00000000000E+00 0.  1.
         11    1    3    3    0    0 -0.18636808872E+02 -0.71587518488E+01 -0.21236719362E+02  0.29147497705E+02  0.51100000000E-03 0. -1.
        -11    1    3    3    0    0 -0.34102852191E+01 -0.29056162379E+01  0.14550535859E+01  0.47106084741E+01  0.51100000000E-03 0.  1.
         12    1    3    3    0    0 -0.13690693382E+02 -0.32361453770E+00 -0.25459679923E+01  0.13929169562E+02  0.00000000000E+00 0. -1.
</event>
<event>
 7    1  0.2950722E-010  0.4778730E+02  0.7816164E-02  0.1312668E+00
        -11   -1    0    0    0    0  0.00000000000E+00  0.00000000000E+00  0.45593999997E+02  0.45594000000E+02  0.51100000000E-03 0.  1.
         11   -1    0    0    0    0 -0.00000000000E+00 -0.00000000000E+00 -0.45593999997E+02  0.45594000000E+02  0.51100000000E-03 0. -1.
    9900012    2    1    2    0    0  0.22464170411E+02 -0.74689758143E+01 -0.36375765915E+02  0.47787298418E+02  0.20000124805E+02 0.  0.
        -12    1    1    2    0    0 -0.22464170411E+02  0.74689758143E+01  0.36375765915E+02  0.43400701582E+02  0.00000000000E+00 0.  1.
         11    1    3    3    0    0  0.29981259789E+01  0.29138808085E+01 -0.17396986075E+02  0.17892305203E+02  0.51100000000E-03 0. -1.
        -11    1    3    3    0    0  0.62258902399E+01 -0.27917085097E+01 -0.20992771626E+01  0.71387891515E+01  0.51100000000E-03 0.  1.
         12    1    3    3    0    0  0.13240154192E+02 -0.75911481130E+01 -0.16879502678E+02  0.22756204063E+02  0.00000000000E+00 0. -1.
</event>
<event>
 7    1  0.2950722E-010  0.4778727E+02  0.7816164E-02  0.1312668E+00
        -11   -1    0    0    0    0  0.00000000000E+00  0.00000000000E+00  0.45593999997E+02  0.45594000000E+02  0.51100000000E-03 0. -1.
         11   -1    0    0    0    0 -0.00000000000E+00 -0.00000000000E+00 -0.45593999997E+02  0.45594000000E+02  0.51100000000E-03 0.  1.
    9900012    2    1    2    0    0  0.32166344125E+02 -0.13880732356E+02 -0.25617855406E+02  0.47787274883E+02  0.20000017500E+02 0.  0.
        -12    1    1    2    0    0 -0.32166344125E+02  0.13880732356E+02  0.25617855406E+02  0.43400725117E+02  0.00000000000E+00 0.  1.
         11    1    3    3    0    0  0.16700924749E+02 -0.92924695983E+01 -0.16259134806E+02  0.25092435984E+02  0.51100000000E-03 0. -1.
        -11    1    3    3    0    0  0.15144472687E+01  0.32073705652E+01  0.95651678141E+00  0.36736495596E+01  0.51100000000E-03 0.  1.
        -12    1    3    3    0    0  0.13950972107E+02 -0.77956333227E+01 -0.10315237382E+02  0.19021189339E+02  0.00000000000E+00 0.  1.
</event>
<event>
 7    1  0.2950722E-010  0.4778727E+02  0.7816164E-02  0.1312668E+00
        -11   -1    0    0    0    0  0.00000000000E+00  0.00000000000E+00  0.45593999997E+02  0.45594000000E+02  0.51100000000E-03 0. -1.
         11   -1    0    0    0    0 -0.00000000000E+00 -0.00000000000E+00 -0.45593999997E+02  0.45594000000E+02  0.51100000000E-03 0.  1.
    9900012    2    1    2    0    0  0.36841988846E+02  0.20812448032E+02  0.96505369604E+01  0.47787274213E+02  0.20000014445E+02 0.  0.
        -12    1    1    2    0    0 -0.36841988846E+02 -0.20812448032E+02 -0.96505369604E+01  0.43400725787E+02  0.00000000000E+00 0.  1.
         11    1    3    3    0    0  0.11954554117E+02  0.91492567315E+00 -0.25033040620E+01  0.12248060443E+02  0.51100000000E-03 0. -1.
        -11    1    3    3    0    0  0.55267879888E+00  0.80705671069E+00 -0.14509870218E+01  0.17499022794E+01  0.51100000000E-03 0.  1.
         12    1    3    3    0    0  0.24334755930E+02  0.19090465649E+02  0.13604828044E+02  0.33789311490E+02  0.00000000000E+00 0. -1.
</event>
<event>
 7    1  0.2950722E-010  0.4778729E+02  0.7816164E-02  0.1312668E+00
        -11   -1    0    0    0    0  0.00000000000E+00  0.00000000000E+00  0.45593999997E+02  0.45594000000E+02  0.51100000000E-03 0. -1.
         11   -1    0    0    0    0 -0.00000000000E+00 -0.00000000000E+00 -0.45593999997E+02  0.45594000000E+02  0.51100000000E-03 0.  1.
    9900012    2    1    2    0    0  0.24165656181E+02  0.30104015702E+02  0.19834088491E+02  0.47787288412E+02  0.20000079187E+02 0.  0.
        -12    1    1    2    0    0 -0.24165656181E+02 -0.30104015702E+02 -0.19834088491E+02  0.43400711588E+02  0.00000000000E+00 0.  1.
         11    1    3    3    0    0  0.69262182604E+01  0.22811212637E+02  0.10426936408E+02  0.26020086942E+02  0.51100000000E-03 0. -1.
        -11    1    3    3    0    0 -0.43985142319E+00  0.37709473486E+00  0.61929411089E+00  0.84805375446E+00  0.51100000000E-03 0.  1.
         12    1    3    3    0    0  0.17679289344E+02  0.69157083300E+01  0.87878579725E+01  0.20919147716E+02  0.00000000000E+00 0. -1.
</event>
<event>
 7    1  0.2950722E-010  0.4778727E+02  0.7816164E-02  0.1312668E+00
        -11   -1    0    0    0    0  0.00000000000E+00  0.00000000000E+00  0.45593999997E+02  0.45594000000E+02  0.51100000000E-03 0. -1.
         11   -1    0    0    0    0 -0.00000000000E+00 -0.00000000000E+00 -0.45593999997E+02  0.45594000000E+02  0.51100000000E-03 0.  1.
    9900012    2    1    2    0    0  0.29178760336E+02  0.57373457986E+01  0.31611802632E+02  0.47787271236E+02  0.20000000875E+02 0.  0.
        -12    1    1    2    0    0 -0.29178760336E+02 -0.57373457986E+01 -0.31611802632E+02  0.43400728764E+02  0.00000000000E+00 0.  1.
         11    1    3    3    0    0 -0.10734982353E+01 -0.91611935696E+00  0.82483331132E+01  0.83681941029E+01  0.51100000000E-03 0. -1.
        -11    1    3    3    0    0  0.25194428653E+02  0.80789385154E+01  0.18773099567E+02  0.32441605236E+02  0.51100000000E-03 0.  1.
        -12    1    3    3    0    0  0.50578299184E+01 -0.14254733599E+01  0.45903699524E+01  0.69774718977E+01  0.00000000000E+00 0.  1.
</event>
<event>
 7    1  0.2950722E-010  0.4778727E+02  0.7816164E-02  0.1312668E+00
        -11   -1    0    0    0    0  0.00000000000E+00  0.00000000000E+00  0.45593999997E+02  0.45594000000E+02  0.51100000000E-03 0. -1.
         11   -1    0    0    0    0 -0.00000000000E+00 -0.00000000000E+00 -0.45593999997E+02  0.45594000000E+02  0.51100000000E-03 0.  1.
    9900012    2    1    2    0    0  0.27123152747E+02 -0.32966662041E+02  0.78203276027E+01  0.47787265618E+02  0.19999975261E+02 0.  0.
        -12    1    1    2    0    0 -0.27123152747E+02  0.32966662041E+02 -0.78203276027E+01  0.43400734382E+02  0.00000000000E+00 0.  1.
         11    1    3    3    0    0  0.66864415236E+01 -0.14640254888E+02  0.73514508256E+01  0.17694332226E+02  0.51100000000E-03 0. -1.
        -11    1    3    3    0    0  0.15286207062E+02 -0.57584289487E+01 -0.13440905036E+01  0.16390064363E+02  0.51100000000E-03 0.  1.
        -12    1    3    3    0    0  0.51505041613E+01 -0.12567978204E+02  0.18129672807E+01  0.13702869029E+02  0.00000000000E+00 0.  1.
</event>
<event>
 7    1  0.2950722E-010  0.4778727E+02  0.7816164E-02  0.1312668E+00
        -11   -1    0    0    0    0  0.00000000000E+00  0.00000000000E+00  0.45593999997E+02  0.45594000000E+02  0.51100000000E-03 0.  1.
         11   -1    0    0    0    0 -0.00000000000E+00 -0.00000000000E+00 -0.45593999997E+02  0.45594000000E+02  0.51100000000E-03 0. -1.
    9900012    2    1    2    0    0  0.42719516194E+02 -0.44884889737E+01 -0.62064373718E+01  0.47787268877E+02  0.19999990118E+02 0.  0.
        -12    1    1    2    0    0 -0.42719516194E+02  0.44884889737E+01  0.62064373718E+01  0.43400731123E+02  0.00000000000E+00 0.  1.
         11    1    3    3    0    0  0.50864313810E+01  0.12179476617E+01 -0.64079131164E+01  0.82714286232E+01  0.51100000000E-03 0.  1.
        -11    1    3    3    0    0  0.75829852619E+01  0.29857784938E+01 -0.10001569902E+01  0.82107766358E+01  0.51100000000E-03 0. -1.
         12    1    3    3    0    0  0.30050099551E+02 -0.86922151292E+01  0.12016327348E+01  0.31305063618E+02  0.00000000000E+00 0. -1.
</event>
<event>
 7    1  0.2950722E-010  0.4778727E+02  0.7816164E-02  0.1312668E+00
        -11   -1    0    0    0    0  0.00000000000E+00  0.00000000000E+00  0.45593999997E+02  0.45594000000E+02  0.51100000000E-03 0.  1.
         11   -1    0    0    0    0 -0.00000000000E+00 -0.00000000000E+00 -0.45593999997E+02  0.45594000000E+02  0.51100000000E-03 0. -1.
    9900012    2    1    2    0    0 -0.23732668074E+02 -0.86881694531E+01 -0.35283134777E+02  0.47787269338E+02  0.19999992218E+02 0.  0.
        -12    1    1    2    0    0  0.23732668074E+02  0.86881694531E+01  0.35283134777E+02  0.43400730662E+02  0.00000000000E+00 0.  1.
         11    1    3    3    0    0 -0.84095003544E+01 -0.31899924526E+01 -0.20617344654E+01  0.92274859700E+01  0.51100000000E-03 0. -1.
        -11    1    3    3    0    0 -0.49214427438E+00  0.12999022724E+01 -0.10478439448E+02  0.10570224474E+02  0.51100000000E-03 0.  1.
         12    1    3    3    0    0 -0.14831023445E+02 -0.67980792729E+01 -0.22742960863E+02  0.27989558894E+02  0.00000000000E+00 0. -1.
</event>
<event>
 7    1  0.2950722E-010  0.4778727E+02  0.7816164E-02  0.1312668E+00
        -11   -1    0    0    0    0  0.00000000000E+00  0.00000000000E+00  0.45593999997E+02  0.45594000000E+02  0.51100000000E-03 0.  1.
         11   -1    0    0    0    0 -0.00000000000E+00 -0.00000000000E+00 -0.45593999997E+02  0.45594000000E+02  0.51100000000E-03 0. -1.
    9900012    2    1    2    0    0  0.39335314086E+02  0.18339282693E+02 -0.16436715635E+00  0.47787271429E+02  0.20000001753E+02 0.  0.
        -12    1    1    2    0    0 -0.39335314086E+02 -0.18339282693E+02  0.16436715635E+00  0.43400728571E+02  0.00000000000E+00 0.  1.
         11    1    3    3    0    0  0.84155591574E+00  0.68890245839E+01  0.58824302592E+00  0.69651206878E+01  0.51100000000E-03 0. -1.
        -11    1    3    3    0    0  0.22687705838E+01  0.14363559543E+01  0.16672400719E+01  0.31607163915E+01  0.51100000000E-03 0.  1.
         12    1    3    3    0    0  0.36224987587E+02  0.10013902154E+02 -0.24198502541E+01  0.37661434350E+02  0.00000000000E+00 0. -1.
</event>
<event>
 7    1  0.2950722E-010  0.4778727E+02  0.7816164E-02  0.1312668E+00
        -11   -1    0    0    0    0  0.00000000000E+00  0.00000000000E+00  0.45593999997E+02  0.45594000000E+02  0.51100000000E-03 0.  1.
         11   -1    0    0    0    0 -0.00000000000E+00 -0.00000000000E+00 -0.45593999997E+02  0.45594000000E+02  0.51100000000E-03 0. -1.
    9900012    2    1    2    0    0 -0.38301315833E+02  0.20083925394E+02 -0.36426253923E+01  0.47787267592E+02  0.19999984261E+02 0.  0.
        -12    1    1    2    0    0  0.38301315833E+02 -0.20083925394E+02  0.36426253923E+01  0.43400732408E+02  0.00000000000E+00 0.  1.
         11    1    3    3    0    0 -0.93155890693E+01  0.45601851383E+01 -0.23635085278E+01  0.10637746990E+02  0.51100000000E-03 0. -1.
        -11    1    3    3    0    0 -0.27799111576E+02  0.71958682771E+01 -0.94355811224E+00  0.28730844520E+02  0.51100000000E-03 0.  1.
        -12    1    3    3    0    0 -0.11866151875E+01  0.83278719785E+01 -0.33555875220E+00  0.84186760817E+01  0.00000000000E+00 0.  1.
</event>
<event>
 7    1  0.2950722E-010  0.4778727E+02  0.7816164E-02  0.1312668E+00
        -11   -1    0    0    0    0  0.00000000000E+00  0.00000000000E+00  0.45593999997E+02  0.45594000000E+02  0.51100000000E-03 0.  1.
         11   -1    0    0    0    0 -0.00000000000E+00 -0.00000000000E+00 -0.45593999997E+02  0.45594000000E+02  0.51100000000E-03 0. -1.
    9900012    2    1    2    0    0 -0.19630278194E+02 -0.11144098346E+02 -0.37068652394E+02  0.47787265672E+02  0.19999975505E+02 0.  0.
        -12    1    1    2    0    0  0.19630278194E+02  0.11144098346E+02  0.37068652394E+02  0.43400734328E+02  0.00000000000E+00 0.  1.
         11    1    3    3    0    0 -0.15471066647E+01 -0.11298927294E+02 -0.17222637234E+02  0.20656198357E+02  0.51100000000E-03 0.  1.
        -11    1    3    3    0    0 -0.78800102360E+01  0.17658662164E+01 -0.10078998022E+02  0.12915070507E+02  0.51100000000E-03 0. -1.
         12    1    3    3    0    0 -0.10203161294E+02 -0.16110372680E+01 -0.97670171378E+01  0.14215996808E+02  0.00000000000E+00 0. -1.
</event>
<event>
 7    1  0.2950722E-010  0.4778727E+02  0.7816164E-02  0.1312668E+00
        -11   -1    0    0    0    0  0.00000000000E+00  0.00000000000E+00  0.45593999997E+02  0.45594000000E+02  0.51100000000E-03 0.  1.
         11   -1    0    0    0    0 -0.00000000000E+00 -0.00000000000E+00 -0.45593999997E+02  0.45594000000E+02  0.51100000000E-03 0. -1.
    9900012    2    1    2    0    0 -0.29830648903E+01 -0.15729901428E+02 -0.40339743565E+02  0.47787269753E+02  0.19999994113E+02 0.  0.
        -12    1    1    2    0    0  0.29830648903E+01  0.15729901428E+02  0.40339743565E+02  0.43400730247E+02  0.00000000000E+00 0.  1.
         11    1    3    3    0    0  0.13629586839E+01 -0.80539066910E+01 -0.21606048641E+02  0.23098580205E+02  0.51100000000E-03 0. -1.
        -11    1    3    3    0    0 -0.79020788715E+01 -0.62374184373E+01 -0.67872051487E+01  0.12141432916E+02  0.51100000000E-03 0.  1.
        -12    1    3    3    0    0  0.35560552973E+01 -0.14385762997E+01 -0.11946489775E+02  0.12547256632E+02  0.00000000000E+00 0.  1.
</event>
<event>
 7    1  0.2950722E-010  0.4778727E+02  0.7816164E-02  0.1312668E+00
        -11   -1    0    0    0    0  0.00000000000E+00  0.00000000000E+00  0.45593999997E+02  0.45594000000E+02  0.51100000000E-03 0.  1.
         11   -1    0    0    0    0 -0.00000000000E+00 -0.00000000000E+00 -0.45593999997E+02  0.45594000000E+02  0.51100000000E-03 0. -1.
    9900012    2    1    2    0    0 -0.13140345710E+02  0.13252298228E+02 -0.39183302661E+02  0.47787270730E+02  0.19999998567E+02 0.  0.
        -12    1    1    2    0    0  0.13140345710E+02 -0.13252298228E+02  0.39183302661E+02  0.43400729270E+02  0.00000000000E+00 0.  1.
         11    1    3    3    0    0 -0.73520996573E+01 -0.27636373214E+01 -0.12946976199E+02  0.15143158640E+02  0.51100000000E-03 0. -1.
        -11    1    3    3    0    0 -0.17381967230E+00  0.12346283448E+02 -0.19885697574E+02  0.23407304342E+02  0.51100000000E-03 0.  1.
        -12    1    3    3    0    0 -0.56144263803E+01  0.36696521017E+01 -0.63506288873E+01  0.92368077490E+01  0.00000000000E+00 0.  1.
</event>
<event>
 7    1  0.2950722E-010  0.4778727E+02  0.7816164E-02  0.1312668E+00
        -11   -1    0    0    0    0  0.00000000000E+00  0.00000000000E+00  0.45593999997E+02  0.45594000000E+02  0.51100000000E-03 0. -1.
         11   -1    0    0    0    0 -0.00000000000E+00 -0.00000000000E+00 -0.45593999997E+02  0.45594000000E+02  0.51100000000E-03 0.  1.
    9900012    2    1    2    0    0 -0.31168654382E+01  0.43288662460E+02  0.36872604489E-02  0.47787272341E+02  0.20000005910E+02 0.  0.
        -12    1    1    2    0    0  0.31168654382E+01 -0.43288662460E+02 -0.36872604489E-02  0.43400727659E+02  0.00000000000E+00 0.  1.
         11    1    3    3    0    0 -0.18141544333E+01  0.13121912633E+02  0.56038142898E+01  0.14383270919E+02  0.51100000000E-03 0. -1.
        -11    1    3    3    0    0 -0.53617751624E+01  0.14321797438E+02 -0.73256346010E+01  0.16956634021E+02  0.51100000000E-03 0.  1.
        -12    1    3    3    0    0  0.40590641575E+01  0.15844952388E+02  0.17255075717E+01  0.16447367401E+02  0.00000000000E+00 0.  1.
</event>
<event>
 7    1  0.2950722E-010  0.4778725E+02  0.7816164E-02  0.1312668E+00
        -11   -1    0    0    0    0  0.00000000000E+00  0.00000000000E+00  0.45593999997E+02  0.45594000000E+02  0.51100000000E-03 0.  1.
         11   -1    0    0    0    0 -0.00000000000E+00 -0.00000000000E+00 -0.45593999997E+02  0.45594000000E+02  0.51100000000E-03 0. -1.
    9900012    2    1    2    0    0  0.14570222158E+02  0.17936152255E+02 -0.36737282895E+02  0.47787252473E+02  0.19999915323E+02 0.  0.
        -12    1    1    2    0    0 -0.14570222158E+02 -0.17936152255E+02  0.36737282895E+02  0.43400747527E+02  0.00000000000E+00 0.  1.
         11    1    3    3    0    0  0.11145262245E+02  0.13464156606E+01 -0.14823220432E+02  0.18594557534E+02  0.51100000000E-03 0. -1.
        -11    1    3    3    0    0  0.47921391169E+01  0.11324675648E+02 -0.91802699059E+01  0.15345690980E+02  0.51100000000E-03 0.  1.
         12    1    3    3    0    0 -0.13671792041E+01  0.52650609465E+01 -0.12733792557E+02  0.13847003959E+02  0.00000000000E+00 0. -1.
</event>
<event>
 7    1  0.2950722E-010  0.4778732E+02  0.7816164E-02  0.1312668E+00
        -11   -1    0    0    0    0  0.00000000000E+00  0.00000000000E+00  0.45593999997E+02  0.45594000000E+02  0.51100000000E-03 0. -1.
         11   -1    0    0    0    0 -0.00000000000E+00 -0.00000000000E+00 -0.45593999997E+02  0.45594000000E+02  0.51100000000E-03 0.  1.
    9900012    2    1    2    0    0 -0.20801583703E+02  0.38086973292E+02 -0.54367262228E+00  0.47787320293E+02  0.20000224543E+02 0.  0.
        -12    1    1    2    0    0  0.20801583703E+02 -0.38086973292E+02  0.54367262228E+00  0.43400679707E+02  0.00000000000E+00 0.  1.
         11    1    3    3    0    0 -0.54382973350E+01  0.88066686227E+01 -0.88474468049E+00  0.10388227161E+02  0.51100000000E-03 0. -1.
        -11    1    3    3    0    0 -0.93622956467E+01  0.27295120828E+02 -0.47985672144E+01  0.29252392182E+02  0.51100000000E-03 0.  1.
        -12    1    3    3    0    0 -0.60009907210E+01  0.19851838409E+01  0.51396392727E+01  0.81467009500E+01  0.00000000000E+00 0.  1.
</event>
<event>
 7    1  0.2950722E-010  0.4778727E+02  0.7816164E-02  0.1312668E+00
        -11   -1    0    0    0    0  0.00000000000E+00  0.00000000000E+00  0.45593999997E+02  0.45594000000E+02  0.51100000000E-03 0.  1.
         11   -1    0    0    0    0 -0.00000000000E+00 -0.00000000000E+00 -0.45593999997E+02  0.45594000000E+02  0.51100000000E-03 0. -1.
    9900012    2    1    2    0    0  0.41021522713E+02 -0.14077528957E+02  0.16373763535E+01  0.47787272488E+02  0.20000006582E+02 0.  0.
        -12    1    1    2    0    0 -0.41021522713E+02  0.14077528957E+02 -0.16373763535E+01  0.43400727512E+02  0.00000000000E+00 0.  1.
         11    1    3    3    0    0  0.33381187912E+02 -0.80407840924E+01 -0.74345452530E+00  0.34344004428E+02  0.51100000000E-03 0. -1.
        -11    1    3    3    0    0  0.56835511517E+01 -0.74468392335E+01 -0.85563050293E+00  0.94069268139E+01  0.51100000000E-03 0.  1.
         12    1    3    3    0    0  0.19567836494E+01  0.14100943693E+01  0.32364613818E+01  0.40363412463E+01  0.00000000000E+00 0. -1.
</event>
<event>
 7    1  0.2950722E-010  0.4778726E+02  0.7816164E-02  0.1312668E+00
        -11   -1    0    0    0    0  0.00000000000E+00  0.00000000000E+00  0.45593999997E+02  0.45594000000E+02  0.51100000000E-03 0.  1.
         11   -1    0    0    0    0 -0.00000000000E+00 -0.00000000000E+00 -0.45593999997E+02  0.45594000000E+02  0.51100000000E-03 0. -1.
    9900012    2    1    2    0    0 -0.17823860667E+02 -0.16342280675E+02 -0.36039756956E+02  0.47787260050E+02  0.19999949873E+02 0.  0.
        -12    1    1    2    0    0  0.17823860667E+02  0.16342280675E+02  0.36039756956E+02  0.43400739950E+02  0.00000000000E+00 0.  1.
         11    1    3    3    0    0 -0.66816844015E+01 -0.30349369877E+01 -0.16301713472E+02  0.17877405051E+02  0.51100000000E-03 0. -1.
        -11    1    3    3    0    0 -0.39643401006E+01 -0.10476312638E+02 -0.31826587838E+01  0.11644674152E+02  0.51100000000E-03 0.  1.
        -12    1    3    3    0    0 -0.71778361648E+01 -0.28310310497E+01 -0.16555384700E+02  0.18265180847E+02  0.00000000000E+00 0.  1.
</event>
<event>
 7    1  0.2950722E-010  0.4778725E+02  0.7816164E-02  0.1312668E+00
        -11   -1    0    0    0    0  0.00000000000E+00  0.00000000000E+00  0.45593999997E+02  0.45594000000E+02  0.51100000000E-03 0.  1.
         11   -1    0    0    0    0 -0.00000000000E+00 -0.00000000000E+00 -0.45593999997E+02  0.45594000000E+02  0.51100000000E-03 0. -1.
    9900012    2    1    2    0    0 -0.31979266968E+02 -0.10527651173E+02 -0.27388328388E+02  0.47787245549E+02  0.19999883756E+02 0.  0.
        -12    1    1    2    0    0  0.31979266968E+02  0.10527651173E+02  0.27388328388E+02  0.43400754451E+02  0.00000000000E+00 0.  1.
         11    1    3    3    0    0 -0.20997937777E+02 -0.41484595859E-01 -0.14684270628E+02  0.25623093412E+02  0.51100000000E-03 0. -1.
        -11    1    3    3    0    0 -0.74349703919E+01 -0.94275126295E+01 -0.13811835732E+02  0.18300917618E+02  0.51100000000E-03 0.  1.
        -12    1    3    3    0    0 -0.35463587994E+01 -0.10586539472E+01  0.11077779727E+01  0.38632345192E+01  0.00000000000E+00 0.  1.
</event>
<event>
 7    1  0.2950722E-010  0.4778727E+02  0.7816164E-02  0.1312668E+00
        -11   -1    0    0    0    0  0.00000000000E+00  0.00000000000E+00  0.45593999997E+02  0.45594000000E+02  0.51100000000E-03 0.  1.
         11   -1    0    0    0    0 -0.00000000000E+00 -0.00000000000E+00 -0.45593999997E+02  0.45594000000E+02  0.51100000000E-03 0. -1.
    9900012    2    1    2    0    0 -0.95508284220E+01 -0.35546266817E+02  0.22997127337E+02  0.47787271044E+02  0.19999999996E+02 0.  0.
        -12    1    1    2    0    0  0.95508284220E+01  0.35546266817E+02 -0.22997127337E+02  0.43400728956E+02  0.00000000000E+00 0.  1.
         11    1    3    3    0    0 -0.73346388322E-01 -0.10938243577E+02  0.23739619278E+00  0.10941065279E+02  0.51100000000E-03 0. -1.
        -11    1    3    3    0    0 -0.65805660464E+01 -0.14377180547E+02  0.20645981425E+02  0.26005071029E+02  0.51100000000E-03 0.  1.
        -12    1    3    3    0    0 -0.28969159873E+01 -0.10230842694E+02  0.21137497192E+01  0.10841134735E+02  0.00000000000E+00 0.  1.
</event>
<event>
 7    1  0.2950722E-010  0.4778727E+02  0.7816164E-02  0.1312668E+00
        -11   -1    0    0    0    0  0.00000000000E+00  0.00000000000E+00  0.45593999997E+02  0.45594000000E+02  0.51100000000E-03 0.  1.
         11   -1    0    0    0    0 -0.00000000000E+00 -0.00000000000E+00 -0.45593999997E+02  0.45594000000E+02  0.51100000000E-03 0. -1.
    9900012    2    1    2    0    0 -0.86918670006E+01 -0.16880287510E+02 -0.39027306419E+02  0.47787270689E+02  0.19999998380E+02 0.  0.
        -12    1    1    2    0    0  0.86918670006E+01  0.16880287510E+02  0.39027306419E+02  0.43400729311E+02  0.00000000000E+00 0.  1.
         11    1    3    3    0    0 -0.53820729514E+01 -0.83864897652E+00 -0.97984761668E+01  0.11210717052E+02  0.51100000000E-03 0. -1.
        -11    1    3    3    0    0 -0.55637750525E+01 -0.61869215214E+01 -0.36756689376E+01  0.90963802222E+01  0.51100000000E-03 0.  1.
        -12    1    3    3    0    0  0.22539810033E+01 -0.98547170120E+01 -0.25553161315E+02  0.27480173415E+02  0.00000000000E+00 0.  1.
</event>
<event>
 7    1  0.2950722E-010  0.4778727E+02  0.7816164E-02  0.1312668E+00
        -11   -1    0    0    0    0  0.00000000000E+00  0.00000000000E+00  0.45593999997E+02  0.45594000000E+02  0.51100000000E-03 0.  1.
         11   -1    0    0    0    0 -0.00000000000E+00 -0.00000000000E+00 -0.45593999997E+02  0.45594000000E+02  0.51100000000E-03 0. -1.
    9900012    2    1    2    0    0 -0.35485036127E+02 -0.12432389185E+02  0.21676516710E+02  0.47787268826E+02  0.19999989884E+02 0.  0.
        -12    1    1    2    0    0  0.35485036127E+02  0.12432389185E+02 -0.21676516710E+02  0.43400731174E+02  0.00000000000E+00 0.  1.
         11    1    3    3    0    0 -0.78048155435E+01 -0.10648132936E+01  0.13514076480E+02  0.15642226069E+02  0.51100000000E-03 0. -1.
        -11    1    3    3    0    0 -0.13583904337E+02 -0.10893138562E+01  0.30324759953E+01  0.13960837104E+02  0.51100000000E-03 0.  1.
         12    1    3    3    0    0 -0.14096316246E+02 -0.10278262036E+02  0.51299642346E+01  0.18184205653E+02  0.00000000000E+00 0. -1.
</event>
<event>
 7    1  0.2950722E-010  0.4778727E+02  0.7816164E-02  0.1312668E+00
        -11   -1    0    0    0    0  0.00000000000E+00  0.00000000000E+00  0.45593999997E+02  0.45594000000E+02  0.51100000000E-03 0.  1.
         11   -1    0    0    0    0 -0.00000000000E+00 -0.00000000000E+00 -0.45593999997E+02  0.45594000000E+02  0.51100000000E-03 0. -1.
    9900012    2    1    2    0    0  0.71202038543E+01  0.35899968419E+02 -0.23326337090E+02  0.47787273768E+02  0.20000012418E+02 0.  0.
        -12    1    1    2    0    0 -0.71202038543E+01 -0.35899968419E+02  0.23326337090E+02  0.43400726232E+02  0.00000000000E+00 0.  1.
         11    1    3    3    0    0 -0.47763760088E+01  0.11599706069E+02 -0.10262021443E+02  0.16207283332E+02  0.51100000000E-03 0. -1.
        -11    1    3    3    0    0 -0.10754480595E+01  0.31362785502E+01  0.40133362005E+00  0.33397455904E+01  0.51100000000E-03 0.  1.
         12    1    3    3    0    0  0.12972027923E+02  0.21163983801E+02 -0.13465649266E+02  0.28240244845E+02  0.00000000000E+00 0. -1.
</event>
<event>
 7    1  0.2950722E-010  0.4778727E+02  0.7816164E-02  0.1312668E+00
        -11   -1    0    0    0    0  0.00000000000E+00  0.00000000000E+00  0.45593999997E+02  0.45594000000E+02  0.51100000000E-03 0.  1.
         11   -1    0    0    0    0 -0.00000000000E+00 -0.00000000000E+00 -0.45593999997E+02  0.45594000000E+02  0.51100000000E-03 0. -1.
    9900012    2    1    2    0    0 -0.12531408928E+02 -0.76072474550E-01 -0.41552150539E+02  0.47787271767E+02  0.20000003295E+02 0.  0.
        -12    1    1    2    0    0  0.12531408928E+02  0.76072474550E-01  0.41552150539E+02  0.43400728233E+02  0.00000000000E+00 0.  1.
         11    1    3    3    0    0 -0.11136817511E+02  0.79466067429E+01 -0.24931375270E+02  0.28438543143E+02  0.51100000000E-03 0. -1.
        -11    1    3    3    0    0 -0.30231907646E+01 -0.56801864053E+01 -0.79913734983E+01  0.10259934242E+02  0.51100000000E-03 0.  1.
         12    1    3    3    0    0  0.16285993468E+01 -0.23424928121E+01 -0.86294017701E+01  0.90887943819E+01  0.00000000000E+00 0. -1.
</event>
<event>
 7    1  0.2950722E-010  0.4778731E+02  0.7816164E-02  0.1312668E+00
        -11   -1    0    0    0    0  0.00000000000E+00  0.00000000000E+00  0.45593999997E+02  0.45594000000E+02  0.51100000000E-03 0.  1.
         11   -1    0    0    0    0 -0.00000000000E+00 -0.00000000000E+00 -0.45593999997E+02  0.45594000000E+02  0.51100000000E-03 0. -1.
    9900012    2    1    2    0    0  0.25163821089E+01  0.23018279908E+01 -0.43266493001E+02  0.47787308673E+02  0.20000171563E+02 0.  0.
        -12    1    1    2    0    0 -0.25163821089E+01 -0.23018279908E+01  0.43266493001E+02  0.43400691327E+02  0.00000000000E+00 0.  1.
         11    1    3    3    0    0  0.15363779770E+01  0.89266065001E+00 -0.52029821668E+01  0.54980291026E+01  0.51100000000E-03 0. -1.
        -11    1    3    3    0    0  0.74112156084E+01  0.64479944739E+01 -0.16159433801E+02  0.18911109183E+02  0.51100000000E-03 0.  1.
        -12    1    3    3    0    0 -0.64312114765E+01 -0.50388271331E+01 -0.21904077034E+02  0.23378170387E+02  0.00000000000E+00 0.  1.
</event>
<event>
 7    1  0.2950722E-010  0.4778727E+02  0.7816164E-02  0.1312668E+00
        -11   -1    0    0    0    0  0.00000000000E+00  0.00000000000E+00  0.45593999997E+02  0.45594000000E+02  0.51100000000E-03 0. -1.
         11   -1    0    0    0    0 -0.00000000000E+00 -0.00000000000E+00 -0.45593999997E+02  0.45594000000E+02  0.51100000000E-03 0.  1.
    9900012    2    1    2    0    0 -0.32329212392E+02 -0.46327114699E+01  0.28582922273E+02  0.47787269187E+02  0.19999991529E+02 0.  0.
        -12    1    1    2    0    0  0.32329212392E+02  0.46327114699E+01 -0.28582922273E+02  0.43400730813E+02  0.00000000000E+00 0.  1.
         11    1    3    3    0    0 -0.17704414343E+02 -0.10725585846E+02  0.19354743393E+02  0.28338852677E+02  0.51100000000E-03 0. -1.
        -11    1    3    3    0    0 -0.14031696266E+01  0.33237293031E+01  0.21030227883E+01  0.41759749269E+01  0.51100000000E-03 0.  1.
         12    1    3    3    0    0 -0.13221628422E+02  0.27691450726E+01  0.71251560920E+01  0.15272441583E+02  0.00000000000E+00 0. -1.
</event>
<event>
 7    1  0.2950722E-010  0.4778726E+02  0.7816164E-02  0.1312668E+00
        -11   -1    0    0    0    0  0.00000000000E+00  0.00000000000E+00  0.45593999997E+02  0.45594000000E+02  0.51100000000E-03 0.  1.
         11   -1    0    0    0    0 -0.00000000000E+00 -0.00000000000E+00 -0.45593999997E+02  0.45594000000E+02  0.51100000000E-03 0. -1.
    9900012    2    1    2    0    0 -0.61896587494E+01 -0.27208247158E+02 -0.33241891716E+02  0.47787263213E+02  0.19999964293E+02 0.  0.
        -12    1    1    2    0    0  0.61896587494E+01  0.27208247158E+02  0.33241891716E+02  0.43400736787E+02  0.00000000000E+00 0.  1.
         11    1    3    3    0    0 -0.54941706726E+01 -0.24970309515E+02 -0.27684148477E+02  0.37684404544E+02  0.51100000000E-03 0. -1.
        -11    1    3    3    0    0 -0.13842735287E+00  0.20656365360E+01  0.95251944267E+00  0.22788834943E+01  0.51100000000E-03 0.  1.
         12    1    3    3    0    0 -0.55706072389E+00 -0.43035741786E+01 -0.65102626811E+01  0.78239751749E+01  0.00000000000E+00 0. -1.
</event>
<event>
 7    1  0.2950722E-010  0.4778725E+02  0.7816164E-02  0.1312668E+00
        -11   -1    0    0    0    0  0.00000000000E+00  0.00000000000E+00  0.45593999997E+02  0.45594000000E+02  0.51100000000E-03 0. -1.
         11   -1    0    0    0    0 -0.00000000000E+00 -0.00000000000E+00 -0.45593999997E+02  0.45594000000E+02  0.51100000000E-03 0.  1.
    9900012    2    1    2    0    0 -0.42118241632E+02  0.69674003746E+01  0.78188406567E+01  0.47787248677E+02  0.19999898019E+02 0.  0.
        -12    1    1    2    0    0  0.42118241632E+02 -0.69674003746E+01 -0.78188406567E+01  0.43400751323E+02  0.00000000000E+00 0.  1.
         11    1    3    3    0    0 -0.52101408064E+01  0.22792392235E+01  0.32315119164E+01  0.65408843582E+01  0.51100000000E-03 0. -1.
        -11    1    3    3    0    0 -0.33758699552E+02 -0.10866473008E+01  0.65004487894E+01  0.34396023498E+02  0.51100000000E-03 0.  1.
        -12    1    3    3    0    0 -0.31494012741E+01  0.57748084519E+01 -0.19131200491E+01  0.68503408210E+01  0.00000000000E+00 0.  1.
</event>
<event>
 7    1  0.2950722E-010  0.4778727E+02  0.7816164E-02  0.1312668E+00
        -11   -1    0    0    0    0  0.00000000000E+00  0.00000000000E+00  0.45593999997E+02  0.45594000000E+02  0.51100000000E-03 0.  1.
         11   -1    0    0    0    0 -0.00000000000E+00 -0.00000000000E+00 -0.45593999997E+02  0.45594000000E+02  0.51100000000E-03 0. -1.
    9900012    2    1    2    0    0 -0.21925575045E+02  0.16810077035E+02 -0.33471087782E+02  0.47787271340E+02  0.20000001346E+02 0.  0.
        -12    1    1    2    0    0  0.21925575045E+02 -0.16810077035E+02  0.33471087782E+02  0.43400728660E+02  0.00000000000E+00 0.  1.
         11    1    3    3    0    0  0.20426452209E+01  0.30298732314E+01 -0.74624142709E+01  0.83090407574E+01  0.51100000000E-03 0. -1.
        -11    1    3    3    0    0 -0.52958315125E+01  0.69729131498E+01 -0.13178486593E+02  0.15822131915E+02  0.51100000000E-03 0.  1.
        -12    1    3    3    0    0 -0.18672388753E+02  0.68072906541E+01 -0.12830186918E+02  0.23656098667E+02  0.00000000000E+00 0.  1.
</event>
<event>
 7    1  0.2950722E-010  0.4778727E+02  0.7816164E-02  0.1312668E+00
        -11   -1    0    0    0    0  0.00000000000E+00  0.00000000000E+00  0.45593999997E+02  0.45594000000E+02  0.51100000000E-03 0. -1.
         11   -1    0    0    0    0 -0.00000000000E+00 -0.00000000000E+00 -0.45593999997E+02  0.45594000000E+02  0.51100000000E-03 0.  1.
    9900012    2    1    2    0    0 -0.35004896721E+02  0.22658698543E+02  0.12035940574E+02  0.47787270978E+02  0.19999999697E+02 0.  0.
        -12    1    1    2    0    0  0.35004896721E+02 -0.22658698543E+02 -0.12035940574E+02  0.43400729022E+02  0.00000000000E+00 0.  1.
         11    1    3    3    0    0 -0.95760736115E+00  0.44654560814E+01 -0.13351306352E+01  0.47581387062E+01  0.51100000000E-03 0. -1.
        -11    1    3    3    0    0 -0.24325003623E+02  0.19034543026E+02  0.80718007927E+01  0.31924498395E+02  0.51100000000E-03 0.  1.
        -12    1    3    3    0    0 -0.97222857374E+01 -0.84130056407E+00  0.52992704163E+01  0.11104633877E+02  0.00000000000E+00 0.  1.
</event>
<event>
 7    1  0.2950722E-010  0.4778727E+02  0.7816164E-02  0.1312668E+00
        -11   -1    0    0    0    0  0.00000000000E+00  0.00000000000E+00  0.45593999997E+02  0.45594000000E+02  0.51100000000E-03 0.  1.
         11   -1    0    0    0    0 -0.00000000000E+00 -0.00000000000E+00 -0.45593999997E+02  0.45594000000E+02  0.51100000000E-03 0. -1.
    9900012    2    1    2    0    0  0.25352101805E+02  0.24644863326E+02 -0.25169926662E+02  0.47787267720E+02  0.19999984841E+02 0.  0.
        -12    1    1    2    0    0 -0.25352101805E+02 -0.24644863326E+02  0.25169926662E+02  0.43400732280E+02  0.00000000000E+00 0.  1.
         11    1    3    3    0    0  0.57336717341E+01 -0.88020517410E-02  0.22988916350E-01  0.57337245994E+01  0.51100000000E-03 0.  1.
        -11    1    3    3    0    0  0.39565055809E+01  0.28106788568E+01  0.49006824727E+00  0.48779113558E+01  0.51100000000E-03 0. -1.
         12    1    3    3    0    0  0.15661924490E+02  0.21842986521E+02 -0.25682983825E+02  0.37175631764E+02  0.00000000000E+00 0. -1.
</event>
<event>
 7    1  0.2950722E-010  0.4778727E+02  0.7816164E-02  0.1312668E+00
        -11   -1    0    0    0    0  0.00000000000E+00  0.00000000000E+00  0.45593999997E+02  0.45594000000E+02  0.51100000000E-03 0.  1.
         11   -1    0    0    0    0 -0.00000000000E+00 -0.00000000000E+00 -0.45593999997E+02  0.45594000000E+02  0.51100000000E-03 0. -1.
    9900012    2    1    2    0    0  0.33833209032E+02  0.33669787550E+01 -0.26974077437E+02  0.47787269212E+02  0.19999991645E+02 0.  0.
        -12    1    1    2    0    0 -0.33833209032E+02 -0.33669787550E+01  0.26974077437E+02  0.43400730788E+02  0.00000000000E+00 0.  1.
         11    1    3    3    0    0 -0.19379755212E+01 -0.64081913644E+00  0.19906273690E+00  0.20508594591E+01  0.51100000000E-03 0.  1.
        -11    1    3    3    0    0  0.28600648896E+02  0.59555254876E+00 -0.23331682227E+02  0.36915026695E+02  0.51100000000E-03 0. -1.
         12    1    3    3    0    0  0.71705356576E+01  0.34122453427E+01 -0.38414579472E+01  0.88213830580E+01  0.00000000000E+00 0. -1.
</event>
<event>
 7    1  0.2950722E-010  0.4778727E+02  0.7816164E-02  0.1312668E+00
        -11   -1    0    0    0    0  0.00000000000E+00  0.00000000000E+00  0.45593999997E+02  0.45594000000E+02  0.51100000000E-03 0. -1.
         11   -1    0    0    0    0 -0.00000000000E+00 -0.00000000000E+00 -0.45593999997E+02  0.45594000000E+02  0.51100000000E-03 0.  1.
    9900012    2    1    2    0    0  0.41131489635E+02 -0.13850045911E+02  0.87730909048E-02  0.47787270879E+02  0.19999999244E+02 0.  0.
        -12    1    1    2    0    0 -0.41131489635E+02  0.13850045911E+02 -0.87730909048E-02  0.43400729121E+02  0.00000000000E+00 0.  1.
         11    1    3    3    0    0  0.82632716901E+01  0.11934152587E+01  0.13706445476E+00  0.83501308930E+01  0.51100000000E-03 0. -1.
        -11    1    3    3    0    0  0.31745009349E+02 -0.10321932351E+02  0.32275518563E+01  0.33536621733E+02  0.51100000000E-03 0.  1.
        -12    1    3    3    0    0  0.11232085957E+01 -0.47215288185E+01 -0.33558432202E+01  0.59005182528E+01  0.00000000000E+00 0.  1.
</event>
<event>
 7    1  0.2950722E-010  0.4778728E+02  0.7816164E-02  0.1312668E+00
        -11   -1    0    0    0    0  0.00000000000E+00  0.00000000000E+00  0.45593999997E+02  0.45594000000E+02  0.51100000000E-03 0. -1.
         11   -1    0    0    0    0 -0.00000000000E+00 -0.00000000000E+00 -0.45593999997E+02  0.45594000000E+02  0.51100000000E-03 0.  1.
    9900012    2    1    2    0    0  0.19065485600E+02 -0.34154355116E+02  0.18804516120E+02  0.47787279487E+02  0.20000038492E+02 0.  0.
        -12    1    1    2    0    0 -0.19065485600E+02  0.34154355116E+02 -0.18804516120E+02  0.43400720513E+02  0.00000000000E+00 0.  1.
         11    1    3    3    0    0  0.15287715760E+01 -0.61412569835E+01 -0.86213931890E+00  0.63871327163E+01  0.51100000000E-03 0. -1.
        -11    1    3    3    0    0  0.19769106037E+02 -0.21107609904E+02  0.17600130492E+02  0.33854295783E+02  0.51100000000E-03 0.  1.
        -12    1    3    3    0    0 -0.22323920128E+01 -0.69054882287E+01  0.20665249467E+01  0.75458509879E+01  0.00000000000E+00 0.  1.
</event>
<event>
 7    1  0.2950722E-010  0.4778727E+02  0.7816164E-02  0.1312668E+00
        -11   -1    0    0    0    0  0.00000000000E+00  0.00000000000E+00  0.45593999997E+02  0.45594000000E+02  0.51100000000E-03 0. -1.
         11   -1    0    0    0    0 -0.00000000000E+00 -0.00000000000E+00 -0.45593999997E+02  0.45594000000E+02  0.51100000000E-03 0.  1.
    9900012    2    1    2    0    0 -0.12651544469E+02  0.40412173823E+02  0.95088227418E+01  0.47787273272E+02  0.20000010157E+02 0.  0.
        -12    1    1    2    0    0  0.12651544469E+02 -0.40412173823E+02 -0.95088227418E+01  0.43400726728E+02  0.00000000000E+00 0.  1.
         11    1    3    3    0    0  0.21178572010E+01  0.16357057305E+02  0.13587652385E+01  0.16549467848E+02  0.51100000000E-03 0. -1.
        -11    1    3    3    0    0 -0.87102895572E+01  0.86904549566E+01  0.80825576687E+01  0.14721443212E+02  0.51100000000E-03 0.  1.
         12    1    3    3    0    0 -0.60591121127E+01  0.15364661562E+02  0.67499834568E-01  0.16516362212E+02  0.00000000000E+00 0. -1.
</event>
<event>
 7    1  0.2950722E-010  0.4778726E+02  0.7816164E-02  0.1312668E+00
        -11   -1    0    0    0    0  0.00000000000E+00  0.00000000000E+00  0.45593999997E+02  0.45594000000E+02  0.51100000000E-03 0.  1.
         11   -1    0    0    0    0 -0.00000000000E+00 -0.00000000000E+00 -0.45593999997E+02  0.45594000000E+02  0.51100000000E-03 0. -1.
    9900012    2    1    2    0    0  0.38026743469E+02 -0.17023345811E+02 -0.12157166752E+02  0.47787260087E+02  0.19999950043E+02 0.  0.
        -12    1    1    2    0    0 -0.38026743469E+02  0.17023345811E+02  0.12157166752E+02  0.43400739913E+02  0.00000000000E+00 0.  1.
         11    1    3    3    0    0  0.32011315709E+02 -0.81486050636E+01 -0.31081294831E+01  0.33178073588E+02  0.51100000000E-03 0. -1.
        -11    1    3    3    0    0  0.55097754950E+00  0.85686950672E-01  0.22720285744E+00  0.60211287407E+00  0.51100000000E-03 0.  1.
         12    1    3    3    0    0  0.54644502114E+01 -0.89604276986E+01 -0.92762401268E+01  0.14007073625E+02  0.00000000000E+00 0. -1.
</event>
<event>
 7    1  0.2950722E-010  0.4778727E+02  0.7816164E-02  0.1312668E+00
        -11   -1    0    0    0    0  0.00000000000E+00  0.00000000000E+00  0.45593999997E+02  0.45594000000E+02  0.51100000000E-03 0. -1.
         11   -1    0    0    0    0 -0.00000000000E+00 -0.00000000000E+00 -0.45593999997E+02  0.45594000000E+02  0.51100000000E-03 0.  1.
    9900012    2    1    2    0    0  0.24595207515E+02  0.17204795523E+02  0.31347953844E+02  0.47787269224E+02  0.19999991699E+02 0.  0.
        -12    1    1    2    0    0 -0.24595207515E+02 -0.17204795523E+02 -0.31347953844E+02  0.43400730776E+02  0.00000000000E+00 0.  1.
         11    1    3    3    0    0 -0.10741811616E+01  0.66854199399E+01  0.33245785005E+01  0.75433101095E+01  0.51100000000E-03 0. -1.
        -11    1    3    3    0    0  0.15097960002E+02  0.76132659529E+01  0.11630164996E+02  0.20522449970E+02  0.51100000000E-03 0.  1.
         12    1    3    3    0    0  0.10571428675E+02  0.29061096302E+01  0.16393210348E+02  0.19721509144E+02  0.00000000000E+00 0. -1.
</event>
<event>
 7    1  0.2950722E-010  0.4778727E+02  0.7816164E-02  0.1312668E+00
        -11   -1    0    0    0    0  0.00000000000E+00  0.00000000000E+00  0.45593999997E+02  0.45594000000E+02  0.51100000000E-03 0. -1.
         11   -1    0    0    0    0 -0.00000000000E+00 -0.00000000000E+00 -0.45593999997E+02  0.45594000000E+02  0.51100000000E-03 0.  1.
    9900012    2    1    2    0    0 -0.17917336473E+02  0.15487344561E+02  0.36369422588E+02  0.47787266283E+02  0.19999978290E+02 0.  0.
        -12    1    1    2    0    0  0.17917336473E+02 -0.15487344561E+02 -0.36369422588E+02  0.43400733717E+02  0.00000000000E+00 0.  1.
         11    1    3    3    0    0 -0.15260817139E+02  0.12753741869E+02  0.35995080564E+02  0.41124157092E+02  0.51100000000E-03 0. -1.
        -11    1    3    3    0    0 -0.30105497332E+01 -0.74268276439E+00 -0.26017245217E+00  0.31117000740E+01  0.51100000000E-03 0.  1.
         12    1    3    3    0    0  0.35403039959E+00  0.34762854563E+01  0.63451447576E+00  0.35514091172E+01  0.00000000000E+00 0. -1.
</event>
<event>
 7    1  0.2950722E-010  0.4778727E+02  0.7816164E-02  0.1312668E+00
        -11   -1    0    0    0    0  0.00000000000E+00  0.00000000000E+00  0.45593999997E+02  0.45594000000E+02  0.51100000000E-03 0.  1.
         11   -1    0    0    0    0 -0.00000000000E+00 -0.00000000000E+00 -0.45593999997E+02  0.45594000000E+02  0.51100000000E-03 0. -1.
    9900012    2    1    2    0    0  0.22283020375E+02 -0.28677795794E+01 -0.37133087332E+02  0.47787270380E+02  0.19999996970E+02 0.  0.
        -12    1    1    2    0    0 -0.22283020375E+02  0.28677795794E+01  0.37133087332E+02  0.43400729620E+02  0.00000000000E+00 0.  1.
         11    1    3    3    0    0  0.89013334105E+01 -0.55883023027E+01 -0.15884823750E+02  0.19047059745E+02  0.51100000000E-03 0. -1.
        -11    1    3    3    0    0  0.20200819111E+01  0.42146349603E+01 -0.14951038261E+02  0.15664527574E+02  0.51100000000E-03 0.  1.
        -12    1    3    3    0    0  0.11361605053E+02 -0.14941122370E+01 -0.62972253220E+01  0.13075683061E+02  0.00000000000E+00 0.  1.
</event>
<event>
 7    1  0.2950722E-010  0.4778729E+02  0.7816164E-02  0.1312668E+00
        -11   -1    0    0    0    0  0.00000000000E+00  0.00000000000E+00  0.45593999997E+02  0.45594000000E+02  0.51100000000E-03 0.  1.
         11   -1    0    0    0    0 -0.00000000000E+00 -0.00000000000E+00 -0.45593999997E+02  0.45594000000E+02  0.51100000000E-03 0. -1.
    9900012    2    1    2    0    0 -0.39329297441E+01 -0.24240120153E+02 -0.35785058377E+02  0.47787288434E+02  0.20000079287E+02 0.  0.
        -12    1    1    2    0    0  0.39329297441E+01  0.24240120153E+02  0.35785058377E+02  0.43400711566E+02  0.00000000000E+00 0.  1.
         11    1    3    3    0    0 -0.10002192465E+02 -0.92980198666E+01 -0.13753181350E+02  0.19381615646E+02  0.51100000000E-03 0.  1.
        -11    1    3    3    0    0  0.20429373011E+01 -0.13298799174E+02 -0.18020638988E+02  0.22489443792E+02  0.51100000000E-03 0. -1.
         12    1    3    3    0    0  0.40263254198E+01 -0.16433011118E+01 -0.40112380394E+01  0.59162289965E+01  0.00000000000E+00 0. -1.
</event>
<event>
 7    1  0.2950722E-010  0.4778727E+02  0.7816164E-02  0.1312668E+00
        -11   -1    0    0    0    0  0.00000000000E+00  0.00000000000E+00  0.45593999997E+02  0.45594000000E+02  0.51100000000E-03 0. -1.
         11   -1    0    0    0    0 -0.00000000000E+00 -0.00000000000E+00 -0.45593999997E+02  0.45594000000E+02  0.51100000000E-03 0.  1.
    9900012    2    1    2    0    0  0.16928247371E+02 -0.37560628094E+02  0.13647606317E+02  0.47787268439E+02  0.19999988120E+02 0.  0.
        -12    1    1    2    0    0 -0.16928247371E+02  0.37560628094E+02 -0.13647606317E+02  0.43400731561E+02  0.00000000000E+00 0.  1.
         11    1    3    3    0    0  0.11032178649E+02 -0.82141287260E+01  0.80346882299E+01  0.15929127148E+02  0.51100000000E-03 0. -1.
        -11    1    3    3    0    0  0.32361509392E+01 -0.28322421451E+02  0.49790809691E+01  0.28938270116E+02  0.51100000000E-03 0.  1.
        -12    1    3    3    0    0  0.26599177824E+01 -0.10240779172E+01  0.63383711775E+00  0.29198711755E+01  0.00000000000E+00 0.  1.
</event>
<event>
 7    1  0.2950722E-010  0.4778726E+02  0.7816164E-02  0.1312668E+00
        -11   -1    0    0    0    0  0.00000000000E+00  0.00000000000E+00  0.45593999997E+02  0.45594000000E+02  0.51100000000E-03 0.  1.
         11   -1    0    0    0    0 -0.00000000000E+00 -0.00000000000E+00 -0.45593999997E+02  0.45594000000E+02  0.51100000000E-03 0. -1.
    9900012    2    1    2    0    0 -0.39202013095E+02 -0.70756575695E+01 -0.17226756508E+02  0.47787263825E+02  0.19999967082E+02 0.  0.
        -12    1    1    2    0    0  0.39202013095E+02  0.70756575695E+01  0.17226756508E+02  0.43400736175E+02  0.00000000000E+00 0.  1.
         11    1    3    3    0    0 -0.39862925885E+01  0.31077015442E+01  0.19563402422E+01  0.54199266502E+01  0.51100000000E-03 0. -1.
        -11    1    3    3    0    0 -0.30275554510E+02 -0.70772332052E+01 -0.12540446027E+02  0.33525501004E+02  0.51100000000E-03 0.  1.
        -12    1    3    3    0    0 -0.49401659967E+01 -0.31061259085E+01 -0.66426507233E+01  0.88418361705E+01  0.00000000000E+00 0.  1.
</event>
<event>
 7    1  0.2950722E-010  0.4778727E+02  0.7816164E-02  0.1312668E+00
        -11   -1    0    0    0    0  0.00000000000E+00  0.00000000000E+00  0.45593999997E+02  0.45594000000E+02  0.51100000000E-03 0.  1.
         11   -1    0    0    0    0 -0.00000000000E+00 -0.00000000000E+00 -0.45593999997E+02  0.45594000000E+02  0.51100000000E-03 0. -1.
    9900012    2    1    2    0    0 -0.26102331062E+02  0.28143095232E+02 -0.20254819183E+02  0.47787271938E+02  0.20000004075E+02 0.  0.
        -12    1    1    2    0    0  0.26102331062E+02 -0.28143095232E+02  0.20254819183E+02  0.43400728062E+02  0.00000000000E+00 0.  1.
         11    1    3    3    0    0 -0.19241702439E+02  0.20720597050E+02 -0.11044043403E+02  0.30357159778E+02  0.51100000000E-03 0.  1.
        -11    1    3    3    0    0 -0.25853568399E+01 -0.22847910129E+01 -0.48720120198E+01  0.59699950875E+01  0.51100000000E-03 0. -1.
         12    1    3    3    0    0 -0.42752717830E+01  0.97072891956E+01 -0.43387637600E+01  0.11460117072E+02  0.00000000000E+00 0. -1.
</event>
<event>
 7    1  0.2950722E-010  0.4778728E+02  0.7816164E-02  0.1312668E+00
        -11   -1    0    0    0    0  0.00000000000E+00  0.00000000000E+00  0.45593999997E+02  0.45594000000E+02  0.51100000000E-03 0.  1.
         11   -1    0    0    0    0 -0.00000000000E+00 -0.00000000000E+00 -0.45593999997E+02  0.45594000000E+02  0.51100000000E-03 0. -1.
    9900012    2    1    2    0    0  0.16461442426E+02 -0.38488649604E+02 -0.11457210368E+02  0.47787275300E+02  0.20000019402E+02 0.  0.
        -12    1    1    2    0    0 -0.16461442426E+02  0.38488649604E+02  0.11457210368E+02  0.43400724700E+02  0.00000000000E+00 0.  1.
         11    1    3    3    0    0  0.67940995920E+01 -0.15319029102E+02  0.38998828060E+01  0.17205857376E+02  0.51100000000E-03 0. -1.
        -11    1    3    3    0    0  0.15792354051E+01 -0.94289896474E+01 -0.19675284355E+01  0.97606863817E+01  0.51100000000E-03 0.  1.
         12    1    3    3    0    0  0.80881074285E+01 -0.13740630855E+02 -0.13389564738E+02  0.20820731542E+02  0.00000000000E+00 0. -1.
</event>
<event>
 7    1  0.2950722E-010  0.4778727E+02  0.7816164E-02  0.1312668E+00
        -11   -1    0    0    0    0  0.00000000000E+00  0.00000000000E+00  0.45593999997E+02  0.45594000000E+02  0.51100000000E-03 0.  1.
         11   -1    0    0    0    0 -0.00000000000E+00 -0.00000000000E+00 -0.45593999997E+02  0.45594000000E+02  0.51100000000E-03 0. -1.
    9900012    2    1    2    0    0  0.17949524464E+02 -0.32610658280E+02 -0.22315522858E+02  0.47787273942E+02  0.20000013212E+02 0.  0.
        -12    1    1    2    0    0 -0.17949524464E+02  0.32610658280E+02  0.22315522858E+02  0.43400726058E+02  0.00000000000E+00 0.  1.
         11    1    3    3    0    0  0.10863232344E+01 -0.77377208086E+01 -0.18353877534E+01  0.80262737274E+01  0.51100000000E-03 0. -1.
        -11    1    3    3    0    0 -0.20919437675E+01 -0.82183968884E+01 -0.27237249926E+01  0.89071294051E+01  0.51100000000E-03 0.  1.
         12    1    3    3    0    0  0.18955144997E+02 -0.16654540583E+02 -0.17756410112E+02  0.30853870810E+02  0.00000000000E+00 0. -1.
</event>
<event>
 7    1  0.2950722E-010  0.4778729E+02  0.7816164E-02  0.1312668E+00
        -11   -1    0    0    0    0  0.00000000000E+00  0.00000000000E+00  0.45593999997E+02  0.45594000000E+02  0.51100000000E-03 0.  1.
         11   -1    0    0    0    0 -0.00000000000E+00 -0.00000000000E+00 -0.45593999997E+02  0.45594000000E+02  0.51100000000E-03 0. -1.
    9900012    2    1    2    0    0  0.19140862334E+02  0.23314558982E+02 -0.31203854294E+02  0.47787288091E+02  0.20000077720E+02 0.  0.
        -12    1    1    2    0    0 -0.19140862334E+02 -0.23314558982E+02  0.31203854294E+02  0.43400711909E+02  0.00000000000E+00 0.  1.
         11    1    3    3    0    0  0.57419211793E+01  0.17875857678E+02 -0.24941423156E+02  0.31218432630E+02  0.51100000000E-03 0. -1.
        -11    1    3    3    0    0  0.10799552602E+02  0.63555927824E+01 -0.45917865990E+01  0.13345725924E+02  0.51100000000E-03 0.  1.
         12    1    3    3    0    0  0.25993885533E+01 -0.91689147796E+00 -0.16706445390E+01  0.32231295364E+01  0.00000000000E+00 0. -1.
</event>
<event>
 7    1  0.2950722E-010  0.4778727E+02  0.7816164E-02  0.1312668E+00
        -11   -1    0    0    0    0  0.00000000000E+00  0.00000000000E+00  0.45593999997E+02  0.45594000000E+02  0.51100000000E-03 0.  1.
         11   -1    0    0    0    0 -0.00000000000E+00 -0.00000000000E+00 -0.45593999997E+02  0.45594000000E+02  0.51100000000E-03 0. -1.
    9900012    2    1    2    0    0 -0.33423236980E+02  0.27401238261E+02  0.39600944361E+01  0.47787274472E+02  0.20000015627E+02 0.  0.
        -12    1    1    2    0    0  0.33423236980E+02 -0.27401238261E+02 -0.39600944361E+01  0.43400725528E+02  0.00000000000E+00 0.  1.
         11    1    3    3    0    0 -0.21385930637E+02  0.23942596731E+02  0.34609684599E+01  0.32289073545E+02  0.51100000000E-03 0. -1.
        -11    1    3    3    0    0 -0.61723694324E+01 -0.51828855576E+00 -0.37450741330E+01  0.72382558645E+01  0.51100000000E-03 0.  1.
        -12    1    3    3    0    0 -0.58649369108E+01  0.39769300850E+01  0.42442001092E+01  0.82599450625E+01  0.00000000000E+00 0.  1.
</event>
<event>
 7    1  0.2950722E-010  0.4778727E+02  0.7816164E-02  0.1312668E+00
        -11   -1    0    0    0    0  0.00000000000E+00  0.00000000000E+00  0.45593999997E+02  0.45594000000E+02  0.51100000000E-03 0. -1.
         11   -1    0    0    0    0 -0.00000000000E+00 -0.00000000000E+00 -0.45593999997E+02  0.45594000000E+02  0.51100000000E-03 0.  1.
    9900012    2    1    2    0    0 -0.42559852248E+02 -0.46797186830E+01  0.70980611931E+01  0.47787271170E+02  0.20000000571E+02 0.  0.
        -12    1    1    2    0    0  0.42559852248E+02  0.46797186830E+01 -0.70980611931E+01  0.43400728830E+02  0.00000000000E+00 0.  1.
         11    1    3    3    0    0 -0.57678428424E+00  0.13578259694E+01  0.32247343899E+01  0.35461646352E+01  0.51100000000E-03 0. -1.
        -11    1    3    3    0    0 -0.40466867316E+02 -0.55948542011E+01  0.63110338492E+01  0.41336411218E+02  0.51100000000E-03 0.  1.
        -12    1    3    3    0    0 -0.15162006479E+01 -0.44269045129E+00 -0.24377070460E+01  0.29046953166E+01  0.00000000000E+00 0.  1.
</event>
<event>
 7    1  0.2950722E-010  0.4778727E+02  0.7816164E-02  0.1312668E+00
        -11   -1    0    0    0    0  0.00000000000E+00  0.00000000000E+00  0.45593999997E+02  0.45594000000E+02  0.51100000000E-03 0.  1.
         11   -1    0    0    0    0 -0.00000000000E+00 -0.00000000000E+00 -0.45593999997E+02  0.45594000000E+02  0.51100000000E-03 0. -1.
    9900012    2    1    2    0    0  0.13294429014E+02 -0.12951075033E+02 -0.39232016210E+02  0.47787270937E+02  0.19999999512E+02 0.  0.
        -12    1    1    2    0    0 -0.13294429014E+02  0.12951075033E+02  0.39232016210E+02  0.43400729063E+02  0.00000000000E+00 0.  1.
         11    1    3    3    0    0  0.52430940894E+01 -0.13579453954E+01 -0.28922451045E+02  0.29425197128E+02  0.51100000000E-03 0. -1.
        -11    1    3    3    0    0  0.74243189152E+01 -0.83809316576E+01 -0.53229053303E+01  0.12397332303E+02  0.51100000000E-03 0.  1.
        -12    1    3    3    0    0  0.62701600932E+00 -0.32121979795E+01 -0.49866598343E+01  0.59647415065E+01  0.00000000000E+00 0.  1.
</event>
<event>
 7    1  0.2950722E-010  0.4778727E+02  0.7816164E-02  0.1312668E+00
        -11   -1    0    0    0    0  0.00000000000E+00  0.00000000000E+00  0.45593999997E+02  0.45594000000E+02  0.51100000000E-03 0.  1.
         11   -1    0    0    0    0 -0.00000000000E+00 -0.00000000000E+00 -0.45593999997E+02  0.45594000000E+02  0.51100000000E-03 0. -1.
    9900012    2    1    2    0    0 -0.27134264358E+01 -0.41286664007E+02  0.13102370607E+02  0.47787269322E+02  0.19999992149E+02 0.  0.
        -12    1    1    2    0    0  0.27134264358E+01  0.41286664007E+02 -0.13102370607E+02  0.43400730678E+02  0.00000000000E+00 0.  1.
         11    1    3    3    0    0 -0.10135373108E+02 -0.13703964642E+02  0.47570572329E+01  0.17696158587E+02  0.51100000000E-03 0. -1.
        -11    1    3    3    0    0  0.40357687532E+01 -0.19322850224E+02  0.75288816255E+01  0.21126855635E+02  0.51100000000E-03 0.  1.
         12    1    3    3    0    0  0.33861779186E+01 -0.82598491403E+01  0.81643174850E+00  0.89642551011E+01  0.00000000000E+00 0. -1.
</event>
<event>
 7    1  0.2950722E-010  0.4778727E+02  0.7816164E-02  0.1312668E+00
        -11   -1    0    0    0    0  0.00000000000E+00  0.00000000000E+00  0.45593999997E+02  0.45594000000E+02  0.51100000000E-03 0. -1.
         11   -1    0    0    0    0 -0.00000000000E+00 -0.00000000000E+00 -0.45593999997E+02  0.45594000000E+02  0.51100000000E-03 0.  1.
    9900012    2    1    2    0    0 -0.39838424898E+01 -0.26933806032E+02  0.33798259804E+02  0.47787271041E+02  0.19999999985E+02 0.  0.
        -12    1    1    2    0    0  0.39838424898E+01  0.26933806032E+02 -0.33798259804E+02  0.43400728959E+02  0.00000000000E+00 0.  1.
         11    1    3    3    0    0 -0.29151783850E+01 -0.49329758303E+01  0.22036173320E+02  0.22768958044E+02  0.51100000000E-03 0. -1.
        -11    1    3    3    0    0 -0.82100043104E+00 -0.15810954348E+02  0.92274282144E+01  0.18325003433E+02  0.51100000000E-03 0.  1.
         12    1    3    3    0    0 -0.24766367373E+00 -0.61898758535E+01  0.25346582701E+01  0.66933095642E+01  0.00000000000E+00 0. -1.
</event>
<event>
 7    1  0.2950722E-010  0.4778727E+02  0.7816164E-02  0.1312668E+00
        -11   -1    0    0    0    0  0.00000000000E+00  0.00000000000E+00  0.45593999997E+02  0.45594000000E+02  0.51100000000E-03 0.  1.
         11   -1    0    0    0    0 -0.00000000000E+00 -0.00000000000E+00 -0.45593999997E+02  0.45594000000E+02  0.51100000000E-03 0. -1.
    9900012    2    1    2    0    0  0.42757791041E+02 -0.62750601611E+00 -0.74162421679E+01  0.47787272974E+02  0.20000008799E+02 0.  0.
        -12    1    1    2    0    0 -0.42757791041E+02  0.62750601611E+00  0.74162421679E+01  0.43400727026E+02  0.00000000000E+00 0.  1.
         11    1    3    3    0    0  0.37154865336E+01  0.76297230726E+00 -0.13860052872E+01  0.40383137372E+01  0.51100000000E-03 0. -1.
        -11    1    3    3    0    0  0.18136229489E+02 -0.21040525566E+01 -0.12177299216E+02  0.21946217754E+02  0.51100000000E-03 0.  1.
        -12    1    3    3    0    0  0.20906075018E+02  0.71357423320E+00  0.61470623351E+01  0.21802741483E+02  0.00000000000E+00 0.  1.
</event>
<event>
 7    1  0.2950722E-010  0.4778727E+02  0.7816164E-02  0.1312668E+00
        -11   -1    0    0    0    0  0.00000000000E+00  0.00000000000E+00  0.45593999997E+02  0.45594000000E+02  0.51100000000E-03 0.  1.
         11   -1    0    0    0    0 -0.00000000000E+00 -0.00000000000E+00 -0.45593999997E+02  0.45594000000E+02  0.51100000000E-03 0. -1.
    9900012    2    1    2    0    0  0.32716084355E+02  0.13514772844E+02 -0.25112389313E+02  0.47787270080E+02  0.19999995604E+02 0.  0.
        -12    1    1    2    0    0 -0.32716084355E+02 -0.13514772844E+02  0.25112389313E+02  0.43400729920E+02  0.00000000000E+00 0.  1.
         11    1    3    3    0    0  0.21631004042E+02  0.14520539684E+02 -0.22098555466E+02  0.34162736462E+02  0.51100000000E-03 0. -1.
        -11    1    3    3    0    0  0.12004903414E+01 -0.27269313786E+01  0.44335670826E+00  0.30122910276E+01  0.51100000000E-03 0.  1.
        -12    1    3    3    0    0  0.98845899716E+01  0.17211645383E+01 -0.34571905546E+01  0.10612242591E+02  0.00000000000E+00 0.  1.
</event>
<event>
 7    1  0.3384003E-010  0.4778727E+02  0.7816164E-02  0.1312668E+00
        -11   -1    0    0    0    0  0.00000000000E+00  0.00000000000E+00  0.45593999997E+02  0.45594000000E+02  0.51100000000E-03 0.  1.
         11   -1    0    0    0    0 -0.00000000000E+00 -0.00000000000E+00 -0.45593999997E+02  0.45594000000E+02  0.51100000000E-03 0. -1.
    9900012    2    1    2    0    0  0.26951246375E+02  0.33580780635E+02  0.54391927302E+01  0.47787270435E+02  0.19999997220E+02 0.  0.
        -12    1    1    2    0    0 -0.26951246375E+02 -0.33580780635E+02 -0.54391927302E+01  0.43400729565E+02  0.00000000000E+00 0.  1.
         11    1    3    3    0    0  0.21212200661E+02  0.16405950993E+02  0.55310189148E+01  0.27380738766E+02  0.51100000000E-03 0. -1.
        -11    1    3    3    0    0 -0.15294821500E+01  0.32247842751E+01  0.26421094484E+01  0.44406409297E+01  0.51100000000E-03 0.  1.
         12    1    3    3    0    0  0.72685278642E+01  0.13950045367E+02 -0.27339356330E+01  0.15965890739E+02  0.00000000000E+00 0. -1.
</event>
<event>
 7    1  0.2950722E-010  0.4778727E+02  0.7816164E-02  0.1312668E+00
        -11   -1    0    0    0    0  0.00000000000E+00  0.00000000000E+00  0.45593999997E+02  0.45594000000E+02  0.51100000000E-03 0.  1.
         11   -1    0    0    0    0 -0.00000000000E+00 -0.00000000000E+00 -0.45593999997E+02  0.45594000000E+02  0.51100000000E-03 0. -1.
    9900012    2    1    2    0    0 -0.70798330720E+01 -0.47216694164E+01 -0.42558260420E+02  0.47787265808E+02  0.19999976126E+02 0.  0.
        -12    1    1    2    0    0  0.70798330720E+01  0.47216694164E+01  0.42558260420E+02  0.43400734192E+02  0.00000000000E+00 0.  1.
         11    1    3    3    0    0  0.17006505539E+01  0.40068476139E+01 -0.99832645637E+01  0.10890941728E+02  0.51100000000E-03 0. -1.
        -11    1    3    3    0    0 -0.92908790674E+01 -0.62747608450E+01 -0.32510383364E+02  0.34389214650E+02  0.51100000000E-03 0.  1.
        -12    1    3    3    0    0  0.51039544145E+00 -0.24537561853E+01 -0.64612492720E-01  0.25071094308E+01  0.00000000000E+00 0.  1.
</event>
<event>
 7    1  0.2950722E-010  0.4778728E+02  0.7816164E-02  0.1312668E+00
        -11   -1    0    0    0    0  0.00000000000E+00  0.00000000000E+00  0.45593999997E+02  0.45594000000E+02  0.51100000000E-03 0.  1.
         11   -1    0    0    0    0 -0.00000000000E+00 -0.00000000000E+00 -0.45593999997E+02  0.45594000000E+02  0.51100000000E-03 0. -1.
    9900012    2    1    2    0    0  0.32272404512E+01 -0.36165220429E+02 -0.23775712315E+02  0.47787277130E+02  0.20000027745E+02 0.  0.
        -12    1    1    2    0    0 -0.32272404512E+01  0.36165220429E+02  0.23775712315E+02  0.43400722870E+02  0.00000000000E+00 0.  1.
         11    1    3    3    0    0 -0.52987113488E+01 -0.42449337335E+01 -0.22257524892E+01  0.71449127891E+01  0.51100000000E-03 0. -1.
        -11    1    3    3    0    0  0.18041117253E+01 -0.67455739342E+01 -0.24908637845E+00  0.69871046295E+01  0.51100000000E-03 0.  1.
         12    1    3    3    0    0  0.67218400748E+01 -0.25174712761E+02 -0.21300873447E+02  0.33655259711E+02  0.00000000000E+00 0. -1.
</event>
<event>
 7    1  0.2950722E-010  0.4778726E+02  0.7816164E-02  0.1312668E+00
        -11   -1    0    0    0    0  0.00000000000E+00  0.00000000000E+00  0.45593999997E+02  0.45594000000E+02  0.51100000000E-03 0. -1.
         11   -1    0    0    0    0 -0.00000000000E+00 -0.00000000000E+00 -0.45593999997E+02  0.45594000000E+02  0.51100000000E-03 0.  1.
    9900012    2    1    2    0    0 -0.42943328019E+02  0.24997437666E+01 -0.57659061991E+01  0.47787264815E+02  0.19999971598E+02 0.  0.
        -12    1    1    2    0    0  0.42943328019E+02 -0.24997437666E+01  0.57659061991E+01  0.43400735185E+02  0.00000000000E+00 0.  1.
         11    1    3    3    0    0 -0.18620362549E+02  0.27885662239E+01  0.64515511676E+01  0.19902676096E+02  0.51100000000E-03 0. -1.
        -11    1    3    3    0    0 -0.10243080908E+02 -0.37920940484E+00 -0.85155981912E+01  0.13325911566E+02  0.51100000000E-03 0.  1.
         12    1    3    3    0    0 -0.14079884562E+02  0.90386947560E-01 -0.37018591755E+01  0.14558677153E+02  0.00000000000E+00 0. -1.
</event>
<event>
 7    1  0.2950722E-010  0.4778727E+02  0.7816164E-02  0.1312668E+00
        -11   -1    0    0    0    0  0.00000000000E+00  0.00000000000E+00  0.45593999997E+02  0.45594000000E+02  0.51100000000E-03 0.  1.
         11   -1    0    0    0    0 -0.00000000000E+00 -0.00000000000E+00 -0.45593999997E+02  0.45594000000E+02  0.51100000000E-03 0. -1.
    9900012    2    1    2    0    0  0.53325608181E+00 -0.14453095333E+02 -0.40920005357E+02  0.47787272296E+02  0.20000005709E+02 0.  0.
        -12    1    1    2    0    0 -0.53325608181E+00  0.14453095333E+02  0.40920005357E+02  0.43400727704E+02  0.00000000000E+00 0.  1.
         11    1    3    3    0    0  0.26976323441E+01 -0.18608702393E+02 -0.27845930667E+02  0.33599953572E+02  0.51100000000E-03 0. -1.
        -11    1    3    3    0    0 -0.17155937335E+01  0.65450070242E+00 -0.30515858209E+01  0.35614336034E+01  0.51100000000E-03 0.  1.
         12    1    3    3    0    0 -0.44878252877E+00  0.35011063576E+01 -0.10022488869E+02  0.10625885121E+02  0.00000000000E+00 0. -1.
</event>
<event>
 7    1  0.2950722E-010  0.4778731E+02  0.7816164E-02  0.1312668E+00
        -11   -1    0    0    0    0  0.00000000000E+00  0.00000000000E+00  0.45593999997E+02  0.45594000000E+02  0.51100000000E-03 0.  1.
         11   -1    0    0    0    0 -0.00000000000E+00 -0.00000000000E+00 -0.45593999997E+02  0.45594000000E+02  0.51100000000E-03 0. -1.
    9900012    2    1    2    0    0 -0.20259978663E+02 -0.30201185097E+01 -0.38262676234E+02  0.47787305952E+02  0.20000159157E+02 0.  0.
        -12    1    1    2    0    0  0.20259978663E+02  0.30201185097E+01  0.38262676234E+02  0.43400694048E+02  0.00000000000E+00 0.  1.
         11    1    3    3    0    0 -0.11865397341E+02 -0.30079870365E+01 -0.32244138123E+02  0.34489419879E+02  0.51100000000E-03 0. -1.
        -11    1    3    3    0    0 -0.46383141847E+00  0.14833593201E+00  0.19763878217E+01  0.20354980266E+01  0.51100000000E-03 0.  1.
         12    1    3    3    0    0 -0.79307499038E+01 -0.16046740523E+00 -0.79949259334E+01  0.11262388046E+02  0.00000000000E+00 0. -1.
</event>
<event>
 7    1  0.2950722E-010  0.4778728E+02  0.7816164E-02  0.1312668E+00
        -11   -1    0    0    0    0  0.00000000000E+00  0.00000000000E+00  0.45593999997E+02  0.45594000000E+02  0.51100000000E-03 0. -1.
         11   -1    0    0    0    0 -0.00000000000E+00 -0.00000000000E+00 -0.45593999997E+02  0.45594000000E+02  0.51100000000E-03 0.  1.
    9900012    2    1    2    0    0 -0.11430425587E+02  0.39140162377E+02 -0.14866605833E+02  0.47787275248E+02  0.20000019164E+02 0.  0.
        -12    1    1    2    0    0  0.11430425587E+02 -0.39140162377E+02  0.14866605833E+02  0.43400724752E+02  0.00000000000E+00 0.  1.
         11    1    3    3    0    0  0.22597212160E+01  0.12748422366E+02 -0.52956526663E+01  0.13988300476E+02  0.51100000000E-03 0. -1.
        -11    1    3    3    0    0 -0.14332675677E+02  0.18901281752E+02 -0.31829452142E+01  0.23933557705E+02  0.51100000000E-03 0.  1.
         12    1    3    3    0    0  0.64252887308E+00  0.74904582596E+01 -0.63880079528E+01  0.98654170666E+01  0.00000000000E+00 0. -1.
</event>
<event>
 7    1  0.2950722E-010  0.4778727E+02  0.7816164E-02  0.1312668E+00
        -11   -1    0    0    0    0  0.00000000000E+00  0.00000000000E+00  0.45593999997E+02  0.45594000000E+02  0.51100000000E-03 0. -1.
         11   -1    0    0    0    0 -0.00000000000E+00 -0.00000000000E+00 -0.45593999997E+02  0.45594000000E+02  0.51100000000E-03 0.  1.
    9900012    2    1    2    0    0 -0.13017346764E+02 -0.15845206658E+02  0.38250509299E+02  0.47787270139E+02  0.19999995872E+02 0.  0.
        -12    1    1    2    0    0  0.13017346764E+02  0.15845206658E+02 -0.38250509299E+02  0.43400729861E+02  0.00000000000E+00 0.  1.
         11    1    3    3    0    0 -0.95684455449E+01 -0.44777315471E+01  0.15198145903E+02  0.18509156358E+02  0.51100000000E-03 0. -1.
        -11    1    3    3    0    0  0.28803941747E+01  0.18142355923E+01  0.49529040058E+01  0.60099400777E+01  0.51100000000E-03 0.  1.
        -12    1    3    3    0    0 -0.63292953942E+01 -0.13181710703E+02  0.18099459390E+02  0.23268173703E+02  0.00000000000E+00 0.  1.
</event>
<event>
 7    1  0.2950722E-010  0.4778727E+02  0.7816164E-02  0.1312668E+00
        -11   -1    0    0    0    0  0.00000000000E+00  0.00000000000E+00  0.45593999997E+02  0.45594000000E+02  0.51100000000E-03 0.  1.
         11   -1    0    0    0    0 -0.00000000000E+00 -0.00000000000E+00 -0.45593999997E+02  0.45594000000E+02  0.51100000000E-03 0. -1.
    9900012    2    1    2    0    0  0.35823023836E+02 -0.31405486111E+01 -0.24299612234E+02  0.47787271468E+02  0.20000001932E+02 0.  0.
        -12    1    1    2    0    0 -0.35823023836E+02  0.31405486111E+01  0.24299612234E+02  0.43400728532E+02  0.00000000000E+00 0.  1.
         11    1    3    3    0    0  0.10888512107E+02  0.62298421648E+01 -0.63879510038E+01  0.14077519227E+02  0.51100000000E-03 0. -1.
        -11    1    3    3    0    0  0.17564215925E+02 -0.11364157421E+02 -0.12940088178E+02  0.24598610474E+02  0.51100000000E-03 0.  1.
        -12    1    3    3    0    0  0.73702958051E+01  0.19937666448E+01 -0.49715730528E+01  0.91111417676E+01  0.00000000000E+00 0.  1.
</event>
<event>
 7    1  0.2950722E-010  0.4778727E+02  0.7816164E-02  0.1312668E+00
        -11   -1    0    0    0    0  0.00000000000E+00  0.00000000000E+00  0.45593999997E+02  0.45594000000E+02  0.51100000000E-03 0.  1.
         11   -1    0    0    0    0 -0.00000000000E+00 -0.00000000000E+00 -0.45593999997E+02  0.45594000000E+02  0.51100000000E-03 0. -1.
    9900012    2    1    2    0    0 -0.33558011895E+02 -0.22035046969E+02 -0.16490593388E+02  0.47787272730E+02  0.20000007686E+02 0.  0.
        -12    1    1    2    0    0  0.33558011895E+02  0.22035046969E+02  0.16490593388E+02  0.43400727270E+02  0.00000000000E+00 0.  1.
         11    1    3    3    0    0 -0.51240740682E+01  0.17092658023E+01  0.19928688414E+01  0.57575386337E+01  0.51100000000E-03 0. -1.
        -11    1    3    3    0    0 -0.56046182450E+00 -0.11678012571E+01  0.56825953210E+00  0.14144951006E+01  0.51100000000E-03 0.  1.
         12    1    3    3    0    0 -0.27873476002E+02 -0.22576511514E+02 -0.19051721761E+02  0.40615238996E+02  0.00000000000E+00 0. -1.
</event>
<event>
 7    1  0.2950722E-010  0.4778727E+02  0.7816164E-02  0.1312668E+00
        -11   -1    0    0    0    0  0.00000000000E+00  0.00000000000E+00  0.45593999997E+02  0.45594000000E+02  0.51100000000E-03 0.  1.
         11   -1    0    0    0    0 -0.00000000000E+00 -0.00000000000E+00 -0.45593999997E+02  0.45594000000E+02  0.51100000000E-03 0. -1.
    9900012    2    1    2    0    0 -0.14353125793E+02  0.40573627767E+02 -0.56028728348E+01  0.47787266432E+02  0.19999978971E+02 0.  0.
        -12    1    1    2    0    0  0.14353125793E+02 -0.40573627767E+02  0.56028728348E+01  0.43400733568E+02  0.00000000000E+00 0.  1.
         11    1    3    3    0    0 -0.10392715683E+02  0.23565524523E+02 -0.63276790195E+00  0.25763207890E+02  0.51100000000E-03 0. -1.
        -11    1    3    3    0    0  0.35819910137E+00  0.16041038551E+00  0.29053259799E+01  0.29317157773E+01  0.51100000000E-03 0.  1.
         12    1    3    3    0    0 -0.43186092114E+01  0.16847692859E+02 -0.78754309128E+01  0.19092342765E+02  0.00000000000E+00 0. -1.
</event>
<event>
 7    1  0.2950722E-010  0.4778727E+02  0.7816164E-02  0.1312668E+00
        -11   -1    0    0    0    0  0.00000000000E+00  0.00000000000E+00  0.45593999997E+02  0.45594000000E+02  0.51100000000E-03 0.  1.
         11   -1    0    0    0    0 -0.00000000000E+00 -0.00000000000E+00 -0.45593999997E+02  0.45594000000E+02  0.51100000000E-03 0. -1.
    9900012    2    1    2    0    0  0.30726770802E+02  0.33677032375E+01 -0.30465510158E+02  0.47787272146E+02  0.20000005025E+02 0.  0.
        -12    1    1    2    0    0 -0.30726770802E+02 -0.33677032375E+01  0.30465510158E+02  0.43400727854E+02  0.00000000000E+00 0.  1.
         11    1    3    3    0    0  0.14886134259E+02 -0.56725681185E+01 -0.14411978588E+02  0.21482089035E+02  0.51100000000E-03 0. -1.
        -11    1    3    3    0    0  0.15171135696E+02  0.10793116171E+02 -0.15785533905E+02  0.24409788937E+02  0.51100000000E-03 0.  1.
        -12    1    3    3    0    0  0.66950084789E+00 -0.17528448149E+01 -0.26799766420E+00  0.18953941750E+01  0.00000000000E+00 0.  1.
</event>
<event>
 7    1  0.2950722E-010  0.4778728E+02  0.7816164E-02  0.1312668E+00
        -11   -1    0    0    0    0  0.00000000000E+00  0.00000000000E+00  0.45593999997E+02  0.45594000000E+02  0.51100000000E-03 0.  1.
         11   -1    0    0    0    0 -0.00000000000E+00 -0.00000000000E+00 -0.45593999997E+02  0.45594000000E+02  0.51100000000E-03 0. -1.
    9900012    2    1    2    0    0  0.23954244522E+01 -0.23524472610E+02 -0.36393461506E+02  0.47787275233E+02  0.20000019097E+02 0.  0.
        -12    1    1    2    0    0 -0.23954244522E+01  0.23524472610E+02  0.36393461506E+02  0.43400724767E+02  0.00000000000E+00 0.  1.
         11    1    3    3    0    0  0.53049637053E+00 -0.22582386361E+02 -0.27842829334E+02  0.35853434225E+02  0.51100000000E-03 0. -1.
        -11    1    3    3    0    0  0.51010206564E+00  0.34267100257E+01 -0.21874299787E+01  0.40972424740E+01  0.51100000000E-03 0.  1.
        -12    1    3    3    0    0  0.13548260160E+01 -0.43687962750E+01 -0.63632021932E+01  0.78365985336E+01  0.00000000000E+00 0.  1.
</event>
<event>
 7    1  0.2950722E-010  0.4778726E+02  0.7816164E-02  0.1312668E+00
        -11   -1    0    0    0    0  0.00000000000E+00  0.00000000000E+00  0.45593999997E+02  0.45594000000E+02  0.51100000000E-03 0. -1.
         11   -1    0    0    0    0 -0.00000000000E+00 -0.00000000000E+00 -0.45593999997E+02  0.45594000000E+02  0.51100000000E-03 0.  1.
    9900012    2    1    2    0    0  0.30937326928E+02  0.10083432819E+01  0.30421849396E+02  0.47787264127E+02  0.19999968461E+02 0.  0.
        -12    1    1    2    0    0 -0.30937326928E+02 -0.10083432819E+01 -0.30421849396E+02  0.43400735873E+02  0.00000000000E+00 0.  1.
         11    1    3    3    0    0  0.86578290665E+01  0.83073150873E+01  0.16146537623E+02  0.20116663878E+02  0.51100000000E-03 0. -1.
        -11    1    3    3    0    0  0.21289019008E+02 -0.73410344242E+01  0.12828906260E+02  0.25917059109E+02  0.51100000000E-03 0.  1.
        -12    1    3    3    0    0  0.99047885293E+00  0.42062618811E-01  0.14464055135E+01  0.17535411405E+01  0.00000000000E+00 0.  1.
</event>
<event>
 7    1  0.2950722E-010  0.4778727E+02  0.7816164E-02  0.1312668E+00
        -11   -1    0    0    0    0  0.00000000000E+00  0.00000000000E+00  0.45593999997E+02  0.45594000000E+02  0.51100000000E-03 0. -1.
         11   -1    0    0    0    0 -0.00000000000E+00 -0.00000000000E+00 -0.45593999997E+02  0.45594000000E+02  0.51100000000E-03 0.  1.
    9900012    2    1    2    0    0  0.43383397745E+02 -0.10498850355E+01 -0.63386300357E+00  0.47787271425E+02  0.20000001737E+02 0.  0.
        -12    1    1    2    0    0 -0.43383397745E+02  0.10498850355E+01  0.63386300357E+00  0.43400728575E+02  0.00000000000E+00 0.  1.
         11    1    3    3    0    0  0.99444959156E+01  0.42715276097E+01 -0.39991981770E+01  0.11538307218E+02  0.51100000000E-03 0.  1.
        -11    1    3    3    0    0  0.18174528382E+02 -0.80990350521E+01  0.53587151602E+01  0.20606398985E+02  0.51100000000E-03 0. -1.
         12    1    3    3    0    0  0.15264373447E+02  0.27776224068E+01 -0.19933799868E+01  0.15642565223E+02  0.00000000000E+00 0. -1.
</event>
<event>
 7    1  0.2950722E-010  0.4778727E+02  0.7816164E-02  0.1312668E+00
        -11   -1    0    0    0    0  0.00000000000E+00  0.00000000000E+00  0.45593999997E+02  0.45594000000E+02  0.51100000000E-03 0.  1.
         11   -1    0    0    0    0 -0.00000000000E+00 -0.00000000000E+00 -0.45593999997E+02  0.45594000000E+02  0.51100000000E-03 0. -1.
    9900012    2    1    2    0    0 -0.49027879668E+01  0.33331493433E+01 -0.42993912118E+02  0.47787266209E+02  0.19999977952E+02 0.  0.
        -12    1    1    2    0    0  0.49027879668E+01 -0.33331493433E+01  0.42993912118E+02  0.43400733791E+02  0.00000000000E+00 0.  1.
         11    1    3    3    0    0 -0.79468479131E+01 -0.23035563520E+01 -0.11682158228E+02  0.14315431700E+02  0.51100000000E-03 0. -1.
        -11    1    3    3    0    0  0.14813784209E+00 -0.27973400017E+01 -0.56803720987E+01  0.63335364013E+01  0.51100000000E-03 0.  1.
         12    1    3    3    0    0  0.28959221041E+01  0.84340456970E+01 -0.25631381791E+02  0.27138298108E+02  0.00000000000E+00 0. -1.
</event>
<event>
 7    1  0.2950722E-010  0.4778727E+02  0.7816164E-02  0.1312668E+00
        -11   -1    0    0    0    0  0.00000000000E+00  0.00000000000E+00  0.45593999997E+02  0.45594000000E+02  0.51100000000E-03 0.  1.
         11   -1    0    0    0    0 -0.00000000000E+00 -0.00000000000E+00 -0.45593999997E+02  0.45594000000E+02  0.51100000000E-03 0. -1.
    9900012    2    1    2    0    0  0.13157404758E+02  0.11768672605E+02 -0.39648508791E+02  0.47787271847E+02  0.20000003659E+02 0.  0.
        -12    1    1    2    0    0 -0.13157404758E+02 -0.11768672605E+02  0.39648508791E+02  0.43400728153E+02  0.00000000000E+00 0.  1.
         11    1    3    3    0    0  0.80148536227E+01  0.51973511403E+01 -0.24717251332E+02  0.26498921698E+02  0.51100000000E-03 0. -1.
        -11    1    3    3    0    0  0.48298889622E+01  0.20849785707E+01  0.43390524523E+00  0.52785639194E+01  0.51100000000E-03 0.  1.
        -12    1    3    3    0    0  0.31266217289E+00  0.44863428935E+01 -0.15365162704E+02  0.16009786230E+02  0.00000000000E+00 0.  1.
</event>
<event>
 7    1  0.2950722E-010  0.4778727E+02  0.7816164E-02  0.1312668E+00
        -11   -1    0    0    0    0  0.00000000000E+00  0.00000000000E+00  0.45593999997E+02  0.45594000000E+02  0.51100000000E-03 0. -1.
         11   -1    0    0    0    0 -0.00000000000E+00 -0.00000000000E+00 -0.45593999997E+02  0.45594000000E+02  0.51100000000E-03 0.  1.
    9900012    2    1    2    0    0 -0.78445541439E+01 -0.42636713857E+02 -0.20486736500E+01  0.47787268878E+02  0.19999990121E+02 0.  0.
        -12    1    1    2    0    0  0.78445541439E+01  0.42636713857E+02  0.20486736500E+01  0.43400731122E+02  0.00000000000E+00 0.  1.
         11    1    3    3    0    0 -0.10260897643E+02 -0.34839229003E+02  0.56958067475E+00  0.36323302718E+02  0.51100000000E-03 0. -1.
        -11    1    3    3    0    0 -0.72436150021E-02  0.78361308146E+00  0.14613795260E+01  0.16582316821E+01  0.51100000000E-03 0.  1.
         12    1    3    3    0    0  0.24235871146E+01 -0.85810979355E+01 -0.40796338508E+01  0.98057344772E+01  0.00000000000E+00 0. -1.
</event>
<event>
 7    1  0.2950722E-010  0.4778727E+02  0.7816164E-02  0.1312668E+00
        -11   -1    0    0    0    0  0.00000000000E+00  0.00000000000E+00  0.45593999997E+02  0.45594000000E+02  0.51100000000E-03 0.  1.
         11   -1    0    0    0    0 -0.00000000000E+00 -0.00000000000E+00 -0.45593999997E+02  0.45594000000E+02  0.51100000000E-03 0. -1.
    9900012    2    1    2    0    0 -0.16595698712E+02 -0.10872404186E+02 -0.38600477320E+02  0.47787271459E+02  0.20000001890E+02 0.  0.
        -12    1    1    2    0    0  0.16595698712E+02  0.10872404186E+02  0.38600477320E+02  0.43400728541E+02  0.00000000000E+00 0.  1.
         11    1    3    3    0    0 -0.52227930522E+01 -0.12039936113E+02 -0.29351110490E+02  0.32151598967E+02  0.51100000000E-03 0. -1.
        -11    1    3    3    0    0 -0.10416907976E+02 -0.36601970079E+00 -0.63078313587E+01  0.12183377155E+02  0.51100000000E-03 0.  1.
         12    1    3    3    0    0 -0.95599768432E+00  0.15335516269E+01 -0.29415354714E+01  0.34522953371E+01  0.00000000000E+00 0. -1.
</event>
<event>
 7    1  0.2950722E-010  0.4778727E+02  0.7816164E-02  0.1312668E+00
        -11   -1    0    0    0    0  0.00000000000E+00  0.00000000000E+00  0.45593999997E+02  0.45594000000E+02  0.51100000000E-03 0. -1.
         11   -1    0    0    0    0 -0.00000000000E+00 -0.00000000000E+00 -0.45593999997E+02  0.45594000000E+02  0.51100000000E-03 0.  1.
    9900012    2    1    2    0    0 -0.33130086931E+02 -0.10596806598E+02  0.25956279270E+02  0.47787269549E+02  0.19999993182E+02 0.  0.
        -12    1    1    2    0    0  0.33130086931E+02  0.10596806598E+02 -0.25956279270E+02  0.43400730451E+02  0.00000000000E+00 0.  1.
         11    1    3    3    0    0 -0.10789548260E+02 -0.16303628484E+01  0.51441211584E+01  0.12063764645E+02  0.51100000000E-03 0. -1.
        -11    1    3    3    0    0 -0.12263842704E+02 -0.58563282745E+01  0.21186936153E+02  0.25171108091E+02  0.51100000000E-03 0.  1.
        -12    1    3    3    0    0 -0.10076695968E+02 -0.31101154751E+01 -0.37477804225E+00  0.10552396812E+02  0.00000000000E+00 0.  1.
</event>
<event>
 7    1  0.2950722E-010  0.4778727E+02  0.7816164E-02  0.1312668E+00
        -11   -1    0    0    0    0  0.00000000000E+00  0.00000000000E+00  0.45593999997E+02  0.45594000000E+02  0.51100000000E-03 0.  1.
         11   -1    0    0    0    0 -0.00000000000E+00 -0.00000000000E+00 -0.45593999997E+02  0.45594000000E+02  0.51100000000E-03 0. -1.
    9900012    2    1    2    0    0  0.36222296939E+01  0.30430585516E+02 -0.30732426956E+02  0.47787272478E+02  0.20000006538E+02 0.  0.
        -12    1    1    2    0    0 -0.36222296939E+01 -0.30430585516E+02  0.30732426956E+02  0.43400727522E+02  0.00000000000E+00 0.  1.
         11    1    3    3    0    0 -0.28450725019E+01  0.10219022619E+02 -0.54181930060E+01  0.11911325557E+02  0.51100000000E-03 0. -1.
        -11    1    3    3    0    0  0.48266026093E+01  0.16218618046E+02 -0.26461325303E+02  0.31409256615E+02  0.51100000000E-03 0.  1.
        -12    1    3    3    0    0  0.16406995865E+01  0.39929448509E+01  0.11470913527E+01  0.44666903057E+01  0.00000000000E+00 0.  1.
</event>
<event>
 7    1  0.2950722E-010  0.4778726E+02  0.7816164E-02  0.1312668E+00
        -11   -1    0    0    0    0  0.00000000000E+00  0.00000000000E+00  0.45593999997E+02  0.45594000000E+02  0.51100000000E-03 0. -1.
         11   -1    0    0    0    0 -0.00000000000E+00 -0.00000000000E+00 -0.45593999997E+02  0.45594000000E+02  0.51100000000E-03 0.  1.
    9900012    2    1    2    0    0  0.30581368144E+02  0.27961380835E+02  0.12906025311E+02  0.47787258243E+02  0.19999941632E+02 0.  0.
        -12    1    1    2    0    0 -0.30581368144E+02 -0.27961380835E+02 -0.12906025311E+02  0.43400741757E+02  0.00000000000E+00 0.  1.
         11    1    3    3    0    0  0.10138190906E+02  0.53425255861E+01  0.12103308853E+00  0.11460372758E+02  0.51100000000E-03 0. -1.
        -11    1    3    3    0    0  0.33992576564E+00  0.98528975327E+01  0.60960148965E+01  0.11591226734E+02  0.51100000000E-03 0.  1.
        -12    1    3    3    0    0  0.20103251472E+02  0.12765957716E+02  0.66889773261E+01  0.24735658751E+02  0.00000000000E+00 0.  1.
</event>
<event>
 7    1  0.2950722E-010  0.4778727E+02  0.7816164E-02  0.1312668E+00
        -11   -1    0    0    0    0  0.00000000000E+00  0.00000000000E+00  0.45593999997E+02  0.45594000000E+02  0.51100000000E-03 0.  1.
         11   -1    0    0    0    0 -0.00000000000E+00 -0.00000000000E+00 -0.45593999997E+02  0.45594000000E+02  0.51100000000E-03 0. -1.
    9900012    2    1    2    0    0 -0.34575579058E+02 -0.70349229619E+01 -0.25271770131E+02  0.47787272197E+02  0.20000005255E+02 0.  0.
        -12    1    1    2    0    0  0.34575579058E+02  0.70349229619E+01  0.25271770131E+02  0.43400727803E+02  0.00000000000E+00 0.  1.
         11    1    3    3    0    0 -0.14328996686E+02 -0.35829183208E+01 -0.12083441141E+02  0.19083160110E+02  0.51100000000E-03 0. -1.
        -11    1    3    3    0    0 -0.27726365262E+01 -0.44819329291E+01 -0.94271764506E+01  0.10800319078E+02  0.51100000000E-03 0.  1.
        -12    1    3    3    0    0 -0.17473945846E+02  0.10299282880E+01 -0.37611525395E+01  0.17903793009E+02  0.00000000000E+00 0.  1.
</event>
<event>
 7    1  0.2950722E-010  0.4778727E+02  0.7816164E-02  0.1312668E+00
        -11   -1    0    0    0    0  0.00000000000E+00  0.00000000000E+00  0.45593999997E+02  0.45594000000E+02  0.51100000000E-03 0. -1.
         11   -1    0    0    0    0 -0.00000000000E+00 -0.00000000000E+00 -0.45593999997E+02  0.45594000000E+02  0.51100000000E-03 0.  1.
    9900012    2    1    2    0    0 -0.42982076950E+02 -0.42747601777E+01 -0.42297246693E+01  0.47787273229E+02  0.20000009959E+02 0.  0.
        -12    1    1    2    0    0  0.42982076950E+02  0.42747601777E+01  0.42297246693E+01  0.43400726771E+02  0.00000000000E+00 0.  1.
         11    1    3    3    0    0 -0.22980125220E+02 -0.10248573155E+02 -0.41788483919E+01  0.25506512521E+02  0.51100000000E-03 0. -1.
        -11    1    3    3    0    0 -0.19761015443E+02  0.54637232912E+01  0.15720145703E+01  0.20562617382E+02  0.51100000000E-03 0.  1.
        -12    1    3    3    0    0 -0.24093628661E+00  0.51008968645E+00 -0.16228908477E+01  0.17181433252E+01  0.00000000000E+00 0.  1.
</event>
<event>
 7    1  0.2950722E-010  0.4778727E+02  0.7816164E-02  0.1312668E+00
        -11   -1    0    0    0    0  0.00000000000E+00  0.00000000000E+00  0.45593999997E+02  0.45594000000E+02  0.51100000000E-03 0. -1.
         11   -1    0    0    0    0 -0.00000000000E+00 -0.00000000000E+00 -0.45593999997E+02  0.45594000000E+02  0.51100000000E-03 0.  1.
    9900012    2    1    2    0    0 -0.20120513976E+02  0.36757089675E+02  0.11300642459E+02  0.47787271388E+02  0.20000001566E+02 0.  0.
        -12    1    1    2    0    0  0.20120513976E+02 -0.36757089675E+02 -0.11300642459E+02  0.43400728612E+02  0.00000000000E+00 0.  1.
         11    1    3    3    0    0 -0.17355160157E+02  0.33239485736E+02  0.10189198141E+02  0.38857235557E+02  0.51100000000E-03 0. -1.
        -11    1    3    3    0    0 -0.20690008857E+01 -0.17855227557E+01  0.21552191087E+01  0.34804921841E+01  0.51100000000E-03 0.  1.
        -12    1    3    3    0    0 -0.69635293324E+00  0.53031266947E+01 -0.10437747900E+01  0.54495436469E+01  0.00000000000E+00 0.  1.
</event>
<event>
 7    1  0.2950722E-010  0.4778727E+02  0.7816164E-02  0.1312668E+00
        -11   -1    0    0    0    0  0.00000000000E+00  0.00000000000E+00  0.45593999997E+02  0.45594000000E+02  0.51100000000E-03 0. -1.
         11   -1    0    0    0    0 -0.00000000000E+00 -0.00000000000E+00 -0.45593999997E+02  0.45594000000E+02  0.51100000000E-03 0.  1.
    9900012    2    1    2    0    0 -0.20839550213E+02 -0.10639974798E+02  0.36553075563E+02  0.47787271320E+02  0.20000001258E+02 0.  0.
        -12    1    1    2    0    0  0.20839550213E+02  0.10639974798E+02 -0.36553075563E+02  0.43400728680E+02  0.00000000000E+00 0.  1.
         11    1    3    3    0    0 -0.82344071087E+01  0.21984849681E+01  0.20206001910E+02  0.21929918149E+02  0.51100000000E-03 0. -1.
        -11    1    3    3    0    0 -0.46469124754E+01 -0.67577430987E+01  0.21417201827E+01  0.84763112817E+01  0.51100000000E-03 0.  1.
         12    1    3    3    0    0 -0.79582306294E+01 -0.60807166679E+01  0.14205353471E+02  0.17381041890E+02  0.00000000000E+00 0. -1.
</event>
<event>
 7    1  0.2950722E-010  0.4778727E+02  0.7816164E-02  0.1312668E+00
        -11   -1    0    0    0    0  0.00000000000E+00  0.00000000000E+00  0.45593999997E+02  0.45594000000E+02  0.51100000000E-03 0. -1.
         11   -1    0    0    0    0 -0.00000000000E+00 -0.00000000000E+00 -0.45593999997E+02  0.45594000000E+02  0.51100000000E-03 0.  1.
    9900012    2    1    2    0    0 -0.36029373050E+02  0.60592984006E+01  0.23426315067E+02  0.47787273542E+02  0.20000011387E+02 0.  0.
        -12    1    1    2    0    0  0.36029373050E+02 -0.60592984006E+01 -0.23426315067E+02  0.43400726458E+02  0.00000000000E+00 0.  1.
         11    1    3    3    0    0 -0.11092812885E+02 -0.20380296513E+01  0.64993271786E+01  0.13017116293E+02  0.51100000000E-03 0. -1.
        -11    1    3    3    0    0 -0.43241696934E+00 -0.13418953804E+01 -0.19669242258E+01  0.24200121525E+01  0.51100000000E-03 0.  1.
        -12    1    3    3    0    0 -0.24504143195E+02  0.94392234323E+01  0.18893912114E+02  0.32350145096E+02  0.00000000000E+00 0.  1.
</event>
<event>
 7    1  0.2950722E-010  0.4778727E+02  0.7816164E-02  0.1312668E+00
        -11   -1    0    0    0    0  0.00000000000E+00  0.00000000000E+00  0.45593999997E+02  0.45594000000E+02  0.51100000000E-03 0.  1.
         11   -1    0    0    0    0 -0.00000000000E+00 -0.00000000000E+00 -0.45593999997E+02  0.45594000000E+02  0.51100000000E-03 0. -1.
    9900012    2    1    2    0    0 -0.87740859295E+00 -0.14846834874E+02 -0.40772843001E+02  0.47787273301E+02  0.20000010291E+02 0.  0.
        -12    1    1    2    0    0  0.87740859295E+00  0.14846834874E+02  0.40772843001E+02  0.43400726699E+02  0.00000000000E+00 0.  1.
         11    1    3    3    0    0 -0.21235292546E+01 -0.44272283413E+01 -0.28468513448E+02  0.28888855732E+02  0.51100000000E-03 0. -1.
        -11    1    3    3    0    0  0.32864681642E+00 -0.11471540601E+02 -0.12998338671E+02  0.17339580760E+02  0.51100000000E-03 0.  1.
         12    1    3    3    0    0  0.91747384526E+00  0.10519340683E+01  0.69400911850E+00  0.15588368091E+01  0.00000000000E+00 0. -1.
</event>
<event>
 7    1  0.2950722E-010  0.4778727E+02  0.7816164E-02  0.1312668E+00
        -11   -1    0    0    0    0  0.00000000000E+00  0.00000000000E+00  0.45593999997E+02  0.45594000000E+02  0.51100000000E-03 0.  1.
         11   -1    0    0    0    0 -0.00000000000E+00 -0.00000000000E+00 -0.45593999997E+02  0.45594000000E+02  0.51100000000E-03 0. -1.
    9900012    2    1    2    0    0  0.29885654323E+02 -0.49927636729E+01 -0.31073195414E+02  0.47787268477E+02  0.19999988296E+02 0.  0.
        -12    1    1    2    0    0 -0.29885654323E+02  0.49927636729E+01  0.31073195414E+02  0.43400731523E+02  0.00000000000E+00 0.  1.
         11    1    3    3    0    0  0.11075926323E+02 -0.43429516313E+01 -0.22778984448E+02  0.25698628475E+02  0.51100000000E-03 0.  1.
        -11    1    3    3    0    0  0.13628607893E+02 -0.30302359607E+01 -0.29412817283E+01  0.14267880766E+02  0.51100000000E-03 0. -1.
         12    1    3    3    0    0  0.51811201073E+01  0.23804239191E+01 -0.53529292386E+01  0.78207592364E+01  0.00000000000E+00 0. -1.
</event>
<event>
 7    1  0.2950722E-010  0.4778727E+02  0.7816164E-02  0.1312668E+00
        -11   -1    0    0    0    0  0.00000000000E+00  0.00000000000E+00  0.45593999997E+02  0.45594000000E+02  0.51100000000E-03 0.  1.
         11   -1    0    0    0    0 -0.00000000000E+00 -0.00000000000E+00 -0.45593999997E+02  0.45594000000E+02  0.51100000000E-03 0. -1.
    9900012    2    1    2    0    0 -0.32391902636E+02 -0.61289846292E+01 -0.28228060048E+02  0.47787272091E+02  0.20000004770E+02 0.  0.
        -12    1    1    2    0    0  0.32391902636E+02  0.61289846292E+01  0.28228060048E+02  0.43400727909E+02  0.00000000000E+00 0.  1.
         11    1    3    3    0    0 -0.18338974950E+02 -0.76137006431E+01 -0.25438171433E+02  0.32270528440E+02  0.51100000000E-03 0. -1.
        -11    1    3    3    0    0 -0.95114677548E+01  0.33857097711E+01 -0.31613643079E+01  0.10579474186E+02  0.51100000000E-03 0.  1.
         12    1    3    3    0    0 -0.45414599317E+01 -0.19009937572E+01  0.37147569255E+00  0.49372694647E+01  0.00000000000E+00 0. -1.
</event>
<event>
 7    1  0.2950722E-010  0.4778726E+02  0.7816164E-02  0.1312668E+00
        -11   -1    0    0    0    0  0.00000000000E+00  0.00000000000E+00  0.45593999997E+02  0.45594000000E+02  0.51100000000E-03 0.  1.
         11   -1    0    0    0    0 -0.00000000000E+00 -0.00000000000E+00 -0.45593999997E+02  0.45594000000E+02  0.51100000000E-03 0. -1.
    9900012    2    1    2    0    0  0.41407015706E+02 -0.12911279944E+02  0.15432855764E+01  0.47787264639E+02  0.19999970795E+02 0.  0.
        -12    1    1    2    0    0 -0.41407015706E+02  0.12911279944E+02 -0.15432855764E+01  0.43400735361E+02  0.00000000000E+00 0.  1.
         11    1    3    3    0    0  0.23875922368E+02 -0.84119082305E+01  0.31835675346E+01  0.25513819226E+02  0.51100000000E-03 0. -1.
        -11    1    3    3    0    0  0.63704256360E+00 -0.51673372873E+01 -0.12839660810E+01  0.53624403985E+01  0.51100000000E-03 0.  1.
        -12    1    3    3    0    0  0.16894050775E+02  0.66796557401E+00 -0.35631587715E+00  0.16911005015E+02  0.00000000000E+00 0.  1.
</event>
<event>
 7    1  0.2950722E-010  0.4778727E+02  0.7816164E-02  0.1312668E+00
        -11   -1    0    0    0    0  0.00000000000E+00  0.00000000000E+00  0.45593999997E+02  0.45594000000E+02  0.51100000000E-03 0.  1.
         11   -1    0    0    0    0 -0.00000000000E+00 -0.00000000000E+00 -0.45593999997E+02  0.45594000000E+02  0.51100000000E-03 0. -1.
    9900012    2    1    2    0    0  0.32376894672E+02  0.19455252508E+02 -0.21374122568E+02  0.47787271039E+02  0.19999999975E+02 0.  0.
        -12    1    1    2    0    0 -0.32376894672E+02 -0.19455252508E+02  0.21374122568E+02  0.43400728961E+02  0.00000000000E+00 0.  1.
         11    1    3    3    0    0  0.55556680195E+01  0.12426867795E+02 -0.69498286127E+01  0.15283736727E+02  0.51100000000E-03 0.  1.
        -11    1    3    3    0    0  0.23261716146E+02  0.37135359254E+01 -0.89978622380E+01  0.25216250955E+02  0.51100000000E-03 0. -1.
         12    1    3    3    0    0  0.35595105075E+01  0.33148487881E+01 -0.54264317175E+01  0.72872833571E+01  0.00000000000E+00 0. -1.
</event>
<event>
 7    1  0.2950722E-010  0.4778727E+02  0.7816164E-02  0.1312668E+00
        -11   -1    0    0    0    0  0.00000000000E+00  0.00000000000E+00  0.45593999997E+02  0.45594000000E+02  0.51100000000E-03 0.  1.
         11   -1    0    0    0    0 -0.00000000000E+00 -0.00000000000E+00 -0.45593999997E+02  0.45594000000E+02  0.51100000000E-03 0. -1.
    9900012    2    1    2    0    0 -0.40083802107E+02 -0.33307625994E+01 -0.16303926840E+02  0.47787271881E+02  0.20000003813E+02 0.  0.
        -12    1    1    2    0    0  0.40083802107E+02  0.33307625994E+01  0.16303926840E+02  0.43400728119E+02  0.00000000000E+00 0.  1.
         11    1    3    3    0    0 -0.13688794531E+02  0.58556780372E+01 -0.11616427235E+02  0.18884211473E+02  0.51100000000E-03 0. -1.
        -11    1    3    3    0    0 -0.20292665269E+02 -0.92927020294E+01 -0.46562140418E+01  0.22799712809E+02  0.51100000000E-03 0.  1.
         12    1    3    3    0    0 -0.61023423073E+01  0.10626139286E+00 -0.31285562831E-01  0.61033475983E+01  0.00000000000E+00 0. -1.
</event>
<event>
 7    1  0.2950722E-010  0.4778727E+02  0.7816164E-02  0.1312668E+00
        -11   -1    0    0    0    0  0.00000000000E+00  0.00000000000E+00  0.45593999997E+02  0.45594000000E+02  0.51100000000E-03 0.  1.
         11   -1    0    0    0    0 -0.00000000000E+00 -0.00000000000E+00 -0.45593999997E+02  0.45594000000E+02  0.51100000000E-03 0. -1.
    9900012    2    1    2    0    0 -0.39002290872E+02  0.13784063173E+02  0.13131792947E+02  0.47787273315E+02  0.20000010351E+02 0.  0.
        -12    1    1    2    0    0  0.39002290872E+02 -0.13784063173E+02 -0.13131792947E+02  0.43400726685E+02  0.00000000000E+00 0.  1.
         11    1    3    3    0    0 -0.20058694881E+02  0.29497269568E+01  0.87571013599E+00  0.20293323975E+02  0.51100000000E-03 0. -1.
        -11    1    3    3    0    0 -0.81956230993E+01 -0.11772586734E+01  0.24820229994E+01  0.86437615886E+01  0.51100000000E-03 0.  1.
         12    1    3    3    0    0 -0.10747972892E+02  0.12011594889E+02  0.97740598114E+01  0.18850187751E+02  0.00000000000E+00 0. -1.
</event>
<event>
 7    1  0.2950722E-010  0.4778727E+02  0.7816164E-02  0.1312668E+00
        -11   -1    0    0    0    0  0.00000000000E+00  0.00000000000E+00  0.45593999997E+02  0.45594000000E+02  0.51100000000E-03 0. -1.
         11   -1    0    0    0    0 -0.00000000000E+00 -0.00000000000E+00 -0.45593999997E+02  0.45594000000E+02  0.51100000000E-03 0.  1.
    9900012    2    1    2    0    0  0.28125078866E+02  0.32878259515E+02  0.34092824650E+01  0.47787271701E+02  0.20000002992E+02 0.  0.
        -12    1    1    2    0    0 -0.28125078866E+02 -0.32878259515E+02 -0.34092824650E+01  0.43400728299E+02  0.00000000000E+00 0.  1.
         11    1    3    3    0    0  0.10089454939E+02  0.96976372231E+01  0.76055825637E+01  0.15927528216E+02  0.51100000000E-03 0. -1.
        -11    1    3    3    0    0  0.93653517175E+01  0.15775005732E+02 -0.77513291002E+01  0.19915916291E+02  0.51100000000E-03 0.  1.
        -12    1    3    3    0    0  0.86702722100E+01  0.74056165604E+01  0.35550290015E+01  0.11943827194E+02  0.00000000000E+00 0.  1.
</event>
<event>
 7    1  0.2950722E-010  0.4778727E+02  0.7816164E-02  0.1312668E+00
        -11   -1    0    0    0    0  0.00000000000E+00  0.00000000000E+00  0.45593999997E+02  0.45594000000E+02  0.51100000000E-03 0.  1.
         11   -1    0    0    0    0 -0.00000000000E+00 -0.00000000000E+00 -0.45593999997E+02  0.45594000000E+02  0.51100000000E-03 0. -1.
    9900012    2    1    2    0    0 -0.20532000657E+02  0.98501931047E+01 -0.36946361964E+02  0.47787273997E+02  0.20000013464E+02 0.  0.
        -12    1    1    2    0    0  0.20532000657E+02 -0.98501931047E+01  0.36946361964E+02  0.43400726003E+02  0.00000000000E+00 0.  1.
         11    1    3    3    0    0 -0.14717962228E+02  0.47756337923E+01 -0.29534932241E+02  0.33342725038E+02  0.51100000000E-03 0. -1.
        -11    1    3    3    0    0 -0.29107705512E+01 -0.22201564017E+01 -0.19159375355E-01  0.36608806307E+01  0.51100000000E-03 0.  1.
         12    1    3    3    0    0 -0.29032678781E+01  0.72947157140E+01 -0.73922703477E+01  0.10783668328E+02  0.00000000000E+00 0. -1.
</event>
<event>
 7    1  0.2950722E-010  0.4778727E+02  0.7816164E-02  0.1312668E+00
        -11   -1    0    0    0    0  0.00000000000E+00  0.00000000000E+00  0.45593999997E+02  0.45594000000E+02  0.51100000000E-03 0.  1.
         11   -1    0    0    0    0 -0.00000000000E+00 -0.00000000000E+00 -0.45593999997E+02  0.45594000000E+02  0.51100000000E-03 0. -1.
    9900012    2    1    2    0    0  0.28391700570E+02  0.28110851956E+01 -0.32705234329E+02  0.47787271737E+02  0.20000003159E+02 0.  0.
        -12    1    1    2    0    0 -0.28391700570E+02 -0.28110851956E+01  0.32705234329E+02  0.43400728263E+02  0.00000000000E+00 0.  1.
         11    1    3    3    0    0  0.12126226027E+02 -0.15991189995E+01 -0.20519148646E+01  0.12402132644E+02  0.51100000000E-03 0. -1.
        -11    1    3    3    0    0  0.78979356942E+01  0.36397952712E+01 -0.20059141133E+02  0.21863088553E+02  0.51100000000E-03 0.  1.
         12    1    3    3    0    0  0.83675388488E+01  0.77040892387E+00 -0.10594178331E+02  0.13522050540E+02  0.00000000000E+00 0. -1.
</event>
<event>
 7    1  0.2950722E-010  0.4778728E+02  0.7816164E-02  0.1312668E+00
        -11   -1    0    0    0    0  0.00000000000E+00  0.00000000000E+00  0.45593999997E+02  0.45594000000E+02  0.51100000000E-03 0.  1.
         11   -1    0    0    0    0 -0.00000000000E+00 -0.00000000000E+00 -0.45593999997E+02  0.45594000000E+02  0.51100000000E-03 0. -1.
    9900012    2    1    2    0    0 -0.41778350112E+02  0.79994683902E+01  0.86139712088E+01  0.47787279585E+02  0.20000038939E+02 0.  0.
        -12    1    1    2    0    0  0.41778350112E+02 -0.79994683902E+01 -0.86139712088E+01  0.43400720415E+02  0.00000000000E+00 0.  1.
         11    1    3    3    0    0 -0.25152785854E+02  0.64465881303E-01 -0.15730913524E+00  0.25153360381E+02  0.51100000000E-03 0. -1.
        -11    1    3    3    0    0 -0.10284537734E+02  0.22423524440E+01  0.93686923304E+01  0.14091566880E+02  0.51100000000E-03 0.  1.
         12    1    3    3    0    0 -0.63410265244E+01  0.56926500649E+01 -0.59741198636E+00  0.85423523239E+01  0.00000000000E+00 0. -1.
</event>
<event>
 7    1  0.2950722E-010  0.4778725E+02  0.7816164E-02  0.1312668E+00
        -11   -1    0    0    0    0  0.00000000000E+00  0.00000000000E+00  0.45593999997E+02  0.45594000000E+02  0.51100000000E-03 0.  1.
         11   -1    0    0    0    0 -0.00000000000E+00 -0.00000000000E+00 -0.45593999997E+02  0.45594000000E+02  0.51100000000E-03 0. -1.
    9900012    2    1    2    0    0  0.27260753196E+02 -0.16659529536E+02 -0.29375775917E+02  0.47787253464E+02  0.19999919843E+02 0.  0.
        -12    1    1    2    0    0 -0.27260753196E+02  0.16659529536E+02  0.29375775917E+02  0.43400746536E+02  0.00000000000E+00 0.  1.
         11    1    3    3    0    0  0.64881800313E+01 -0.76754904881E+01  0.18923586843E+00  0.10052136331E+02  0.51100000000E-03 0. -1.
        -11    1    3    3    0    0  0.39444397854E+01 -0.38168101225E+01 -0.44550777100E+01  0.70692547270E+01  0.51100000000E-03 0.  1.
         12    1    3    3    0    0  0.16828133380E+02 -0.51672289255E+01 -0.25109934075E+02  0.30665862405E+02  0.00000000000E+00 0. -1.
</event>
<event>
 7    1  0.2950722E-010  0.4778727E+02  0.7816164E-02  0.1312668E+00
        -11   -1    0    0    0    0  0.00000000000E+00  0.00000000000E+00  0.45593999997E+02  0.45594000000E+02  0.51100000000E-03 0. -1.
         11   -1    0    0    0    0 -0.00000000000E+00 -0.00000000000E+00 -0.45593999997E+02  0.45594000000E+02  0.51100000000E-03 0.  1.
    9900012    2    1    2    0    0 -0.88931715024E+01 -0.41962763613E+02 -0.66076787142E+01  0.47787269046E+02  0.19999990887E+02 0.  0.
        -12    1    1    2    0    0  0.88931715024E+01  0.41962763613E+02  0.66076787142E+01  0.43400730954E+02  0.00000000000E+00 0.  1.
         11    1    3    3    0    0  0.32718263558E+01 -0.21700297793E+02 -0.56875635978E+01  0.22670601049E+02  0.51100000000E-03 0. -1.
        -11    1    3    3    0    0 -0.85380709440E+01 -0.14115098871E+02  0.33021583654E+01  0.16823760629E+02  0.51100000000E-03 0.  1.
         12    1    3    3    0    0 -0.36269269142E+01 -0.61473669491E+01 -0.42222734818E+01  0.82929073673E+01  0.00000000000E+00 0. -1.
</event>
<event>
 7    1  0.2950722E-010  0.4778727E+02  0.7816164E-02  0.1312668E+00
        -11   -1    0    0    0    0  0.00000000000E+00  0.00000000000E+00  0.45593999997E+02  0.45594000000E+02  0.51100000000E-03 0.  1.
         11   -1    0    0    0    0 -0.00000000000E+00 -0.00000000000E+00 -0.45593999997E+02  0.45594000000E+02  0.51100000000E-03 0. -1.
    9900012    2    1    2    0    0  0.10260421909E+02 -0.54593805128E+01 -0.41815574485E+02  0.47787270020E+02  0.19999995328E+02 0.  0.
        -12    1    1    2    0    0 -0.10260421909E+02  0.54593805128E+01  0.41815574485E+02  0.43400729980E+02  0.00000000000E+00 0.  1.
         11    1    3    3    0    0  0.97666895876E+01  0.32415880298E+01 -0.35214771092E+02  0.36687548593E+02  0.51100000000E-03 0. -1.
        -11    1    3    3    0    0 -0.24772230305E+00 -0.73676667911E+01 -0.57780037686E+01  0.93663871421E+01  0.51100000000E-03 0.  1.
        -12    1    3    3    0    0  0.74145462468E+00 -0.13333017515E+01 -0.82279962415E+00  0.17333342847E+01  0.00000000000E+00 0.  1.
</event>
<event>
 7    1  0.2950722E-010  0.4778727E+02  0.7816164E-02  0.1312668E+00
        -11   -1    0    0    0    0  0.00000000000E+00  0.00000000000E+00  0.45593999997E+02  0.45594000000E+02  0.51100000000E-03 0.  1.
         11   -1    0    0    0    0 -0.00000000000E+00 -0.00000000000E+00 -0.45593999997E+02  0.45594000000E+02  0.51100000000E-03 0. -1.
    9900012    2    1    2    0    0  0.91010995548E+01  0.20709430245E+02 -0.37039338696E+02  0.47787272757E+02  0.20000007809E+02 0.  0.
        -12    1    1    2    0    0 -0.91010995548E+01 -0.20709430245E+02  0.37039338696E+02  0.43400727243E+02  0.00000000000E+00 0.  1.
         11    1    3    3    0    0 -0.60731998992E+00  0.16321626736E+02 -0.21186413473E+02  0.26751232737E+02  0.51100000000E-03 0. -1.
        -11    1    3    3    0    0  0.66573553865E+01  0.70302601199E+01 -0.99341142697E+01  0.13871970469E+02  0.51100000000E-03 0.  1.
         12    1    3    3    0    0  0.30510641582E+01 -0.26424566103E+01 -0.59188109535E+01  0.71640695515E+01  0.00000000000E+00 0. -1.
</event>
<event>
 7    1  0.2950722E-010  0.4778727E+02  0.7816164E-02  0.1312668E+00
        -11   -1    0    0    0    0  0.00000000000E+00  0.00000000000E+00  0.45593999997E+02  0.45594000000E+02  0.51100000000E-03 0.  1.
         11   -1    0    0    0    0 -0.00000000000E+00 -0.00000000000E+00 -0.45593999997E+02  0.45594000000E+02  0.51100000000E-03 0. -1.
    9900012    2    1    2    0    0 -0.35414635995E+02  0.68142367154E+01 -0.24145247164E+02  0.47787271604E+02  0.20000002552E+02 0.  0.
        -12    1    1    2    0    0  0.35414635995E+02 -0.68142367154E+01  0.24145247164E+02  0.43400728396E+02  0.00000000000E+00 0.  1.
         11    1    3    3    0    0 -0.17761897570E+02 -0.28268362079E+01 -0.52487274070E+01  0.18735665131E+02  0.51100000000E-03 0. -1.
        -11    1    3    3    0    0 -0.15978774774E+02  0.11193890448E+02 -0.15308453599E+02  0.24798652756E+02  0.51100000000E-03 0.  1.
        -12    1    3    3    0    0 -0.16739636506E+01 -0.15528175249E+01 -0.35880661579E+01  0.42529537174E+01  0.00000000000E+00 0.  1.
</event>
<event>
 7    1  0.2950722E-010  0.4778727E+02  0.7816164E-02  0.1312668E+00
        -11   -1    0    0    0    0  0.00000000000E+00  0.00000000000E+00  0.45593999997E+02  0.45594000000E+02  0.51100000000E-03 0.  1.
         11   -1    0    0    0    0 -0.00000000000E+00 -0.00000000000E+00 -0.45593999997E+02  0.45594000000E+02  0.51100000000E-03 0. -1.
    9900012    2    1    2    0    0 -0.29606109417E+02 -0.44427242546E+01 -0.31422344421E+02  0.47787271405E+02  0.20000001644E+02 0.  0.
        -12    1    1    2    0    0  0.29606109417E+02  0.44427242546E+01  0.31422344421E+02  0.43400728595E+02  0.00000000000E+00 0.  1.
         11    1    3    3    0    0 -0.14373752642E+01 -0.26072884327E+01 -0.21324470623E+01  0.36621484618E+01  0.51100000000E-03 0. -1.
        -11    1    3    3    0    0 -0.10761309705E+02 -0.78252950104E+01 -0.64404911464E+01  0.14782454297E+02  0.51100000000E-03 0.  1.
        -12    1    3    3    0    0 -0.17407424448E+02  0.59898591885E+01 -0.22849406213E+02  0.29342668646E+02  0.00000000000E+00 0.  1.
</event>
<event>
 7    1  0.2950722E-010  0.4778727E+02  0.7816164E-02  0.1312668E+00
        -11   -1    0    0    0    0  0.00000000000E+00  0.00000000000E+00  0.45593999997E+02  0.45594000000E+02  0.51100000000E-03 0.  1.
         11   -1    0    0    0    0 -0.00000000000E+00 -0.00000000000E+00 -0.45593999997E+02  0.45594000000E+02  0.51100000000E-03 0. -1.
    9900012    2    1    2    0    0  0.42622682813E+02 -0.52597902382E+01 -0.62661678802E+01  0.47787270243E+02  0.19999996347E+02 0.  0.
        -12    1    1    2    0    0 -0.42622682813E+02  0.52597902382E+01  0.62661678802E+01  0.43400729757E+02  0.00000000000E+00 0.  1.
         11    1    3    3    0    0  0.15007346437E+01 -0.20103466561E+01 -0.37768030101E+01  0.45340863894E+01  0.51100000000E-03 0. -1.
        -11    1    3    3    0    0  0.31369610115E+02  0.18795801709E+00 -0.67181906701E+01  0.32081487701E+02  0.51100000000E-03 0.  1.
        -12    1    3    3    0    0  0.97523380544E+01 -0.34374015991E+01  0.42288258000E+01  0.11171696153E+02  0.00000000000E+00 0.  1.
</event>
<event>
 7    1  0.2950722E-010  0.4778726E+02  0.7816164E-02  0.1312668E+00
        -11   -1    0    0    0    0  0.00000000000E+00  0.00000000000E+00  0.45593999997E+02  0.45594000000E+02  0.51100000000E-03 0. -1.
         11   -1    0    0    0    0 -0.00000000000E+00 -0.00000000000E+00 -0.45593999997E+02  0.45594000000E+02  0.51100000000E-03 0.  1.
    9900012    2    1    2    0    0  0.92346777609E+01  0.18669732389E+02  0.38076053525E+02  0.47787262300E+02  0.19999960133E+02 0.  0.
        -12    1    1    2    0    0 -0.92346777609E+01 -0.18669732389E+02 -0.38076053525E+02  0.43400737700E+02  0.00000000000E+00 0.  1.
         11    1    3    3    0    0 -0.29292281984E+01  0.36735848563E+01  0.85519277851E+00  0.47756631460E+01  0.51100000000E-03 0. -1.
        -11    1    3    3    0    0  0.83272229646E+01  0.32089164260E+01  0.18768904801E+02  0.20782482398E+02  0.51100000000E-03 0.  1.
        -12    1    3    3    0    0  0.38366829947E+01  0.11787231106E+02  0.18451955946E+02  0.22229116757E+02  0.00000000000E+00 0.  1.
</event>
<event>
 7    1  0.2950722E-010  0.4778727E+02  0.7816164E-02  0.1312668E+00
        -11   -1    0    0    0    0  0.00000000000E+00  0.00000000000E+00  0.45593999997E+02  0.45594000000E+02  0.51100000000E-03 0.  1.
         11   -1    0    0    0    0 -0.00000000000E+00 -0.00000000000E+00 -0.45593999997E+02  0.45594000000E+02  0.51100000000E-03 0. -1.
    9900012    2    1    2    0    0 -0.24535285477E+02  0.65375451202E+01 -0.35198064006E+02  0.47787269138E+02  0.19999991307E+02 0.  0.
        -12    1    1    2    0    0  0.24535285477E+02 -0.65375451202E+01  0.35198064006E+02  0.43400730862E+02  0.00000000000E+00 0.  1.
         11    1    3    3    0    0 -0.49546667668E+01  0.32560603761E+01 -0.58743466117E+01  0.83461727947E+01  0.51100000000E-03 0. -1.
        -11    1    3    3    0    0 -0.14241287377E+02  0.82834271463E+01 -0.11269378958E+02  0.19960669673E+02  0.51100000000E-03 0.  1.
        -12    1    3    3    0    0 -0.53393313325E+01 -0.50019424022E+01 -0.18054338436E+02  0.19480426670E+02  0.00000000000E+00 0.  1.
</event>
<event>
 7    1  0.2950722E-010  0.4778727E+02  0.7816164E-02  0.1312668E+00
        -11   -1    0    0    0    0  0.00000000000E+00  0.00000000000E+00  0.45593999997E+02  0.45594000000E+02  0.51100000000E-03 0.  1.
         11   -1    0    0    0    0 -0.00000000000E+00 -0.00000000000E+00 -0.45593999997E+02  0.45594000000E+02  0.51100000000E-03 0. -1.
    9900012    2    1    2    0    0  0.17157039720E+02 -0.18533460831E+02 -0.35295467854E+02  0.47787271512E+02  0.20000002130E+02 0.  0.
        -12    1    1    2    0    0 -0.17157039720E+02  0.18533460831E+02  0.35295467854E+02  0.43400728488E+02  0.00000000000E+00 0.  1.
         11    1    3    3    0    0  0.15729616251E+02 -0.47643739798E+01 -0.13020841229E+02  0.20968128038E+02  0.51100000000E-03 0. -1.
        -11    1    3    3    0    0 -0.92398087940E+00 -0.75718785872E+01 -0.78565749863E+01  0.10950472902E+02  0.51100000000E-03 0.  1.
         12    1    3    3    0    0  0.23514043484E+01 -0.61972082636E+01 -0.14418051638E+02  0.15868670572E+02  0.00000000000E+00 0. -1.
</event>
<event>
 7    1  0.2950722E-010  0.4778728E+02  0.7816164E-02  0.1312668E+00
        -11   -1    0    0    0    0  0.00000000000E+00  0.00000000000E+00  0.45593999997E+02  0.45594000000E+02  0.51100000000E-03 0.  1.
         11   -1    0    0    0    0 -0.00000000000E+00 -0.00000000000E+00 -0.45593999997E+02  0.45594000000E+02  0.51100000000E-03 0. -1.
    9900012    2    1    2    0    0  0.10111665483E+02 -0.38768575029E+02 -0.16684559094E+02  0.47787277647E+02  0.20000030103E+02 0.  0.
        -12    1    1    2    0    0 -0.10111665483E+02  0.38768575029E+02  0.16684559094E+02  0.43400722353E+02  0.00000000000E+00 0.  1.
         11    1    3    3    0    0 -0.25900499939E+01 -0.13103375918E+01  0.13777461207E+01  0.32130247758E+01  0.51100000000E-03 0. -1.
        -11    1    3    3    0    0  0.10617845959E+01 -0.27860958322E+01 -0.48381388495E+01  0.56830717313E+01  0.51100000000E-03 0.  1.
         12    1    3    3    0    0  0.11639930881E+02 -0.34672141605E+02 -0.13224166365E+02  0.38891181140E+02  0.00000000000E+00 0. -1.
</event>
<event>
 7    1  0.2950722E-010  0.4778727E+02  0.7816164E-02  0.1312668E+00
        -11   -1    0    0    0    0  0.00000000000E+00  0.00000000000E+00  0.45593999997E+02  0.45594000000E+02  0.51100000000E-03 0. -1.
         11   -1    0    0    0    0 -0.00000000000E+00 -0.00000000000E+00 -0.45593999997E+02  0.45594000000E+02  0.51100000000E-03 0.  1.
    9900012    2    1    2    0    0  0.25030731852E+02  0.33777161222E+02  0.10779105146E+02  0.47787271146E+02  0.20000000464E+02 0.  0.
        -12    1    1    2    0    0 -0.25030731852E+02 -0.33777161222E+02 -0.10779105146E+02  0.43400728854E+02  0.00000000000E+00 0.  1.
         11    1    3    3    0    0  0.18661397674E+02  0.14680227654E+02  0.69652377411E+01  0.24744118173E+02  0.51100000000E-03 0. -1.
        -11    1    3    3    0    0 -0.13544038797E+01  0.11748791726E+02  0.34280248718E+00  0.11831569240E+02  0.51100000000E-03 0.  1.
        -12    1    3    3    0    0  0.77237380579E+01  0.73481418432E+01  0.34710649176E+01  0.11211583733E+02  0.00000000000E+00 0.  1.
</event>
<event>
 7    1  0.2950722E-010  0.4778728E+02  0.7816164E-02  0.1312668E+00
        -11   -1    0    0    0    0  0.00000000000E+00  0.00000000000E+00  0.45593999997E+02  0.45594000000E+02  0.51100000000E-03 0.  1.
         11   -1    0    0    0    0 -0.00000000000E+00 -0.00000000000E+00 -0.45593999997E+02  0.45594000000E+02  0.51100000000E-03 0. -1.
    9900012    2    1    2    0    0 -0.17070885235E+02 -0.72360328364E+01 -0.39240888030E+02  0.47787278954E+02  0.20000036062E+02 0.  0.
        -12    1    1    2    0    0  0.17070885235E+02  0.72360328364E+01  0.39240888030E+02  0.43400721046E+02  0.00000000000E+00 0.  1.
         11    1    3    3    0    0 -0.19144280981E+01 -0.65112018510E+01 -0.15060041660E+01  0.69518942236E+01  0.51100000000E-03 0. -1.
        -11    1    3    3    0    0 -0.81033038219E+01  0.95012482892E+00 -0.23203779981E+02  0.24596375255E+02  0.51100000000E-03 0.  1.
        -12    1    3    3    0    0 -0.70531533152E+01 -0.16749558143E+01 -0.14531103884E+02  0.16239009475E+02  0.00000000000E+00 0.  1.
</event>
<event>
 7    1  0.2950722E-010  0.4778727E+02  0.7816164E-02  0.1312668E+00
        -11   -1    0    0    0    0  0.00000000000E+00  0.00000000000E+00  0.45593999997E+02  0.45594000000E+02  0.51100000000E-03 0. -1.
         11   -1    0    0    0    0 -0.00000000000E+00 -0.00000000000E+00 -0.45593999997E+02  0.45594000000E+02  0.51100000000E-03 0.  1.
    9900012    2    1    2    0    0 -0.42225396418E+01 -0.22625665629E+02  0.36795009243E+02  0.47787270843E+02  0.19999999083E+02 0.  0.
        -12    1    1    2    0    0  0.42225396418E+01  0.22625665629E+02 -0.36795009243E+02  0.43400729157E+02  0.00000000000E+00 0.  1.
         11    1    3    3    0    0 -0.59843005066E+01 -0.23094397448E+02  0.34659901773E+02  0.42076975143E+02  0.51100000000E-03 0. -1.
        -11    1    3    3    0    0  0.78814612942E-01  0.25520622168E+00 -0.15925376149E+01  0.16147811848E+01  0.51100000000E-03 0.  1.
         12    1    3    3    0    0  0.16829462518E+01  0.21352559741E+00  0.37276450852E+01  0.40955145157E+01  0.00000000000E+00 0. -1.
</event>
<event>
 7    1  0.2950722E-010  0.4778727E+02  0.7816164E-02  0.1312668E+00
        -11   -1    0    0    0    0  0.00000000000E+00  0.00000000000E+00  0.45593999997E+02  0.45594000000E+02  0.51100000000E-03 0.  1.
         11   -1    0    0    0    0 -0.00000000000E+00 -0.00000000000E+00 -0.45593999997E+02  0.45594000000E+02  0.51100000000E-03 0. -1.
    9900012    2    1    2    0    0 -0.34178520792E+02  0.24313725270E+02 -0.11148762484E+02  0.47787269304E+02  0.19999992062E+02 0.  0.
        -12    1    1    2    0    0  0.34178520792E+02 -0.24313725270E+02  0.11148762484E+02  0.43400730696E+02  0.00000000000E+00 0.  1.
         11    1    3    3    0    0 -0.20986714089E+01  0.29462968741E+01 -0.28523814665E+01  0.46066438157E+01  0.51100000000E-03 0. -1.
        -11    1    3    3    0    0 -0.21007967158E+02  0.16054592838E+02 -0.13682614177E+02  0.29770766975E+02  0.51100000000E-03 0.  1.
        -12    1    3    3    0    0 -0.11071882225E+02  0.53128355578E+01  0.53862331596E+01  0.13409858513E+02  0.00000000000E+00 0.  1.
</event>
<event>
 7    1  0.2950722E-010  0.4778727E+02  0.7816164E-02  0.1312668E+00
        -11   -1    0    0    0    0  0.00000000000E+00  0.00000000000E+00  0.45593999997E+02  0.45594000000E+02  0.51100000000E-03 0. -1.
         11   -1    0    0    0    0 -0.00000000000E+00 -0.00000000000E+00 -0.45593999997E+02  0.45594000000E+02  0.51100000000E-03 0.  1.
    9900012    2    1    2    0    0 -0.97131603211E+01 -0.42011630746E+02  0.49295576862E+01  0.47787272583E+02  0.20000007015E+02 0.  0.
        -12    1    1    2    0    0  0.97131603211E+01  0.42011630746E+02 -0.49295576862E+01  0.43400727417E+02  0.00000000000E+00 0.  1.
         11    1    3    3    0    0 -0.28790990498E+01 -0.27975362958E+02  0.79940161671E+01  0.29237209831E+02  0.51100000000E-03 0. -1.
        -11    1    3    3    0    0 -0.64323276010E+01 -0.28844834636E+01 -0.20685147009E+01  0.73466888152E+01  0.51100000000E-03 0.  1.
         12    1    3    3    0    0 -0.40173367032E+00 -0.11151784324E+02 -0.99594378000E+00  0.11203373937E+02  0.00000000000E+00 0. -1.
</event>
<event>
 7    1  0.2950722E-010  0.4778727E+02  0.7816164E-02  0.1312668E+00
        -11   -1    0    0    0    0  0.00000000000E+00  0.00000000000E+00  0.45593999997E+02  0.45594000000E+02  0.51100000000E-03 0.  1.
         11   -1    0    0    0    0 -0.00000000000E+00 -0.00000000000E+00 -0.45593999997E+02  0.45594000000E+02  0.51100000000E-03 0. -1.
    9900012    2    1    2    0    0 -0.42004515873E+02  0.92901899081E+01  0.57389871101E+01  0.47787274714E+02  0.20000016732E+02 0.  0.
        -12    1    1    2    0    0  0.42004515873E+02 -0.92901899081E+01 -0.57389871101E+01  0.43400725286E+02  0.00000000000E+00 0.  1.
         11    1    3    3    0    0 -0.17036614661E+02  0.85449176219E+01  0.62393795441E+01  0.20054717989E+02  0.51100000000E-03 0. -1.
        -11    1    3    3    0    0 -0.19309727107E+02 -0.46694327584E+01 -0.94115609188E+00  0.19888563002E+02  0.51100000000E-03 0.  1.
        -12    1    3    3    0    0 -0.56581741060E+01  0.54147050447E+01  0.44076365783E+00  0.78439937236E+01  0.00000000000E+00 0.  1.
</event>
<event>
 7    1  0.2950722E-010  0.4778727E+02  0.7816164E-02  0.1312668E+00
        -11   -1    0    0    0    0  0.00000000000E+00  0.00000000000E+00  0.45593999997E+02  0.45594000000E+02  0.51100000000E-03 0. -1.
         11   -1    0    0    0    0 -0.00000000000E+00 -0.00000000000E+00 -0.45593999997E+02  0.45594000000E+02  0.51100000000E-03 0.  1.
    9900012    2    1    2    0    0  0.37859844287E+02 -0.13092692342E+02  0.16698423121E+02  0.47787265710E+02  0.19999975678E+02 0.  0.
        -12    1    1    2    0    0 -0.37859844287E+02  0.13092692342E+02 -0.16698423121E+02  0.43400734290E+02  0.00000000000E+00 0.  1.
         11    1    3    3    0    0  0.27168045090E+02 -0.14343497971E+02  0.37990102022E+01  0.30955953981E+02  0.51100000000E-03 0. -1.
        -11    1    3    3    0    0  0.37210350000E+01  0.48477334217E+00  0.52585398692E+01  0.64601353300E+01  0.51100000000E-03 0.  1.
         12    1    3    3    0    0  0.69707641967E+01  0.76603228689E+00  0.76408730495E+01  0.10371176400E+02  0.00000000000E+00 0. -1.
</event>
<event>
 7    1  0.2950722E-010  0.4778727E+02  0.7816164E-02  0.1312668E+00
        -11   -1    0    0    0    0  0.00000000000E+00  0.00000000000E+00  0.45593999997E+02  0.45594000000E+02  0.51100000000E-03 0.  1.
         11   -1    0    0    0    0 -0.00000000000E+00 -0.00000000000E+00 -0.45593999997E+02  0.45594000000E+02  0.51100000000E-03 0. -1.
    9900012    2    1    2    0    0  0.25965697787E+01 -0.16724407629E+02 -0.39964676087E+02  0.47787270515E+02  0.19999997584E+02 0.  0.
        -12    1    1    2    0    0 -0.25965697787E+01  0.16724407629E+02  0.39964676087E+02  0.43400729485E+02  0.00000000000E+00 0.  1.
         11    1    3    3    0    0  0.14311177441E+01 -0.17617434473E+02 -0.28394888320E+02  0.33446850052E+02  0.51100000000E-03 0. -1.
        -11    1    3    3    0    0  0.26302757900E+01  0.69292753582E+00 -0.12365731229E+02  0.12661350970E+02  0.51100000000E-03 0.  1.
         12    1    3    3    0    0 -0.14648237554E+01  0.20009930814E+00  0.79594346220E+00  0.16790694931E+01  0.00000000000E+00 0. -1.
</event>
<event>
 7    1  0.2950722E-010  0.4778728E+02  0.7816164E-02  0.1312668E+00
        -11   -1    0    0    0    0  0.00000000000E+00  0.00000000000E+00  0.45593999997E+02  0.45594000000E+02  0.51100000000E-03 0. -1.
         11   -1    0    0    0    0 -0.00000000000E+00 -0.00000000000E+00 -0.45593999997E+02  0.45594000000E+02  0.51100000000E-03 0.  1.
    9900012    2    1    2    0    0 -0.30109678448E+02  0.67867601161E+01  0.30511796514E+02  0.47787279089E+02  0.20000036678E+02 0.  0.
        -12    1    1    2    0    0  0.30109678448E+02 -0.67867601161E+01 -0.30511796514E+02  0.43400720911E+02  0.00000000000E+00 0.  1.
         11    1    3    3    0    0 -0.22366486904E+02  0.32524365549E+01  0.16816687372E+02  0.28171600140E+02  0.51100000000E-03 0. -1.
        -11    1    3    3    0    0  0.23528781677E+01  0.31592820031E+01  0.39601412864E+01  0.55856797005E+01  0.51100000000E-03 0.  1.
        -12    1    3    3    0    0 -0.10096069711E+02  0.37504155805E+00  0.97349678549E+01  0.14029999249E+02  0.00000000000E+00 0.  1.
</event>
<event>
 7    1  0.2950722E-010  0.4778728E+02  0.7816164E-02  0.1312668E+00
        -11   -1    0    0    0    0  0.00000000000E+00  0.00000000000E+00  0.45593999997E+02  0.45594000000E+02  0.51100000000E-03 0.  1.
         11   -1    0    0    0    0 -0.00000000000E+00 -0.00000000000E+00 -0.45593999997E+02  0.45594000000E+02  0.51100000000E-03 0. -1.
    9900012    2    1    2    0    0 -0.32734264540E+02 -0.24134574311E+02 -0.15152988792E+02  0.47787276256E+02  0.20000023763E+02 0.  0.
        -12    1    1    2    0    0  0.32734264540E+02  0.24134574311E+02  0.15152988792E+02  0.43400723744E+02  0.00000000000E+00 0.  1.
         11    1    3    3    0    0 -0.15154204935E+01 -0.85582263936E+01  0.57151486551E+00  0.87101301815E+01  0.51100000000E-03 0. -1.
        -11    1    3    3    0    0  0.44329556527E+00 -0.13651270783E+00  0.75417149488E-01  0.46993051097E+00  0.51100000000E-03 0.  1.
         12    1    3    3    0    0 -0.31662139611E+02 -0.15439835210E+02 -0.15799920807E+02  0.38607215564E+02  0.00000000000E+00 0. -1.
</event>
<event>
 7    1  0.2950722E-010  0.4778727E+02  0.7816164E-02  0.1312668E+00
        -11   -1    0    0    0    0  0.00000000000E+00  0.00000000000E+00  0.45593999997E+02  0.45594000000E+02  0.51100000000E-03 0. -1.
         11   -1    0    0    0    0 -0.00000000000E+00 -0.00000000000E+00 -0.45593999997E+02  0.45594000000E+02  0.51100000000E-03 0.  1.
    9900012    2    1    2    0    0 -0.11619794449E+02 -0.37686248074E+02  0.18120444251E+02  0.47787269398E+02  0.19999992493E+02 0.  0.
        -12    1    1    2    0    0  0.11619794449E+02  0.37686248074E+02 -0.18120444251E+02  0.43400730602E+02  0.00000000000E+00 0.  1.
         11    1    3    3    0    0 -0.96888489854E+01 -0.22182841100E+02  0.33877526507E+01  0.24442362861E+02  0.51100000000E-03 0. -1.
        -11    1    3    3    0    0 -0.48527511456E+01 -0.72605511681E+01  0.43081075113E+01  0.97377917177E+01  0.51100000000E-03 0.  1.
         12    1    3    3    0    0  0.29218056823E+01 -0.82428558062E+01  0.10424584089E+02  0.13607114819E+02  0.00000000000E+00 0. -1.
</event>
<event>
 7    1  0.2950722E-010  0.4778727E+02  0.7816164E-02  0.1312668E+00
        -11   -1    0    0    0    0  0.00000000000E+00  0.00000000000E+00  0.45593999997E+02  0.45594000000E+02  0.51100000000E-03 0.  1.
         11   -1    0    0    0    0 -0.00000000000E+00 -0.00000000000E+00 -0.45593999997E+02  0.45594000000E+02  0.51100000000E-03 0. -1.
    9900012    2    1    2    0    0  0.36903796153E+02  0.12459712961E+02 -0.19143885482E+02  0.47787274557E+02  0.20000016017E+02 0.  0.
        -12    1    1    2    0    0 -0.36903796153E+02 -0.12459712961E+02  0.19143885482E+02  0.43400725443E+02  0.00000000000E+00 0.  1.
         11    1    3    3    0    0  0.21485674846E+01  0.65772210691E+01  0.37690463284E+00  0.69295192179E+01  0.51100000000E-03 0. -1.
        -11    1    3    3    0    0 -0.97936308672E-01  0.63931900356E+00 -0.31797225090E+00  0.72071278768E+00  0.51100000000E-03 0.  1.
         12    1    3    3    0    0  0.34853164977E+02  0.52431728884E+01 -0.19202817864E+02  0.40137042552E+02  0.00000000000E+00 0. -1.
</event>
<event>
 7    1  0.2950722E-010  0.4778727E+02  0.7816164E-02  0.1312668E+00
        -11   -1    0    0    0    0  0.00000000000E+00  0.00000000000E+00  0.45593999997E+02  0.45594000000E+02  0.51100000000E-03 0.  1.
         11   -1    0    0    0    0 -0.00000000000E+00 -0.00000000000E+00 -0.45593999997E+02  0.45594000000E+02  0.51100000000E-03 0. -1.
    9900012    2    1    2    0    0 -0.16798327234E+02  0.37325629136E+02 -0.14430404364E+02  0.47787274680E+02  0.20000016575E+02 0.  0.
        -12    1    1    2    0    0  0.16798327234E+02 -0.37325629136E+02  0.14430404364E+02  0.43400725320E+02  0.00000000000E+00 0.  1.
         11    1    3    3    0    0 -0.38336668248E+01  0.10915006394E+02 -0.47662805884E+01  0.12512066049E+02  0.51100000000E-03 0. -1.
        -11    1    3    3    0    0 -0.11723561913E+01  0.17719314880E+02 -0.59442975317E-01  0.17758155100E+02  0.51100000000E-03 0.  1.
        -12    1    3    3    0    0 -0.11792304218E+02  0.86913078622E+01 -0.96046808001E+01  0.17517053530E+02  0.00000000000E+00 0.  1.
</event>
<event>
 7    1  0.2950722E-010  0.4778727E+02  0.7816164E-02  0.1312668E+00
        -11   -1    0    0    0    0  0.00000000000E+00  0.00000000000E+00  0.45593999997E+02  0.45594000000E+02  0.51100000000E-03 0.  1.
         11   -1    0    0    0    0 -0.00000000000E+00 -0.00000000000E+00 -0.45593999997E+02  0.45594000000E+02  0.51100000000E-03 0. -1.
    9900012    2    1    2    0    0  0.17387772137E+01  0.39274988991E+02  0.18386828474E+02  0.47787267658E+02  0.19999984562E+02 0.  0.
        -12    1    1    2    0    0 -0.17387772137E+01 -0.39274988991E+02 -0.18386828474E+02  0.43400732342E+02  0.00000000000E+00 0.  1.
         11    1    3    3    0    0  0.25274636105E+01  0.84622247958E+01  0.24667164461E+01  0.91696243699E+01  0.51100000000E-03 0. -1.
        -11    1    3    3    0    0  0.75549547272E+01  0.10138791541E+02  0.79802971686E+01  0.14951841960E+02  0.51100000000E-03 0.  1.
        -12    1    3    3    0    0 -0.83436411241E+01  0.20673972654E+02  0.79398148592E+01  0.23665801328E+02  0.00000000000E+00 0.  1.
</event>
<event>
 7    1  0.2950722E-010  0.4778728E+02  0.7816164E-02  0.1312668E+00
        -11   -1    0    0    0    0  0.00000000000E+00  0.00000000000E+00  0.45593999997E+02  0.45594000000E+02  0.51100000000E-03 0.  1.
         11   -1    0    0    0    0 -0.00000000000E+00 -0.00000000000E+00 -0.45593999997E+02  0.45594000000E+02  0.51100000000E-03 0. -1.
    9900012    2    1    2    0    0  0.30991816185E+02  0.13475484575E+02 -0.27231257893E+02  0.47787276949E+02  0.20000026920E+02 0.  0.
        -12    1    1    2    0    0 -0.30991816185E+02 -0.13475484575E+02  0.27231257893E+02  0.43400723051E+02  0.00000000000E+00 0.  1.
         11    1    3    3    0    0  0.21754040726E+02  0.27605168855E+01 -0.11619281143E+02  0.24816656421E+02  0.51100000000E-03 0. -1.
        -11    1    3    3    0    0  0.89926086900E+01  0.57912800082E+01 -0.14321221511E+02  0.17874655829E+02  0.51100000000E-03 0.  1.
         12    1    3    3    0    0  0.24516676913E+00  0.49236876809E+01 -0.12907552388E+01  0.50959646987E+01  0.00000000000E+00 0. -1.
</event>
<event>
 7    1  0.2950722E-010  0.4778727E+02  0.7816164E-02  0.1312668E+00
        -11   -1    0    0    0    0  0.00000000000E+00  0.00000000000E+00  0.45593999997E+02  0.45594000000E+02  0.51100000000E-03 0.  1.
         11   -1    0    0    0    0 -0.00000000000E+00 -0.00000000000E+00 -0.45593999997E+02  0.45594000000E+02  0.51100000000E-03 0. -1.
    9900012    2    1    2    0    0 -0.25909612276E+02 -0.11071155271E+02 -0.33011283924E+02  0.47787270126E+02  0.19999995811E+02 0.  0.
        -12    1    1    2    0    0  0.25909612276E+02  0.11071155271E+02  0.33011283924E+02  0.43400729874E+02  0.00000000000E+00 0.  1.
         11    1    3    3    0    0 -0.14650633130E+02 -0.29911165189E+01 -0.24783064109E+02  0.28944569371E+02  0.51100000000E-03 0. -1.
        -11    1    3    3    0    0 -0.33176305612E+01 -0.57319726225E+01  0.70650368782E+00  0.66604301969E+01  0.51100000000E-03 0.  1.
         12    1    3    3    0    0 -0.79413485852E+01 -0.23480661294E+01 -0.89347235020E+01  0.12182270558E+02  0.00000000000E+00 0. -1.
</event>
<event>
 7    1  0.2950722E-010  0.4778728E+02  0.7816164E-02  0.1312668E+00
        -11   -1    0    0    0    0  0.00000000000E+00  0.00000000000E+00  0.45593999997E+02  0.45594000000E+02  0.51100000000E-03 0. -1.
         11   -1    0    0    0    0 -0.00000000000E+00 -0.00000000000E+00 -0.45593999997E+02  0.45594000000E+02  0.51100000000E-03 0.  1.
    9900012    2    1    2    0    0 -0.12788805951E+02  0.30007271785E+02  0.28629230028E+02  0.47787277314E+02  0.20000028585E+02 0.  0.
        -12    1    1    2    0    0  0.12788805951E+02 -0.30007271785E+02 -0.28629230028E+02  0.43400722686E+02  0.00000000000E+00 0.  1.
         11    1    3    3    0    0 -0.17276457303E+02  0.17804904188E+02  0.15877413725E+02  0.29454759495E+02  0.51100000000E-03 0. -1.
        -11    1    3    3    0    0  0.32781004194E+01  0.10158901132E+02  0.93920044220E+01  0.14218261564E+02  0.51100000000E-03 0.  1.
         12    1    3    3    0    0  0.12095509322E+01  0.20434664652E+01  0.33598118818E+01  0.41142562552E+01  0.00000000000E+00 0. -1.
</event>
<event>
 7    1  0.2950722E-010  0.4778728E+02  0.7816164E-02  0.1312668E+00
        -11   -1    0    0    0    0  0.00000000000E+00  0.00000000000E+00  0.45593999997E+02  0.45594000000E+02  0.51100000000E-03 0.  1.
         11   -1    0    0    0    0 -0.00000000000E+00 -0.00000000000E+00 -0.45593999997E+02  0.45594000000E+02  0.51100000000E-03 0. -1.
    9900012    2    1    2    0    0 -0.40263600308E+02 -0.15193542077E+02  0.56233057769E+01  0.47787276521E+02  0.20000024971E+02 0.  0.
        -12    1    1    2    0    0  0.40263600308E+02  0.15193542077E+02 -0.56233057769E+01  0.43400723479E+02  0.00000000000E+00 0.  1.
         11    1    3    3    0    0 -0.25948706303E+02 -0.13142246546E+02 -0.27179720899E+01  0.29213718963E+02  0.51100000000E-03 0. -1.
        -11    1    3    3    0    0 -0.10103524624E+02  0.52613368187E+00  0.90638272689E+01  0.13583482304E+02  0.51100000000E-03 0.  1.
        -12    1    3    3    0    0 -0.42113693817E+01 -0.25774292123E+01 -0.72254940217E+00  0.49900752551E+01  0.00000000000E+00 0.  1.
</event>
<event>
 7    1  0.2950722E-010  0.4778727E+02  0.7816164E-02  0.1312668E+00
        -11   -1    0    0    0    0  0.00000000000E+00  0.00000000000E+00  0.45593999997E+02  0.45594000000E+02  0.51100000000E-03 0. -1.
         11   -1    0    0    0    0 -0.00000000000E+00 -0.00000000000E+00 -0.45593999997E+02  0.45594000000E+02  0.51100000000E-03 0.  1.
    9900012    2    1    2    0    0  0.11671950860E+02 -0.39340920264E+02  0.14130849035E+02  0.47787270299E+02  0.19999996601E+02 0.  0.
        -12    1    1    2    0    0 -0.11671950860E+02  0.39340920264E+02 -0.14130849035E+02  0.43400729701E+02  0.00000000000E+00 0.  1.
         11    1    3    3    0    0 -0.88708826349E+00 -0.18940633500E+02 -0.13594691737E+01  0.19010067850E+02  0.51100000000E-03 0. -1.
        -11    1    3    3    0    0  0.89334180714E+01 -0.16434539531E+02  0.10537503785E+02  0.21469490779E+02  0.51100000000E-03 0.  1.
         12    1    3    3    0    0  0.36256210520E+01 -0.39657472337E+01  0.49528144244E+01  0.73077116703E+01  0.00000000000E+00 0. -1.
</event>
<event>
 7    1  0.2950722E-010  0.4778727E+02  0.7816164E-02  0.1312668E+00
        -11   -1    0    0    0    0  0.00000000000E+00  0.00000000000E+00  0.45593999997E+02  0.45594000000E+02  0.51100000000E-03 0.  1.
         11   -1    0    0    0    0 -0.00000000000E+00 -0.00000000000E+00 -0.45593999997E+02  0.45594000000E+02  0.51100000000E-03 0. -1.
    9900012    2    1    2    0    0 -0.28554023784E+02 -0.72336846776E+01 -0.31874199371E+02  0.47787273580E+02  0.20000011560E+02 0.  0.
        -12    1    1    2    0    0  0.28554023784E+02  0.72336846776E+01  0.31874199371E+02  0.43400726420E+02  0.00000000000E+00 0.  1.
         11    1    3    3    0    0 -0.20614080519E+02 -0.38031544694E+01 -0.32276088312E+02  0.38485713928E+02  0.51100000000E-03 0. -1.
        -11    1    3    3    0    0 -0.72552727309E+01 -0.40798101540E+01  0.15042850425E+00  0.83250502874E+01  0.51100000000E-03 0.  1.
        -12    1    3    3    0    0 -0.68467053401E+00  0.64927994582E+00  0.25146043671E+00  0.97650936473E+00  0.00000000000E+00 0.  1.
</event>
<event>
 7    1  0.2950722E-010  0.4778731E+02  0.7816164E-02  0.1312668E+00
        -11   -1    0    0    0    0  0.00000000000E+00  0.00000000000E+00  0.45593999997E+02  0.45594000000E+02  0.51100000000E-03 0.  1.
         11   -1    0    0    0    0 -0.00000000000E+00 -0.00000000000E+00 -0.45593999997E+02  0.45594000000E+02  0.51100000000E-03 0. -1.
    9900012    2    1    2    0    0 -0.31210067906E+02 -0.20690715012E+02 -0.21941869081E+02  0.47787312849E+02  0.20000190603E+02 0.  0.
        -12    1    1    2    0    0  0.31210067906E+02  0.20690715012E+02  0.21941869081E+02  0.43400687151E+02  0.00000000000E+00 0.  1.
         11    1    3    3    0    0 -0.50093528900E+01 -0.50701890878E+01 -0.51693996565E+00  0.71461640726E+01  0.51100000000E-03 0. -1.
        -11    1    3    3    0    0 -0.47834475469E+01 -0.11088831887E+02 -0.42017538823E+01  0.12786645338E+02  0.51100000000E-03 0.  1.
        -12    1    3    3    0    0 -0.21417267469E+02 -0.45316940367E+01 -0.17223175233E+02  0.27854503438E+02  0.00000000000E+00 0.  1.
</event>
<event>
 7    1  0.2950722E-010  0.4778727E+02  0.7816164E-02  0.1312668E+00
        -11   -1    0    0    0    0  0.00000000000E+00  0.00000000000E+00  0.45593999997E+02  0.45594000000E+02  0.51100000000E-03 0.  1.
         11   -1    0    0    0    0 -0.00000000000E+00 -0.00000000000E+00 -0.45593999997E+02  0.45594000000E+02  0.51100000000E-03 0. -1.
    9900012    2    1    2    0    0  0.29974876162E+02 -0.29995954202E+02 -0.92397449495E+01  0.47787270096E+02  0.19999995677E+02 0.  0.
        -12    1    1    2    0    0 -0.29974876162E+02  0.29995954202E+02  0.92397449495E+01  0.43400729904E+02  0.00000000000E+00 0.  1.
         11    1    3    3    0    0  0.13105188276E+02 -0.17124626076E+02 -0.41509775094E+01  0.21959722051E+02  0.51100000000E-03 0. -1.
        -11    1    3    3    0    0  0.17016540674E+02 -0.85054061838E+01  0.12683685455E+00  0.19024212959E+02  0.51100000000E-03 0.  1.
        -12    1    3    3    0    0 -0.14685278748E+00 -0.43659219425E+01 -0.52156042947E+01  0.68033350871E+01  0.00000000000E+00 0.  1.
</event>
<event>
 7    1  0.2950722E-010  0.4778727E+02  0.7816164E-02  0.1312668E+00
        -11   -1    0    0    0    0  0.00000000000E+00  0.00000000000E+00  0.45593999997E+02  0.45594000000E+02  0.51100000000E-03 0. -1.
         11   -1    0    0    0    0 -0.00000000000E+00 -0.00000000000E+00 -0.45593999997E+02  0.45594000000E+02  0.51100000000E-03 0.  1.
    9900012    2    1    2    0    0  0.17815296196E+02 -0.26580968161E+02  0.29320478475E+02  0.47787272991E+02  0.20000008875E+02 0.  0.
        -12    1    1    2    0    0 -0.17815296196E+02  0.26580968161E+02 -0.29320478475E+02  0.43400727009E+02  0.00000000000E+00 0.  1.
         11    1    3    3    0    0  0.13558407499E+02 -0.11144066329E+02  0.12569745244E+02  0.21587476092E+02  0.51100000000E-03 0. -1.
        -11    1    3    3    0    0 -0.13235978918E+01  0.15940287516E+01  0.28259376664E+01  0.35041065902E+01  0.51100000000E-03 0.  1.
        -12    1    3    3    0    0  0.55804865891E+01 -0.17030930583E+02  0.13924795564E+02  0.22695690309E+02  0.00000000000E+00 0.  1.
</event>
<event>
 7    1  0.2950722E-010  0.4778727E+02  0.7816164E-02  0.1312668E+00
        -11   -1    0    0    0    0  0.00000000000E+00  0.00000000000E+00  0.45593999997E+02  0.45594000000E+02  0.51100000000E-03 0.  1.
         11   -1    0    0    0    0 -0.00000000000E+00 -0.00000000000E+00 -0.45593999997E+02  0.45594000000E+02  0.51100000000E-03 0. -1.
    9900012    2    1    2    0    0 -0.30879670979E+01  0.21626322746E+02 -0.37501867565E+02  0.47787269048E+02  0.19999990898E+02 0.  0.
        -12    1    1    2    0    0  0.30879670979E+01 -0.21626322746E+02  0.37501867565E+02  0.43400730952E+02  0.00000000000E+00 0.  1.
         11    1    3    3    0    0 -0.32274207113E+01  0.20809346217E+02 -0.33992338316E+02  0.39986550225E+02  0.51100000000E-03 0. -1.
        -11    1    3    3    0    0  0.15648270562E+01 -0.24753851560E+01 -0.29730640686E+01  0.41731673347E+01  0.51100000000E-03 0.  1.
        -12    1    3    3    0    0 -0.14253734428E+01  0.32923616845E+01 -0.53646518047E+00  0.36275514887E+01  0.00000000000E+00 0.  1.
</event>
<event>
 7    1  0.2950722E-010  0.4778727E+02  0.7816164E-02  0.1312668E+00
        -11   -1    0    0    0    0  0.00000000000E+00  0.00000000000E+00  0.45593999997E+02  0.45594000000E+02  0.51100000000E-03 0.  1.
         11   -1    0    0    0    0 -0.00000000000E+00 -0.00000000000E+00 -0.45593999997E+02  0.45594000000E+02  0.51100000000E-03 0. -1.
    9900012    2    1    2    0    0 -0.30289193962E+02  0.27674829847E+02 -0.14152454358E+02  0.47787269104E+02  0.19999991151E+02 0.  0.
        -12    1    1    2    0    0  0.30289193962E+02 -0.27674829847E+02  0.14152454358E+02  0.43400730896E+02  0.00000000000E+00 0.  1.
         11    1    3    3    0    0 -0.13417635284E+02  0.88466700236E+01 -0.49142856248E+01  0.16806150975E+02  0.51100000000E-03 0. -1.
        -11    1    3    3    0    0 -0.22627283371E+01 -0.26019545100E+01  0.26974643594E-02  0.34482045092E+01  0.51100000000E-03 0.  1.
        -12    1    3    3    0    0 -0.14608830341E+02  0.21430114334E+02 -0.92408661977E+01  0.27532913620E+02  0.00000000000E+00 0.  1.
</event>
<event>
 7    1  0.2950722E-010  0.4778728E+02  0.7816164E-02  0.1312668E+00
        -11   -1    0    0    0    0  0.00000000000E+00  0.00000000000E+00  0.45593999997E+02  0.45594000000E+02  0.51100000000E-03 0.  1.
         11   -1    0    0    0    0 -0.00000000000E+00 -0.00000000000E+00 -0.45593999997E+02  0.45594000000E+02  0.51100000000E-03 0. -1.
    9900012    2    1    2    0    0 -0.63129892434E+01  0.17023852799E+01 -0.42905370379E+02  0.47787277008E+02  0.20000027193E+02 0.  0.
        -12    1    1    2    0    0  0.63129892434E+01 -0.17023852799E+01  0.42905370379E+02  0.43400722992E+02  0.00000000000E+00 0.  1.
         11    1    3    3    0    0  0.40048141499E+01  0.12116583307E+01 -0.81953453009E+01  0.92016486103E+01  0.51100000000E-03 0. -1.
        -11    1    3    3    0    0 -0.91276353194E+01  0.57860619465E+01 -0.17778310803E+02  0.20805301599E+02  0.51100000000E-03 0.  1.
        -12    1    3    3    0    0 -0.11901680739E+01 -0.52953349973E+01 -0.16931714276E+02  0.17780326799E+02  0.00000000000E+00 0.  1.
</event>
<event>
 7    1  0.2950722E-010  0.4778727E+02  0.7816164E-02  0.1312668E+00
        -11   -1    0    0    0    0  0.00000000000E+00  0.00000000000E+00  0.45593999997E+02  0.45594000000E+02  0.51100000000E-03 0.  1.
         11   -1    0    0    0    0 -0.00000000000E+00 -0.00000000000E+00 -0.45593999997E+02  0.45594000000E+02  0.51100000000E-03 0. -1.
    9900012    2    1    2    0    0  0.24776040410E+02 -0.34221462057E+01 -0.35469140229E+02  0.47787272222E+02  0.20000005370E+02 0.  0.
        -12    1    1    2    0    0 -0.24776040410E+02  0.34221462057E+01  0.35469140229E+02  0.43400727778E+02  0.00000000000E+00 0.  1.
         11    1    3    3    0    0  0.43932764108E+01  0.37532417380E+01 -0.11667496568E+02  0.13019914653E+02  0.51100000000E-03 0. -1.
        -11    1    3    3    0    0 -0.17645190555E+01  0.27316972204E-01 -0.32897859782E+01  0.37332245790E+01  0.51100000000E-03 0.  1.
         12    1    3    3    0    0  0.22147283055E+02 -0.72027049159E+01 -0.20511857683E+02  0.31034132990E+02  0.00000000000E+00 0. -1.
</event>
<event>
 7    1  0.2950722E-010  0.4778727E+02  0.7816164E-02  0.1312668E+00
        -11   -1    0    0    0    0  0.00000000000E+00  0.00000000000E+00  0.45593999997E+02  0.45594000000E+02  0.51100000000E-03 0. -1.
         11   -1    0    0    0    0 -0.00000000000E+00 -0.00000000000E+00 -0.45593999997E+02  0.45594000000E+02  0.51100000000E-03 0.  1.
    9900012    2    1    2    0    0  0.15730452352E+02 -0.30179777041E+02  0.26932452356E+02  0.47787273470E+02  0.20000011057E+02 0.  0.
        -12    1    1    2    0    0 -0.15730452352E+02  0.30179777041E+02 -0.26932452356E+02  0.43400726530E+02  0.00000000000E+00 0.  1.
         11    1    3    3    0    0  0.28165918253E+01 -0.82156102993E+01  0.35027853942E+01  0.93647716406E+01  0.51100000000E-03 0.  1.
        -11    1    3    3    0    0  0.43331366026E+01 -0.19007495579E+02  0.92289860121E+01  0.21569310236E+02  0.51100000000E-03 0. -1.
        -12    1    3    3    0    0  0.85807239241E+01 -0.29566711634E+01  0.14200680950E+02  0.16853191593E+02  0.00000000000E+00 0.  1.
</event>
<event>
 7    1  0.2950722E-010  0.4778727E+02  0.7816164E-02  0.1312668E+00
        -11   -1    0    0    0    0  0.00000000000E+00  0.00000000000E+00  0.45593999997E+02  0.45594000000E+02  0.51100000000E-03 0. -1.
         11   -1    0    0    0    0 -0.00000000000E+00 -0.00000000000E+00 -0.45593999997E+02  0.45594000000E+02  0.51100000000E-03 0.  1.
    9900012    2    1    2    0    0  0.33910676667E+02 -0.16139901490E+02  0.21752996233E+02  0.47787271237E+02  0.20000000877E+02 0.  0.
        -12    1    1    2    0    0 -0.33910676667E+02  0.16139901490E+02 -0.21752996233E+02  0.43400728763E+02  0.00000000000E+00 0.  1.
         11    1    3    3    0    0  0.11426819942E+02 -0.95054447245E+01  0.18787353214E+00  0.14864756645E+02  0.51100000000E-03 0. -1.
        -11    1    3    3    0    0  0.49088874182E+01 -0.32386424873E+01  0.10032138565E+02  0.11628834219E+02  0.51100000000E-03 0.  1.
         12    1    3    3    0    0  0.17574969306E+02 -0.33958142780E+01  0.11532984135E+02  0.21293680372E+02  0.00000000000E+00 0. -1.
</event>
<event>
 7    1  0.2950722E-010  0.4778727E+02  0.7816164E-02  0.1312668E+00
        -11   -1    0    0    0    0  0.00000000000E+00  0.00000000000E+00  0.45593999997E+02  0.45594000000E+02  0.51100000000E-03 0. -1.
         11   -1    0    0    0    0 -0.00000000000E+00 -0.00000000000E+00 -0.45593999997E+02  0.45594000000E+02  0.51100000000E-03 0.  1.
    9900012    2    1    2    0    0 -0.39579311301E+02 -0.12516302421E+02 -0.12666642134E+02  0.47787268067E+02  0.19999986425E+02 0.  0.
        -12    1    1    2    0    0  0.39579311301E+02  0.12516302421E+02  0.12666642134E+02  0.43400731933E+02  0.00000000000E+00 0.  1.
         11    1    3    3    0    0 -0.29819447592E+01 -0.85191267143E+01 -0.26892237144E+01  0.94180379575E+01  0.51100000000E-03 0. -1.
        -11    1    3    3    0    0 -0.33298671656E+02 -0.48170397638E+01 -0.88799996043E+01  0.34797410814E+02  0.51100000000E-03 0.  1.
         12    1    3    3    0    0 -0.32986948860E+01  0.81986405715E+00 -0.10974188150E+01  0.35718192953E+01  0.00000000000E+00 0. -1.
</event>
<event>
 7    1  0.2950722E-010  0.4778728E+02  0.7816164E-02  0.1312668E+00
        -11   -1    0    0    0    0  0.00000000000E+00  0.00000000000E+00  0.45593999997E+02  0.45594000000E+02  0.51100000000E-03 0.  1.
         11   -1    0    0    0    0 -0.00000000000E+00 -0.00000000000E+00 -0.45593999997E+02  0.45594000000E+02  0.51100000000E-03 0. -1.
    9900012    2    1    2    0    0 -0.64172254625E+01  0.19491565036E+02 -0.38242920811E+02  0.47787275555E+02  0.20000020565E+02 0.  0.
        -12    1    1    2    0    0  0.64172254625E+01 -0.19491565036E+02  0.38242920811E+02  0.43400724445E+02  0.00000000000E+00 0.  1.
         11    1    3    3    0    0 -0.55274169226E+01  0.33523446858E+01 -0.39192359260E+01  0.75598256086E+01  0.51100000000E-03 0. -1.
        -11    1    3    3    0    0  0.52691248548E+01  0.44827998247E+01 -0.17745477269E+02  0.19046289265E+02  0.51100000000E-03 0.  1.
        -12    1    3    3    0    0 -0.61589333947E+01  0.11656420526E+02 -0.16578207616E+02  0.21181160681E+02  0.00000000000E+00 0.  1.
</event>
<event>
 7    1  0.2950722E-010  0.4778728E+02  0.7816164E-02  0.1312668E+00
        -11   -1    0    0    0    0  0.00000000000E+00  0.00000000000E+00  0.45593999997E+02  0.45594000000E+02  0.51100000000E-03 0. -1.
         11   -1    0    0    0    0 -0.00000000000E+00 -0.00000000000E+00 -0.45593999997E+02  0.45594000000E+02  0.51100000000E-03 0.  1.
    9900012    2    1    2    0    0  0.32070461683E+02 -0.26770758081E+02  0.11765834602E+02  0.47787275759E+02  0.20000021494E+02 0.  0.
        -12    1    1    2    0    0 -0.32070461683E+02  0.26770758081E+02 -0.11765834602E+02  0.43400724241E+02  0.00000000000E+00 0.  1.
         11    1    3    3    0    0  0.34882306709E+01 -0.10014949278E+02  0.21602598587E+01  0.10822831662E+02  0.51100000000E-03 0. -1.
        -11    1    3    3    0    0  0.18293941437E+02 -0.92055812625E+01 -0.80483802984E+00  0.20495335670E+02  0.51100000000E-03 0.  1.
        -12    1    3    3    0    0  0.10288289575E+02 -0.75502275399E+01  0.10410412774E+02  0.16469108427E+02  0.00000000000E+00 0.  1.
</event>
<event>
 7    1  0.2950722E-010  0.4778727E+02  0.7816164E-02  0.1312668E+00
        -11   -1    0    0    0    0  0.00000000000E+00  0.00000000000E+00  0.45593999997E+02  0.45594000000E+02  0.51100000000E-03 0. -1.
         11   -1    0    0    0    0 -0.00000000000E+00 -0.00000000000E+00 -0.45593999997E+02  0.45594000000E+02  0.51100000000E-03 0.  1.
    9900012    2    1    2    0    0 -0.28302896115E+02 -0.32638738309E+02 -0.41571609288E+01  0.47787272427E+02  0.20000006304E+02 0.  0.
        -12    1    1    2    0    0  0.28302896115E+02  0.32638738309E+02  0.41571609288E+01  0.43400727573E+02  0.00000000000E+00 0.  1.
         11    1    3    3    0    0 -0.10531826117E+02 -0.14375913250E+02 -0.65502688723E+01  0.18986633869E+02  0.51100000000E-03 0. -1.
        -11    1    3    3    0    0 -0.10359390518E+02 -0.66411321013E+01  0.71345131986E+01  0.14224024970E+02  0.51100000000E-03 0.  1.
         12    1    3    3    0    0 -0.74116794796E+01 -0.11621692957E+02 -0.47414052552E+01  0.14576613588E+02  0.00000000000E+00 0. -1.
</event>
<event>
 7    1  0.2950722E-010  0.4778728E+02  0.7816164E-02  0.1312668E+00
        -11   -1    0    0    0    0  0.00000000000E+00  0.00000000000E+00  0.45593999997E+02  0.45594000000E+02  0.51100000000E-03 0.  1.
         11   -1    0    0    0    0 -0.00000000000E+00 -0.00000000000E+00 -0.45593999997E+02  0.45594000000E+02  0.51100000000E-03 0. -1.
    9900012    2    1    2    0    0 -0.18261380784E+02 -0.37733313796E+02  0.11240174179E+02  0.47787279802E+02  0.20000039927E+02 0.  0.
        -12    1    1    2    0    0  0.18261380784E+02  0.37733313796E+02 -0.11240174179E+02  0.43400720198E+02  0.00000000000E+00 0.  1.
         11    1    3    3    0    0 -0.51955464987E+00 -0.14570199180E+02 -0.21969306080E+01  0.14744054582E+02  0.51100000000E-03 0. -1.
        -11    1    3    3    0    0 -0.91418647837E+01 -0.12275180829E+02  0.11254739420E+02  0.18997971359E+02  0.51100000000E-03 0.  1.
         12    1    3    3    0    0 -0.85999613508E+01 -0.10887933787E+02  0.21823653670E+01  0.14045253860E+02  0.00000000000E+00 0. -1.
</event>
<event>
 7    1  0.2950722E-010  0.4778727E+02  0.7816164E-02  0.1312668E+00
        -11   -1    0    0    0    0  0.00000000000E+00  0.00000000000E+00  0.45593999997E+02  0.45594000000E+02  0.51100000000E-03 0.  1.
         11   -1    0    0    0    0 -0.00000000000E+00 -0.00000000000E+00 -0.45593999997E+02  0.45594000000E+02  0.51100000000E-03 0. -1.
    9900012    2    1    2    0    0 -0.20973937698E+02 -0.90905747629E+01  0.36892801151E+02  0.47787269720E+02  0.19999993960E+02 0.  0.
        -12    1    1    2    0    0  0.20973937698E+02  0.90905747629E+01 -0.36892801151E+02  0.43400730280E+02  0.00000000000E+00 0.  1.
         11    1    3    3    0    0 -0.97829058053E+01 -0.76479306697E+01  0.47358068911E+01  0.13289994609E+02  0.51100000000E-03 0. -1.
        -11    1    3    3    0    0  0.23608458903E+00 -0.10101763535E+01  0.32076153646E+01  0.33711999031E+01  0.51100000000E-03 0.  1.
         12    1    3    3    0    0 -0.11427116482E+02 -0.43246773968E+00  0.28949378895E+02  0.31126075208E+02  0.00000000000E+00 0. -1.
</event>
<event>
 7    1  0.2950722E-010  0.4778727E+02  0.7816164E-02  0.1312668E+00
        -11   -1    0    0    0    0  0.00000000000E+00  0.00000000000E+00  0.45593999997E+02  0.45594000000E+02  0.51100000000E-03 0.  1.
         11   -1    0    0    0    0 -0.00000000000E+00 -0.00000000000E+00 -0.45593999997E+02  0.45594000000E+02  0.51100000000E-03 0. -1.
    9900012    2    1    2    0    0 -0.41813555645E+02  0.91273268334E+01  0.72070680006E+01  0.47787270052E+02  0.19999995477E+02 0.  0.
        -12    1    1    2    0    0  0.41813555645E+02 -0.91273268334E+01 -0.72070680006E+01  0.43400729948E+02  0.00000000000E+00 0.  1.
         11    1    3    3    0    0 -0.18654894897E+01 -0.13995164761E-01  0.50283422088E+01  0.53632520481E+01  0.51100000000E-03 0. -1.
        -11    1    3    3    0    0 -0.78100540077E+01 -0.24454574286E+01 -0.10770020243E+00  0.81846689141E+01  0.51100000000E-03 0.  1.
         12    1    3    3    0    0 -0.32138012148E+02  0.11586779427E+02  0.22864259942E+01  0.34239349090E+02  0.00000000000E+00 0. -1.
</event>
<event>
 7    1  0.2950722E-010  0.4778728E+02  0.7816164E-02  0.1312668E+00
        -11   -1    0    0    0    0  0.00000000000E+00  0.00000000000E+00  0.45593999997E+02  0.45594000000E+02  0.51100000000E-03 0.  1.
         11   -1    0    0    0    0 -0.00000000000E+00 -0.00000000000E+00 -0.45593999997E+02  0.45594000000E+02  0.51100000000E-03 0. -1.
    9900012    2    1    2    0    0 -0.20828774332E+02  0.26654720790E+02  0.27190272172E+02  0.47787275567E+02  0.20000020620E+02 0.  0.
        -12    1    1    2    0    0  0.20828774332E+02 -0.26654720790E+02 -0.27190272172E+02  0.43400724433E+02  0.00000000000E+00 0.  1.
         11    1    3    3    0    0 -0.46100383352E+01  0.97452977718E+01  0.40352999134E+01  0.11511165352E+02  0.51100000000E-03 0. -1.
        -11    1    3    3    0    0 -0.99986738374E+01  0.14564867171E+02  0.23752328436E+02  0.29602059736E+02  0.51100000000E-03 0.  1.
        -12    1    3    3    0    0 -0.62200621594E+01  0.23445558469E+01 -0.59735617828E+00  0.66740504785E+01  0.00000000000E+00 0.  1.
</event>
<event>
 7    1  0.2950722E-010  0.4778727E+02  0.7816164E-02  0.1312668E+00
        -11   -1    0    0    0    0  0.00000000000E+00  0.00000000000E+00  0.45593999997E+02  0.45594000000E+02  0.51100000000E-03 0. -1.
         11   -1    0    0    0    0 -0.00000000000E+00 -0.00000000000E+00 -0.45593999997E+02  0.45594000000E+02  0.51100000000E-03 0.  1.
    9900012    2    1    2    0    0  0.19572239580E+02  0.80769485373E+01  0.37885532766E+02  0.47787271287E+02  0.20000001107E+02 0.  0.
        -12    1    1    2    0    0 -0.19572239580E+02 -0.80769485373E+01 -0.37885532766E+02  0.43400728713E+02  0.00000000000E+00 0.  1.
         11    1    3    3    0    0  0.92034558097E+01  0.65786297114E+01  0.50004446169E+01  0.12368767697E+02  0.51100000000E-03 0. -1.
        -11    1    3    3    0    0  0.11358354303E+02  0.51551994407E-02  0.28726687354E+02  0.30890691246E+02  0.51100000000E-03 0.  1.
         12    1    3    3    0    0 -0.98957053232E+00  0.14931636265E+01  0.41584007948E+01  0.45278123442E+01  0.00000000000E+00 0. -1.
</event>
<event>
 7    1  0.2950722E-010  0.4778728E+02  0.7816164E-02  0.1312668E+00
        -11   -1    0    0    0    0  0.00000000000E+00  0.00000000000E+00  0.45593999997E+02  0.45594000000E+02  0.51100000000E-03 0. -1.
         11   -1    0    0    0    0 -0.00000000000E+00 -0.00000000000E+00 -0.45593999997E+02  0.45594000000E+02  0.51100000000E-03 0.  1.
    9900012    2    1    2    0    0 -0.79955928264E+01 -0.35353608827E+02  0.23870807973E+02  0.47787278404E+02  0.20000033557E+02 0.  0.
        -12    1    1    2    0    0  0.79955928264E+01  0.35353608827E+02 -0.23870807973E+02  0.43400721596E+02  0.00000000000E+00 0.  1.
         11    1    3    3    0    0 -0.96802401638E+01 -0.25783131881E+02  0.16617767597E+02  0.32165620457E+02  0.51100000000E-03 0. -1.
        -11    1    3    3    0    0  0.53713012714E+01 -0.49367467995E+01  0.62693800281E+01  0.96191201525E+01  0.51100000000E-03 0.  1.
        -12    1    3    3    0    0 -0.36866539340E+01 -0.46337301469E+01  0.98366034794E+00  0.60025377953E+01  0.00000000000E+00 0.  1.
</event>
<event>
 7    1  0.1599513E-009  0.4778727E+02  0.7816164E-02  0.1312668E+00
        -11   -1    0    0    0    0  0.00000000000E+00  0.00000000000E+00  0.45593999997E+02  0.45594000000E+02  0.51100000000E-03 0. -1.
         11   -1    0    0    0    0 -0.00000000000E+00 -0.00000000000E+00 -0.45593999997E+02  0.45594000000E+02  0.51100000000E-03 0.  1.
    9900012    2    1    2    0    0  0.20285701647E+02  0.12214159729E+02  0.36372076333E+02  0.47787270444E+02  0.19999997262E+02 0.  0.
        -12    1    1    2    0    0 -0.20285701647E+02 -0.12214159729E+02 -0.36372076333E+02  0.43400729556E+02  0.00000000000E+00 0.  1.
         11    1    3    3    0    0  0.85871467250E+01  0.27436864096E+01  0.15187146145E+02  0.17661152632E+02  0.51100000000E-03 0. -1.
        -11    1    3    3    0    0  0.15858283962E+01 -0.41372579957E+01  0.37166729743E+01  0.57832009894E+01  0.51100000000E-03 0.  1.
        -12    1    3    3    0    0  0.10112726526E+02  0.13607731316E+02  0.17468257213E+02  0.24342916822E+02  0.00000000000E+00 0.  1.
</event>
<event>
 7    1  0.2950722E-010  0.4778727E+02  0.7816164E-02  0.1312668E+00
        -11   -1    0    0    0    0  0.00000000000E+00  0.00000000000E+00  0.45593999997E+02  0.45594000000E+02  0.51100000000E-03 0.  1.
         11   -1    0    0    0    0 -0.00000000000E+00 -0.00000000000E+00 -0.45593999997E+02  0.45594000000E+02  0.51100000000E-03 0. -1.
    9900012    2    1    2    0    0  0.14488235540E+02  0.39204683017E+01 -0.40722778018E+02  0.47787266247E+02  0.19999978126E+02 0.  0.
        -12    1    1    2    0    0 -0.14488235540E+02 -0.39204683017E+01  0.40722778018E+02  0.43400733753E+02  0.00000000000E+00 0.  1.
         11    1    3    3    0    0  0.11544890921E+02 -0.41934452151E+00 -0.22548254448E+02  0.25335432404E+02  0.51100000000E-03 0. -1.
        -11    1    3    3    0    0 -0.31561079497E+01  0.60109920333E+01 -0.10550859005E+02  0.12546460402E+02  0.51100000000E-03 0.  1.
        -12    1    3    3    0    0  0.60994525690E+01 -0.16711792101E+01 -0.76236645656E+01  0.99053734408E+01  0.00000000000E+00 0.  1.
</event>
<event>
 7    1  0.2950722E-010  0.4778727E+02  0.7816164E-02  0.1312668E+00
        -11   -1    0    0    0    0  0.00000000000E+00  0.00000000000E+00  0.45593999997E+02  0.45594000000E+02  0.51100000000E-03 0. -1.
         11   -1    0    0    0    0 -0.00000000000E+00 -0.00000000000E+00 -0.45593999997E+02  0.45594000000E+02  0.51100000000E-03 0.  1.
    9900012    2    1    2    0    0 -0.57717522200E+01  0.28906106715E+02  0.31855099714E+02  0.47787268359E+02  0.19999987758E+02 0.  0.
        -12    1    1    2    0    0  0.57717522200E+01 -0.28906106715E+02 -0.31855099714E+02  0.43400731641E+02  0.00000000000E+00 0.  1.
         11    1    3    3    0    0 -0.52354105981E+01  0.92337853121E+01  0.12904311148E+02  0.16709086204E+02  0.51100000000E-03 0. -1.
        -11    1    3    3    0    0  0.24578353481E+01  0.17014511302E+02  0.20527535876E+02  0.26775254973E+02  0.51100000000E-03 0.  1.
        -12    1    3    3    0    0 -0.29941769699E+01  0.26578101011E+01 -0.15767473093E+01  0.43029271825E+01  0.00000000000E+00 0.  1.
</event>
<event>
 7    1  0.2950722E-010  0.4778728E+02  0.7816164E-02  0.1312668E+00
        -11   -1    0    0    0    0  0.00000000000E+00  0.00000000000E+00  0.45593999997E+02  0.45594000000E+02  0.51100000000E-03 0.  1.
         11   -1    0    0    0    0 -0.00000000000E+00 -0.00000000000E+00 -0.45593999997E+02  0.45594000000E+02  0.51100000000E-03 0. -1.
    9900012    2    1    2    0    0 -0.61368811061E+01 -0.28052105391E+02 -0.32542910030E+02  0.47787275124E+02  0.20000018599E+02 0.  0.
        -12    1    1    2    0    0  0.61368811061E+01  0.28052105391E+02  0.32542910030E+02  0.43400724876E+02  0.00000000000E+00 0.  1.
         11    1    3    3    0    0  0.40262121456E+00 -0.15342041607E+01 -0.99554389845E+01  0.10081004508E+02  0.51100000000E-03 0. -1.
        -11    1    3    3    0    0 -0.98465500128E+01 -0.17973046542E+02 -0.18735704069E+02  0.27767094849E+02  0.51100000000E-03 0.  1.
        -12    1    3    3    0    0  0.33070476921E+01 -0.85448546882E+01 -0.38517669764E+01  0.99391757667E+01  0.00000000000E+00 0.  1.
</event>
<event>
 7    1  0.2950722E-010  0.4778727E+02  0.7816164E-02  0.1312668E+00
        -11   -1    0    0    0    0  0.00000000000E+00  0.00000000000E+00  0.45593999997E+02  0.45594000000E+02  0.51100000000E-03 0.  1.
         11   -1    0    0    0    0 -0.00000000000E+00 -0.00000000000E+00 -0.45593999997E+02  0.45594000000E+02  0.51100000000E-03 0. -1.
    9900012    2    1    2    0    0 -0.23800998565E+01  0.40662653745E+02 -0.14983558998E+02  0.47787270454E+02  0.19999997307E+02 0.  0.
        -12    1    1    2    0    0  0.23800998565E+01 -0.40662653745E+02  0.14983558998E+02  0.43400729546E+02  0.00000000000E+00 0.  1.
         11    1    3    3    0    0 -0.91321629601E+01  0.10932590547E+02 -0.48208542190E+01  0.15038569482E+02  0.51100000000E-03 0. -1.
        -11    1    3    3    0    0  0.76507418987E+01  0.20927719493E+02 -0.71303296875E+01  0.23395403320E+02  0.51100000000E-03 0.  1.
         12    1    3    3    0    0 -0.89867879517E+00  0.88023437052E+01 -0.30323750916E+01  0.93532976525E+01  0.00000000000E+00 0. -1.
</event>
<event>
 7    1  0.2950722E-010  0.4778727E+02  0.7816164E-02  0.1312668E+00
        -11   -1    0    0    0    0  0.00000000000E+00  0.00000000000E+00  0.45593999997E+02  0.45594000000E+02  0.51100000000E-03 0.  1.
         11   -1    0    0    0    0 -0.00000000000E+00 -0.00000000000E+00 -0.45593999997E+02  0.45594000000E+02  0.51100000000E-03 0. -1.
    9900012    2    1    2    0    0 -0.24618396347E+02 -0.59331041612E+01 -0.35247073865E+02  0.47787269825E+02  0.19999994439E+02 0.  0.
        -12    1    1    2    0    0  0.24618396347E+02  0.59331041612E+01  0.35247073865E+02  0.43400730175E+02  0.00000000000E+00 0.  1.
         11    1    3    3    0    0  0.52890914774E+00  0.41192675433E+01 -0.42259424544E+01  0.59250907055E+01  0.51100000000E-03 0. -1.
        -11    1    3    3    0    0 -0.11467478365E+02 -0.32155087233E+01 -0.84698217262E+01  0.14614391425E+02  0.51100000000E-03 0.  1.
         12    1    3    3    0    0 -0.13679827130E+02 -0.68368629812E+01 -0.22551309685E+02  0.27247787694E+02  0.00000000000E+00 0. -1.
</event>
<event>
 7    1  0.2950722E-010  0.4778729E+02  0.7816164E-02  0.1312668E+00
        -11   -1    0    0    0    0  0.00000000000E+00  0.00000000000E+00  0.45593999997E+02  0.45594000000E+02  0.51100000000E-03 0.  1.
         11   -1    0    0    0    0 -0.00000000000E+00 -0.00000000000E+00 -0.45593999997E+02  0.45594000000E+02  0.51100000000E-03 0. -1.
    9900012    2    1    2    0    0  0.34839605381E+02 -0.23437436271E+02 -0.10977715179E+02  0.47787288570E+02  0.20000079905E+02 0.  0.
        -12    1    1    2    0    0 -0.34839605381E+02  0.23437436271E+02  0.10977715179E+02  0.43400711430E+02  0.00000000000E+00 0.  1.
         11    1    3    3    0    0  0.23726705454E+02 -0.13566599295E+02 -0.10766989554E+02  0.29375793308E+02  0.51100000000E-03 0. -1.
        -11    1    3    3    0    0  0.15800368642E+01 -0.81348409523E+01 -0.20783268252E+01  0.85435119514E+01  0.51100000000E-03 0.  1.
        -12    1    3    3    0    0  0.95328630628E+01 -0.17359960233E+01  0.18676012004E+01  0.98679833102E+01  0.00000000000E+00 0.  1.
</event>
<event>
 7    1  0.2950722E-010  0.4778727E+02  0.7816164E-02  0.1312668E+00
        -11   -1    0    0    0    0  0.00000000000E+00  0.00000000000E+00  0.45593999997E+02  0.45594000000E+02  0.51100000000E-03 0.  1.
         11   -1    0    0    0    0 -0.00000000000E+00 -0.00000000000E+00 -0.45593999997E+02  0.45594000000E+02  0.51100000000E-03 0. -1.
    9900012    2    1    2    0    0 -0.16393091692E+02  0.32264061524E+02 -0.23956630715E+02  0.47787271015E+02  0.19999999866E+02 0.  0.
        -12    1    1    2    0    0  0.16393091692E+02 -0.32264061524E+02  0.23956630715E+02  0.43400728985E+02  0.00000000000E+00 0.  1.
         11    1    3    3    0    0 -0.16826296636E+02  0.33361551195E+02 -0.21577096249E+02  0.43147287741E+02  0.51100000000E-03 0. -1.
        -11    1    3    3    0    0  0.17720984742E+01  0.53694476925E+00 -0.13373343513E+01  0.22840985346E+01  0.51100000000E-03 0.  1.
         12    1    3    3    0    0 -0.13388935298E+01 -0.16344344406E+01 -0.10422001147E+01  0.23558847391E+01  0.00000000000E+00 0. -1.
</event>
<event>
 7    1  0.2950722E-010  0.4778723E+02  0.7816164E-02  0.1312668E+00
        -11   -1    0    0    0    0  0.00000000000E+00  0.00000000000E+00  0.45593999997E+02  0.45594000000E+02  0.51100000000E-03 0. -1.
         11   -1    0    0    0    0 -0.00000000000E+00 -0.00000000000E+00 -0.45593999997E+02  0.45594000000E+02  0.51100000000E-03 0.  1.
    9900012    2    1    2    0    0 -0.21121435402E+02 -0.20607996952E+02  0.31824862411E+02  0.47787234577E+02  0.19999833731E+02 0.  0.
        -12    1    1    2    0    0  0.21121435402E+02  0.20607996952E+02 -0.31824862411E+02  0.43400765423E+02  0.00000000000E+00 0.  1.
         11    1    3    3    0    0 -0.18913243806E+02 -0.12179078770E+02  0.16749503026E+02  0.28046151301E+02  0.51100000000E-03 0. -1.
        -11    1    3    3    0    0  0.62408067104E+00 -0.33059198199E+00  0.94625099312E+01  0.94888282840E+01  0.51100000000E-03 0.  1.
        -12    1    3    3    0    0 -0.28322722678E+01 -0.80983261992E+01  0.56128494539E+01  0.10252254992E+02  0.00000000000E+00 0.  1.
</event>
<event>
 7    1  0.2950722E-010  0.4778727E+02  0.7816164E-02  0.1312668E+00
        -11   -1    0    0    0    0  0.00000000000E+00  0.00000000000E+00  0.45593999997E+02  0.45594000000E+02  0.51100000000E-03 0.  1.
         11   -1    0    0    0    0 -0.00000000000E+00 -0.00000000000E+00 -0.45593999997E+02  0.45594000000E+02  0.51100000000E-03 0. -1.
    9900012    2    1    2    0    0  0.22923858765E+02  0.27195653169E+02 -0.24869984166E+02  0.47787274611E+02  0.20000016260E+02 0.  0.
        -12    1    1    2    0    0 -0.22923858765E+02 -0.27195653169E+02  0.24869984166E+02  0.43400725389E+02  0.00000000000E+00 0.  1.
         11    1    3    3    0    0  0.48201448707E+01  0.13122132252E+02 -0.16851466773E+02  0.21895115530E+02  0.51100000000E-03 0.  1.
        -11    1    3    3    0    0  0.13447588316E+02  0.77416843621E+01 -0.90533798683E+01  0.17964826623E+02  0.51100000000E-03 0. -1.
         12    1    3    3    0    0  0.46561255779E+01  0.63318365548E+01  0.10348624759E+01  0.79273324579E+01  0.00000000000E+00 0. -1.
</event>
<event>
 7    1  0.2950722E-010  0.4778727E+02  0.7816164E-02  0.1312668E+00
        -11   -1    0    0    0    0  0.00000000000E+00  0.00000000000E+00  0.45593999997E+02  0.45594000000E+02  0.51100000000E-03 0.  1.
         11   -1    0    0    0    0 -0.00000000000E+00 -0.00000000000E+00 -0.45593999997E+02  0.45594000000E+02  0.51100000000E-03 0. -1.
    9900012    2    1    2    0    0 -0.32599400585E+02 -0.11363854540E+02 -0.26301429931E+02  0.47787270456E+02  0.19999997316E+02 0.  0.
        -12    1    1    2    0    0  0.32599400585E+02  0.11363854540E+02  0.26301429931E+02  0.43400729544E+02  0.00000000000E+00 0.  1.
         11    1    3    3    0    0 -0.31720364750E+02 -0.11827185988E+02 -0.25592151757E+02  0.42438450727E+02  0.51100000000E-03 0. -1.
        -11    1    3    3    0    0 -0.27931076472E+00  0.24500349327E+01  0.99932315155E+00  0.26607015422E+01  0.51100000000E-03 0.  1.
         12    1    3    3    0    0 -0.59972507092E+00 -0.19867034846E+01 -0.17086013260E+01  0.26881181870E+01  0.00000000000E+00 0. -1.
</event>
<event>
 7    1  0.2950722E-010  0.4778727E+02  0.7816164E-02  0.1312668E+00
        -11   -1    0    0    0    0  0.00000000000E+00  0.00000000000E+00  0.45593999997E+02  0.45594000000E+02  0.51100000000E-03 0. -1.
         11   -1    0    0    0    0 -0.00000000000E+00 -0.00000000000E+00 -0.45593999997E+02  0.45594000000E+02  0.51100000000E-03 0.  1.
    9900012    2    1    2    0    0 -0.39522391096E+02  0.97508699062E+00  0.17906784355E+02  0.47787272834E+02  0.20000008159E+02 0.  0.
        -12    1    1    2    0    0  0.39522391096E+02 -0.97508699062E+00 -0.17906784355E+02  0.43400727166E+02  0.00000000000E+00 0.  1.
         11    1    3    3    0    0 -0.98591166027E+01 -0.34243308527E+01  0.50841009338E+01  0.11609319728E+02  0.51100000000E-03 0. -1.
        -11    1    3    3    0    0 -0.58517765542E+01 -0.31674549001E+01  0.85438982796E+01  0.10829323961E+02  0.51100000000E-03 0.  1.
        -12    1    3    3    0    0 -0.23811497939E+02  0.75668727435E+01  0.42787851415E+01  0.25348629145E+02  0.00000000000E+00 0.  1.
</event>
<event>
 7    1  0.2950722E-010  0.4778727E+02  0.7816164E-02  0.1312668E+00
        -11   -1    0    0    0    0  0.00000000000E+00  0.00000000000E+00  0.45593999997E+02  0.45594000000E+02  0.51100000000E-03 0.  1.
         11   -1    0    0    0    0 -0.00000000000E+00 -0.00000000000E+00 -0.45593999997E+02  0.45594000000E+02  0.51100000000E-03 0. -1.
    9900012    2    1    2    0    0 -0.42547774899E+02 -0.71321748699E+01  0.47373618832E+01  0.47787266540E+02  0.19999979463E+02 0.  0.
        -12    1    1    2    0    0  0.42547774899E+02  0.71321748699E+01 -0.47373618832E+01  0.43400733460E+02  0.00000000000E+00 0.  1.
         11    1    3    3    0    0 -0.14563093676E+02  0.50424154098E+01  0.50590675938E+01  0.16220475201E+02  0.51100000000E-03 0.  1.
        -11    1    3    3    0    0 -0.13257441127E+02 -0.72346638529E+01  0.36409609707E+01  0.15535659090E+02  0.51100000000E-03 0. -1.
         12    1    3    3    0    0 -0.14727240096E+02 -0.49399264268E+01 -0.39626666814E+01  0.16031132249E+02  0.00000000000E+00 0. -1.
</event>
<event>
 7    1  0.2950722E-010  0.4778727E+02  0.7816164E-02  0.1312668E+00
        -11   -1    0    0    0    0  0.00000000000E+00  0.00000000000E+00  0.45593999997E+02  0.45594000000E+02  0.51100000000E-03 0.  1.
         11   -1    0    0    0    0 -0.00000000000E+00 -0.00000000000E+00 -0.45593999997E+02  0.45594000000E+02  0.51100000000E-03 0. -1.
    9900012    2    1    2    0    0  0.12471991525E+02 -0.88661865171E+01 -0.40613583982E+02  0.47787273741E+02  0.20000012295E+02 0.  0.
        -12    1    1    2    0    0 -0.12471991525E+02  0.88661865171E+01  0.40613583982E+02  0.43400726259E+02  0.00000000000E+00 0.  1.
         11    1    3    3    0    0  0.11428715132E+02 -0.15556181563E+01 -0.15596528070E+02  0.19398122732E+02  0.51100000000E-03 0. -1.
        -11    1    3    3    0    0 -0.43112822394E+01 -0.30044574227E+00 -0.56986716099E+01  0.71520822541E+01  0.51100000000E-03 0.  1.
        -12    1    3    3    0    0  0.53545586316E+01 -0.70101226185E+01 -0.19318384302E+02  0.21237068755E+02  0.00000000000E+00 0.  1.
</event>
<event>
 7    1  0.2950722E-010  0.4778727E+02  0.7816164E-02  0.1312668E+00
        -11   -1    0    0    0    0  0.00000000000E+00  0.00000000000E+00  0.45593999997E+02  0.45594000000E+02  0.51100000000E-03 0. -1.
         11   -1    0    0    0    0 -0.00000000000E+00 -0.00000000000E+00 -0.45593999997E+02  0.45594000000E+02  0.51100000000E-03 0.  1.
    9900012    2    1    2    0    0 -0.41496103163E+02 -0.64914590172E+01  0.10934241402E+02  0.47787271286E+02  0.20000001102E+02 0.  0.
        -12    1    1    2    0    0  0.41496103163E+02  0.64914590172E+01 -0.10934241402E+02  0.43400728714E+02  0.00000000000E+00 0.  1.
         11    1    3    3    0    0 -0.23453325476E+01 -0.79942177383E+00  0.47992454995E+01  0.54011496514E+01  0.51100000000E-03 0. -1.
        -11    1    3    3    0    0 -0.24831290441E+02 -0.99449158319E+01  0.16942656328E+01  0.26802329603E+02  0.51100000000E-03 0.  1.
        -12    1    3    3    0    0 -0.14319480174E+02  0.42528785885E+01  0.44407302702E+01  0.15583792031E+02  0.00000000000E+00 0.  1.
</event>
<event>
 7    1  0.2950722E-010  0.4778727E+02  0.7816164E-02  0.1312668E+00
        -11   -1    0    0    0    0  0.00000000000E+00  0.00000000000E+00  0.45593999997E+02  0.45594000000E+02  0.51100000000E-03 0.  1.
         11   -1    0    0    0    0 -0.00000000000E+00 -0.00000000000E+00 -0.45593999997E+02  0.45594000000E+02  0.51100000000E-03 0. -1.
    9900012    2    1    2    0    0 -0.21673284269E+02 -0.39070033252E+01 -0.37398225226E+02  0.47787272172E+02  0.20000005139E+02 0.  0.
        -12    1    1    2    0    0  0.21673284269E+02  0.39070033252E+01  0.37398225226E+02  0.43400727828E+02  0.00000000000E+00 0.  1.
         11    1    3    3    0    0 -0.63254071610E+01 -0.28572000550E+00 -0.20404252821E+02  0.21364127530E+02  0.51100000000E-03 0. -1.
        -11    1    3    3    0    0 -0.16911307502E+02 -0.76576790836E+00 -0.14903700338E+02  0.22554356695E+02  0.51100000000E-03 0.  1.
        -12    1    3    3    0    0  0.15634303936E+01 -0.28555154113E+01 -0.20902720668E+01  0.38687879463E+01  0.00000000000E+00 0.  1.
</event>
<event>
 7    1  0.2950722E-010  0.4778726E+02  0.7816164E-02  0.1312668E+00
        -11   -1    0    0    0    0  0.00000000000E+00  0.00000000000E+00  0.45593999997E+02  0.45594000000E+02  0.51100000000E-03 0.  1.
         11   -1    0    0    0    0 -0.00000000000E+00 -0.00000000000E+00 -0.45593999997E+02  0.45594000000E+02  0.51100000000E-03 0. -1.
    9900012    2    1    2    0    0  0.29966033180E+02  0.21348846783E+02 -0.23019283257E+02  0.47787264924E+02  0.19999972094E+02 0.  0.
        -12    1    1    2    0    0 -0.29966033180E+02 -0.21348846783E+02  0.23019283257E+02  0.43400735076E+02  0.00000000000E+00 0.  1.
         11    1    3    3    0    0  0.10970515789E+02  0.77168991835E+01 -0.28523508714E+01  0.13712718747E+02  0.51100000000E-03 0. -1.
        -11    1    3    3    0    0  0.19167471921E+02  0.15134997659E+02 -0.14932457527E+02  0.28625834871E+02  0.51100000000E-03 0.  1.
        -12    1    3    3    0    0 -0.17195453097E+00 -0.15030500600E+01 -0.52344748590E+01  0.54487113058E+01  0.00000000000E+00 0.  1.
</event>
<event>
 7    1  0.2950722E-010  0.4778727E+02  0.7816164E-02  0.1312668E+00
        -11   -1    0    0    0    0  0.00000000000E+00  0.00000000000E+00  0.45593999997E+02  0.45594000000E+02  0.51100000000E-03 0. -1.
         11   -1    0    0    0    0 -0.00000000000E+00 -0.00000000000E+00 -0.45593999997E+02  0.45594000000E+02  0.51100000000E-03 0.  1.
    9900012    2    1    2    0    0 -0.33266474769E+02 -0.24281952937E+02  0.13687663679E+02  0.47787265917E+02  0.19999976620E+02 0.  0.
        -12    1    1    2    0    0  0.33266474769E+02  0.24281952937E+02 -0.13687663679E+02  0.43400734083E+02  0.00000000000E+00 0.  1.
         11    1    3    3    0    0 -0.19889656730E+02 -0.23415750180E+02  0.63520633518E+01  0.31372671395E+02  0.51100000000E-03 0. -1.
        -11    1    3    3    0    0 -0.84601452261E+01 -0.64023684249E+00  0.12313023060E+01  0.85732179543E+01  0.51100000000E-03 0.  1.
         12    1    3    3    0    0 -0.49166728129E+01 -0.22596591423E+00  0.61042980212E+01  0.78413765677E+01  0.00000000000E+00 0. -1.
</event>
<event>
 7    1  0.2950722E-010  0.4778727E+02  0.7816164E-02  0.1312668E+00
        -11   -1    0    0    0    0  0.00000000000E+00  0.00000000000E+00  0.45593999997E+02  0.45594000000E+02  0.51100000000E-03 0. -1.
         11   -1    0    0    0    0 -0.00000000000E+00 -0.00000000000E+00 -0.45593999997E+02  0.45594000000E+02  0.51100000000E-03 0.  1.
    9900012    2    1    2    0    0  0.12397876470E+02  0.40382927367E+02  0.99566654187E+01  0.47787270168E+02  0.19999996004E+02 0.  0.
        -12    1    1    2    0    0 -0.12397876470E+02 -0.40382927367E+02 -0.99566654187E+01  0.43400729832E+02  0.00000000000E+00 0.  1.
         11    1    3    3    0    0  0.13399699982E+02  0.38558224812E+02  0.39151327242E+01  0.41007522783E+02  0.51100000000E-03 0. -1.
        -11    1    3    3    0    0 -0.14203577847E+01  0.14989592560E+01  0.58695343013E+01  0.62221964179E+01  0.51100000000E-03 0.  1.
         12    1    3    3    0    0  0.41853427218E+00  0.32574329865E+00  0.17199839320E+00  0.55755096706E+00  0.00000000000E+00 0. -1.
</event>
<event>
 7    1  0.2950722E-010  0.4778727E+02  0.7816164E-02  0.1312668E+00
        -11   -1    0    0    0    0  0.00000000000E+00  0.00000000000E+00  0.45593999997E+02  0.45594000000E+02  0.51100000000E-03 0. -1.
         11   -1    0    0    0    0 -0.00000000000E+00 -0.00000000000E+00 -0.45593999997E+02  0.45594000000E+02  0.51100000000E-03 0.  1.
    9900012    2    1    2    0    0 -0.12389469828E+02  0.41276224696E+02  0.51379016081E+01  0.47787265896E+02  0.19999976528E+02 0.  0.
        -12    1    1    2    0    0  0.12389469828E+02 -0.41276224696E+02 -0.51379016081E+01  0.43400734104E+02  0.00000000000E+00 0.  1.
         11    1    3    3    0    0 -0.93337248870E+01  0.25445135922E+02  0.83637473664E+01  0.28364161060E+02  0.51100000000E-03 0. -1.
        -11    1    3    3    0    0 -0.58346035313E+01  0.86191076549E+01 -0.49172931775E+01  0.11511359068E+02  0.51100000000E-03 0.  1.
        -12    1    3    3    0    0  0.27788585907E+01  0.72119811194E+01  0.16914474193E+01  0.79117457685E+01  0.00000000000E+00 0.  1.
</event>
<event>
 7    1  0.2950722E-010  0.4778728E+02  0.7816164E-02  0.1312668E+00
        -11   -1    0    0    0    0  0.00000000000E+00  0.00000000000E+00  0.45593999997E+02  0.45594000000E+02  0.51100000000E-03 0. -1.
         11   -1    0    0    0    0 -0.00000000000E+00 -0.00000000000E+00 -0.45593999997E+02  0.45594000000E+02  0.51100000000E-03 0.  1.
    9900012    2    1    2    0    0  0.14066035936E+02 -0.38511223038E+02 -0.14235703677E+02  0.47787275052E+02  0.20000018271E+02 0.  0.
        -12    1    1    2    0    0 -0.14066035936E+02  0.38511223038E+02  0.14235703677E+02  0.43400724948E+02  0.00000000000E+00 0.  1.
         11    1    3    3    0    0  0.70473867537E+01 -0.15709972197E+02 -0.38563959021E+01  0.17644848430E+02  0.51100000000E-03 0. -1.
        -11    1    3    3    0    0  0.11398364001E+02 -0.12242793422E+02 -0.46813031519E+01  0.17370183998E+02  0.51100000000E-03 0.  1.
        -12    1    3    3    0    0 -0.43797148183E+01 -0.10558457419E+02 -0.56980046227E+01  0.12772242624E+02  0.00000000000E+00 0.  1.
</event>
<event>
 7    1  0.2950722E-010  0.4778728E+02  0.7816164E-02  0.1312668E+00
        -11   -1    0    0    0    0  0.00000000000E+00  0.00000000000E+00  0.45593999997E+02  0.45594000000E+02  0.51100000000E-03 0. -1.
         11   -1    0    0    0    0 -0.00000000000E+00 -0.00000000000E+00 -0.45593999997E+02  0.45594000000E+02  0.51100000000E-03 0.  1.
    9900012    2    1    2    0    0 -0.17163011659E+02 -0.16501684969E+01  0.39828768637E+02  0.47787276084E+02  0.20000022977E+02 0.  0.
        -12    1    1    2    0    0  0.17163011659E+02  0.16501684969E+01 -0.39828768637E+02  0.43400723916E+02  0.00000000000E+00 0.  1.
         11    1    3    3    0    0 -0.31601006503E+01  0.16721060364E+01  0.15290617731E+02  0.15703030459E+02  0.51100000000E-03 0. -1.
        -11    1    3    3    0    0 -0.13536536876E+02 -0.69489113899E+01  0.13107888027E+02  0.20083374440E+02  0.51100000000E-03 0.  1.
        -12    1    3    3    0    0 -0.46637413193E+00  0.36266368566E+01  0.11430262879E+02  0.12000871185E+02  0.00000000000E+00 0.  1.
</event>
<event>
 7    1  0.2950722E-010  0.4778727E+02  0.7816164E-02  0.1312668E+00
        -11   -1    0    0    0    0  0.00000000000E+00  0.00000000000E+00  0.45593999997E+02  0.45594000000E+02  0.51100000000E-03 0.  1.
         11   -1    0    0    0    0 -0.00000000000E+00 -0.00000000000E+00 -0.45593999997E+02  0.45594000000E+02  0.51100000000E-03 0. -1.
    9900012    2    1    2    0    0 -0.22416521607E+02  0.26720165188E+02 -0.25829353453E+02  0.47787272259E+02  0.20000005538E+02 0.  0.
        -12    1    1    2    0    0  0.22416521607E+02 -0.26720165188E+02  0.25829353453E+02  0.43400727741E+02  0.00000000000E+00 0.  1.
         11    1    3    3    0    0 -0.44461322014E+01 -0.76991826597E+00  0.10606839349E+01  0.46352903210E+01  0.51100000000E-03 0.  1.
        -11    1    3    3    0    0 -0.95957000077E+01  0.17838206175E+02 -0.20669397975E+02  0.28939645317E+02  0.51100000000E-03 0. -1.
        -12    1    3    3    0    0 -0.83746893980E+01  0.96518772790E+01 -0.62206394131E+01  0.14212336621E+02  0.00000000000E+00 0.  1.
</event>
<event>
 7    1  0.2950722E-010  0.4778727E+02  0.7816164E-02  0.1312668E+00
        -11   -1    0    0    0    0  0.00000000000E+00  0.00000000000E+00  0.45593999997E+02  0.45594000000E+02  0.51100000000E-03 0. -1.
         11   -1    0    0    0    0 -0.00000000000E+00 -0.00000000000E+00 -0.45593999997E+02  0.45594000000E+02  0.51100000000E-03 0.  1.
    9900012    2    1    2    0    0 -0.15848373063E+02  0.38156194665E+02  0.13287476368E+02  0.47787272491E+02  0.20000006597E+02 0.  0.
        -12    1    1    2    0    0  0.15848373063E+02 -0.38156194665E+02 -0.13287476368E+02  0.43400727509E+02  0.00000000000E+00 0.  1.
         11    1    3    3    0    0  0.84139971573E+00  0.57601154401E+01 -0.33428358253E+01  0.67127814638E+01  0.51100000000E-03 0.  1.
        -11    1    3    3    0    0  0.86278960730E+00  0.21868887822E+01 -0.65653868860E-01  0.23518501533E+01  0.51100000000E-03 0. -1.
         12    1    3    3    0    0 -0.17552562386E+02  0.30209190443E+02  0.16695966062E+02  0.38722640874E+02  0.00000000000E+00 0. -1.
</event>
<event>
 7    1  0.2950722E-010  0.4778726E+02  0.7816164E-02  0.1312668E+00
        -11   -1    0    0    0    0  0.00000000000E+00  0.00000000000E+00  0.45593999997E+02  0.45594000000E+02  0.51100000000E-03 0.  1.
         11   -1    0    0    0    0 -0.00000000000E+00 -0.00000000000E+00 -0.45593999997E+02  0.45594000000E+02  0.51100000000E-03 0. -1.
    9900012    2    1    2    0    0  0.32148436779E+02 -0.28845058223E+02 -0.42502365161E+01  0.47787264043E+02  0.19999968076E+02 0.  0.
        -12    1    1    2    0    0 -0.32148436779E+02  0.28845058223E+02  0.42502365161E+01  0.43400735957E+02  0.00000000000E+00 0.  1.
         11    1    3    3    0    0 -0.78174270911E-01 -0.54326581425E+00 -0.34754626555E+01  0.35185351913E+01  0.51100000000E-03 0. -1.
        -11    1    3    3    0    0  0.67443077070E+01 -0.87429987976E+00 -0.63493526931E+00  0.68303169607E+01  0.51100000000E-03 0.  1.
         12    1    3    3    0    0  0.25482303343E+02 -0.27427492529E+02 -0.13983859134E+00  0.37438411891E+02  0.00000000000E+00 0. -1.
</event>
<event>
 7    1  0.2950722E-010  0.4778727E+02  0.7816164E-02  0.1312668E+00
        -11   -1    0    0    0    0  0.00000000000E+00  0.00000000000E+00  0.45593999997E+02  0.45594000000E+02  0.51100000000E-03 0. -1.
         11   -1    0    0    0    0 -0.00000000000E+00 -0.00000000000E+00 -0.45593999997E+02  0.45594000000E+02  0.51100000000E-03 0.  1.
    9900012    2    1    2    0    0  0.33876180352E+02  0.16909030394E+02  0.21215851700E+02  0.47787271118E+02  0.20000000338E+02 0.  0.
        -12    1    1    2    0    0 -0.33876180352E+02 -0.16909030394E+02 -0.21215851700E+02  0.43400728882E+02  0.00000000000E+00 0.  1.
         11    1    3    3    0    0  0.13605686151E+02  0.61459936365E+01  0.29512794708E+01  0.15218343674E+02  0.51100000000E-03 0. -1.
        -11    1    3    3    0    0  0.20467967144E+02  0.56825130261E+01  0.11653223103E+02  0.24228624440E+02  0.51100000000E-03 0.  1.
        -12    1    3    3    0    0 -0.19747294229E+00  0.50805237309E+01  0.66113491261E+01  0.83403030047E+01  0.00000000000E+00 0.  1.
</event>
<event>
 7    1  0.2950722E-010  0.4778727E+02  0.7816164E-02  0.1312668E+00
        -11   -1    0    0    0    0  0.00000000000E+00  0.00000000000E+00  0.45593999997E+02  0.45594000000E+02  0.51100000000E-03 0.  1.
         11   -1    0    0    0    0 -0.00000000000E+00 -0.00000000000E+00 -0.45593999997E+02  0.45594000000E+02  0.51100000000E-03 0. -1.
    9900012    2    1    2    0    0  0.19575732475E+02 -0.38512958410E+02  0.41431626216E+01  0.47787273463E+02  0.20000011028E+02 0.  0.
        -12    1    1    2    0    0 -0.19575732475E+02  0.38512958410E+02 -0.41431626216E+01  0.43400726537E+02  0.00000000000E+00 0.  1.
         11    1    3    3    0    0  0.12963974952E+02 -0.18591423334E+02 -0.11064115973E+01  0.22692065023E+02  0.51100000000E-03 0. -1.
        -11    1    3    3    0    0 -0.22204104090E+01 -0.13323546069E+02  0.25685282078E+01  0.13749343245E+02  0.51100000000E-03 0.  1.
        -12    1    3    3    0    0  0.88321679322E+01 -0.65979890068E+01  0.26810460111E+01  0.11345865195E+02  0.00000000000E+00 0.  1.
</event>
<event>
 7    1  0.2950722E-010  0.4778727E+02  0.7816164E-02  0.1312668E+00
        -11   -1    0    0    0    0  0.00000000000E+00  0.00000000000E+00  0.45593999997E+02  0.45594000000E+02  0.51100000000E-03 0. -1.
         11   -1    0    0    0    0 -0.00000000000E+00 -0.00000000000E+00 -0.45593999997E+02  0.45594000000E+02  0.51100000000E-03 0.  1.
    9900012    2    1    2    0    0 -0.12713796458E+02  0.18462416415E+02  0.37163446735E+02  0.47787271740E+02  0.20000003172E+02 0.  0.
        -12    1    1    2    0    0  0.12713796458E+02 -0.18462416415E+02 -0.37163446735E+02  0.43400728260E+02  0.00000000000E+00 0.  1.
         11    1    3    3    0    0  0.35557738860E+00  0.64130611222E+01  0.13426981802E+02  0.14884140177E+02  0.51100000000E-03 0.  1.
        -11    1    3    3    0    0 -0.59646695867E+01 -0.17067612083E+01  0.11879506094E+02  0.13401976810E+02  0.51100000000E-03 0. -1.
        -12    1    3    3    0    0 -0.71047042600E+01  0.13756116501E+02  0.11856958838E+02  0.19501154753E+02  0.00000000000E+00 0.  1.
</event>
<event>
 7    1  0.2950722E-010  0.4778727E+02  0.7816164E-02  0.1312668E+00
        -11   -1    0    0    0    0  0.00000000000E+00  0.00000000000E+00  0.45593999997E+02  0.45594000000E+02  0.51100000000E-03 0.  1.
         11   -1    0    0    0    0 -0.00000000000E+00 -0.00000000000E+00 -0.45593999997E+02  0.45594000000E+02  0.51100000000E-03 0. -1.
    9900012    2    1    2    0    0  0.99209990977E+01 -0.24336370455E+02 -0.34538933206E+02  0.47787273543E+02  0.20000011391E+02 0.  0.
        -12    1    1    2    0    0 -0.99209990977E+01  0.24336370455E+02  0.34538933206E+02  0.43400726457E+02  0.00000000000E+00 0.  1.
         11    1    3    3    0    0  0.82539569380E+00 -0.65690176465E+01 -0.19302819227E+02  0.20406668059E+02  0.51100000000E-03 0. -1.
        -11    1    3    3    0    0  0.24791990341E+01 -0.82380281910E+00  0.11910403733E+01  0.28711768262E+01  0.51100000000E-03 0.  1.
         12    1    3    3    0    0  0.66164043697E+01 -0.16943549989E+02 -0.16427154352E+02  0.24509428658E+02  0.00000000000E+00 0. -1.
</event>
<event>
 7    1  0.2950722E-010  0.4778728E+02  0.7816164E-02  0.1312668E+00
        -11   -1    0    0    0    0  0.00000000000E+00  0.00000000000E+00  0.45593999997E+02  0.45594000000E+02  0.51100000000E-03 0.  1.
         11   -1    0    0    0    0 -0.00000000000E+00 -0.00000000000E+00 -0.45593999997E+02  0.45594000000E+02  0.51100000000E-03 0. -1.
    9900012    2    1    2    0    0 -0.18357053569E+02 -0.72918937741E+01 -0.38645432982E+02  0.47787278567E+02  0.20000034298E+02 0.  0.
        -12    1    1    2    0    0  0.18357053569E+02  0.72918937741E+01  0.38645432982E+02  0.43400721433E+02  0.00000000000E+00 0.  1.
         11    1    3    3    0    0 -0.47398380142E+01  0.11868774890E+01 -0.23764399979E+00  0.48919543647E+01  0.51100000000E-03 0. -1.
        -11    1    3    3    0    0 -0.15087189161E+01  0.23009749285E+01 -0.75941254521E+01  0.80772185827E+01  0.51100000000E-03 0.  1.
         12    1    3    3    0    0 -0.12108496639E+02 -0.10779746192E+02 -0.30813663530E+02  0.34818105620E+02  0.00000000000E+00 0. -1.
</event>
<event>
 7    1  0.2950722E-010  0.4778727E+02  0.7816164E-02  0.1312668E+00
        -11   -1    0    0    0    0  0.00000000000E+00  0.00000000000E+00  0.45593999997E+02  0.45594000000E+02  0.51100000000E-03 0.  1.
         11   -1    0    0    0    0 -0.00000000000E+00 -0.00000000000E+00 -0.45593999997E+02  0.45594000000E+02  0.51100000000E-03 0. -1.
    9900012    2    1    2    0    0  0.81415253713E+01 -0.64278923903E+01 -0.42142863983E+02  0.47787271658E+02  0.20000002795E+02 0.  0.
        -12    1    1    2    0    0 -0.81415253713E+01  0.64278923903E+01  0.42142863983E+02  0.43400728342E+02  0.00000000000E+00 0.  1.
         11    1    3    3    0    0  0.47331963006E+01 -0.35746489221E+01 -0.30453994695E+02  0.31026231729E+02  0.51100000000E-03 0. -1.
        -11    1    3    3    0    0  0.66469369931E+01 -0.21744835853E-01 -0.35027587043E+01  0.75134255190E+01  0.51100000000E-03 0.  1.
         12    1    3    3    0    0 -0.32386079225E+01 -0.28314986324E+01 -0.81861105839E+01  0.92476144098E+01  0.00000000000E+00 0. -1.
</event>
<event>
 7    1  0.2950722E-010  0.4778726E+02  0.7816164E-02  0.1312668E+00
        -11   -1    0    0    0    0  0.00000000000E+00  0.00000000000E+00  0.45593999997E+02  0.45594000000E+02  0.51100000000E-03 0.  1.
         11   -1    0    0    0    0 -0.00000000000E+00 -0.00000000000E+00 -0.45593999997E+02  0.45594000000E+02  0.51100000000E-03 0. -1.
    9900012    2    1    2    0    0 -0.22488669686E+02 -0.22427003449E+02 -0.29578929859E+02  0.47787264527E+02  0.19999970285E+02 0.  0.
        -12    1    1    2    0    0  0.22488669686E+02  0.22427003449E+02  0.29578929859E+02  0.43400735473E+02  0.00000000000E+00 0.  1.
         11    1    3    3    0    0 -0.18033597069E+00 -0.30119067600E+01 -0.81889832538E+01  0.87271731039E+01  0.51100000000E-03 0. -1.
        -11    1    3    3    0    0 -0.21128335010E+02 -0.21396246959E+02 -0.18286661876E+02  0.35193862065E+02  0.51100000000E-03 0.  1.
        -12    1    3    3    0    0 -0.11799987058E+01  0.19811502700E+01 -0.31032847294E+01  0.38662293581E+01  0.00000000000E+00 0.  1.
</event>
<event>
 7    1  0.2950722E-010  0.4778727E+02  0.7816164E-02  0.1312668E+00
        -11   -1    0    0    0    0  0.00000000000E+00  0.00000000000E+00  0.45593999997E+02  0.45594000000E+02  0.51100000000E-03 0.  1.
         11   -1    0    0    0    0 -0.00000000000E+00 -0.00000000000E+00 -0.45593999997E+02  0.45594000000E+02  0.51100000000E-03 0. -1.
    9900012    2    1    2    0    0 -0.16778282390E+02  0.18200021810E+02 -0.35649283946E+02  0.47787274203E+02  0.20000014401E+02 0.  0.
        -12    1    1    2    0    0  0.16778282390E+02 -0.18200021810E+02  0.35649283946E+02  0.43400725797E+02  0.00000000000E+00 0.  1.
         11    1    3    3    0    0 -0.20585761311E+01  0.68659231311E+01 -0.49561188076E+01  0.87144563816E+01  0.51100000000E-03 0. -1.
        -11    1    3    3    0    0  0.23565333777E+01  0.42693924206E+01 -0.28297144637E+01  0.56381065446E+01  0.51100000000E-03 0.  1.
        -12    1    3    3    0    0 -0.17076239637E+02  0.70647062580E+01 -0.27863450675E+02  0.33434711277E+02  0.00000000000E+00 0.  1.
</event>
<event>
 7    1  0.2950722E-010  0.4778727E+02  0.7816164E-02  0.1312668E+00
        -11   -1    0    0    0    0  0.00000000000E+00  0.00000000000E+00  0.45593999997E+02  0.45594000000E+02  0.51100000000E-03 0.  1.
         11   -1    0    0    0    0 -0.00000000000E+00 -0.00000000000E+00 -0.45593999997E+02  0.45594000000E+02  0.51100000000E-03 0. -1.
    9900012    2    1    2    0    0  0.16972330367E+02  0.33668670019E+02 -0.21493815483E+02  0.47787269096E+02  0.19999991118E+02 0.  0.
        -12    1    1    2    0    0 -0.16972330367E+02 -0.33668670019E+02  0.21493815483E+02  0.43400730904E+02  0.00000000000E+00 0.  1.
         11    1    3    3    0    0 -0.16843840056E+00  0.33440987650E+01 -0.85722256198E+01  0.92029571543E+01  0.51100000000E-03 0. -1.
        -11    1    3    3    0    0 -0.97670503657E+00  0.16574184184E+01  0.68779508849E+00  0.20430494089E+01  0.51100000000E-03 0.  1.
         12    1    3    3    0    0  0.18117473804E+02  0.28667152836E+02 -0.13609384952E+02  0.36541262533E+02  0.00000000000E+00 0. -1.
</event>
<event>
 7    1  0.2950722E-010  0.4778728E+02  0.7816164E-02  0.1312668E+00
        -11   -1    0    0    0    0  0.00000000000E+00  0.00000000000E+00  0.45593999997E+02  0.45594000000E+02  0.51100000000E-03 0.  1.
         11   -1    0    0    0    0 -0.00000000000E+00 -0.00000000000E+00 -0.45593999997E+02  0.45594000000E+02  0.51100000000E-03 0. -1.
    9900012    2    1    2    0    0  0.31016221971E+02  0.18987924410E+02 -0.23687032905E+02  0.47787276198E+02  0.20000023496E+02 0.  0.
        -12    1    1    2    0    0 -0.31016221971E+02 -0.18987924410E+02  0.23687032905E+02  0.43400723802E+02  0.00000000000E+00 0.  1.
         11    1    3    3    0    0  0.27404091135E+02  0.18259726338E+02 -0.14286264179E+02  0.35895670510E+02  0.51100000000E-03 0. -1.
        -11    1    3    3    0    0  0.16466939462E+01 -0.27231559371E+01 -0.30943987600E+01  0.44387479267E+01  0.51100000000E-03 0.  1.
         12    1    3    3    0    0  0.19654368890E+01  0.34513540088E+01 -0.63063699660E+01  0.74528577611E+01  0.00000000000E+00 0. -1.
</event>
<event>
 7    1  0.2950722E-010  0.4778727E+02  0.7816164E-02  0.1312668E+00
        -11   -1    0    0    0    0  0.00000000000E+00  0.00000000000E+00  0.45593999997E+02  0.45594000000E+02  0.51100000000E-03 0.  1.
         11   -1    0    0    0    0 -0.00000000000E+00 -0.00000000000E+00 -0.45593999997E+02  0.45594000000E+02  0.51100000000E-03 0. -1.
    9900012    2    1    2    0    0  0.29401818780E+02  0.31122368543E+02  0.71101631167E+01  0.47787272000E+02  0.20000004359E+02 0.  0.
        -12    1    1    2    0    0 -0.29401818780E+02 -0.31122368543E+02 -0.71101631167E+01  0.43400728000E+02  0.00000000000E+00 0.  1.
         11    1    3    3    0    0  0.44244117838E+00  0.29871590007E+01 -0.31825297044E+01  0.43871823158E+01  0.51100000000E-03 0.  1.
        -11    1    3    3    0    0  0.15077591865E+02  0.18027660943E+02  0.11542102293E+02  0.26183018564E+02  0.51100000000E-03 0. -1.
        -12    1    3    3    0    0  0.13881785737E+02  0.10107548600E+02 -0.12494094716E+01  0.17217071121E+02  0.00000000000E+00 0.  1.
</event>
<event>
 7    1  0.2950722E-010  0.4778727E+02  0.7816164E-02  0.1312668E+00
        -11   -1    0    0    0    0  0.00000000000E+00  0.00000000000E+00  0.45593999997E+02  0.45594000000E+02  0.51100000000E-03 0. -1.
         11   -1    0    0    0    0 -0.00000000000E+00 -0.00000000000E+00 -0.45593999997E+02  0.45594000000E+02  0.51100000000E-03 0.  1.
    9900012    2    1    2    0    0 -0.35513859488E+02 -0.23292752311E+02  0.89351393135E+01  0.47787271429E+02  0.20000001753E+02 0.  0.
        -12    1    1    2    0    0  0.35513859488E+02  0.23292752311E+02 -0.89351393135E+01  0.43400728571E+02  0.00000000000E+00 0.  1.
         11    1    3    3    0    0 -0.82281484133E+01 -0.14669164909E+02  0.96223526978E-01  0.16819514995E+02  0.51100000000E-03 0.  1.
        -11    1    3    3    0    0 -0.16806487894E+02 -0.13233688204E+01  0.41399620171E+01  0.17359395903E+02  0.51100000000E-03 0. -1.
         12    1    3    3    0    0 -0.10479223180E+02 -0.73002185822E+01  0.46989537694E+01  0.13608360531E+02  0.00000000000E+00 0. -1.
</event>
<event>
 7    1  0.2950722E-010  0.4778727E+02  0.7816164E-02  0.1312668E+00
        -11   -1    0    0    0    0  0.00000000000E+00  0.00000000000E+00  0.45593999997E+02  0.45594000000E+02  0.51100000000E-03 0.  1.
         11   -1    0    0    0    0 -0.00000000000E+00 -0.00000000000E+00 -0.45593999997E+02  0.45594000000E+02  0.51100000000E-03 0. -1.
    9900012    2    1    2    0    0 -0.23769738351E+02 -0.27004084412E+02 -0.24277607571E+02  0.47787271139E+02  0.20000000433E+02 0.  0.
        -12    1    1    2    0    0  0.23769738351E+02  0.27004084412E+02  0.24277607571E+02  0.43400728861E+02  0.00000000000E+00 0.  1.
         11    1    3    3    0    0 -0.25885484722E+02 -0.21013741431E+02 -0.24494718301E+02  0.41371812543E+02  0.51100000000E-03 0. -1.
        -11    1    3    3    0    0  0.17635608154E+01 -0.51686419663E+01  0.48357993182E+00  0.54825957663E+01  0.51100000000E-03 0.  1.
         12    1    3    3    0    0  0.35218555495E+00 -0.82170101536E+00 -0.26646920249E+00  0.93286283002E+00  0.00000000000E+00 0. -1.
</event>
<event>
 7    1  0.2950722E-010  0.4778727E+02  0.7816164E-02  0.1312668E+00
        -11   -1    0    0    0    0  0.00000000000E+00  0.00000000000E+00  0.45593999997E+02  0.45594000000E+02  0.51100000000E-03 0. -1.
         11   -1    0    0    0    0 -0.00000000000E+00 -0.00000000000E+00 -0.45593999997E+02  0.45594000000E+02  0.51100000000E-03 0.  1.
    9900012    2    1    2    0    0  0.14271612899E+02 -0.40945411883E+02 -0.18487222458E+01  0.47787268866E+02  0.19999990067E+02 0.  0.
        -12    1    1    2    0    0 -0.14271612899E+02  0.40945411883E+02  0.18487222458E+01  0.43400731134E+02  0.00000000000E+00 0.  1.
         11    1    3    3    0    0  0.13568019890E+02 -0.16781828911E+02 -0.66307148040E+01  0.22576255766E+02  0.51100000000E-03 0. -1.
        -11    1    3    3    0    0 -0.22122472209E+01 -0.10429067807E+02  0.12593883380E+01  0.10735248127E+02  0.51100000000E-03 0.  1.
         12    1    3    3    0    0  0.29158402297E+01 -0.13734515165E+02  0.35226042202E+01  0.14475764973E+02  0.00000000000E+00 0. -1.
</event>
<event>
 7    1  0.2950722E-010  0.4778727E+02  0.7816164E-02  0.1312668E+00
        -11   -1    0    0    0    0  0.00000000000E+00  0.00000000000E+00  0.45593999997E+02  0.45594000000E+02  0.51100000000E-03 0.  1.
         11   -1    0    0    0    0 -0.00000000000E+00 -0.00000000000E+00 -0.45593999997E+02  0.45594000000E+02  0.51100000000E-03 0. -1.
    9900012    2    1    2    0    0 -0.14560679406E+02 -0.19836068395E+02 -0.35751086667E+02  0.47787271987E+02  0.20000004299E+02 0.  0.
        -12    1    1    2    0    0  0.14560679406E+02  0.19836068395E+02  0.35751086667E+02  0.43400728013E+02  0.00000000000E+00 0.  1.
         11    1    3    3    0    0 -0.18039830229E+01 -0.44864089418E+01 -0.30599850013E+01  0.57223883484E+01  0.51100000000E-03 0. -1.
        -11    1    3    3    0    0 -0.42390909267E+01  0.17206872005E+01 -0.44298664970E+00  0.45964000870E+01  0.51100000000E-03 0.  1.
        -12    1    3    3    0    0 -0.85176054564E+01 -0.17070346653E+02 -0.32248115016E+02  0.37468483552E+02  0.00000000000E+00 0.  1.
</event>
<event>
 7    1  0.2950722E-010  0.4778726E+02  0.7816164E-02  0.1312668E+00
        -11   -1    0    0    0    0  0.00000000000E+00  0.00000000000E+00  0.45593999997E+02  0.45594000000E+02  0.51100000000E-03 0.  1.
         11   -1    0    0    0    0 -0.00000000000E+00 -0.00000000000E+00 -0.45593999997E+02  0.45594000000E+02  0.51100000000E-03 0. -1.
    9900012    2    1    2    0    0 -0.38685777560E+02  0.12332430699E+02 -0.15327936409E+02  0.47787264212E+02  0.19999968849E+02 0.  0.
        -12    1    1    2    0    0  0.38685777560E+02 -0.12332430699E+02  0.15327936409E+02  0.43400735788E+02  0.00000000000E+00 0.  1.
         11    1    3    3    0    0 -0.16214441498E+02  0.14724903552E+02 -0.32209324779E+01  0.22138322068E+02  0.51100000000E-03 0. -1.
        -11    1    3    3    0    0 -0.11165986155E+02 -0.15160404711E+01 -0.62753764212E+01  0.12897983370E+02  0.51100000000E-03 0.  1.
         12    1    3    3    0    0 -0.11305349907E+02 -0.87643238231E+00 -0.58316275098E+01  0.12750958774E+02  0.00000000000E+00 0. -1.
</event>
<event>
 7    1  0.2950722E-010  0.4778727E+02  0.7816164E-02  0.1312668E+00
        -11   -1    0    0    0    0  0.00000000000E+00  0.00000000000E+00  0.45593999997E+02  0.45594000000E+02  0.51100000000E-03 0. -1.
         11   -1    0    0    0    0 -0.00000000000E+00 -0.00000000000E+00 -0.45593999997E+02  0.45594000000E+02  0.51100000000E-03 0.  1.
    9900012    2    1    2    0    0 -0.18974209749E+01  0.22551321576E+02  0.37033241999E+02  0.47787270465E+02  0.19999997359E+02 0.  0.
        -12    1    1    2    0    0  0.18974209749E+01 -0.22551321576E+02 -0.37033241999E+02  0.43400729535E+02  0.00000000000E+00 0.  1.
         11    1    3    3    0    0 -0.98291784128E+00  0.19591136410E+02  0.30983504114E+02  0.36670918733E+02  0.51100000000E-03 0. -1.
        -11    1    3    3    0    0  0.26503395598E+01  0.38245855329E+01  0.58054309837E+01  0.74400795324E+01  0.51100000000E-03 0.  1.
         12    1    3    3    0    0 -0.35648426934E+01 -0.86440036665E+00  0.24430690135E+00  0.36762721995E+01  0.00000000000E+00 0. -1.
</event>
<event>
 7    1  0.2950722E-010  0.4778727E+02  0.7816164E-02  0.1312668E+00
        -11   -1    0    0    0    0  0.00000000000E+00  0.00000000000E+00  0.45593999997E+02  0.45594000000E+02  0.51100000000E-03 0.  1.
         11   -1    0    0    0    0 -0.00000000000E+00 -0.00000000000E+00 -0.45593999997E+02  0.45594000000E+02  0.51100000000E-03 0. -1.
    9900012    2    1    2    0    0 -0.19608602211E+01  0.84774921504E+01 -0.42519531137E+02  0.47787269890E+02  0.19999994738E+02 0.  0.
        -12    1    1    2    0    0  0.19608602211E+01 -0.84774921504E+01  0.42519531137E+02  0.43400730110E+02  0.00000000000E+00 0.  1.
         11    1    3    3    0    0 -0.16273440147E+01  0.64475573243E+01 -0.26771389302E+02  0.27584896763E+02  0.51100000000E-03 0. -1.
        -11    1    3    3    0    0  0.42675156407E+01 -0.26962968899E+01 -0.30622174399E+01  0.59041411376E+01  0.51100000000E-03 0.  1.
        -12    1    3    3    0    0 -0.46010318472E+01  0.47262317160E+01 -0.12685924395E+02  0.14298231990E+02  0.00000000000E+00 0.  1.
</event>
<event>
 7    1  0.2950722E-010  0.4778723E+02  0.7816164E-02  0.1312668E+00
        -11   -1    0    0    0    0  0.00000000000E+00  0.00000000000E+00  0.45593999997E+02  0.45594000000E+02  0.51100000000E-03 0. -1.
         11   -1    0    0    0    0 -0.00000000000E+00 -0.00000000000E+00 -0.45593999997E+02  0.45594000000E+02  0.51100000000E-03 0.  1.
    9900012    2    1    2    0    0  0.25810154142E+02 -0.22438337909E+02  0.26720473668E+02  0.47787230675E+02  0.19999815938E+02 0.  0.
        -12    1    1    2    0    0 -0.25810154142E+02  0.22438337909E+02 -0.26720473668E+02  0.43400769325E+02  0.00000000000E+00 0.  1.
         11    1    3    3    0    0  0.22883637468E+02 -0.25244632911E+02  0.21262277800E+02  0.40162629546E+02  0.51100000000E-03 0. -1.
        -11    1    3    3    0    0 -0.24251583516E+00  0.19936459477E+01  0.16124219570E+01  0.25755276981E+01  0.51100000000E-03 0.  1.
        -12    1    3    3    0    0  0.31690325097E+01  0.81264905367E+00  0.38457739116E+01  0.50490734310E+01  0.00000000000E+00 0.  1.
</event>
<event>
 7    1  0.2950722E-010  0.4778727E+02  0.7816164E-02  0.1312668E+00
        -11   -1    0    0    0    0  0.00000000000E+00  0.00000000000E+00  0.45593999997E+02  0.45594000000E+02  0.51100000000E-03 0.  1.
         11   -1    0    0    0    0 -0.00000000000E+00 -0.00000000000E+00 -0.45593999997E+02  0.45594000000E+02  0.51100000000E-03 0. -1.
    9900012    2    1    2    0    0  0.32996324354E+02  0.21825337871E+02 -0.17847144575E+02  0.47787270011E+02  0.19999995289E+02 0.  0.
        -12    1    1    2    0    0 -0.32996324354E+02 -0.21825337871E+02  0.17847144575E+02  0.43400729989E+02  0.00000000000E+00 0.  1.
         11    1    3    3    0    0  0.54926527483E+01  0.10537056648E+02 -0.29581362271E+01  0.12245381465E+02  0.51100000000E-03 0. -1.
        -11    1    3    3    0    0  0.24105376034E+02  0.46953860024E+01 -0.13401321470E+02  0.27976976621E+02  0.51100000000E-03 0.  1.
        -12    1    3    3    0    0  0.33982955716E+01  0.65928952208E+01 -0.14876868772E+01  0.75649119248E+01  0.00000000000E+00 0.  1.
</event>
<event>
 7    1  0.2950722E-010  0.4778727E+02  0.7816164E-02  0.1312668E+00
        -11   -1    0    0    0    0  0.00000000000E+00  0.00000000000E+00  0.45593999997E+02  0.45594000000E+02  0.51100000000E-03 0. -1.
         11   -1    0    0    0    0 -0.00000000000E+00 -0.00000000000E+00 -0.45593999997E+02  0.45594000000E+02  0.51100000000E-03 0.  1.
    9900012    2    1    2    0    0 -0.25415396892E+02  0.34003811546E+02 -0.90233883697E+01  0.47787272627E+02  0.20000007215E+02 0.  0.
        -12    1    1    2    0    0  0.25415396892E+02 -0.34003811546E+02  0.90233883697E+01  0.43400727373E+02  0.00000000000E+00 0.  1.
         11    1    3    3    0    0 -0.53432386263E+01  0.39076825601E+01 -0.21670159376E+01  0.69653528513E+01  0.51100000000E-03 0. -1.
        -11    1    3    3    0    0 -0.19450360299E+02  0.15018173400E+02 -0.87558178326E+00  0.24589198680E+02  0.51100000000E-03 0.  1.
        -12    1    3    3    0    0 -0.62179796695E+00  0.15077955586E+02 -0.59807906489E+01  0.16232721095E+02  0.00000000000E+00 0.  1.
</event>
<event>
 7    1  0.2950722E-010  0.4778727E+02  0.7816164E-02  0.1312668E+00
        -11   -1    0    0    0    0  0.00000000000E+00  0.00000000000E+00  0.45593999997E+02  0.45594000000E+02  0.51100000000E-03 0. -1.
         11   -1    0    0    0    0 -0.00000000000E+00 -0.00000000000E+00 -0.45593999997E+02  0.45594000000E+02  0.51100000000E-03 0.  1.
    9900012    2    1    2    0    0 -0.32738026301E+02  0.92295199439E+01  0.26956649248E+02  0.47787270246E+02  0.19999996359E+02 0.  0.
        -12    1    1    2    0    0  0.32738026301E+02 -0.92295199439E+01 -0.26956649248E+02  0.43400729754E+02  0.00000000000E+00 0.  1.
         11    1    3    3    0    0 -0.21765256763E+02  0.30332081382E+01  0.22275480353E+02  0.31290953625E+02  0.51100000000E-03 0. -1.
        -11    1    3    3    0    0 -0.12750739279E+02  0.52551517481E+01  0.38401771536E+01  0.14315897908E+02  0.51100000000E-03 0.  1.
         12    1    3    3    0    0  0.17779697412E+01  0.94116005762E+00  0.84099174160E+00  0.21804187130E+01  0.00000000000E+00 0. -1.
</event>
<event>
 7    1  0.2950722E-010  0.4778727E+02  0.7816164E-02  0.1312668E+00
        -11   -1    0    0    0    0  0.00000000000E+00  0.00000000000E+00  0.45593999997E+02  0.45594000000E+02  0.51100000000E-03 0. -1.
         11   -1    0    0    0    0 -0.00000000000E+00 -0.00000000000E+00 -0.45593999997E+02  0.45594000000E+02  0.51100000000E-03 0.  1.
    9900012    2    1    2    0    0  0.17193030954E+02  0.72164411128E+01  0.39191148863E+02  0.47787268613E+02  0.19999988913E+02 0.  0.
        -12    1    1    2    0    0 -0.17193030954E+02 -0.72164411128E+01 -0.39191148863E+02  0.43400731387E+02  0.00000000000E+00 0.  1.
         11    1    3    3    0    0  0.70180553857E+01 -0.42046335890E+01  0.91621619017E+01  0.12283210329E+02  0.51100000000E-03 0. -1.
        -11    1    3    3    0    0  0.55514098790E+01  0.12413293997E+02  0.17851827095E+02  0.22440939161E+02  0.51100000000E-03 0.  1.
        -12    1    3    3    0    0  0.46235656897E+01 -0.99221929534E+00  0.12177159866E+02  0.13063119123E+02  0.00000000000E+00 0.  1.
</event>
<event>
 7    1  0.2950722E-010  0.4778730E+02  0.7816164E-02  0.1312668E+00
        -11   -1    0    0    0    0  0.00000000000E+00  0.00000000000E+00  0.45593999997E+02  0.45594000000E+02  0.51100000000E-03 0. -1.
         11   -1    0    0    0    0 -0.00000000000E+00 -0.00000000000E+00 -0.45593999997E+02  0.45594000000E+02  0.51100000000E-03 0.  1.
    9900012    2    1    2    0    0  0.29521515248E+02 -0.11275591439E+02  0.29748316657E+02  0.47787295296E+02  0.20000110573E+02 0.  0.
        -12    1    1    2    0    0 -0.29521515248E+02  0.11275591439E+02 -0.29748316657E+02  0.43400704704E+02  0.00000000000E+00 0.  1.
         11    1    3    3    0    0  0.54002264146E+01  0.29364204782E+01  0.43578747257E+00  0.61623795352E+01  0.51100000000E-03 0. -1.
        -11    1    3    3    0    0  0.66544533351E+01 -0.69397030283E+01  0.15341886082E+02  0.18105653706E+02  0.51100000000E-03 0.  1.
         12    1    3    3    0    0  0.17466835498E+02 -0.72723088886E+01  0.13970643103E+02  0.23519262055E+02  0.00000000000E+00 0. -1.
</event>
<event>
 7    1  0.2950722E-010  0.4778727E+02  0.7816164E-02  0.1312668E+00
        -11   -1    0    0    0    0  0.00000000000E+00  0.00000000000E+00  0.45593999997E+02  0.45594000000E+02  0.51100000000E-03 0. -1.
         11   -1    0    0    0    0 -0.00000000000E+00 -0.00000000000E+00 -0.45593999997E+02  0.45594000000E+02  0.51100000000E-03 0.  1.
    9900012    2    1    2    0    0  0.32916923453E+02  0.49239978053E+00  0.28281741231E+02  0.47787271962E+02  0.20000004184E+02 0.  0.
        -12    1    1    2    0    0 -0.32916923453E+02 -0.49239978053E+00 -0.28281741231E+02  0.43400728038E+02  0.00000000000E+00 0.  1.
         11    1    3    3    0    0  0.42268312664E+01  0.65794697403E+00  0.11627848744E+02  0.12389748321E+02  0.51100000000E-03 0. -1.
        -11    1    3    3    0    0  0.98229975072E+01  0.24878422750E+01  0.62590735965E-01  0.10133338891E+02  0.51100000000E-03 0.  1.
        -12    1    3    3    0    0  0.18867094679E+02 -0.26533894685E+01  0.16591301751E+02  0.25264184750E+02  0.00000000000E+00 0.  1.
</event>
<event>
 7    1  0.2950722E-010  0.4778726E+02  0.7816164E-02  0.1312668E+00
        -11   -1    0    0    0    0  0.00000000000E+00  0.00000000000E+00  0.45593999997E+02  0.45594000000E+02  0.51100000000E-03 0.  1.
         11   -1    0    0    0    0 -0.00000000000E+00 -0.00000000000E+00 -0.45593999997E+02  0.45594000000E+02  0.51100000000E-03 0. -1.
    9900012    2    1    2    0    0  0.51898494869E+00  0.43392104298E+02 -0.69310420056E+00  0.47787257446E+02  0.19999937999E+02 0.  0.
        -12    1    1    2    0    0 -0.51898494869E+00 -0.43392104298E+02  0.69310420056E+00  0.43400742554E+02  0.00000000000E+00 0.  1.
         11    1    3    3    0    0  0.13481708366E-01  0.33325265180E+02  0.56009989510E+01  0.33792671847E+02  0.51100000000E-03 0. -1.
        -11    1    3    3    0    0 -0.12186756998E+01  0.83857261596E+01 -0.74866989046E+01  0.11307353114E+02  0.51100000000E-03 0.  1.
         12    1    3    3    0    0  0.17241789401E+01  0.16811129587E+01  0.11925957531E+01  0.26872324849E+01  0.00000000000E+00 0. -1.
</event>
<event>
 7    1  0.2950722E-010  0.4778727E+02  0.7816164E-02  0.1312668E+00
        -11   -1    0    0    0    0  0.00000000000E+00  0.00000000000E+00  0.45593999997E+02  0.45594000000E+02  0.51100000000E-03 0. -1.
         11   -1    0    0    0    0 -0.00000000000E+00 -0.00000000000E+00 -0.45593999997E+02  0.45594000000E+02  0.51100000000E-03 0.  1.
    9900012    2    1    2    0    0 -0.22096187644E+02 -0.27635697954E+02 -0.25132646976E+02  0.47787271275E+02  0.20000001052E+02 0.  0.
        -12    1    1    2    0    0  0.22096187644E+02  0.27635697954E+02  0.25132646976E+02  0.43400728725E+02  0.00000000000E+00 0.  1.
         11    1    3    3    0    0 -0.23771375568E+02 -0.18617605677E+02 -0.17108606527E+02  0.34704437110E+02  0.51100000000E-03 0. -1.
        -11    1    3    3    0    0  0.23949117439E+01 -0.85049232132E+01 -0.54979983716E+01  0.10406599227E+02  0.51100000000E-03 0.  1.
         12    1    3    3    0    0 -0.71972381949E+00 -0.51316906446E+00 -0.25260420779E+01  0.26762349382E+01  0.00000000000E+00 0. -1.
</event>
<event>
 7    1  0.2950722E-010  0.4778731E+02  0.7816164E-02  0.1312668E+00
        -11   -1    0    0    0    0  0.00000000000E+00  0.00000000000E+00  0.45593999997E+02  0.45594000000E+02  0.51100000000E-03 0.  1.
         11   -1    0    0    0    0 -0.00000000000E+00 -0.00000000000E+00 -0.45593999997E+02  0.45594000000E+02  0.51100000000E-03 0. -1.
    9900012    2    1    2    0    0  0.37418080534E+02  0.58264035199E+01 -0.21202843995E+02  0.47787305048E+02  0.20000155036E+02 0.  0.
        -12    1    1    2    0    0 -0.37418080534E+02 -0.58264035199E+01  0.21202843995E+02  0.43400694952E+02  0.00000000000E+00 0.  1.
         11    1    3    3    0    0  0.32105595642E+02 -0.13801521664E+01 -0.19022486832E+02  0.37343394289E+02  0.51100000000E-03 0. -1.
        -11    1    3    3    0    0  0.27250207140E+01  0.13496402346E+01  0.11196979090E+01  0.32405231558E+01  0.51100000000E-03 0.  1.
         12    1    3    3    0    0  0.25874641783E+01  0.58569154517E+01 -0.33000550721E+01  0.72033876032E+01  0.00000000000E+00 0. -1.
</event>
<event>
 7    1  0.2950722E-010  0.4778726E+02  0.7816164E-02  0.1312668E+00
        -11   -1    0    0    0    0  0.00000000000E+00  0.00000000000E+00  0.45593999997E+02  0.45594000000E+02  0.51100000000E-03 0.  1.
         11   -1    0    0    0    0 -0.00000000000E+00 -0.00000000000E+00 -0.45593999997E+02  0.45594000000E+02  0.51100000000E-03 0. -1.
    9900012    2    1    2    0    0 -0.31609377200E+02  0.28647900695E+02 -0.79855406482E+01  0.47787264976E+02  0.19999972331E+02 0.  0.
        -12    1    1    2    0    0  0.31609377200E+02 -0.28647900695E+02  0.79855406482E+01  0.43400735024E+02  0.00000000000E+00 0.  1.
         11    1    3    3    0    0 -0.16362985136E+02  0.17622421662E+02  0.18714142434E+01  0.24120514491E+02  0.51100000000E-03 0. -1.
        -11    1    3    3    0    0 -0.53985079644E+00 -0.18366399714E+01 -0.14291250446E+01  0.23889503806E+01  0.51100000000E-03 0.  1.
         12    1    3    3    0    0 -0.14706541268E+02  0.12862119004E+02 -0.84278298470E+01  0.21277800104E+02  0.00000000000E+00 0. -1.
</event>
<event>
 7    1  0.2950722E-010  0.4778728E+02  0.7816164E-02  0.1312668E+00
        -11   -1    0    0    0    0  0.00000000000E+00  0.00000000000E+00  0.45593999997E+02  0.45594000000E+02  0.51100000000E-03 0.  1.
         11   -1    0    0    0    0 -0.00000000000E+00 -0.00000000000E+00 -0.45593999997E+02  0.45594000000E+02  0.51100000000E-03 0. -1.
    9900012    2    1    2    0    0 -0.22591330685E+02 -0.28894676053E+02 -0.23202414274E+02  0.47787279332E+02  0.20000037788E+02 0.  0.
        -12    1    1    2    0    0  0.22591330685E+02  0.28894676053E+02  0.23202414274E+02  0.43400720668E+02  0.00000000000E+00 0.  1.
         11    1    3    3    0    0 -0.40039934226E+01 -0.60348845421E+01 -0.52273994414E+01  0.89318251184E+01  0.51100000000E-03 0. -1.
        -11    1    3    3    0    0 -0.12383973475E+02 -0.12981610480E+02 -0.20160922590E+02  0.26987919698E+02  0.51100000000E-03 0.  1.
        -12    1    3    3    0    0 -0.62033637877E+01 -0.98781810305E+01  0.21859077579E+01  0.11867534516E+02  0.00000000000E+00 0.  1.
</event>
<event>
 7    1  0.2950722E-010  0.4778727E+02  0.7816164E-02  0.1312668E+00
        -11   -1    0    0    0    0  0.00000000000E+00  0.00000000000E+00  0.45593999997E+02  0.45594000000E+02  0.51100000000E-03 0. -1.
         11   -1    0    0    0    0 -0.00000000000E+00 -0.00000000000E+00 -0.45593999997E+02  0.45594000000E+02  0.51100000000E-03 0.  1.
    9900012    2    1    2    0    0 -0.20088375032E+02 -0.89491981803E+01  0.37416468559E+02  0.47787273290E+02  0.20000010239E+02 0.  0.
        -12    1    1    2    0    0  0.20088375032E+02  0.89491981803E+01 -0.37416468559E+02  0.43400726710E+02  0.00000000000E+00 0.  1.
         11    1    3    3    0    0 -0.18313153957E+02 -0.14714165078E+01  0.17804108515E+02  0.25583646235E+02  0.51100000000E-03 0. -1.
        -11    1    3    3    0    0 -0.49278793593E+00 -0.51011984161E+01  0.18642696897E+02  0.19334301464E+02  0.51100000000E-03 0.  1.
         12    1    3    3    0    0 -0.12824331393E+01 -0.23765832565E+01  0.96966314713E+00  0.28693255916E+01  0.00000000000E+00 0. -1.
</event>
<event>
 7    1  0.2950722E-010  0.4778727E+02  0.7816164E-02  0.1312668E+00
        -11   -1    0    0    0    0  0.00000000000E+00  0.00000000000E+00  0.45593999997E+02  0.45594000000E+02  0.51100000000E-03 0.  1.
         11   -1    0    0    0    0 -0.00000000000E+00 -0.00000000000E+00 -0.45593999997E+02  0.45594000000E+02  0.51100000000E-03 0. -1.
    9900012    2    1    2    0    0 -0.86473849449E+01  0.29894262775E+02 -0.30251922934E+02  0.47787273573E+02  0.20000011529E+02 0.  0.
        -12    1    1    2    0    0  0.86473849449E+01 -0.29894262775E+02  0.30251922934E+02  0.43400726427E+02  0.00000000000E+00 0.  1.
         11    1    3    3    0    0 -0.78140325961E+01  0.17830469722E+02 -0.25017733150E+02  0.31699711799E+02  0.51100000000E-03 0. -1.
        -11    1    3    3    0    0 -0.30770386480E+01  0.43572648252E+01  0.15750066698E+01  0.55618854599E+01  0.51100000000E-03 0.  1.
        -12    1    3    3    0    0  0.22436862992E+01  0.77065282269E+01 -0.68091964533E+01  0.10525676314E+02  0.00000000000E+00 0.  1.
</event>
<event>
 7    1  0.2950722E-010  0.4778727E+02  0.7816164E-02  0.1312668E+00
        -11   -1    0    0    0    0  0.00000000000E+00  0.00000000000E+00  0.45593999997E+02  0.45594000000E+02  0.51100000000E-03 0. -1.
         11   -1    0    0    0    0 -0.00000000000E+00 -0.00000000000E+00 -0.45593999997E+02  0.45594000000E+02  0.51100000000E-03 0.  1.
    9900012    2    1    2    0    0 -0.14657366226E+02 -0.16098615354E+02  0.37544900042E+02  0.47787270511E+02  0.19999997567E+02 0.  0.
        -12    1    1    2    0    0  0.14657366226E+02  0.16098615354E+02 -0.37544900042E+02  0.43400729489E+02  0.00000000000E+00 0.  1.
         11    1    3    3    0    0 -0.20504053826E+01 -0.27357759814E+00  0.19247606828E+02  0.19358444560E+02  0.51100000000E-03 0. -1.
        -11    1    3    3    0    0  0.82066863921E+00 -0.16074641084E+01  0.33838985267E+01  0.38351280781E+01  0.51100000000E-03 0.  1.
         12    1    3    3    0    0 -0.13427629482E+02 -0.14217573647E+02  0.14913394688E+02  0.24593697873E+02  0.00000000000E+00 0. -1.
</event>
<event>
 7    1  0.2950722E-010  0.4778726E+02  0.7816164E-02  0.1312668E+00
        -11   -1    0    0    0    0  0.00000000000E+00  0.00000000000E+00  0.45593999997E+02  0.45594000000E+02  0.51100000000E-03 0.  1.
         11   -1    0    0    0    0 -0.00000000000E+00 -0.00000000000E+00 -0.45593999997E+02  0.45594000000E+02  0.51100000000E-03 0. -1.
    9900012    2    1    2    0    0 -0.40115628502E+02 -0.96340406049E+01 -0.13473879524E+02  0.47787264777E+02  0.19999971424E+02 0.  0.
        -12    1    1    2    0    0  0.40115628502E+02  0.96340406049E+01  0.13473879524E+02  0.43400735223E+02  0.00000000000E+00 0.  1.
         11    1    3    3    0    0 -0.30936248210E+02 -0.88846881353E+01 -0.35757874254E+01  0.32384801876E+02  0.51100000000E-03 0. -1.
        -11    1    3    3    0    0 -0.91756499043E+01  0.17164250990E+01 -0.77773373482E+01  0.12150129332E+02  0.51100000000E-03 0.  1.
         12    1    3    3    0    0 -0.37303872084E-02 -0.24657775686E+01 -0.21207547506E+01  0.32523335693E+01  0.00000000000E+00 0. -1.
</event>
<event>
 7    1  0.2950722E-010  0.4778726E+02  0.7816164E-02  0.1312668E+00
        -11   -1    0    0    0    0  0.00000000000E+00  0.00000000000E+00  0.45593999997E+02  0.45594000000E+02  0.51100000000E-03 0. -1.
         11   -1    0    0    0    0 -0.00000000000E+00 -0.00000000000E+00 -0.45593999997E+02  0.45594000000E+02  0.51100000000E-03 0.  1.
    9900012    2    1    2    0    0 -0.20224337779E+00  0.27899078326E+02  0.33244915306E+02  0.47787264205E+02  0.19999968818E+02 0.  0.
        -12    1    1    2    0    0  0.20224337779E+00 -0.27899078326E+02 -0.33244915306E+02  0.43400735795E+02  0.00000000000E+00 0.  1.
         11    1    3    3    0    0 -0.38971943613E+01  0.13268455760E+02  0.14201387925E+02  0.19822196180E+02  0.51100000000E-03 0. -1.
        -11    1    3    3    0    0 -0.19266857140E+01  0.42698082404E+01  0.14657506669E+02  0.15387848526E+02  0.51100000000E-03 0.  1.
        -12    1    3    3    0    0  0.56216366975E+01  0.10360814326E+02  0.43860207121E+01  0.12577219499E+02  0.00000000000E+00 0.  1.
</event>
<event>
 7    1  0.2950722E-010  0.4778728E+02  0.7816164E-02  0.1312668E+00
        -11   -1    0    0    0    0  0.00000000000E+00  0.00000000000E+00  0.45593999997E+02  0.45594000000E+02  0.51100000000E-03 0.  1.
         11   -1    0    0    0    0 -0.00000000000E+00 -0.00000000000E+00 -0.45593999997E+02  0.45594000000E+02  0.51100000000E-03 0. -1.
    9900012    2    1    2    0    0 -0.12653148926E+02 -0.40495305057E+02  0.91460877835E+01  0.47787276145E+02  0.20000023256E+02 0.  0.
        -12    1    1    2    0    0  0.12653148926E+02  0.40495305057E+02 -0.91460877835E+01  0.43400723855E+02  0.00000000000E+00 0.  1.
         11    1    3    3    0    0 -0.16399783327E+01 -0.24307556674E+01 -0.37985583778E+01  0.47986610691E+01  0.51100000000E-03 0. -1.
        -11    1    3    3    0    0 -0.12580854529E+02 -0.33739912106E+02  0.94983146121E+01  0.37240804910E+02  0.51100000000E-03 0.  1.
        -12    1    3    3    0    0  0.15676839359E+01 -0.43246372833E+01  0.34463315491E+01  0.57478101657E+01  0.00000000000E+00 0.  1.
</event>
<event>
 7    1  0.2950722E-010  0.4778726E+02  0.7816164E-02  0.1312668E+00
        -11   -1    0    0    0    0  0.00000000000E+00  0.00000000000E+00  0.45593999997E+02  0.45594000000E+02  0.51100000000E-03 0.  1.
         11   -1    0    0    0    0 -0.00000000000E+00 -0.00000000000E+00 -0.45593999997E+02  0.45594000000E+02  0.51100000000E-03 0. -1.
    9900012    2    1    2    0    0 -0.42768473122E+02 -0.72612498611E+01 -0.13251996817E+01  0.47787260410E+02  0.19999951515E+02 0.  0.
        -12    1    1    2    0    0  0.42768473122E+02  0.72612498611E+01  0.13251996817E+01  0.43400739590E+02  0.00000000000E+00 0.  1.
         11    1    3    3    0    0 -0.19965933590E+02 -0.23049408937E+00 -0.88422318757E+01  0.21837506645E+02  0.51100000000E-03 0. -1.
        -11    1    3    3    0    0 -0.14734920171E+02 -0.32932289743E+01  0.79193788255E+01  0.17049334027E+02  0.51100000000E-03 0.  1.
        -12    1    3    3    0    0 -0.80676193610E+01 -0.37375267975E+01 -0.40234663149E+00  0.89004197389E+01  0.00000000000E+00 0.  1.
</event>
<event>
 7    1  0.2950722E-010  0.4778727E+02  0.7816164E-02  0.1312668E+00
        -11   -1    0    0    0    0  0.00000000000E+00  0.00000000000E+00  0.45593999997E+02  0.45594000000E+02  0.51100000000E-03 0.  1.
         11   -1    0    0    0    0 -0.00000000000E+00 -0.00000000000E+00 -0.45593999997E+02  0.45594000000E+02  0.51100000000E-03 0. -1.
    9900012    2    1    2    0    0  0.10522225880E+02 -0.26133173147E+02 -0.33014592882E+02  0.47787270521E+02  0.19999997612E+02 0.  0.
        -12    1    1    2    0    0 -0.10522225880E+02  0.26133173147E+02  0.33014592882E+02  0.43400729479E+02  0.00000000000E+00 0.  1.
         11    1    3    3    0    0  0.58670648734E+01 -0.22533692724E+02 -0.18931426760E+02  0.30009809687E+02  0.51100000000E-03 0. -1.
        -11    1    3    3    0    0  0.16820187558E+01 -0.25720500216E+01  0.26866945789E+00  0.30849330539E+01  0.51100000000E-03 0.  1.
         12    1    3    3    0    0  0.29731422508E+01 -0.10274304019E+01 -0.14351835579E+02  0.14692527780E+02  0.00000000000E+00 0. -1.
</event>
<event>
 7    1  0.2950722E-010  0.4778727E+02  0.7816164E-02  0.1312668E+00
        -11   -1    0    0    0    0  0.00000000000E+00  0.00000000000E+00  0.45593999997E+02  0.45594000000E+02  0.51100000000E-03 0.  1.
         11   -1    0    0    0    0 -0.00000000000E+00 -0.00000000000E+00 -0.45593999997E+02  0.45594000000E+02  0.51100000000E-03 0. -1.
    9900012    2    1    2    0    0  0.13688572981E+02  0.26898776775E+02 -0.31188170476E+02  0.47787271897E+02  0.20000003886E+02 0.  0.
        -12    1    1    2    0    0 -0.13688572981E+02 -0.26898776775E+02  0.31188170476E+02  0.43400728103E+02  0.00000000000E+00 0.  1.
         11    1    3    3    0    0  0.14478853175E+02  0.20378716666E+02 -0.13431540202E+02  0.28378434676E+02  0.51100000000E-03 0. -1.
        -11    1    3    3    0    0 -0.16329903245E+01  0.48946427961E+01 -0.82739408475E+01  0.97510144554E+01  0.51100000000E-03 0.  1.
         12    1    3    3    0    0  0.84271013141E+00  0.16254173135E+01 -0.94826894266E+01  0.96578227655E+01  0.00000000000E+00 0. -1.
</event>
<event>
 7    1  0.2950722E-010  0.4778724E+02  0.7816164E-02  0.1312668E+00
        -11   -1    0    0    0    0  0.00000000000E+00  0.00000000000E+00  0.45593999997E+02  0.45594000000E+02  0.51100000000E-03 0. -1.
         11   -1    0    0    0    0 -0.00000000000E+00 -0.00000000000E+00 -0.45593999997E+02  0.45594000000E+02  0.51100000000E-03 0.  1.
    9900012    2    1    2    0    0  0.60505535471E+00 -0.17326464066E+02  0.39787610466E+02  0.47787235081E+02  0.19999836026E+02 0.  0.
        -12    1    1    2    0    0 -0.60505535471E+00  0.17326464066E+02 -0.39787610466E+02  0.43400764919E+02  0.00000000000E+00 0.  1.
         11    1    3    3    0    0 -0.12974491066E+01 -0.64006630080E+01  0.17382611856E+01  0.67582108088E+01  0.51100000000E-03 0. -1.
        -11    1    3    3    0    0  0.93701778081E-01  0.78344019528E+00  0.15816892601E+02  0.15836560560E+02  0.51100000000E-03 0.  1.
         12    1    3    3    0    0  0.18088026832E+01 -0.11709241253E+02  0.22232456680E+02  0.25192463712E+02  0.00000000000E+00 0. -1.
</event>
<event>
 7    1  0.2950722E-010  0.4778727E+02  0.7816164E-02  0.1312668E+00
        -11   -1    0    0    0    0  0.00000000000E+00  0.00000000000E+00  0.45593999997E+02  0.45594000000E+02  0.51100000000E-03 0.  1.
         11   -1    0    0    0    0 -0.00000000000E+00 -0.00000000000E+00 -0.45593999997E+02  0.45594000000E+02  0.51100000000E-03 0. -1.
    9900012    2    1    2    0    0  0.19581341799E+02  0.18604642739E+02 -0.33971478529E+02  0.47787273836E+02  0.20000012729E+02 0.  0.
        -12    1    1    2    0    0 -0.19581341799E+02 -0.18604642739E+02  0.33971478529E+02  0.43400726164E+02  0.00000000000E+00 0.  1.
         11    1    3    3    0    0  0.12257841628E+02  0.40823725490E+01 -0.21587212569E+02  0.25158064189E+02  0.51100000000E-03 0. -1.
        -11    1    3    3    0    0 -0.22751617316E+01  0.31570738923E+01 -0.38727090737E+01  0.54901140514E+01  0.51100000000E-03 0.  1.
         12    1    3    3    0    0  0.95986619028E+01  0.11365196298E+02 -0.85115568864E+01  0.17139095596E+02  0.00000000000E+00 0. -1.
</event>
<event>
 7    1  0.2950722E-010  0.4778727E+02  0.7816164E-02  0.1312668E+00
        -11   -1    0    0    0    0  0.00000000000E+00  0.00000000000E+00  0.45593999997E+02  0.45594000000E+02  0.51100000000E-03 0. -1.
         11   -1    0    0    0    0 -0.00000000000E+00 -0.00000000000E+00 -0.45593999997E+02  0.45594000000E+02  0.51100000000E-03 0.  1.
    9900012    2    1    2    0    0  0.32767766189E+02 -0.28346404479E+02 -0.25254743123E+01  0.47787272260E+02  0.20000005541E+02 0.  0.
        -12    1    1    2    0    0 -0.32767766189E+02  0.28346404479E+02  0.25254743123E+01  0.43400727740E+02  0.00000000000E+00 0.  1.
         11    1    3    3    0    0  0.23920368887E+01 -0.10110823335E+02 -0.55649924791E+00  0.10404820069E+02  0.51100000000E-03 0. -1.
        -11    1    3    3    0    0  0.12777061200E+02 -0.30148835388E+01 -0.47245621547E+01  0.13952215003E+02  0.51100000000E-03 0.  1.
        -12    1    3    3    0    0  0.17598668100E+02 -0.15220697605E+02  0.27555870903E+01  0.23430237188E+02  0.00000000000E+00 0.  1.
</event>
<event>
 7    1  0.2950722E-010  0.4778727E+02  0.7816164E-02  0.1312668E+00
        -11   -1    0    0    0    0  0.00000000000E+00  0.00000000000E+00  0.45593999997E+02  0.45594000000E+02  0.51100000000E-03 0. -1.
         11   -1    0    0    0    0 -0.00000000000E+00 -0.00000000000E+00 -0.45593999997E+02  0.45594000000E+02  0.51100000000E-03 0.  1.
    9900012    2    1    2    0    0 -0.14625040271E+01 -0.38350316078E+02  0.20266662917E+02  0.47787270892E+02  0.19999999306E+02 0.  0.
        -12    1    1    2    0    0  0.14625040271E+01  0.38350316078E+02 -0.20266662917E+02  0.43400729108E+02  0.00000000000E+00 0.  1.
         11    1    3    3    0    0  0.48288460965E+01 -0.30990150859E+02  0.16497495643E+02  0.35438320610E+02  0.51100000000E-03 0. -1.
        -11    1    3    3    0    0 -0.29771019643E+01 -0.10270011141E+01 -0.14809281079E+01  0.34800884638E+01  0.51100000000E-03 0.  1.
        -12    1    3    3    0    0 -0.33142481593E+01 -0.63331641047E+01  0.52500953818E+01  0.88688618186E+01  0.00000000000E+00 0.  1.
</event>
<event>
 7    1  0.2950722E-010  0.4778730E+02  0.7816164E-02  0.1312668E+00
        -11   -1    0    0    0    0  0.00000000000E+00  0.00000000000E+00  0.45593999997E+02  0.45594000000E+02  0.51100000000E-03 0.  1.
         11   -1    0    0    0    0 -0.00000000000E+00 -0.00000000000E+00 -0.45593999997E+02  0.45594000000E+02  0.51100000000E-03 0. -1.
    9900012    2    1    2    0    0  0.61528681470E+00  0.72732791256E+01 -0.42782489074E+02  0.47787302558E+02  0.20000143683E+02 0.  0.
        -12    1    1    2    0    0 -0.61528681470E+00 -0.72732791256E+01  0.42782489074E+02  0.43400697442E+02  0.00000000000E+00 0.  1.
         11    1    3    3    0    0 -0.64044718632E+00  0.75059192812E+01 -0.24793646839E+02  0.25912813832E+02  0.51100000000E-03 0. -1.
        -11    1    3    3    0    0 -0.57255322381E+00 -0.40504307607E+01 -0.79498077043E+00  0.41672294426E+01  0.51100000000E-03 0.  1.
        -12    1    3    3    0    0  0.18282872248E+01  0.38177906051E+01 -0.17193861464E+02  0.17707259284E+02  0.00000000000E+00 0.  1.
</event>
<event>
 7    1  0.2950722E-010  0.4778727E+02  0.7816164E-02  0.1312668E+00
        -11   -1    0    0    0    0  0.00000000000E+00  0.00000000000E+00  0.45593999997E+02  0.45594000000E+02  0.51100000000E-03 0. -1.
         11   -1    0    0    0    0 -0.00000000000E+00 -0.00000000000E+00 -0.45593999997E+02  0.45594000000E+02  0.51100000000E-03 0.  1.
    9900012    2    1    2    0    0 -0.21837591557E+02 -0.37506532511E+02 -0.54483053597E-01  0.47787270117E+02  0.19999995770E+02 0.  0.
        -12    1    1    2    0    0  0.21837591557E+02  0.37506532511E+02  0.54483053597E-01  0.43400729883E+02  0.00000000000E+00 0.  1.
         11    1    3    3    0    0 -0.15661992416E+02 -0.15976384142E+02  0.32944866109E+01  0.22614077451E+02  0.51100000000E-03 0. -1.
        -11    1    3    3    0    0 -0.62443036934E+00 -0.18057690663E+02 -0.61895764103E+00  0.18079082227E+02  0.51100000000E-03 0.  1.
        -12    1    3    3    0    0 -0.55511687724E+01 -0.34724577062E+01 -0.27300120235E+01  0.70941104382E+01  0.00000000000E+00 0.  1.
</event>
<event>
 7    1  0.2950722E-010  0.4778727E+02  0.7816164E-02  0.1312668E+00
        -11   -1    0    0    0    0  0.00000000000E+00  0.00000000000E+00  0.45593999997E+02  0.45594000000E+02  0.51100000000E-03 0. -1.
         11   -1    0    0    0    0 -0.00000000000E+00 -0.00000000000E+00 -0.45593999997E+02  0.45594000000E+02  0.51100000000E-03 0.  1.
    9900012    2    1    2    0    0 -0.27921874789E+02 -0.27703901050E+02  0.18343568131E+02  0.47787265940E+02  0.19999976728E+02 0.  0.
        -12    1    1    2    0    0  0.27921874789E+02  0.27703901050E+02 -0.18343568131E+02  0.43400734060E+02  0.00000000000E+00 0.  1.
         11    1    3    3    0    0 -0.18722154978E+02 -0.20025645198E+02  0.21956466559E+02  0.35123097481E+02  0.51100000000E-03 0. -1.
        -11    1    3    3    0    0 -0.52515453454E+01 -0.50404268213E+01 -0.30135514405E+01  0.78782056079E+01  0.51100000000E-03 0.  1.
         12    1    3    3    0    0 -0.39481744650E+01 -0.26378290310E+01 -0.59934698739E+00  0.47859628514E+01  0.00000000000E+00 0. -1.
</event>
<event>
 7    1  0.2950722E-010  0.4778727E+02  0.7816164E-02  0.1312668E+00
        -11   -1    0    0    0    0  0.00000000000E+00  0.00000000000E+00  0.45593999997E+02  0.45594000000E+02  0.51100000000E-03 0.  1.
         11   -1    0    0    0    0 -0.00000000000E+00 -0.00000000000E+00 -0.45593999997E+02  0.45594000000E+02  0.51100000000E-03 0. -1.
    9900012    2    1    2    0    0  0.17603578333E+01  0.33479946514E+02 -0.27561165203E+02  0.47787268374E+02  0.19999987826E+02 0.  0.
        -12    1    1    2    0    0 -0.17603578333E+01 -0.33479946514E+02  0.27561165203E+02  0.43400731626E+02  0.00000000000E+00 0.  1.
         11    1    3    3    0    0 -0.30603950072E+00  0.34144278996E+02 -0.25169610215E+02  0.42419744541E+02  0.51100000000E-03 0. -1.
        -11    1    3    3    0    0  0.20664472389E+01 -0.11495521868E+01  0.51553590005E+00  0.24202173346E+01  0.51100000000E-03 0.  1.
        -12    1    3    3    0    0 -0.49904908640E-04  0.48521970556E+00 -0.29070908877E+01  0.29473064982E+01  0.00000000000E+00 0.  1.
</event>
<event>
 7    1  0.2950722E-010  0.4778728E+02  0.7816164E-02  0.1312668E+00
        -11   -1    0    0    0    0  0.00000000000E+00  0.00000000000E+00  0.45593999997E+02  0.45594000000E+02  0.51100000000E-03 0.  1.
         11   -1    0    0    0    0 -0.00000000000E+00 -0.00000000000E+00 -0.45593999997E+02  0.45594000000E+02  0.51100000000E-03 0. -1.
    9900012    2    1    2    0    0  0.36523232437E+02 -0.20564685335E+02 -0.11259209073E+02  0.47787279044E+02  0.20000036472E+02 0.  0.
        -12    1    1    2    0    0 -0.36523232437E+02  0.20564685335E+02  0.11259209073E+02  0.43400720956E+02  0.00000000000E+00 0.  1.
         11    1    3    3    0    0  0.13505209868E+02 -0.11680993593E+02 -0.13849134633E+01  0.17909614469E+02  0.51100000000E-03 0. -1.
        -11    1    3    3    0    0  0.10295945399E+02  0.29990501539E+01 -0.27725633606E+01  0.11076457075E+02  0.51100000000E-03 0.  1.
        -12    1    3    3    0    0  0.12722077170E+02 -0.11882741896E+02 -0.71017322489E+01  0.18801207499E+02  0.00000000000E+00 0.  1.
</event>
<event>
 7    1  0.2950722E-010  0.4778728E+02  0.7816164E-02  0.1312668E+00
        -11   -1    0    0    0    0  0.00000000000E+00  0.00000000000E+00  0.45593999997E+02  0.45594000000E+02  0.51100000000E-03 0.  1.
         11   -1    0    0    0    0 -0.00000000000E+00 -0.00000000000E+00 -0.45593999997E+02  0.45594000000E+02  0.51100000000E-03 0. -1.
    9900012    2    1    2    0    0  0.35483052720E+00  0.35116872876E+02 -0.25501020359E+02  0.47787277602E+02  0.20000029899E+02 0.  0.
        -12    1    1    2    0    0 -0.35483052720E+00 -0.35116872876E+02  0.25501020359E+02  0.43400722398E+02  0.00000000000E+00 0.  1.
         11    1    3    3    0    0  0.25951531188E+01  0.73028055428E+01 -0.73652021378E+01  0.10691678601E+02  0.51100000000E-03 0. -1.
        -11    1    3    3    0    0  0.72115739854E+00 -0.21209460677E+01 -0.81317975750E+00  0.23832208867E+01  0.51100000000E-03 0.  1.
        -12    1    3    3    0    0 -0.29614799902E+01  0.29935013401E+02 -0.17322638464E+02  0.34712378115E+02  0.00000000000E+00 0.  1.
</event>
<event>
 7    1  0.2950722E-010  0.4778727E+02  0.7816164E-02  0.1312668E+00
        -11   -1    0    0    0    0  0.00000000000E+00  0.00000000000E+00  0.45593999997E+02  0.45594000000E+02  0.51100000000E-03 0.  1.
         11   -1    0    0    0    0 -0.00000000000E+00 -0.00000000000E+00 -0.45593999997E+02  0.45594000000E+02  0.51100000000E-03 0. -1.
    9900012    2    1    2    0    0 -0.19042474185E+02  0.33118284287E+02 -0.20595790706E+02  0.47787272218E+02  0.20000005350E+02 0.  0.
        -12    1    1    2    0    0  0.19042474185E+02 -0.33118284287E+02  0.20595790706E+02  0.43400727782E+02  0.00000000000E+00 0.  1.
         11    1    3    3    0    0 -0.63984947254E+01  0.40638693808E+01 -0.84149023699E+01  0.11325473555E+02  0.51100000000E-03 0. -1.
        -11    1    3    3    0    0 -0.11676221716E+02  0.16847907856E+02 -0.21085604770E+01  0.20606605257E+02  0.51100000000E-03 0.  1.
        -12    1    3    3    0    0 -0.96775774379E+00  0.12206507051E+02 -0.10072327859E+02  0.15855193406E+02  0.00000000000E+00 0.  1.
</event>
<event>
 7    1  0.2950722E-010  0.4778727E+02  0.7816164E-02  0.1312668E+00
        -11   -1    0    0    0    0  0.00000000000E+00  0.00000000000E+00  0.45593999997E+02  0.45594000000E+02  0.51100000000E-03 0.  1.
         11   -1    0    0    0    0 -0.00000000000E+00 -0.00000000000E+00 -0.45593999997E+02  0.45594000000E+02  0.51100000000E-03 0. -1.
    9900012    2    1    2    0    0  0.53559697898E+01  0.15474949981E+02 -0.40192819540E+02  0.47787271528E+02  0.20000002207E+02 0.  0.
        -12    1    1    2    0    0 -0.53559697898E+01 -0.15474949981E+02  0.40192819540E+02  0.43400728472E+02  0.00000000000E+00 0.  1.
         11    1    3    3    0    0  0.47085447086E-01 -0.18521157906E+00 -0.21120923054E+02  0.21121787596E+02  0.51100000000E-03 0. -1.
        -11    1    3    3    0    0  0.74326706037E+01  0.12468387636E+02 -0.16826962944E+02  0.22222780310E+02  0.51100000000E-03 0.  1.
        -12    1    3    3    0    0 -0.21237862610E+01  0.31917739234E+01 -0.22449335427E+01  0.44427036219E+01  0.00000000000E+00 0.  1.
</event>
<event>
 7    1  0.2950722E-010  0.4778727E+02  0.7816164E-02  0.1312668E+00
        -11   -1    0    0    0    0  0.00000000000E+00  0.00000000000E+00  0.45593999997E+02  0.45594000000E+02  0.51100000000E-03 0.  1.
         11   -1    0    0    0    0 -0.00000000000E+00 -0.00000000000E+00 -0.45593999997E+02  0.45594000000E+02  0.51100000000E-03 0. -1.
    9900012    2    1    2    0    0 -0.21324523279E+01 -0.41927166653E+02 -0.11008567900E+02  0.47787271623E+02  0.20000002638E+02 0.  0.
        -12    1    1    2    0    0  0.21324523279E+01  0.41927166653E+02  0.11008567900E+02  0.43400728377E+02  0.00000000000E+00 0.  1.
         11    1    3    3    0    0 -0.11508188689E+01 -0.11254715199E+02 -0.90725908455E+01  0.14501893090E+02  0.51100000000E-03 0. -1.
        -11    1    3    3    0    0  0.33694833448E+01 -0.26065891385E+02  0.99967926074E+00  0.26301776948E+02  0.51100000000E-03 0.  1.
        -12    1    3    3    0    0 -0.43511168038E+01 -0.46065600681E+01 -0.29356563147E+01  0.69836015851E+01  0.00000000000E+00 0.  1.
</event>
<event>
 7    1  0.2950722E-010  0.4778727E+02  0.7816164E-02  0.1312668E+00
        -11   -1    0    0    0    0  0.00000000000E+00  0.00000000000E+00  0.45593999997E+02  0.45594000000E+02  0.51100000000E-03 0.  1.
         11   -1    0    0    0    0 -0.00000000000E+00 -0.00000000000E+00 -0.45593999997E+02  0.45594000000E+02  0.51100000000E-03 0. -1.
    9900012    2    1    2    0    0  0.41324577568E+02  0.28243407219E+01  0.12958621472E+02  0.47787268644E+02  0.19999989058E+02 0.  0.
        -12    1    1    2    0    0 -0.41324577568E+02 -0.28243407219E+01 -0.12958621472E+02  0.43400731356E+02  0.00000000000E+00 0.  1.
         11    1    3    3    0    0  0.20976274215E+02 -0.22754505995E+01  0.58427379647E+01  0.21893362979E+02  0.51100000000E-03 0. -1.
        -11    1    3    3    0    0  0.83823276243E+01  0.89995272162E+01  0.30990429195E+01  0.12683019112E+02  0.51100000000E-03 0.  1.
        -12    1    3    3    0    0  0.11965975730E+02 -0.38997358949E+01  0.40168405882E+01  0.13210886553E+02  0.00000000000E+00 0.  1.
</event>
<event>
 7    1  0.2950722E-010  0.4778724E+02  0.7816164E-02  0.1312668E+00
        -11   -1    0    0    0    0  0.00000000000E+00  0.00000000000E+00  0.45593999997E+02  0.45594000000E+02  0.51100000000E-03 0.  1.
         11   -1    0    0    0    0 -0.00000000000E+00 -0.00000000000E+00 -0.45593999997E+02  0.45594000000E+02  0.51100000000E-03 0. -1.
    9900012    2    1    2    0    0  0.34259630640E+02  0.23280664629E+02 -0.12958183857E+02  0.47787237725E+02  0.19999848085E+02 0.  0.
        -12    1    1    2    0    0 -0.34259630640E+02 -0.23280664629E+02  0.12958183857E+02  0.43400762275E+02  0.00000000000E+00 0.  1.
         11    1    3    3    0    0  0.20878323317E+02  0.14822149521E+02 -0.12399309546E+02  0.28448960938E+02  0.51100000000E-03 0. -1.
        -11    1    3    3    0    0  0.69329048380E+01  0.77267574316E+01  0.42945616026E+01  0.11234376241E+02  0.51100000000E-03 0.  1.
         12    1    3    3    0    0  0.64484024848E+01  0.73175767563E+00 -0.48534359135E+01  0.81039005465E+01  0.00000000000E+00 0. -1.
</event>
<event>
 7    1  0.2950722E-010  0.4778728E+02  0.7816164E-02  0.1312668E+00
        -11   -1    0    0    0    0  0.00000000000E+00  0.00000000000E+00  0.45593999997E+02  0.45594000000E+02  0.51100000000E-03 0. -1.
         11   -1    0    0    0    0 -0.00000000000E+00 -0.00000000000E+00 -0.45593999997E+02  0.45594000000E+02  0.51100000000E-03 0.  1.
    9900012    2    1    2    0    0  0.15641656351E+02  0.16200808374E+02  0.37101149348E+02  0.47787275486E+02  0.20000020250E+02 0.  0.
        -12    1    1    2    0    0 -0.15641656351E+02 -0.16200808374E+02 -0.37101149348E+02  0.43400724514E+02  0.00000000000E+00 0.  1.
         11    1    3    3    0    0  0.78511324123E+01 -0.32449955165E+00  0.13058872367E+02  0.15240725962E+02  0.51100000000E-03 0. -1.
        -11    1    3    3    0    0  0.36717880766E+01 -0.98354748168E+00  0.28548143389E+01  0.47538782588E+01  0.51100000000E-03 0.  1.
         12    1    3    3    0    0  0.41187358622E+01  0.17508855407E+02  0.21187462643E+02  0.27792671265E+02  0.00000000000E+00 0. -1.
</event>
<event>
 7    1  0.2950722E-010  0.4778727E+02  0.7816164E-02  0.1312668E+00
        -11   -1    0    0    0    0  0.00000000000E+00  0.00000000000E+00  0.45593999997E+02  0.45594000000E+02  0.51100000000E-03 0. -1.
         11   -1    0    0    0    0 -0.00000000000E+00 -0.00000000000E+00 -0.45593999997E+02  0.45594000000E+02  0.51100000000E-03 0.  1.
    9900012    2    1    2    0    0  0.20620483890E+02 -0.20747818609E+02  0.32061612056E+02  0.47787270738E+02  0.19999998603E+02 0.  0.
        -12    1    1    2    0    0 -0.20620483890E+02  0.20747818609E+02 -0.32061612056E+02  0.43400729262E+02  0.00000000000E+00 0.  1.
         11    1    3    3    0    0  0.93126944491E+01 -0.20015106999E+02  0.15219424141E+02  0.26813460380E+02  0.51100000000E-03 0. -1.
        -11    1    3    3    0    0  0.41305393826E+00 -0.63201948332E+00  0.42757055332E+01  0.43418567746E+01  0.51100000000E-03 0.  1.
         12    1    3    3    0    0  0.10894735502E+02 -0.10069212613E+00  0.12566482381E+02  0.16631953584E+02  0.00000000000E+00 0. -1.
</event>
<event>
 7    1  0.2950722E-010  0.4778727E+02  0.7816164E-02  0.1312668E+00
        -11   -1    0    0    0    0  0.00000000000E+00  0.00000000000E+00  0.45593999997E+02  0.45594000000E+02  0.51100000000E-03 0. -1.
         11   -1    0    0    0    0 -0.00000000000E+00 -0.00000000000E+00 -0.45593999997E+02  0.45594000000E+02  0.51100000000E-03 0.  1.
    9900012    2    1    2    0    0  0.23244190101E+01 -0.43215878018E+02  0.32570388798E+01  0.47787270296E+02  0.19999996588E+02 0.  0.
        -12    1    1    2    0    0 -0.23244190101E+01  0.43215878018E+02 -0.32570388798E+01  0.43400729704E+02  0.00000000000E+00 0.  1.
         11    1    3    3    0    0  0.49053873583E+01 -0.31916841295E+02  0.25930079738E+01  0.32395544045E+02  0.51100000000E-03 0. -1.
        -11    1    3    3    0    0 -0.84077879802E+00  0.33149847811E-01 -0.31877862937E+01  0.32969667294E+01  0.51100000000E-03 0.  1.
         12    1    3    3    0    0 -0.17401895502E+01 -0.11332186571E+02  0.38518171997E+01  0.12094759522E+02  0.00000000000E+00 0. -1.
</event>
<event>
 7    1  0.2950722E-010  0.4778727E+02  0.7816164E-02  0.1312668E+00
        -11   -1    0    0    0    0  0.00000000000E+00  0.00000000000E+00  0.45593999997E+02  0.45594000000E+02  0.51100000000E-03 0. -1.
         11   -1    0    0    0    0 -0.00000000000E+00 -0.00000000000E+00 -0.45593999997E+02  0.45594000000E+02  0.51100000000E-03 0.  1.
    9900012    2    1    2    0    0  0.35628378146E+01 -0.64063697970E+01  0.42777186989E+02  0.47787272886E+02  0.20000008398E+02 0.  0.
        -12    1    1    2    0    0 -0.35628378146E+01  0.64063697970E+01 -0.42777186989E+02  0.43400727114E+02  0.00000000000E+00 0.  1.
         11    1    3    3    0    0  0.80321218539E+01  0.36391785152E+00  0.30227330566E+02  0.31278409983E+02  0.51100000000E-03 0. -1.
        -11    1    3    3    0    0 -0.53311468010E+01 -0.72203179781E+01  0.12672485848E+02  0.15528876835E+02  0.51100000000E-03 0.  1.
         12    1    3    3    0    0  0.86186276180E+00  0.45003032955E+00 -0.12262942484E+00  0.97998606803E+00  0.00000000000E+00 0. -1.
</event>
<event>
 7    1  0.2950722E-010  0.4778727E+02  0.7816164E-02  0.1312668E+00
        -11   -1    0    0    0    0  0.00000000000E+00  0.00000000000E+00  0.45593999997E+02  0.45594000000E+02  0.51100000000E-03 0.  1.
         11   -1    0    0    0    0 -0.00000000000E+00 -0.00000000000E+00 -0.45593999997E+02  0.45594000000E+02  0.51100000000E-03 0. -1.
    9900012    2    1    2    0    0 -0.24518925991E+02 -0.18198235506E+02 -0.30842660342E+02  0.47787271846E+02  0.20000003657E+02 0.  0.
        -12    1    1    2    0    0  0.24518925991E+02  0.18198235506E+02  0.30842660342E+02  0.43400728154E+02  0.00000000000E+00 0.  1.
         11    1    3    3    0    0 -0.14197842718E+02 -0.50731409362E+01 -0.18357993743E+02  0.23755661037E+02  0.51100000000E-03 0. -1.
        -11    1    3    3    0    0 -0.61363717352E+01 -0.71917757538E+01  0.15479146704E+00  0.94551920776E+01  0.51100000000E-03 0.  1.
        -12    1    3    3    0    0 -0.41847115383E+01 -0.59333188162E+01 -0.12639458066E+02  0.14576418731E+02  0.00000000000E+00 0.  1.
</event>
<event>
 7    1  0.2950722E-010  0.4778727E+02  0.7816164E-02  0.1312668E+00
        -11   -1    0    0    0    0  0.00000000000E+00  0.00000000000E+00  0.45593999997E+02  0.45594000000E+02  0.51100000000E-03 0.  1.
         11   -1    0    0    0    0 -0.00000000000E+00 -0.00000000000E+00 -0.45593999997E+02  0.45594000000E+02  0.51100000000E-03 0. -1.
    9900012    2    1    2    0    0  0.14723906961E+02 -0.30185211275E+02 -0.27489688484E+02  0.47787269720E+02  0.19999993961E+02 0.  0.
        -12    1    1    2    0    0 -0.14723906961E+02  0.30185211275E+02  0.27489688484E+02  0.43400730280E+02  0.00000000000E+00 0.  1.
         11    1    3    3    0    0  0.81958994204E+01 -0.11862049057E+02 -0.17699345726E+02  0.22828662128E+02  0.51100000000E-03 0. -1.
        -11    1    3    3    0    0 -0.56061318493E+00 -0.11773091821E+02 -0.87389877558E+00  0.11818784942E+02  0.51100000000E-03 0.  1.
         12    1    3    3    0    0  0.70886207253E+01 -0.65500703966E+01 -0.89164439819E+01  0.13139822650E+02  0.00000000000E+00 0. -1.
</event>
<event>
 7    1  0.2950722E-010  0.4778727E+02  0.7816164E-02  0.1312668E+00
        -11   -1    0    0    0    0  0.00000000000E+00  0.00000000000E+00  0.45593999997E+02  0.45594000000E+02  0.51100000000E-03 0.  1.
         11   -1    0    0    0    0 -0.00000000000E+00 -0.00000000000E+00 -0.45593999997E+02  0.45594000000E+02  0.51100000000E-03 0. -1.
    9900012    2    1    2    0    0  0.11533396305E+02  0.66899274911E+01 -0.41301925839E+02  0.47787269151E+02  0.19999991368E+02 0.  0.
        -12    1    1    2    0    0 -0.11533396305E+02 -0.66899274911E+01  0.41301925839E+02  0.43400730849E+02  0.00000000000E+00 0.  1.
         11    1    3    3    0    0  0.16602069228E+01  0.55763407487E+00 -0.23275532697E+02  0.23341329555E+02  0.51100000000E-03 0. -1.
        -11    1    3    3    0    0  0.95325118374E+00  0.33078551742E+01  0.69936314670E+00  0.35127913039E+01  0.51100000000E-03 0.  1.
        -12    1    3    3    0    0  0.89199381987E+01  0.28244382420E+01 -0.18725756289E+02  0.20933148293E+02  0.00000000000E+00 0.  1.
</event>
<event>
 7    1  0.2950722E-010  0.4778727E+02  0.7816164E-02  0.1312668E+00
        -11   -1    0    0    0    0  0.00000000000E+00  0.00000000000E+00  0.45593999997E+02  0.45594000000E+02  0.51100000000E-03 0. -1.
         11   -1    0    0    0    0 -0.00000000000E+00 -0.00000000000E+00 -0.45593999997E+02  0.45594000000E+02  0.51100000000E-03 0.  1.
    9900012    2    1    2    0    0  0.27825635759E+02 -0.11531233793E+02  0.31247205115E+02  0.47787272061E+02  0.20000004633E+02 0.  0.
        -12    1    1    2    0    0 -0.27825635759E+02  0.11531233793E+02 -0.31247205115E+02  0.43400727939E+02  0.00000000000E+00 0.  1.
         11    1    3    3    0    0  0.69452139696E+01 -0.11774742810E+02  0.17550857103E+02  0.22246643581E+02  0.51100000000E-03 0. -1.
        -11    1    3    3    0    0  0.14737579093E+02 -0.14604171670E+01  0.11658418287E+02  0.18848017749E+02  0.51100000000E-03 0.  1.
         12    1    3    3    0    0  0.61428426964E+01  0.17039261838E+01  0.20379297241E+01  0.66926107307E+01  0.00000000000E+00 0. -1.
</event>
<event>
 7    1  0.2950722E-010  0.4778727E+02  0.7816164E-02  0.1312668E+00
        -11   -1    0    0    0    0  0.00000000000E+00  0.00000000000E+00  0.45593999997E+02  0.45594000000E+02  0.51100000000E-03 0.  1.
         11   -1    0    0    0    0 -0.00000000000E+00 -0.00000000000E+00 -0.45593999997E+02  0.45594000000E+02  0.51100000000E-03 0. -1.
    9900012    2    1    2    0    0  0.63035800071E+01 -0.67885758384E+01 -0.42400513695E+02  0.47787269079E+02  0.19999991041E+02 0.  0.
        -12    1    1    2    0    0 -0.63035800071E+01  0.67885758384E+01  0.42400513695E+02  0.43400730921E+02  0.00000000000E+00 0.  1.
         11    1    3    3    0    0  0.40776918626E+01  0.42318209709E+01 -0.45869747781E+01  0.74549458436E+01  0.51100000000E-03 0. -1.
        -11    1    3    3    0    0  0.32662766340E+01 -0.81284359360E+01 -0.15467555584E+02  0.17775975636E+02  0.51100000000E-03 0.  1.
         12    1    3    3    0    0 -0.10403884895E+01 -0.28919608732E+01 -0.22345983334E+02  0.22556347600E+02  0.00000000000E+00 0. -1.
</event>
<event>
 7    1  0.2950722E-010  0.4778727E+02  0.7816164E-02  0.1312668E+00
        -11   -1    0    0    0    0  0.00000000000E+00  0.00000000000E+00  0.45593999997E+02  0.45594000000E+02  0.51100000000E-03 0.  1.
         11   -1    0    0    0    0 -0.00000000000E+00 -0.00000000000E+00 -0.45593999997E+02  0.45594000000E+02  0.51100000000E-03 0. -1.
    9900012    2    1    2    0    0  0.11254267239E+02  0.19490590915E+01 -0.41870823410E+02  0.47787271718E+02  0.20000003069E+02 0.  0.
        -12    1    1    2    0    0 -0.11254267239E+02 -0.19490590915E+01  0.41870823410E+02  0.43400728282E+02  0.00000000000E+00 0.  1.
         11    1    3    3    0    0  0.52529223313E+01 -0.45090446151E+01 -0.40848653475E+01  0.80380844440E+01  0.51100000000E-03 0. -1.
        -11    1    3    3    0    0  0.95240907585E+00 -0.91284006521E+00 -0.50493689329E+00  0.14125585155E+01  0.51100000000E-03 0.  1.
         12    1    3    3    0    0  0.50489358318E+01  0.73709437718E+01 -0.37281021169E+02  0.38336628758E+02  0.00000000000E+00 0. -1.
</event>
<event>
 7    1  0.2950722E-010  0.4778727E+02  0.7816164E-02  0.1312668E+00
        -11   -1    0    0    0    0  0.00000000000E+00  0.00000000000E+00  0.45593999997E+02  0.45594000000E+02  0.51100000000E-03 0.  1.
         11   -1    0    0    0    0 -0.00000000000E+00 -0.00000000000E+00 -0.45593999997E+02  0.45594000000E+02  0.51100000000E-03 0. -1.
    9900012    2    1    2    0    0  0.35176733418E+02  0.27360649035E+01  0.25273202268E+02  0.47787269844E+02  0.19999994529E+02 0.  0.
        -12    1    1    2    0    0 -0.35176733418E+02 -0.27360649035E+01 -0.25273202268E+02  0.43400730156E+02  0.00000000000E+00 0.  1.
         11    1    3    3    0    0  0.61587912180E+01  0.24983736869E+01 -0.41146792568E+00  0.66589703755E+01  0.51100000000E-03 0. -1.
        -11    1    3    3    0    0  0.71323242310E+01  0.58921061193E+01  0.99528531293E+01  0.13588460146E+02  0.51100000000E-03 0.  1.
         12    1    3    3    0    0  0.21885617969E+02 -0.56544149027E+01  0.15731817065E+02  0.27539839323E+02  0.00000000000E+00 0. -1.
</event>
<event>
 7    1  0.2950722E-010  0.4778727E+02  0.7816164E-02  0.1312668E+00
        -11   -1    0    0    0    0  0.00000000000E+00  0.00000000000E+00  0.45593999997E+02  0.45594000000E+02  0.51100000000E-03 0. -1.
         11   -1    0    0    0    0 -0.00000000000E+00 -0.00000000000E+00 -0.45593999997E+02  0.45594000000E+02  0.51100000000E-03 0.  1.
    9900012    2    1    2    0    0 -0.19902802612E+02 -0.74248382483E+01  0.37846706641E+02  0.47787274448E+02  0.20000015518E+02 0.  0.
        -12    1    1    2    0    0  0.19902802612E+02  0.74248382483E+01 -0.37846706641E+02  0.43400725552E+02  0.00000000000E+00 0.  1.
         11    1    3    3    0    0 -0.41154592867E+01  0.24593933509E+01  0.17063829298E+02  0.17724556169E+02  0.51100000000E-03 0. -1.
        -11    1    3    3    0    0 -0.16288399808E+02 -0.53732061935E+01  0.15759735425E+02  0.23292757974E+02  0.51100000000E-03 0.  1.
         12    1    3    3    0    0  0.50105648214E+00 -0.45110254057E+01  0.50231419180E+01  0.67699603055E+01  0.00000000000E+00 0. -1.
</event>
<event>
 7    1  0.2950722E-010  0.4778727E+02  0.7816164E-02  0.1312668E+00
        -11   -1    0    0    0    0  0.00000000000E+00  0.00000000000E+00  0.45593999997E+02  0.45594000000E+02  0.51100000000E-03 0.  1.
         11   -1    0    0    0    0 -0.00000000000E+00 -0.00000000000E+00 -0.45593999997E+02  0.45594000000E+02  0.51100000000E-03 0. -1.
    9900012    2    1    2    0    0  0.68288591916E+01  0.35294819316E+02 -0.24315958376E+02  0.47787269359E+02  0.19999992317E+02 0.  0.
        -12    1    1    2    0    0 -0.68288591916E+01 -0.35294819316E+02  0.24315958376E+02  0.43400730641E+02  0.00000000000E+00 0.  1.
         11    1    3    3    0    0  0.24403632401E+01  0.27079601259E+02 -0.15439529735E+02  0.31267223346E+02  0.51100000000E-03 0. -1.
        -11    1    3    3    0    0  0.54529599620E+01  0.34661772348E-01 -0.20974492939E+01  0.58425394810E+01  0.51100000000E-03 0.  1.
        -12    1    3    3    0    0 -0.10644640105E+01  0.81805562847E+01 -0.67789793469E+01  0.10677506532E+02  0.00000000000E+00 0.  1.
</event>
<event>
 7    1  0.2950722E-010  0.4778727E+02  0.7816164E-02  0.1312668E+00
        -11   -1    0    0    0    0  0.00000000000E+00  0.00000000000E+00  0.45593999997E+02  0.45594000000E+02  0.51100000000E-03 0.  1.
         11   -1    0    0    0    0 -0.00000000000E+00 -0.00000000000E+00 -0.45593999997E+02  0.45594000000E+02  0.51100000000E-03 0. -1.
    9900012    2    1    2    0    0  0.27693005679E+01  0.28793278262E+02  0.32355851191E+02  0.47787274142E+02  0.20000014122E+02 0.  0.
        -12    1    1    2    0    0 -0.27693005679E+01 -0.28793278262E+02 -0.32355851191E+02  0.43400725858E+02  0.00000000000E+00 0.  1.
         11    1    3    3    0    0  0.31734510735E+01  0.85987895415E+00 -0.59653157900E+00  0.33415615687E+01  0.51100000000E-03 0. -1.
        -11    1    3    3    0    0  0.40041109916E+00 -0.83157552492E+00  0.18853877219E+01  0.20991746056E+01  0.51100000000E-03 0.  1.
         12    1    3    3    0    0 -0.80456160472E+00  0.28764974832E+02  0.31066995049E+02  0.42346537968E+02  0.00000000000E+00 0. -1.
</event>
<event>
 7    1  0.2950722E-010  0.4778727E+02  0.7816164E-02  0.1312668E+00
        -11   -1    0    0    0    0  0.00000000000E+00  0.00000000000E+00  0.45593999997E+02  0.45594000000E+02  0.51100000000E-03 0.  1.
         11   -1    0    0    0    0 -0.00000000000E+00 -0.00000000000E+00 -0.45593999997E+02  0.45594000000E+02  0.51100000000E-03 0. -1.
    9900012    2    1    2    0    0  0.13069751062E+02  0.13078756690E+02 -0.39265137718E+02  0.47787270635E+02  0.19999998133E+02 0.  0.
        -12    1    1    2    0    0 -0.13069751062E+02 -0.13078756690E+02  0.39265137718E+02  0.43400729365E+02  0.00000000000E+00 0.  1.
         11    1    3    3    0    0  0.10044581771E+02  0.41590997589E+01 -0.13325185648E+02  0.17197450584E+02  0.51100000000E-03 0. -1.
        -11    1    3    3    0    0 -0.20759145628E+01  0.20151321009E+00 -0.16919160703E+02  0.17047229335E+02  0.51100000000E-03 0.  1.
        -12    1    3    3    0    0  0.51010838538E+01  0.87181437211E+01 -0.90207913673E+01  0.13542590717E+02  0.00000000000E+00 0.  1.
</event>
<event>
 7    1  0.2950722E-010  0.4778727E+02  0.7816164E-02  0.1312668E+00
        -11   -1    0    0    0    0  0.00000000000E+00  0.00000000000E+00  0.45593999997E+02  0.45594000000E+02  0.51100000000E-03 0.  1.
         11   -1    0    0    0    0 -0.00000000000E+00 -0.00000000000E+00 -0.45593999997E+02  0.45594000000E+02  0.51100000000E-03 0. -1.
    9900012    2    1    2    0    0  0.32655036021E+02  0.86757205352E+00  0.28574801581E+02  0.47787270234E+02  0.19999996304E+02 0.  0.
        -12    1    1    2    0    0 -0.32655036021E+02 -0.86757205352E+00 -0.28574801581E+02  0.43400729766E+02  0.00000000000E+00 0.  1.
         11    1    3    3    0    0  0.24024090857E+02  0.25586483840E+01  0.16415743569E+02  0.29209249567E+02  0.51100000000E-03 0. -1.
        -11    1    3    3    0    0  0.63549183298E-01  0.35225208996E+01  0.11981464216E+01  0.37212561180E+01  0.51100000000E-03 0.  1.
         12    1    3    3    0    0  0.85673959812E+01 -0.52135972301E+01  0.10960911590E+02  0.14856764549E+02  0.00000000000E+00 0. -1.
</event>
<event>
 7    1  0.2950722E-010  0.4778727E+02  0.7816164E-02  0.1312668E+00
        -11   -1    0    0    0    0  0.00000000000E+00  0.00000000000E+00  0.45593999997E+02  0.45594000000E+02  0.51100000000E-03 0.  1.
         11   -1    0    0    0    0 -0.00000000000E+00 -0.00000000000E+00 -0.45593999997E+02  0.45594000000E+02  0.51100000000E-03 0. -1.
    9900012    2    1    2    0    0 -0.39394962573E+02  0.17232439515E+02 -0.58909771351E+01  0.47787266603E+02  0.19999979750E+02 0.  0.
        -12    1    1    2    0    0  0.39394962573E+02 -0.17232439515E+02  0.58909771351E+01  0.43400733397E+02  0.00000000000E+00 0.  1.
         11    1    3    3    0    0 -0.36138182334E+02  0.15174570979E+02 -0.56859521102E+01  0.39605124396E+02  0.51100000000E-03 0. -1.
        -11    1    3    3    0    0 -0.19364972347E+01  0.86225756106E+00  0.34882211608E+01  0.40818129268E+01  0.51100000000E-03 0.  1.
        -12    1    3    3    0    0 -0.13202830044E+01  0.11956109753E+01 -0.36932461857E+01  0.41003292799E+01  0.00000000000E+00 0.  1.
</event>
<event>
 7    1  0.2950722E-010  0.4778727E+02  0.7816164E-02  0.1312668E+00
        -11   -1    0    0    0    0  0.00000000000E+00  0.00000000000E+00  0.45593999997E+02  0.45594000000E+02  0.51100000000E-03 0. -1.
         11   -1    0    0    0    0 -0.00000000000E+00 -0.00000000000E+00 -0.45593999997E+02  0.45594000000E+02  0.51100000000E-03 0.  1.
    9900012    2    1    2    0    0  0.26820648108E+02  0.29316354778E+02  0.17459312248E+02  0.47787269516E+02  0.19999993030E+02 0.  0.
        -12    1    1    2    0    0 -0.26820648108E+02 -0.29316354778E+02 -0.17459312248E+02  0.43400730484E+02  0.00000000000E+00 0.  1.
         11    1    3    3    0    0  0.26049676535E+02  0.28814774879E+02  0.18095824497E+02  0.42852488415E+02  0.51100000000E-03 0. -1.
        -11    1    3    3    0    0 -0.77550814698E+00 -0.17503129461E+01 -0.10314462165E+01  0.21746010792E+01  0.51100000000E-03 0.  1.
         12    1    3    3    0    0  0.15464797204E+01  0.22518928453E+01  0.39493396789E+00  0.27601800216E+01  0.00000000000E+00 0. -1.
</event>
<event>
 7    1  0.2950722E-010  0.4778727E+02  0.7816164E-02  0.1312668E+00
        -11   -1    0    0    0    0  0.00000000000E+00  0.00000000000E+00  0.45593999997E+02  0.45594000000E+02  0.51100000000E-03 0.  1.
         11   -1    0    0    0    0 -0.00000000000E+00 -0.00000000000E+00 -0.45593999997E+02  0.45594000000E+02  0.51100000000E-03 0. -1.
    9900012    2    1    2    0    0  0.27624248265E+02 -0.20034270442E+02 -0.26817014682E+02  0.47787270043E+02  0.19999995435E+02 0.  0.
        -12    1    1    2    0    0 -0.27624248265E+02  0.20034270442E+02  0.26817014682E+02  0.43400729957E+02  0.00000000000E+00 0.  1.
         11    1    3    3    0    0  0.11200906597E+02 -0.67107662803E+01 -0.53767361783E+01  0.14121047583E+02  0.51100000000E-03 0. -1.
        -11    1    3    3    0    0 -0.44230251634E-01 -0.18506475875E+00 -0.93995203944E+01  0.94014461221E+01  0.51100000000E-03 0.  1.
        -12    1    3    3    0    0  0.16467571920E+02 -0.13138439403E+02 -0.12040758109E+02  0.24264776338E+02  0.00000000000E+00 0.  1.
</event>
<event>
 7    1  0.2950722E-010  0.4778727E+02  0.7816164E-02  0.1312668E+00
        -11   -1    0    0    0    0  0.00000000000E+00  0.00000000000E+00  0.45593999997E+02  0.45594000000E+02  0.51100000000E-03 0. -1.
         11   -1    0    0    0    0 -0.00000000000E+00 -0.00000000000E+00 -0.45593999997E+02  0.45594000000E+02  0.51100000000E-03 0.  1.
    9900012    2    1    2    0    0 -0.41697591766E+02  0.12037494503E+02  0.18031993944E+00  0.47787274796E+02  0.20000017103E+02 0.  0.
        -12    1    1    2    0    0  0.41697591766E+02 -0.12037494503E+02 -0.18031993944E+00  0.43400725204E+02  0.00000000000E+00 0.  1.
         11    1    3    3    0    0 -0.21237400594E+02  0.13435614719E+02  0.29845302959E+01  0.25307120504E+02  0.51100000000E-03 0. -1.
        -11    1    3    3    0    0 -0.15275379992E+02 -0.36839288202E+01 -0.48673588483E+01  0.16449916349E+02  0.51100000000E-03 0.  1.
        -12    1    3    3    0    0 -0.51848111797E+01  0.22858086040E+01  0.20631484918E+01  0.60302379424E+01  0.00000000000E+00 0.  1.
</event>
<event>
 7    1  0.2950722E-010  0.4778727E+02  0.7816164E-02  0.1312668E+00
        -11   -1    0    0    0    0  0.00000000000E+00  0.00000000000E+00  0.45593999997E+02  0.45594000000E+02  0.51100000000E-03 0.  1.
         11   -1    0    0    0    0 -0.00000000000E+00 -0.00000000000E+00 -0.45593999997E+02  0.45594000000E+02  0.51100000000E-03 0. -1.
    9900012    2    1    2    0    0 -0.37282523884E+02 -0.19606245397E+02 -0.10451387452E+02  0.47787274829E+02  0.20000017255E+02 0.  0.
        -12    1    1    2    0    0  0.37282523884E+02  0.19606245397E+02  0.10451387452E+02  0.43400725171E+02  0.00000000000E+00 0.  1.
         11    1    3    3    0    0 -0.18730996472E+02 -0.18044773185E+02 -0.12538350807E+02  0.28873418733E+02  0.51100000000E-03 0. -1.
        -11    1    3    3    0    0 -0.10874848400E+02  0.37136436193E+00  0.11160443587E+01  0.10938272006E+02  0.51100000000E-03 0.  1.
         12    1    3    3    0    0 -0.76766790122E+01 -0.19328365747E+01  0.97091899612E+00  0.79755840901E+01  0.00000000000E+00 0. -1.
</event>
<event>
 7    1  0.2950722E-010  0.4778727E+02  0.7816164E-02  0.1312668E+00
        -11   -1    0    0    0    0  0.00000000000E+00  0.00000000000E+00  0.45593999997E+02  0.45594000000E+02  0.51100000000E-03 0. -1.
         11   -1    0    0    0    0 -0.00000000000E+00 -0.00000000000E+00 -0.45593999997E+02  0.45594000000E+02  0.51100000000E-03 0.  1.
    9900012    2    1    2    0    0 -0.10846785382E+02  0.38649799686E+02  0.16497378645E+02  0.47787271076E+02  0.20000000146E+02 0.  0.
        -12    1    1    2    0    0  0.10846785382E+02 -0.38649799686E+02 -0.16497378645E+02  0.43400728924E+02  0.00000000000E+00 0.  1.
         11    1    3    3    0    0 -0.44805969053E+00  0.23860477025E+02  0.15932717933E+02  0.28694505090E+02  0.51100000000E-03 0. -1.
        -11    1    3    3    0    0 -0.62029490702E+01  0.40001127777E+01 -0.85272082506E+00  0.74299806506E+01  0.51100000000E-03 0.  1.
         12    1    3    3    0    0 -0.41957766215E+01  0.10789209884E+02  0.14173815372E+01  0.11662785336E+02  0.00000000000E+00 0. -1.
</event>
<event>
 7    1  0.2950722E-010  0.4778727E+02  0.7816164E-02  0.1312668E+00
        -11   -1    0    0    0    0  0.00000000000E+00  0.00000000000E+00  0.45593999997E+02  0.45594000000E+02  0.51100000000E-03 0. -1.
         11   -1    0    0    0    0 -0.00000000000E+00 -0.00000000000E+00 -0.45593999997E+02  0.45594000000E+02  0.51100000000E-03 0.  1.
    9900012    2    1    2    0    0 -0.42505381874E+02 -0.51667984253E+01  0.70865886844E+01  0.47787273815E+02  0.20000012630E+02 0.  0.
        -12    1    1    2    0    0  0.42505381874E+02  0.51667984253E+01 -0.70865886844E+01  0.43400726185E+02  0.00000000000E+00 0.  1.
         11    1    3    3    0    0 -0.10440527122E+02 -0.16238456956E+01 -0.47372362307E+01  0.11579416600E+02  0.51100000000E-03 0.  1.
        -11    1    3    3    0    0 -0.18046646009E+02 -0.55360185666E+01  0.11380189342E+02  0.22041725056E+02  0.51100000000E-03 0. -1.
         12    1    3    3    0    0 -0.14018208744E+02  0.19930658368E+01  0.44363557281E+00  0.14166132159E+02  0.00000000000E+00 0. -1.
</event>
<event>
 7    1  0.2950722E-010  0.4778727E+02  0.7816164E-02  0.1312668E+00
        -11   -1    0    0    0    0  0.00000000000E+00  0.00000000000E+00  0.45593999997E+02  0.45594000000E+02  0.51100000000E-03 0.  1.
         11   -1    0    0    0    0 -0.00000000000E+00 -0.00000000000E+00 -0.45593999997E+02  0.45594000000E+02  0.51100000000E-03 0. -1.
    9900012    2    1    2    0    0  0.47918324764E+01 -0.40230592398E+02  0.15561522964E+02  0.47787271664E+02  0.20000002823E+02 0.  0.
        -12    1    1    2    0    0 -0.47918324764E+01  0.40230592398E+02 -0.15561522964E+02  0.43400728336E+02  0.00000000000E+00 0.  1.
         11    1    3    3    0    0  0.10744808570E+02 -0.14399816169E+02  0.58936508261E+01  0.18908747637E+02  0.51100000000E-03 0. -1.
        -11    1    3    3    0    0 -0.40330573838E+01 -0.20663598974E+02  0.49611412392E+01  0.21630136316E+02  0.51100000000E-03 0.  1.
        -12    1    3    3    0    0 -0.19199187096E+01 -0.51671772557E+01  0.47067308988E+01  0.72483877101E+01  0.00000000000E+00 0.  1.
</event>
<event>
 7    1  0.2950722E-010  0.4778727E+02  0.7816164E-02  0.1312668E+00
        -11   -1    0    0    0    0  0.00000000000E+00  0.00000000000E+00  0.45593999997E+02  0.45594000000E+02  0.51100000000E-03 0. -1.
         11   -1    0    0    0    0 -0.00000000000E+00 -0.00000000000E+00 -0.45593999997E+02  0.45594000000E+02  0.51100000000E-03 0.  1.
    9900012    2    1    2    0    0 -0.39070000193E+02 -0.12891222785E+02  0.13819363688E+02  0.47787270136E+02  0.19999995857E+02 0.  0.
        -12    1    1    2    0    0  0.39070000193E+02  0.12891222785E+02 -0.13819363688E+02  0.43400729864E+02  0.00000000000E+00 0.  1.
         11    1    3    3    0    0 -0.24002857700E+02 -0.13408483057E+01  0.57182588120E+01  0.24711000304E+02  0.51100000000E-03 0. -1.
        -11    1    3    3    0    0 -0.12224041242E+02 -0.10668981772E+02  0.20777974403E+01  0.16357615926E+02  0.51100000000E-03 0.  1.
         12    1    3    3    0    0 -0.28431012518E+01 -0.88139270796E+00  0.60233074354E+01  0.67186539050E+01  0.00000000000E+00 0. -1.
</event>
<event>
 7    1  0.2950722E-010  0.4778727E+02  0.7816164E-02  0.1312668E+00
        -11   -1    0    0    0    0  0.00000000000E+00  0.00000000000E+00  0.45593999997E+02  0.45594000000E+02  0.51100000000E-03 0.  1.
         11   -1    0    0    0    0 -0.00000000000E+00 -0.00000000000E+00 -0.45593999997E+02  0.45594000000E+02  0.51100000000E-03 0. -1.
    9900012    2    1    2    0    0 -0.17160005886E+01  0.19895646656E+01 -0.43321127523E+02  0.47787272870E+02  0.20000008323E+02 0.  0.
        -12    1    1    2    0    0  0.17160005886E+01 -0.19895646656E+01  0.43321127523E+02  0.43400727130E+02  0.00000000000E+00 0.  1.
         11    1    3    3    0    0 -0.53362613698E+01 -0.36089533452E+01 -0.35993719563E+02  0.36565668022E+02  0.51100000000E-03 0. -1.
        -11    1    3    3    0    0  0.30020187477E+01  0.80600612209E+00 -0.10106696853E+01  0.32685189160E+01  0.51100000000E-03 0.  1.
         12    1    3    3    0    0  0.61824203353E+00  0.47925118887E+01 -0.63167382747E+01  0.79530859323E+01  0.00000000000E+00 0. -1.
</event>
<event>
 7    1  0.2950722E-010  0.4778727E+02  0.7816164E-02  0.1312668E+00
        -11   -1    0    0    0    0  0.00000000000E+00  0.00000000000E+00  0.45593999997E+02  0.45594000000E+02  0.51100000000E-03 0.  1.
         11   -1    0    0    0    0 -0.00000000000E+00 -0.00000000000E+00 -0.45593999997E+02  0.45594000000E+02  0.51100000000E-03 0. -1.
    9900012    2    1    2    0    0 -0.27895441203E+02  0.27016797677E+02  0.19379378881E+02  0.47787270484E+02  0.19999997447E+02 0.  0.
        -12    1    1    2    0    0  0.27895441203E+02 -0.27016797677E+02 -0.19379378881E+02  0.43400729516E+02  0.00000000000E+00 0.  1.
         11    1    3    3    0    0 -0.20843863766E+02  0.21376602221E+02  0.47010169291E+01  0.30224581712E+02  0.51100000000E-03 0. -1.
        -11    1    3    3    0    0 -0.57950978309E+01  0.57002099929E+01  0.13841370203E+02  0.16051762588E+02  0.51100000000E-03 0.  1.
         12    1    3    3    0    0 -0.12564796063E+01 -0.60014537173E-01  0.83699174957E+00  0.15109261844E+01  0.00000000000E+00 0. -1.
</event>
<event>
 7    1  0.2950722E-010  0.4778727E+02  0.7816164E-02  0.1312668E+00
        -11   -1    0    0    0    0  0.00000000000E+00  0.00000000000E+00  0.45593999997E+02  0.45594000000E+02  0.51100000000E-03 0.  1.
         11   -1    0    0    0    0 -0.00000000000E+00 -0.00000000000E+00 -0.45593999997E+02  0.45594000000E+02  0.51100000000E-03 0. -1.
    9900012    2    1    2    0    0 -0.22712595977E+02 -0.34183991717E+02 -0.14114388643E+02  0.47787271060E+02  0.20000000072E+02 0.  0.
        -12    1    1    2    0    0  0.22712595977E+02  0.34183991717E+02  0.14114388643E+02  0.43400728940E+02  0.00000000000E+00 0.  1.
         11    1    3    3    0    0 -0.14522927135E+02 -0.85011409841E+01 -0.45392010718E+01  0.17429548394E+02  0.51100000000E-03 0. -1.
        -11    1    3    3    0    0 -0.17370813490E+01 -0.63156294499E+00 -0.32307890365E+01  0.37221393615E+01  0.51100000000E-03 0.  1.
         12    1    3    3    0    0 -0.64525874934E+01 -0.25051287788E+02 -0.63443985345E+01  0.26635583305E+02  0.00000000000E+00 0. -1.
</event>
<event>
 7    1  0.2950722E-010  0.4778727E+02  0.7816164E-02  0.1312668E+00
        -11   -1    0    0    0    0  0.00000000000E+00  0.00000000000E+00  0.45593999997E+02  0.45594000000E+02  0.51100000000E-03 0. -1.
         11   -1    0    0    0    0 -0.00000000000E+00 -0.00000000000E+00 -0.45593999997E+02  0.45594000000E+02  0.51100000000E-03 0.  1.
    9900012    2    1    2    0    0 -0.21179272445E+02 -0.36129012346E+02 -0.11391074635E+02  0.47787266185E+02  0.19999977842E+02 0.  0.
        -12    1    1    2    0    0  0.21179272445E+02  0.36129012346E+02  0.11391074635E+02  0.43400733815E+02  0.00000000000E+00 0.  1.
         11    1    3    3    0    0 -0.75073962510E+01 -0.58292345868E+01 -0.32308666852E+01  0.10038898054E+02  0.51100000000E-03 0. -1.
        -11    1    3    3    0    0 -0.44810823730E+01 -0.25315209796E+02 -0.24241002165E+01  0.25822784675E+02  0.51100000000E-03 0.  1.
        -12    1    3    3    0    0 -0.91907938212E+01 -0.49845679629E+01 -0.57361077330E+01  0.11925583456E+02  0.00000000000E+00 0.  1.
</event>
<event>
 7    1  0.2950722E-010  0.4778727E+02  0.7816164E-02  0.1312668E+00
        -11   -1    0    0    0    0  0.00000000000E+00  0.00000000000E+00  0.45593999997E+02  0.45594000000E+02  0.51100000000E-03 0.  1.
         11   -1    0    0    0    0 -0.00000000000E+00 -0.00000000000E+00 -0.45593999997E+02  0.45594000000E+02  0.51100000000E-03 0. -1.
    9900012    2    1    2    0    0 -0.41964552630E+02  0.95648877700E+01 -0.55778435696E+01  0.47787273113E+02  0.20000009430E+02 0.  0.
        -12    1    1    2    0    0  0.41964552630E+02 -0.95648877700E+01  0.55778435696E+01  0.43400726887E+02  0.00000000000E+00 0.  1.
         11    1    3    3    0    0 -0.53665725908E+01  0.81414916911E+01 -0.36640120232E+01  0.10416764022E+02  0.51100000000E-03 0.  1.
        -11    1    3    3    0    0 -0.33285562223E+02  0.34063032051E+01 -0.16139112676E+01  0.33498302403E+02  0.51100000000E-03 0. -1.
         12    1    3    3    0    0 -0.33124178160E+01 -0.19829071262E+01 -0.29992027879E+00  0.38722066878E+01  0.00000000000E+00 0. -1.
</event>
<event>
 7    1  0.2950722E-010  0.4778727E+02  0.7816164E-02  0.1312668E+00
        -11   -1    0    0    0    0  0.00000000000E+00  0.00000000000E+00  0.45593999997E+02  0.45594000000E+02  0.51100000000E-03 0.  1.
         11   -1    0    0    0    0 -0.00000000000E+00 -0.00000000000E+00 -0.45593999997E+02  0.45594000000E+02  0.51100000000E-03 0. -1.
    9900012    2    1    2    0    0  0.17706442397E+02 -0.86742608609E+01 -0.38663451876E+02  0.47787269421E+02  0.19999992599E+02 0.  0.
        -12    1    1    2    0    0 -0.17706442397E+02  0.86742608609E+01  0.38663451876E+02  0.43400730579E+02  0.00000000000E+00 0.  1.
         11    1    3    3    0    0  0.19204203776E+01 -0.19950960468E+01 -0.62281661795E+01  0.68160455459E+01  0.51100000000E-03 0. -1.
        -11    1    3    3    0    0  0.72012292510E+01 -0.12170508631E+02 -0.23454667842E+02  0.27387961350E+02  0.51100000000E-03 0.  1.
        -12    1    3    3    0    0  0.85847927680E+01  0.54913438170E+01 -0.89806178542E+01  0.13583262525E+02  0.00000000000E+00 0.  1.
</event>
<event>
 7    1  0.2950722E-010  0.4778725E+02  0.7816164E-02  0.1312668E+00
        -11   -1    0    0    0    0  0.00000000000E+00  0.00000000000E+00  0.45593999997E+02  0.45594000000E+02  0.51100000000E-03 0. -1.
         11   -1    0    0    0    0 -0.00000000000E+00 -0.00000000000E+00 -0.45593999997E+02  0.45594000000E+02  0.51100000000E-03 0.  1.
    9900012    2    1    2    0    0 -0.26010606748E+02  0.21285397136E+02  0.27459151412E+02  0.47787253567E+02  0.19999920314E+02 0.  0.
        -12    1    1    2    0    0  0.26010606748E+02 -0.21285397136E+02 -0.27459151412E+02  0.43400746433E+02  0.00000000000E+00 0.  1.
         11    1    3    3    0    0 -0.21602982639E+02  0.15966103590E+02  0.16535079997E+02  0.31543845572E+02  0.51100000000E-03 0. -1.
        -11    1    3    3    0    0 -0.27263200469E+01 -0.27324836035E+00 -0.10395655949E+01  0.29305601088E+01  0.51100000000E-03 0.  1.
         12    1    3    3    0    0 -0.16813040629E+01  0.55925419064E+01  0.11963637010E+02  0.13312847886E+02  0.00000000000E+00 0. -1.
</event>
<event>
 7    1  0.2950722E-010  0.4778727E+02  0.7816164E-02  0.1312668E+00
        -11   -1    0    0    0    0  0.00000000000E+00  0.00000000000E+00  0.45593999997E+02  0.45594000000E+02  0.51100000000E-03 0.  1.
         11   -1    0    0    0    0 -0.00000000000E+00 -0.00000000000E+00 -0.45593999997E+02  0.45594000000E+02  0.51100000000E-03 0. -1.
    9900012    2    1    2    0    0 -0.31639538994E+02  0.44366851884E+01 -0.29374799705E+02  0.47787268890E+02  0.19999990176E+02 0.  0.
        -12    1    1    2    0    0  0.31639538994E+02 -0.44366851884E+01  0.29374799705E+02  0.43400731110E+02  0.00000000000E+00 0.  1.
         11    1    3    3    0    0 -0.67153395605E+01  0.37844244120E+01  0.75599948370E+00  0.77452688155E+01  0.51100000000E-03 0. -1.
        -11    1    3    3    0    0 -0.10718406382E+02  0.95579601510E+00 -0.19586715542E+02  0.22348091806E+02  0.51100000000E-03 0.  1.
        -12    1    3    3    0    0 -0.14205793052E+02 -0.30353523872E+00 -0.10544083647E+02  0.17693908269E+02  0.00000000000E+00 0.  1.
</event>
<event>
 7    1  0.2950722E-010  0.4778727E+02  0.7816164E-02  0.1312668E+00
        -11   -1    0    0    0    0  0.00000000000E+00  0.00000000000E+00  0.45593999997E+02  0.45594000000E+02  0.51100000000E-03 0.  1.
         11   -1    0    0    0    0 -0.00000000000E+00 -0.00000000000E+00 -0.45593999997E+02  0.45594000000E+02  0.51100000000E-03 0. -1.
    9900012    2    1    2    0    0  0.29913719755E+02  0.18296934502E+02 -0.25573716435E+02  0.47787269430E+02  0.19999992639E+02 0.  0.
        -12    1    1    2    0    0 -0.29913719755E+02 -0.18296934502E+02  0.25573716435E+02  0.43400730570E+02  0.00000000000E+00 0.  1.
         11    1    3    3    0    0  0.88543070861E+01  0.83269834361E+01 -0.13392563822E+02  0.18085855609E+02  0.51100000000E-03 0. -1.
        -11    1    3    3    0    0  0.99592116778E+01  0.97282947871E+01 -0.10217237415E+01  0.13959567915E+02  0.51100000000E-03 0.  1.
         12    1    3    3    0    0  0.11100200991E+02  0.24165627876E+00 -0.11159428871E+02  0.15741845906E+02  0.00000000000E+00 0. -1.
</event>
<event>
 7    1  0.2950722E-010  0.4778727E+02  0.7816164E-02  0.1312668E+00
        -11   -1    0    0    0    0  0.00000000000E+00  0.00000000000E+00  0.45593999997E+02  0.45594000000E+02  0.51100000000E-03 0. -1.
         11   -1    0    0    0    0 -0.00000000000E+00 -0.00000000000E+00 -0.45593999997E+02  0.45594000000E+02  0.51100000000E-03 0.  1.
    9900012    2    1    2    0    0 -0.42490280141E+02  0.50183060701E+01 -0.72812077203E+01  0.47787270880E+02  0.19999999252E+02 0.  0.
        -12    1    1    2    0    0  0.42490280141E+02 -0.50183060701E+01  0.72812077203E+01  0.43400729120E+02  0.00000000000E+00 0.  1.
         11    1    3    3    0    0 -0.25200817601E+02  0.10636041494E+02 -0.72253268210E+01  0.28291552350E+02  0.51100000000E-03 0.  1.
        -11    1    3    3    0    0 -0.18181015868E+01 -0.34140732721E+01 -0.39554040349E-01  0.38681978324E+01  0.51100000000E-03 0. -1.
         12    1    3    3    0    0 -0.15471360953E+02 -0.22036621514E+01 -0.16326858973E-01  0.15627520698E+02  0.00000000000E+00 0. -1.
</event>
<event>
 7    1  0.2950722E-010  0.4778726E+02  0.7816164E-02  0.1312668E+00
        -11   -1    0    0    0    0  0.00000000000E+00  0.00000000000E+00  0.45593999997E+02  0.45594000000E+02  0.51100000000E-03 0. -1.
         11   -1    0    0    0    0 -0.00000000000E+00 -0.00000000000E+00 -0.45593999997E+02  0.45594000000E+02  0.51100000000E-03 0.  1.
    9900012    2    1    2    0    0 -0.16590642485E+02  0.33021203334E+02  0.22759054933E+02  0.47787264187E+02  0.19999968733E+02 0.  0.
        -12    1    1    2    0    0  0.16590642485E+02 -0.33021203334E+02 -0.22759054933E+02  0.43400735813E+02  0.00000000000E+00 0.  1.
         11    1    3    3    0    0 -0.42161085302E+01  0.11699604700E+02  0.49156120735E+01  0.13372343235E+02  0.51100000000E-03 0. -1.
        -11    1    3    3    0    0 -0.91014806100E+00 -0.19621752773E+01  0.50208654193E+01  0.54669544658E+01  0.51100000000E-03 0.  1.
        -12    1    3    3    0    0 -0.11464385894E+02  0.23283773912E+02  0.12822577440E+02  0.28947966486E+02  0.00000000000E+00 0.  1.
</event>
<event>
 7    1  0.2950722E-010  0.4778727E+02  0.7816164E-02  0.1312668E+00
        -11   -1    0    0    0    0  0.00000000000E+00  0.00000000000E+00  0.45593999997E+02  0.45594000000E+02  0.51100000000E-03 0.  1.
         11   -1    0    0    0    0 -0.00000000000E+00 -0.00000000000E+00 -0.45593999997E+02  0.45594000000E+02  0.51100000000E-03 0. -1.
    9900012    2    1    2    0    0 -0.12059452713E+02 -0.41419248901E+02 -0.47579786691E+01  0.47787274887E+02  0.20000017522E+02 0.  0.
        -12    1    1    2    0    0  0.12059452713E+02  0.41419248901E+02  0.47579786691E+01  0.43400725113E+02  0.00000000000E+00 0.  1.
         11    1    3    3    0    0 -0.13735347244E+02 -0.24897338766E+02  0.12422383299E+01  0.28461911353E+02  0.51100000000E-03 0. -1.
        -11    1    3    3    0    0 -0.49268672033E+00 -0.14425875268E+02 -0.71369009172E+01  0.16102297116E+02  0.51100000000E-03 0.  1.
        -12    1    3    3    0    0  0.21685812511E+01 -0.20960348673E+01  0.11366839181E+01  0.32230664184E+01  0.00000000000E+00 0.  1.
</event>
<event>
 7    1  0.2950722E-010  0.4778727E+02  0.7816164E-02  0.1312668E+00
        -11   -1    0    0    0    0  0.00000000000E+00  0.00000000000E+00  0.45593999997E+02  0.45594000000E+02  0.51100000000E-03 0.  1.
         11   -1    0    0    0    0 -0.00000000000E+00 -0.00000000000E+00 -0.45593999997E+02  0.45594000000E+02  0.51100000000E-03 0. -1.
    9900012    2    1    2    0    0 -0.15925608261E+02 -0.39059189869E+02 -0.10216550760E+02  0.47787271652E+02  0.20000002771E+02 0.  0.
        -12    1    1    2    0    0  0.15925608261E+02  0.39059189869E+02  0.10216550760E+02  0.43400728348E+02  0.00000000000E+00 0.  1.
         11    1    3    3    0    0 -0.23115724636E+01 -0.11140877987E+02 -0.78033380517E+01  0.13796905979E+02  0.51100000000E-03 0. -1.
        -11    1    3    3    0    0 -0.24882629408E+01 -0.93121645470E+01  0.52759138106E+01  0.10988317788E+02  0.51100000000E-03 0.  1.
        -12    1    3    3    0    0 -0.11125772856E+02 -0.18606147335E+02 -0.76891265185E+01  0.23002047885E+02  0.00000000000E+00 0.  1.
</event>
<event>
 7    1  0.2950722E-010  0.4778725E+02  0.7816164E-02  0.1312668E+00
        -11   -1    0    0    0    0  0.00000000000E+00  0.00000000000E+00  0.45593999997E+02  0.45594000000E+02  0.51100000000E-03 0.  1.
         11   -1    0    0    0    0 -0.00000000000E+00 -0.00000000000E+00 -0.45593999997E+02  0.45594000000E+02  0.51100000000E-03 0. -1.
    9900012    2    1    2    0    0  0.16086787204E+02 -0.80659911303E+01 -0.39494051263E+02  0.47787250921E+02  0.19999908247E+02 0.  0.
        -12    1    1    2    0    0 -0.16086787204E+02  0.80659911303E+01  0.39494051263E+02  0.43400749079E+02  0.00000000000E+00 0.  1.
         11    1    3    3    0    0  0.57916165990E+01  0.26922075433E+01 -0.24471963769E+01  0.68395595366E+01  0.51100000000E-03 0. -1.
        -11    1    3    3    0    0 -0.59221922319E+00 -0.11841145983E+01 -0.18457334353E+00  0.13367567357E+01  0.51100000000E-03 0.  1.
         12    1    3    3    0    0  0.10887389828E+02 -0.95740840753E+01 -0.36862281543E+02  0.39610934648E+02  0.00000000000E+00 0. -1.
</event>
<event>
 7    1  0.2950722E-010  0.4778727E+02  0.7816164E-02  0.1312668E+00
        -11   -1    0    0    0    0  0.00000000000E+00  0.00000000000E+00  0.45593999997E+02  0.45594000000E+02  0.51100000000E-03 0. -1.
         11   -1    0    0    0    0 -0.00000000000E+00 -0.00000000000E+00 -0.45593999997E+02  0.45594000000E+02  0.51100000000E-03 0.  1.
    9900012    2    1    2    0    0  0.14657816855E+02  0.25931477764E+02  0.31564696859E+02  0.47787271645E+02  0.20000002737E+02 0.  0.
        -12    1    1    2    0    0 -0.14657816855E+02 -0.25931477764E+02 -0.31564696859E+02  0.43400728355E+02  0.00000000000E+00 0.  1.
         11    1    3    3    0    0  0.11974660414E+02  0.17366554707E+02  0.26313383571E+02  0.33725122233E+02  0.51100000000E-03 0. -1.
        -11    1    3    3    0    0  0.61516059173E+00  0.13949434089E+01  0.63401536303E+01  0.65208770870E+01  0.51100000000E-03 0.  1.
         12    1    3    3    0    0  0.20679958493E+01  0.71699796479E+01 -0.10888403421E+01  0.75412723247E+01  0.00000000000E+00 0. -1.
</event>
<event>
 7    1  0.2950722E-010  0.4778726E+02  0.7816164E-02  0.1312668E+00
        -11   -1    0    0    0    0  0.00000000000E+00  0.00000000000E+00  0.45593999997E+02  0.45594000000E+02  0.51100000000E-03 0. -1.
         11   -1    0    0    0    0 -0.00000000000E+00 -0.00000000000E+00 -0.45593999997E+02  0.45594000000E+02  0.51100000000E-03 0.  1.
    9900012    2    1    2    0    0 -0.21841654841E+02 -0.35504346047E+02  0.12083366706E+02  0.47787260083E+02  0.19999950022E+02 0.  0.
        -12    1    1    2    0    0  0.21841654841E+02  0.35504346047E+02 -0.12083366706E+02  0.43400739917E+02  0.00000000000E+00 0.  1.
         11    1    3    3    0    0 -0.10159703761E+02 -0.10330389874E+02  0.33514015886E+01  0.14871732526E+02  0.51100000000E-03 0. -1.
        -11    1    3    3    0    0 -0.18115523047E+00 -0.18013193611E+02  0.32721721989E+01  0.18308879606E+02  0.51100000000E-03 0.  1.
        -12    1    3    3    0    0 -0.11500795850E+02 -0.71607625625E+01  0.54597929181E+01  0.14606647951E+02  0.00000000000E+00 0.  1.
</event>
<event>
 7    1  0.2950722E-010  0.4778729E+02  0.7816164E-02  0.1312668E+00
        -11   -1    0    0    0    0  0.00000000000E+00  0.00000000000E+00  0.45593999997E+02  0.45594000000E+02  0.51100000000E-03 0.  1.
         11   -1    0    0    0    0 -0.00000000000E+00 -0.00000000000E+00 -0.45593999997E+02  0.45594000000E+02  0.51100000000E-03 0. -1.
    9900012    2    1    2    0    0  0.27198384162E+02 -0.19321054554E+02 -0.27759082814E+02  0.47787286541E+02  0.20000070655E+02 0.  0.
        -12    1    1    2    0    0 -0.27198384162E+02  0.19321054554E+02  0.27759082814E+02  0.43400713459E+02  0.00000000000E+00 0.  1.
         11    1    3    3    0    0  0.10003127777E+02 -0.43472252878E+01 -0.10075498656E+02  0.14848454682E+02  0.51100000000E-03 0. -1.
        -11    1    3    3    0    0  0.22977395699E+01  0.33320420908E+01 -0.38261574683E+01  0.55697031213E+01  0.51100000000E-03 0.  1.
        -12    1    3    3    0    0  0.14897516814E+02 -0.18305871357E+02 -0.13857426690E+02  0.27369128737E+02  0.00000000000E+00 0.  1.
</event>
<event>
 7    1  0.2950722E-010  0.4778727E+02  0.7816164E-02  0.1312668E+00
        -11   -1    0    0    0    0  0.00000000000E+00  0.00000000000E+00  0.45593999997E+02  0.45594000000E+02  0.51100000000E-03 0. -1.
         11   -1    0    0    0    0 -0.00000000000E+00 -0.00000000000E+00 -0.45593999997E+02  0.45594000000E+02  0.51100000000E-03 0.  1.
    9900012    2    1    2    0    0  0.31829570023E+02 -0.10371193855E+02  0.27621371361E+02  0.47787270217E+02  0.19999996225E+02 0.  0.
        -12    1    1    2    0    0 -0.31829570023E+02  0.10371193855E+02 -0.27621371361E+02  0.43400729783E+02  0.00000000000E+00 0.  1.
         11    1    3    3    0    0 -0.15726226729E+01  0.13528139657E+01  0.45590323020E+01  0.50087946144E+01  0.51100000000E-03 0. -1.
        -11    1    3    3    0    0 -0.21824734406E+00 -0.30427178561E+00 -0.96317298917E-01  0.38664002108E+00  0.51100000000E-03 0.  1.
         12    1    3    3    0    0  0.33620440040E+02 -0.11419736036E+02  0.23158656358E+02  0.42391835581E+02  0.00000000000E+00 0. -1.
</event>
<event>
 7    1  0.2950722E-010  0.4778728E+02  0.7816164E-02  0.1312668E+00
        -11   -1    0    0    0    0  0.00000000000E+00  0.00000000000E+00  0.45593999997E+02  0.45594000000E+02  0.51100000000E-03 0. -1.
         11   -1    0    0    0    0 -0.00000000000E+00 -0.00000000000E+00 -0.45593999997E+02  0.45594000000E+02  0.51100000000E-03 0.  1.
    9900012    2    1    2    0    0 -0.35350071496E+02  0.14776173101E+02  0.20387740596E+02  0.47787276355E+02  0.20000024212E+02 0.  0.
        -12    1    1    2    0    0  0.35350071496E+02 -0.14776173101E+02 -0.20387740596E+02  0.43400723645E+02  0.00000000000E+00 0.  1.
         11    1    3    3    0    0 -0.49058927833E+01  0.35744601994E+01  0.25641759538E+01  0.65893511290E+01  0.51100000000E-03 0. -1.
        -11    1    3    3    0    0 -0.27715194126E+02  0.64633626381E+01  0.73653781474E+01  0.29396527645E+02  0.51100000000E-03 0.  1.
        -12    1    3    3    0    0 -0.27289845868E+01  0.47383502633E+01  0.10458186495E+02  0.11801397581E+02  0.00000000000E+00 0.  1.
</event>
<event>
 7    1  0.2950722E-010  0.4778727E+02  0.7816164E-02  0.1312668E+00
        -11   -1    0    0    0    0  0.00000000000E+00  0.00000000000E+00  0.45593999997E+02  0.45594000000E+02  0.51100000000E-03 0.  1.
         11   -1    0    0    0    0 -0.00000000000E+00 -0.00000000000E+00 -0.45593999997E+02  0.45594000000E+02  0.51100000000E-03 0. -1.
    9900012    2    1    2    0    0  0.18061436275E+02 -0.16901776700E+02 -0.35661432708E+02  0.47787270528E+02  0.19999997643E+02 0.  0.
        -12    1    1    2    0    0 -0.18061436275E+02  0.16901776700E+02  0.35661432708E+02  0.43400729472E+02  0.00000000000E+00 0.  1.
         11    1    3    3    0    0  0.19076842284E+02 -0.12407691861E+02 -0.26142097766E+02  0.34659573060E+02  0.51100000000E-03 0. -1.
        -11    1    3    3    0    0  0.33983860147E+01 -0.23446269553E+01 -0.42192672888E+01  0.59032634855E+01  0.51100000000E-03 0.  1.
         12    1    3    3    0    0 -0.44137920240E+01 -0.21494578838E+01 -0.53000676535E+01  0.72244339818E+01  0.00000000000E+00 0. -1.
</event>
<event>
 7    1  0.2950722E-010  0.4778727E+02  0.7816164E-02  0.1312668E+00
        -11   -1    0    0    0    0  0.00000000000E+00  0.00000000000E+00  0.45593999997E+02  0.45594000000E+02  0.51100000000E-03 0. -1.
         11   -1    0    0    0    0 -0.00000000000E+00 -0.00000000000E+00 -0.45593999997E+02  0.45594000000E+02  0.51100000000E-03 0.  1.
    9900012    2    1    2    0    0  0.26329681107E+02 -0.34501297972E+02 -0.17744209412E+00  0.47787272418E+02  0.20000006261E+02 0.  0.
        -12    1    1    2    0    0 -0.26329681107E+02  0.34501297972E+02  0.17744209412E+00  0.43400727582E+02  0.00000000000E+00 0.  1.
         11    1    3    3    0    0  0.10415794924E+02 -0.23371943974E+02 -0.34854739043E+01  0.25824118138E+02  0.51100000000E-03 0. -1.
        -11    1    3    3    0    0  0.47533683680E+01 -0.25129125856E+01  0.55030261073E+01  0.76936686375E+01  0.51100000000E-03 0.  1.
         12    1    3    3    0    0  0.11160517815E+02 -0.86164414127E+01 -0.21949942971E+01  0.14269485642E+02  0.00000000000E+00 0. -1.
</event>
<event>
 7    1  0.2950722E-010  0.4778727E+02  0.7816164E-02  0.1312668E+00
        -11   -1    0    0    0    0  0.00000000000E+00  0.00000000000E+00  0.45593999997E+02  0.45594000000E+02  0.51100000000E-03 0. -1.
         11   -1    0    0    0    0 -0.00000000000E+00 -0.00000000000E+00 -0.45593999997E+02  0.45594000000E+02  0.51100000000E-03 0.  1.
    9900012    2    1    2    0    0 -0.37043344366E+02 -0.21349714819E+02 -0.74568003462E+01  0.47787267793E+02  0.19999985176E+02 0.  0.
        -12    1    1    2    0    0  0.37043344366E+02  0.21349714819E+02  0.74568003462E+01  0.43400732207E+02  0.00000000000E+00 0.  1.
         11    1    3    3    0    0 -0.13473466679E+02 -0.49813773251E+01 -0.10546649359E-01  0.14364836786E+02  0.51100000000E-03 0. -1.
        -11    1    3    3    0    0 -0.18534585507E+02 -0.46303892369E+01 -0.78244622850E+01  0.20644456271E+02  0.51100000000E-03 0.  1.
        -12    1    3    3    0    0 -0.50352921804E+01 -0.11737948257E+02  0.37820858816E+00  0.12777974736E+02  0.00000000000E+00 0.  1.
</event>
<event>
 7    1  0.2950722E-010  0.4778721E+02  0.7816164E-02  0.1312668E+00
        -11   -1    0    0    0    0  0.00000000000E+00  0.00000000000E+00  0.45593999997E+02  0.45594000000E+02  0.51100000000E-03 0.  1.
         11   -1    0    0    0    0 -0.00000000000E+00 -0.00000000000E+00 -0.45593999997E+02  0.45594000000E+02  0.51100000000E-03 0. -1.
    9900012    2    1    2    0    0  0.11504544756E+02  0.25133121724E+02 -0.33460427940E+02  0.47787209736E+02  0.19999720467E+02 0.  0.
        -12    1    1    2    0    0 -0.11504544756E+02 -0.25133121724E+02  0.33460427940E+02  0.43400790264E+02  0.00000000000E+00 0.  1.
         11    1    3    3    0    0  0.12728416925E+01  0.93686743460E+01 -0.22099210244E+02  0.24036790107E+02  0.51100000000E-03 0. -1.
        -11    1    3    3    0    0  0.82779098889E+01  0.67178057130E+01 -0.25278938295E+01  0.10956411511E+02  0.51100000000E-03 0.  1.
        -12    1    3    3    0    0  0.19537931750E+01  0.90466416652E+01 -0.88333238665E+01  0.12794008118E+02  0.00000000000E+00 0.  1.
</event>
<event>
 7    1  0.2950722E-010  0.4778727E+02  0.7816164E-02  0.1312668E+00
        -11   -1    0    0    0    0  0.00000000000E+00  0.00000000000E+00  0.45593999997E+02  0.45594000000E+02  0.51100000000E-03 0.  1.
         11   -1    0    0    0    0 -0.00000000000E+00 -0.00000000000E+00 -0.45593999997E+02  0.45594000000E+02  0.51100000000E-03 0. -1.
    9900012    2    1    2    0    0 -0.36151032315E+02  0.16528054120E+02 -0.17422674464E+02  0.47787270791E+02  0.19999998843E+02 0.  0.
        -12    1    1    2    0    0  0.36151032315E+02 -0.16528054120E+02  0.17422674464E+02  0.43400729209E+02  0.00000000000E+00 0.  1.
         11    1    3    3    0    0 -0.19469519524E+02  0.13076692214E+02 -0.11327269137E+02  0.26045519694E+02  0.51100000000E-03 0. -1.
        -11    1    3    3    0    0 -0.12058648387E+02  0.40770048382E+00  0.16963778201E+01  0.12184207753E+02  0.51100000000E-03 0.  1.
        -12    1    3    3    0    0 -0.46228644039E+01  0.30436614225E+01 -0.77917831475E+01  0.95575433439E+01  0.00000000000E+00 0.  1.
</event>
<event>
 7    1  0.2950722E-010  0.4778727E+02  0.7816164E-02  0.1312668E+00
        -11   -1    0    0    0    0  0.00000000000E+00  0.00000000000E+00  0.45593999997E+02  0.45594000000E+02  0.51100000000E-03 0.  1.
         11   -1    0    0    0    0 -0.00000000000E+00 -0.00000000000E+00 -0.45593999997E+02  0.45594000000E+02  0.51100000000E-03 0. -1.
    9900012    2    1    2    0    0 -0.20324478653E+02 -0.55328393386E+01 -0.37946363333E+02  0.47787271505E+02  0.20000002099E+02 0.  0.
        -12    1    1    2    0    0  0.20324478653E+02  0.55328393386E+01  0.37946363333E+02  0.43400728495E+02  0.00000000000E+00 0.  1.
         11    1    3    3    0    0 -0.12556757811E+02 -0.74877497337E+01 -0.31012928342E+02  0.34286152998E+02  0.51100000000E-03 0. -1.
        -11    1    3    3    0    0 -0.92199005181E+01  0.28823398539E+01 -0.67142569294E+01  0.11764169965E+02  0.51100000000E-03 0.  1.
         12    1    3    3    0    0  0.14521796758E+01 -0.92742945873E+00 -0.21917806169E+00  0.17369485411E+01  0.00000000000E+00 0. -1.
</event>
<event>
 7    1  0.2950722E-010  0.4778727E+02  0.7816164E-02  0.1312668E+00
        -11   -1    0    0    0    0  0.00000000000E+00  0.00000000000E+00  0.45593999997E+02  0.45594000000E+02  0.51100000000E-03 0.  1.
         11   -1    0    0    0    0 -0.00000000000E+00 -0.00000000000E+00 -0.45593999997E+02  0.45594000000E+02  0.51100000000E-03 0. -1.
    9900012    2    1    2    0    0 -0.85751734893E+01  0.14077422781E+02 -0.40148672086E+02  0.47787270711E+02  0.19999998482E+02 0.  0.
        -12    1    1    2    0    0  0.85751734893E+01 -0.14077422781E+02  0.40148672086E+02  0.43400729289E+02  0.00000000000E+00 0.  1.
         11    1    3    3    0    0 -0.10466850198E+02  0.95081408848E+01 -0.36745202165E+02  0.39372192961E+02  0.51100000000E-03 0. -1.
        -11    1    3    3    0    0 -0.35791218653E-02  0.52695676192E+01 -0.11597244607E+01  0.53956757491E+01  0.51100000000E-03 0.  1.
         12    1    3    3    0    0  0.18952558306E+01 -0.70028572257E+00 -0.22437454602E+01  0.30194020015E+01  0.00000000000E+00 0. -1.
</event>
<event>
 7    1  0.2950722E-010  0.4778727E+02  0.7816164E-02  0.1312668E+00
        -11   -1    0    0    0    0  0.00000000000E+00  0.00000000000E+00  0.45593999997E+02  0.45594000000E+02  0.51100000000E-03 0.  1.
         11   -1    0    0    0    0 -0.00000000000E+00 -0.00000000000E+00 -0.45593999997E+02  0.45594000000E+02  0.51100000000E-03 0. -1.
    9900012    2    1    2    0    0  0.11278963745E+02 -0.18436463504E+02 -0.37636484073E+02  0.47787272551E+02  0.20000006869E+02 0.  0.
        -12    1    1    2    0    0 -0.11278963745E+02  0.18436463504E+02  0.37636484073E+02  0.43400727449E+02  0.00000000000E+00 0.  1.
         11    1    3    3    0    0  0.69685800182E+01 -0.18311311428E+02 -0.23169769178E+02  0.30343095388E+02  0.51100000000E-03 0. -1.
        -11    1    3    3    0    0  0.47850176559E+01  0.24521489140E+01 -0.41283731128E+01  0.67788563257E+01  0.51100000000E-03 0.  1.
         12    1    3    3    0    0 -0.47463392871E+00 -0.25773009902E+01 -0.10338341782E+02  0.10665320837E+02  0.00000000000E+00 0. -1.
</event>
<event>
 7    1  0.2950722E-010  0.4778726E+02  0.7816164E-02  0.1312668E+00
        -11   -1    0    0    0    0  0.00000000000E+00  0.00000000000E+00  0.45593999997E+02  0.45594000000E+02  0.51100000000E-03 0.  1.
         11   -1    0    0    0    0 -0.00000000000E+00 -0.00000000000E+00 -0.45593999997E+02  0.45594000000E+02  0.51100000000E-03 0. -1.
    9900012    2    1    2    0    0 -0.76479430438E+01 -0.30410042290E+02 -0.30006036680E+02  0.47787263346E+02  0.19999964899E+02 0.  0.
        -12    1    1    2    0    0  0.76479430438E+01  0.30410042290E+02  0.30006036680E+02  0.43400736654E+02  0.00000000000E+00 0.  1.
         11    1    3    3    0    0 -0.10339008777E+02 -0.13343794083E+02 -0.77837575423E+01  0.18588674637E+02  0.51100000000E-03 0.  1.
        -11    1    3    3    0    0  0.45112789452E+01 -0.12321367344E+02 -0.11992689107E+02  0.17776172907E+02  0.51100000000E-03 0. -1.
        -12    1    3    3    0    0 -0.18202132116E+01 -0.47448808627E+01 -0.10229590031E+02  0.11422415801E+02  0.00000000000E+00 0.  1.
</event>
<event>
 7    1  0.2950722E-010  0.4778727E+02  0.7816164E-02  0.1312668E+00
        -11   -1    0    0    0    0  0.00000000000E+00  0.00000000000E+00  0.45593999997E+02  0.45594000000E+02  0.51100000000E-03 0.  1.
         11   -1    0    0    0    0 -0.00000000000E+00 -0.00000000000E+00 -0.45593999997E+02  0.45594000000E+02  0.51100000000E-03 0. -1.
    9900012    2    1    2    0    0  0.75260408858E+01  0.21633967397E+02 -0.36863987311E+02  0.47787269624E+02  0.19999993523E+02 0.  0.
        -12    1    1    2    0    0 -0.75260408858E+01 -0.21633967397E+02  0.36863987311E+02  0.43400730376E+02  0.00000000000E+00 0.  1.
         11    1    3    3    0    0  0.91028650276E+01  0.82210385633E+01 -0.20808228159E+02  0.24154295398E+02  0.51100000000E-03 0. -1.
        -11    1    3    3    0    0 -0.23688704195E+01  0.27519222037E+01  0.75714739182E+00  0.37091636947E+01  0.51100000000E-03 0.  1.
         12    1    3    3    0    0  0.79204627765E+00  0.10661006630E+02 -0.16812906543E+02  0.19923810531E+02  0.00000000000E+00 0. -1.
</event>
<event>
 7    1  0.2950722E-010  0.4778725E+02  0.7816164E-02  0.1312668E+00
        -11   -1    0    0    0    0  0.00000000000E+00  0.00000000000E+00  0.45593999997E+02  0.45594000000E+02  0.51100000000E-03 0.  1.
         11   -1    0    0    0    0 -0.00000000000E+00 -0.00000000000E+00 -0.45593999997E+02  0.45594000000E+02  0.51100000000E-03 0. -1.
    9900012    2    1    2    0    0  0.32630109313E+02 -0.28257126657E+02  0.45205587539E+01  0.47787254705E+02  0.19999925502E+02 0.  0.
        -12    1    1    2    0    0 -0.32630109313E+02  0.28257126657E+02 -0.45205587539E+01  0.43400745295E+02  0.00000000000E+00 0.  1.
         11    1    3    3    0    0  0.21738099277E+02 -0.18493897258E+02 -0.25800785800E+01  0.28657041049E+02  0.51100000000E-03 0. -1.
        -11    1    3    3    0    0 -0.18166875986E+00  0.63995256838E+00  0.34371785339E+01  0.35009626337E+01  0.51100000000E-03 0.  1.
        -12    1    3    3    0    0  0.11073678796E+02 -0.10403181968E+02  0.36634588000E+01  0.15629251022E+02  0.00000000000E+00 0.  1.
</event>
<event>
 7    1  0.2950722E-010  0.4778727E+02  0.7816164E-02  0.1312668E+00
        -11   -1    0    0    0    0  0.00000000000E+00  0.00000000000E+00  0.45593999997E+02  0.45594000000E+02  0.51100000000E-03 0. -1.
         11   -1    0    0    0    0 -0.00000000000E+00 -0.00000000000E+00 -0.45593999997E+02  0.45594000000E+02  0.51100000000E-03 0.  1.
    9900012    2    1    2    0    0 -0.32816670363E+01  0.31654856067E+02  0.29509726198E+02  0.47787271994E+02  0.20000004330E+02 0.  0.
        -12    1    1    2    0    0  0.32816670363E+01 -0.31654856067E+02 -0.29509726198E+02  0.43400728006E+02  0.00000000000E+00 0.  1.
         11    1    3    3    0    0 -0.10498023747E+02  0.13436658883E+02  0.13779665543E+02  0.21923309223E+02  0.51100000000E-03 0. -1.
        -11    1    3    3    0    0  0.56758399727E+01  0.11899434699E+02  0.13787211313E+02  0.19076134347E+02  0.51100000000E-03 0.  1.
         12    1    3    3    0    0  0.15405167384E+01  0.63187624847E+01  0.19428493421E+01  0.67878284249E+01  0.00000000000E+00 0. -1.
</event>
<event>
 7    1  0.2950722E-010  0.4778726E+02  0.7816164E-02  0.1312668E+00
        -11   -1    0    0    0    0  0.00000000000E+00  0.00000000000E+00  0.45593999997E+02  0.45594000000E+02  0.51100000000E-03 0. -1.
         11   -1    0    0    0    0 -0.00000000000E+00 -0.00000000000E+00 -0.45593999997E+02  0.45594000000E+02  0.51100000000E-03 0.  1.
    9900012    2    1    2    0    0  0.39069815876E+01  0.34622088161E+02  0.25877998405E+02  0.47787259278E+02  0.19999946353E+02 0.  0.
        -12    1    1    2    0    0 -0.39069815876E+01 -0.34622088161E+02 -0.25877998405E+02  0.43400740722E+02  0.00000000000E+00 0.  1.
         11    1    3    3    0    0 -0.16215838265E+00  0.47850847441E+01  0.11045404512E+02  0.12038450583E+02  0.51100000000E-03 0. -1.
        -11    1    3    3    0    0  0.64448178745E+01  0.24657986199E+02  0.77088452654E+01  0.26626645610E+02  0.51100000000E-03 0.  1.
        -12    1    3    3    0    0 -0.23756779043E+01  0.51790172177E+01  0.71237486275E+01  0.91221630852E+01  0.00000000000E+00 0.  1.
</event>
<event>
 7    1  0.2950722E-010  0.4778727E+02  0.7816164E-02  0.1312668E+00
        -11   -1    0    0    0    0  0.00000000000E+00  0.00000000000E+00  0.45593999997E+02  0.45594000000E+02  0.51100000000E-03 0.  1.
         11   -1    0    0    0    0 -0.00000000000E+00 -0.00000000000E+00 -0.45593999997E+02  0.45594000000E+02  0.51100000000E-03 0. -1.
    9900012    2    1    2    0    0  0.28498579146E+02  0.98618239160E+01 -0.31212157205E+02  0.47787270264E+02  0.19999996441E+02 0.  0.
        -12    1    1    2    0    0 -0.28498579146E+02 -0.98618239160E+01  0.31212157205E+02  0.43400729736E+02  0.00000000000E+00 0.  1.
         11    1    3    3    0    0  0.80841281310E+00  0.48586683819E+00 -0.22907702596E+00  0.97060517502E+00  0.51100000000E-03 0. -1.
        -11    1    3    3    0    0  0.13962471935E+02 -0.34993547580E+01 -0.61395048548E+01  0.15648949690E+02  0.51100000000E-03 0.  1.
        -12    1    3    3    0    0  0.13727694397E+02  0.12875311836E+02 -0.24843575324E+02  0.31167715399E+02  0.00000000000E+00 0.  1.
</event>
<event>
 7    1  0.2950722E-010  0.4778727E+02  0.7816164E-02  0.1312668E+00
        -11   -1    0    0    0    0  0.00000000000E+00  0.00000000000E+00  0.45593999997E+02  0.45594000000E+02  0.51100000000E-03 0. -1.
         11   -1    0    0    0    0 -0.00000000000E+00 -0.00000000000E+00 -0.45593999997E+02  0.45594000000E+02  0.51100000000E-03 0.  1.
    9900012    2    1    2    0    0 -0.67315186577E+01 -0.42504159456E+02  0.56308340792E+01  0.47787271816E+02  0.20000003516E+02 0.  0.
        -12    1    1    2    0    0  0.67315186577E+01  0.42504159456E+02 -0.56308340792E+01  0.43400728184E+02  0.00000000000E+00 0.  1.
         11    1    3    3    0    0  0.36748702790E-01 -0.17650745307E+02  0.62788161139E+01  0.18734291885E+02  0.51100000000E-03 0. -1.
        -11    1    3    3    0    0 -0.99469350393E+01 -0.12840171703E+02 -0.26780940782E+01  0.16461582980E+02  0.51100000000E-03 0.  1.
        -12    1    3    3    0    0  0.31786676788E+01 -0.12013242446E+02  0.20301120435E+01  0.12591396951E+02  0.00000000000E+00 0.  1.
</event>
<event>
 7    1  0.2950722E-010  0.4778727E+02  0.7816164E-02  0.1312668E+00
        -11   -1    0    0    0    0  0.00000000000E+00  0.00000000000E+00  0.45593999997E+02  0.45594000000E+02  0.51100000000E-03 0. -1.
         11   -1    0    0    0    0 -0.00000000000E+00 -0.00000000000E+00 -0.45593999997E+02  0.45594000000E+02  0.51100000000E-03 0.  1.
    9900012    2    1    2    0    0 -0.89143854784E+01  0.36235152247E+00  0.42473825109E+02  0.47787269747E+02  0.19999994084E+02 0.  0.
        -12    1    1    2    0    0  0.89143854784E+01 -0.36235152247E+00 -0.42473825109E+02  0.43400730253E+02  0.00000000000E+00 0.  1.
         11    1    3    3    0    0 -0.96905215020E+01  0.50469716674E+01  0.24247790718E+02  0.26595741857E+02  0.51100000000E-03 0. -1.
        -11    1    3    3    0    0  0.20588856898E+01 -0.35063093491E+01  0.18893601183E+02  0.19326183831E+02  0.51100000000E-03 0.  1.
        -12    1    3    3    0    0 -0.12827496662E+01 -0.11783107958E+01 -0.66756679104E+00  0.18653440589E+01  0.00000000000E+00 0.  1.
</event>
<event>
 7    1  0.2950722E-010  0.4778727E+02  0.7816164E-02  0.1312668E+00
        -11   -1    0    0    0    0  0.00000000000E+00  0.00000000000E+00  0.45593999997E+02  0.45594000000E+02  0.51100000000E-03 0.  1.
         11   -1    0    0    0    0 -0.00000000000E+00 -0.00000000000E+00 -0.45593999997E+02  0.45594000000E+02  0.51100000000E-03 0. -1.
    9900012    2    1    2    0    0  0.23882522334E+02 -0.16194502287E+02 -0.32418919083E+02  0.47787273141E+02  0.20000009558E+02 0.  0.
        -12    1    1    2    0    0 -0.23882522334E+02  0.16194502287E+02  0.32418919083E+02  0.43400726859E+02  0.00000000000E+00 0.  1.
         11    1    3    3    0    0  0.98363575405E+01 -0.76076365819E+01 -0.23297576418E+02  0.26408467037E+02  0.51100000000E-03 0. -1.
        -11    1    3    3    0    0  0.10863828179E+02 -0.10598991080E+02 -0.54680064452E+01  0.16132590287E+02  0.51100000000E-03 0.  1.
        -12    1    3    3    0    0  0.31823366153E+01  0.20121253755E+01 -0.36533362200E+01  0.52462158168E+01  0.00000000000E+00 0.  1.
</event>
<event>
 7    1  0.2950722E-010  0.4778729E+02  0.7816164E-02  0.1312668E+00
        -11   -1    0    0    0    0  0.00000000000E+00  0.00000000000E+00  0.45593999997E+02  0.45594000000E+02  0.51100000000E-03 0.  1.
         11   -1    0    0    0    0 -0.00000000000E+00 -0.00000000000E+00 -0.45593999997E+02  0.45594000000E+02  0.51100000000E-03 0. -1.
    9900012    2    1    2    0    0 -0.38837534699E+02  0.18829597963E+02  0.45512712901E+01  0.47787286512E+02  0.20000070521E+02 0.  0.
        -12    1    1    2    0    0  0.38837534699E+02 -0.18829597963E+02 -0.45512712901E+01  0.43400713488E+02  0.00000000000E+00 0.  1.
         11    1    3    3    0    0 -0.33947518308E+01  0.32388703871E+01  0.46953623895E+01  0.66378497729E+01  0.51100000000E-03 0. -1.
        -11    1    3    3    0    0 -0.30261368416E+02  0.75050559257E+01  0.22272879903E+01  0.31257592596E+02  0.51100000000E-03 0.  1.
        -12    1    3    3    0    0 -0.51814144523E+01  0.80856716498E+01 -0.23713790897E+01  0.98918441427E+01  0.00000000000E+00 0.  1.
</event>
<event>
 7    1  0.2950722E-010  0.4778727E+02  0.7816164E-02  0.1312668E+00
        -11   -1    0    0    0    0  0.00000000000E+00  0.00000000000E+00  0.45593999997E+02  0.45594000000E+02  0.51100000000E-03 0.  1.
         11   -1    0    0    0    0 -0.00000000000E+00 -0.00000000000E+00 -0.45593999997E+02  0.45594000000E+02  0.51100000000E-03 0. -1.
    9900012    2    1    2    0    0 -0.13806908578E+02  0.35144422660E+02 -0.21397717506E+02  0.47787268635E+02  0.19999989012E+02 0.  0.
        -12    1    1    2    0    0  0.13806908578E+02 -0.35144422660E+02  0.21397717506E+02  0.43400731365E+02  0.00000000000E+00 0.  1.
         11    1    3    3    0    0  0.25901496587E+01  0.10868556695E+02 -0.84058312699E+00  0.11204507135E+02  0.51100000000E-03 0.  1.
        -11    1    3    3    0    0 -0.16933647504E+02  0.21205753421E+02 -0.18668858805E+02  0.32938711045E+02  0.51100000000E-03 0. -1.
         12    1    3    3    0    0  0.53658926700E+00  0.30701125445E+01 -0.18882755741E+01  0.36440504553E+01  0.00000000000E+00 0. -1.
</event>
<event>
 7    1  0.2950722E-010  0.4778727E+02  0.7816164E-02  0.1312668E+00
        -11   -1    0    0    0    0  0.00000000000E+00  0.00000000000E+00  0.45593999997E+02  0.45594000000E+02  0.51100000000E-03 0.  1.
         11   -1    0    0    0    0 -0.00000000000E+00 -0.00000000000E+00 -0.45593999997E+02  0.45594000000E+02  0.51100000000E-03 0. -1.
    9900012    2    1    2    0    0 -0.43388677472E+02 -0.67165213836E+00  0.77123920900E+00  0.47787271213E+02  0.20000000766E+02 0.  0.
        -12    1    1    2    0    0  0.43388677472E+02  0.67165213836E+00 -0.77123920900E+00  0.43400728787E+02  0.00000000000E+00 0.  1.
         11    1    3    3    0    0 -0.59558920998E+01  0.59347591969E+01  0.19780393431E+01  0.86375145345E+01  0.51100000000E-03 0. -1.
        -11    1    3    3    0    0 -0.88503564713E+01  0.14909882557E+00  0.32786222655E+01  0.94393010520E+01  0.51100000000E-03 0.  1.
         12    1    3    3    0    0 -0.28582428901E+02 -0.67555101608E+01 -0.44854223996E+01  0.29710455626E+02  0.00000000000E+00 0. -1.
</event>
<event>
 7    1  0.2950722E-010  0.4778727E+02  0.7816164E-02  0.1312668E+00
        -11   -1    0    0    0    0  0.00000000000E+00  0.00000000000E+00  0.45593999997E+02  0.45594000000E+02  0.51100000000E-03 0.  1.
         11   -1    0    0    0    0 -0.00000000000E+00 -0.00000000000E+00 -0.45593999997E+02  0.45594000000E+02  0.51100000000E-03 0. -1.
    9900012    2    1    2    0    0  0.21758266337E+02 -0.31719504738E+02 -0.20101595035E+02  0.47787271229E+02  0.20000000844E+02 0.  0.
        -12    1    1    2    0    0 -0.21758266337E+02  0.31719504738E+02  0.20101595035E+02  0.43400728771E+02  0.00000000000E+00 0.  1.
         11    1    3    3    0    0  0.76272846193E-01 -0.60358034526E+01  0.23428082019E+01  0.64749896832E+01  0.51100000000E-03 0.  1.
        -11    1    3    3    0    0  0.50476934442E+01 -0.93560452523E+01 -0.32468249375E+01  0.11115604541E+02  0.51100000000E-03 0. -1.
         12    1    3    3    0    0  0.16634300047E+02 -0.16327656033E+02 -0.19197578300E+02  0.30196677006E+02  0.00000000000E+00 0. -1.
</event>
<event>
 7    1  0.2950722E-010  0.4778727E+02  0.7816164E-02  0.1312668E+00
        -11   -1    0    0    0    0  0.00000000000E+00  0.00000000000E+00  0.45593999997E+02  0.45594000000E+02  0.51100000000E-03 0. -1.
         11   -1    0    0    0    0 -0.00000000000E+00 -0.00000000000E+00 -0.45593999997E+02  0.45594000000E+02  0.51100000000E-03 0.  1.
    9900012    2    1    2    0    0  0.20782727499E+01 -0.40385390450E+02 -0.15758301806E+02  0.47787273563E+02  0.20000011483E+02 0.  0.
        -12    1    1    2    0    0 -0.20782727499E+01  0.40385390450E+02  0.15758301806E+02  0.43400726437E+02  0.00000000000E+00 0.  1.
         11    1    3    3    0    0  0.27178136552E+00 -0.17128869883E+02 -0.45825515870E+01  0.17733353544E+02  0.51100000000E-03 0. -1.
        -11    1    3    3    0    0  0.53891709674E+00  0.13069793458E+01 -0.42828490033E+01  0.45101466156E+01  0.51100000000E-03 0.  1.
        -12    1    3    3    0    0  0.12675742876E+01 -0.24563499913E+02 -0.68929012156E+01  0.25543773404E+02  0.00000000000E+00 0.  1.
</event>
<event>
 7    1  0.2950722E-010  0.4778726E+02  0.7816164E-02  0.1312668E+00
        -11   -1    0    0    0    0  0.00000000000E+00  0.00000000000E+00  0.45593999997E+02  0.45594000000E+02  0.51100000000E-03 0. -1.
         11   -1    0    0    0    0 -0.00000000000E+00 -0.00000000000E+00 -0.45593999997E+02  0.45594000000E+02  0.51100000000E-03 0.  1.
    9900012    2    1    2    0    0  0.27401446443E+02  0.32108119633E+02  0.10092244136E+02  0.47787262619E+02  0.19999961585E+02 0.  0.
        -12    1    1    2    0    0 -0.27401446443E+02 -0.32108119633E+02 -0.10092244136E+02  0.43400737381E+02  0.00000000000E+00 0.  1.
         11    1    3    3    0    0  0.19033086176E+02  0.28934791089E+02  0.81356733731E+00  0.34643071411E+02  0.51100000000E-03 0. -1.
        -11    1    3    3    0    0  0.31944142377E+01  0.26660156826E-02  0.38445342127E+01  0.49984730672E+01  0.51100000000E-03 0.  1.
         12    1    3    3    0    0  0.51739460293E+01  0.31706625282E+01  0.54341425855E+01  0.81457181403E+01  0.00000000000E+00 0. -1.
</event>
<event>
 7    1  0.2950722E-010  0.4778727E+02  0.7816164E-02  0.1312668E+00
        -11   -1    0    0    0    0  0.00000000000E+00  0.00000000000E+00  0.45593999997E+02  0.45594000000E+02  0.51100000000E-03 0.  1.
         11   -1    0    0    0    0 -0.00000000000E+00 -0.00000000000E+00 -0.45593999997E+02  0.45594000000E+02  0.51100000000E-03 0. -1.
    9900012    2    1    2    0    0  0.31454907052E+02  0.13718501674E+02 -0.26570938579E+02  0.47787271402E+02  0.20000001630E+02 0.  0.
        -12    1    1    2    0    0 -0.31454907052E+02 -0.13718501674E+02  0.26570938579E+02  0.43400728598E+02  0.00000000000E+00 0.  1.
         11    1    3    3    0    0  0.44389100788E+01  0.81853233385E+01 -0.13185253917E+02  0.16141696378E+02  0.51100000000E-03 0. -1.
        -11    1    3    3    0    0  0.19353235998E+02  0.23404735241E+00 -0.87895565966E+01  0.21256971261E+02  0.51100000000E-03 0.  1.
         12    1    3    3    0    0  0.76627609753E+01  0.52991309834E+01 -0.45961280659E+01  0.10388603763E+02  0.00000000000E+00 0. -1.
</event>
<event>
 7    1  0.2950722E-010  0.4778727E+02  0.7816164E-02  0.1312668E+00
        -11   -1    0    0    0    0  0.00000000000E+00  0.00000000000E+00  0.45593999997E+02  0.45594000000E+02  0.51100000000E-03 0. -1.
         11   -1    0    0    0    0 -0.00000000000E+00 -0.00000000000E+00 -0.45593999997E+02  0.45594000000E+02  0.51100000000E-03 0.  1.
    9900012    2    1    2    0    0  0.37207700432E+02 -0.21529861262E+02  0.59728669392E+01  0.47787273775E+02  0.20000012450E+02 0.  0.
        -12    1    1    2    0    0 -0.37207700432E+02  0.21529861262E+02 -0.59728669392E+01  0.43400726225E+02  0.00000000000E+00 0.  1.
         11    1    3    3    0    0  0.34845273520E+01 -0.25819498794E+01  0.74002676157E+01  0.85774330130E+01  0.51100000000E-03 0. -1.
        -11    1    3    3    0    0  0.33539488142E+02 -0.19345968948E+02 -0.12568223437E+01  0.38739429294E+02  0.51100000000E-03 0.  1.
        -12    1    3    3    0    0  0.18368493792E+00  0.39805756535E+00 -0.17057833288E+00  0.47041146819E+00  0.00000000000E+00 0.  1.
</event>
<event>
 7    1  0.2950722E-010  0.4778727E+02  0.7816164E-02  0.1312668E+00
        -11   -1    0    0    0    0  0.00000000000E+00  0.00000000000E+00  0.45593999997E+02  0.45594000000E+02  0.51100000000E-03 0.  1.
         11   -1    0    0    0    0 -0.00000000000E+00 -0.00000000000E+00 -0.45593999997E+02  0.45594000000E+02  0.51100000000E-03 0. -1.
    9900012    2    1    2    0    0 -0.20112959077E+02 -0.60717577322E+01 -0.37976651026E+02  0.47787269731E+02  0.19999994010E+02 0.  0.
        -12    1    1    2    0    0  0.20112959077E+02  0.60717577322E+01  0.37976651026E+02  0.43400730269E+02  0.00000000000E+00 0.  1.
         11    1    3    3    0    0 -0.93977181136E+01  0.13850481609E+01 -0.17809320917E+02  0.20184334914E+02  0.51100000000E-03 0. -1.
        -11    1    3    3    0    0 -0.99346943991E+01 -0.79748107643E+01 -0.72626663482E+01  0.14664313222E+02  0.51100000000E-03 0.  1.
        -12    1    3    3    0    0 -0.78054656447E+00  0.51800487121E+00 -0.12904663761E+02  0.12938621594E+02  0.00000000000E+00 0.  1.
</event>
<event>
 7    1  0.2950722E-010  0.4778727E+02  0.7816164E-02  0.1312668E+00
        -11   -1    0    0    0    0  0.00000000000E+00  0.00000000000E+00  0.45593999997E+02  0.45594000000E+02  0.51100000000E-03 0.  1.
         11   -1    0    0    0    0 -0.00000000000E+00 -0.00000000000E+00 -0.45593999997E+02  0.45594000000E+02  0.51100000000E-03 0. -1.
    9900012    2    1    2    0    0  0.25993629826E+02  0.34691337478E+02  0.21131563034E+01  0.47787272851E+02  0.20000008235E+02 0.  0.
        -12    1    1    2    0    0 -0.25993629826E+02 -0.34691337478E+02 -0.21131563034E+01  0.43400727149E+02  0.00000000000E+00 0.  1.
         11    1    3    3    0    0  0.28487696017E+02  0.28397647200E+02  0.19002678050E+01  0.40268923611E+02  0.51100000000E-03 0. -1.
        -11    1    3    3    0    0  0.43189224930E+00  0.31209237261E+01  0.51209166850E+00  0.31920109582E+01  0.51100000000E-03 0.  1.
         12    1    3    3    0    0 -0.29259584398E+01  0.31727665518E+01 -0.29920317011E+00  0.43263382809E+01  0.00000000000E+00 0. -1.
</event>
<event>
 7    1  0.2950722E-010  0.4778727E+02  0.7816164E-02  0.1312668E+00
        -11   -1    0    0    0    0  0.00000000000E+00  0.00000000000E+00  0.45593999997E+02  0.45594000000E+02  0.51100000000E-03 0. -1.
         11   -1    0    0    0    0 -0.00000000000E+00 -0.00000000000E+00 -0.45593999997E+02  0.45594000000E+02  0.51100000000E-03 0.  1.
    9900012    2    1    2    0    0 -0.40044698220E+02  0.91110195208E+01  0.14036895721E+02  0.47787274503E+02  0.20000015767E+02 0.  0.
        -12    1    1    2    0    0  0.40044698220E+02 -0.91110195208E+01 -0.14036895721E+02  0.43400725497E+02  0.00000000000E+00 0.  1.
         11    1    3    3    0    0 -0.30644923613E+02  0.71909629428E+01  0.16363477713E+02  0.35476537238E+02  0.51100000000E-03 0. -1.
        -11    1    3    3    0    0 -0.99013687432E-01  0.65899953581E+00  0.19026957763E+01  0.20160197362E+01  0.51100000000E-03 0.  1.
         12    1    3    3    0    0 -0.93007609194E+01  0.12610570422E+01 -0.42292777684E+01  0.10294717528E+02  0.00000000000E+00 0. -1.
</event>
<event>
 7    1  0.2950722E-010  0.4778727E+02  0.7816164E-02  0.1312668E+00
        -11   -1    0    0    0    0  0.00000000000E+00  0.00000000000E+00  0.45593999997E+02  0.45594000000E+02  0.51100000000E-03 0.  1.
         11   -1    0    0    0    0 -0.00000000000E+00 -0.00000000000E+00 -0.45593999997E+02  0.45594000000E+02  0.51100000000E-03 0. -1.
    9900012    2    1    2    0    0 -0.50731822321E+01  0.36404464033E+02 -0.23078158436E+02  0.47787267560E+02  0.19999984114E+02 0.  0.
        -12    1    1    2    0    0  0.50731822321E+01 -0.36404464033E+02  0.23078158436E+02  0.43400732440E+02  0.00000000000E+00 0.  1.
         11    1    3    3    0    0 -0.22076147679E+01  0.20611365249E+02 -0.64659647454E+01  0.21714295769E+02  0.51100000000E-03 0. -1.
        -11    1    3    3    0    0 -0.71744474213E+01  0.74186823476E+01 -0.11117621847E+02  0.15169411965E+02  0.51100000000E-03 0.  1.
        -12    1    3    3    0    0  0.43088799571E+01  0.83744164366E+01 -0.54945718435E+01  0.10903559826E+02  0.00000000000E+00 0.  1.
</event>
<event>
 7    1  0.2950722E-010  0.4778727E+02  0.7816164E-02  0.1312668E+00
        -11   -1    0    0    0    0  0.00000000000E+00  0.00000000000E+00  0.45593999997E+02  0.45594000000E+02  0.51100000000E-03 0. -1.
         11   -1    0    0    0    0 -0.00000000000E+00 -0.00000000000E+00 -0.45593999997E+02  0.45594000000E+02  0.51100000000E-03 0.  1.
    9900012    2    1    2    0    0 -0.42120278489E+02  0.99980845622E+01 -0.30892378015E+01  0.47787274832E+02  0.20000017269E+02 0.  0.
        -12    1    1    2    0    0  0.42120278489E+02 -0.99980845622E+01  0.30892378015E+01  0.43400725168E+02  0.00000000000E+00 0.  1.
         11    1    3    3    0    0 -0.22798773162E+02  0.91769990444E+00 -0.17178410138E+01  0.22881809562E+02  0.51100000000E-03 0. -1.
        -11    1    3    3    0    0 -0.12498148442E+02  0.12037435873E+02 -0.18665849485E+01  0.17452441563E+02  0.51100000000E-03 0.  1.
        -12    1    3    3    0    0 -0.68233568850E+01 -0.29570512151E+01  0.49518816079E+00  0.74530237074E+01  0.00000000000E+00 0.  1.
</event>
<event>
 7    1  0.2950722E-010  0.4778728E+02  0.7816164E-02  0.1312668E+00
        -11   -1    0    0    0    0  0.00000000000E+00  0.00000000000E+00  0.45593999997E+02  0.45594000000E+02  0.51100000000E-03 0.  1.
         11   -1    0    0    0    0 -0.00000000000E+00 -0.00000000000E+00 -0.45593999997E+02  0.45594000000E+02  0.51100000000E-03 0. -1.
    9900012    2    1    2    0    0  0.26682251526E+02 -0.12041003195E+02 -0.32042064131E+02  0.47787283667E+02  0.20000057553E+02 0.  0.
        -12    1    1    2    0    0 -0.26682251526E+02  0.12041003195E+02  0.32042064131E+02  0.43400716333E+02  0.00000000000E+00 0.  1.
         11    1    3    3    0    0  0.13366955214E+02  0.67051352122E+00 -0.45376953672E+01  0.14132082634E+02  0.51100000000E-03 0.  1.
        -11    1    3    3    0    0  0.11700616921E+02 -0.13256048710E+02 -0.25383021909E+02  0.30934205424E+02  0.51100000000E-03 0. -1.
         12    1    3    3    0    0  0.16146793910E+01  0.54453199351E+00 -0.21213468549E+01  0.27209956094E+01  0.00000000000E+00 0. -1.
</event>
<event>
 7    1  0.2950722E-010  0.4778727E+02  0.7816164E-02  0.1312668E+00
        -11   -1    0    0    0    0  0.00000000000E+00  0.00000000000E+00  0.45593999997E+02  0.45594000000E+02  0.51100000000E-03 0.  1.
         11   -1    0    0    0    0 -0.00000000000E+00 -0.00000000000E+00 -0.45593999997E+02  0.45594000000E+02  0.51100000000E-03 0. -1.
    9900012    2    1    2    0    0 -0.74467408671E+01  0.20387599618E+02 -0.37583439031E+02  0.47787273541E+02  0.20000011384E+02 0.  0.
        -12    1    1    2    0    0  0.74467408671E+01 -0.20387599618E+02  0.37583439031E+02  0.43400726459E+02  0.00000000000E+00 0.  1.
         11    1    3    3    0    0 -0.58884812586E+01  0.42331172263E+01 -0.12745935031E+02  0.14664663415E+02  0.51100000000E-03 0. -1.
        -11    1    3    3    0    0 -0.59526604926E+01  0.92057856870E+00 -0.76936242064E+01  0.97710534504E+01  0.51100000000E-03 0.  1.
         12    1    3    3    0    0  0.43944008841E+01  0.15233903823E+02 -0.17143879793E+02  0.23351556676E+02  0.00000000000E+00 0. -1.
</event>
<event>
 7    1  0.2950722E-010  0.4778727E+02  0.7816164E-02  0.1312668E+00
        -11   -1    0    0    0    0  0.00000000000E+00  0.00000000000E+00  0.45593999997E+02  0.45594000000E+02  0.51100000000E-03 0.  1.
         11   -1    0    0    0    0 -0.00000000000E+00 -0.00000000000E+00 -0.45593999997E+02  0.45594000000E+02  0.51100000000E-03 0. -1.
    9900012    2    1    2    0    0  0.33859978257E+02  0.34873096846E+00 -0.27147812604E+02  0.47787268785E+02  0.19999989698E+02 0.  0.
        -12    1    1    2    0    0 -0.33859978257E+02 -0.34873096846E+00  0.27147812604E+02  0.43400731215E+02  0.00000000000E+00 0.  1.
         11    1    3    3    0    0  0.99011686978E+01  0.29069832410E+00 -0.97049982360E+01  0.13867394785E+02  0.51100000000E-03 0. -1.
        -11    1    3    3    0    0  0.17149357131E+02 -0.45510894233E+01 -0.18495598203E+02  0.25630060829E+02  0.51100000000E-03 0.  1.
        -12    1    3    3    0    0  0.68094524283E+01  0.46091220676E+01  0.10527838354E+01  0.82898131711E+01  0.00000000000E+00 0.  1.
</event>
<event>
 7    1  0.2950722E-010  0.4778727E+02  0.7816164E-02  0.1312668E+00
        -11   -1    0    0    0    0  0.00000000000E+00  0.00000000000E+00  0.45593999997E+02  0.45594000000E+02  0.51100000000E-03 0.  1.
         11   -1    0    0    0    0 -0.00000000000E+00 -0.00000000000E+00 -0.45593999997E+02  0.45594000000E+02  0.51100000000E-03 0. -1.
    9900012    2    1    2    0    0 -0.14374887883E+02 -0.39304987738E+02 -0.11493647928E+02  0.47787269529E+02  0.19999993090E+02 0.  0.
        -12    1    1    2    0    0  0.14374887883E+02  0.39304987738E+02  0.11493647928E+02  0.43400730471E+02  0.00000000000E+00 0.  1.
         11    1    3    3    0    0 -0.17819316983E+02 -0.36413034954E+02 -0.11786410423E+02  0.42217965882E+02  0.51100000000E-03 0. -1.
        -11    1    3    3    0    0  0.18804096250E+01 -0.32193942414E+01  0.94043269397E+00  0.38451077426E+01  0.51100000000E-03 0.  1.
         12    1    3    3    0    0  0.15640194757E+01  0.32744145741E+00 -0.64767019891E+00  0.17241959039E+01  0.00000000000E+00 0. -1.
</event>
<event>
 7    1  0.2950722E-010  0.4778727E+02  0.7816164E-02  0.1312668E+00
        -11   -1    0    0    0    0  0.00000000000E+00  0.00000000000E+00  0.45593999997E+02  0.45594000000E+02  0.51100000000E-03 0. -1.
         11   -1    0    0    0    0 -0.00000000000E+00 -0.00000000000E+00 -0.45593999997E+02  0.45594000000E+02  0.51100000000E-03 0.  1.
    9900012    2    1    2    0    0 -0.41724083717E+02 -0.78837748694E+01 -0.89760969079E+01  0.47787269777E+02  0.19999994221E+02 0.  0.
        -12    1    1    2    0    0  0.41724083717E+02  0.78837748694E+01  0.89760969079E+01  0.43400730223E+02  0.00000000000E+00 0.  1.
         11    1    3    3    0    0 -0.17346095136E+02 -0.89541838639E+01 -0.96225529440E+01  0.21763684214E+02  0.51100000000E-03 0. -1.
        -11    1    3    3    0    0 -0.80743483054E+01  0.45083699722E+01 -0.89137132256E+00  0.92905889727E+01  0.51100000000E-03 0.  1.
         12    1    3    3    0    0 -0.16303640276E+02 -0.34379609777E+01  0.15378273586E+01  0.16732996591E+02  0.00000000000E+00 0. -1.
</event>
<event>
 7    1  0.2950722E-010  0.4778727E+02  0.7816164E-02  0.1312668E+00
        -11   -1    0    0    0    0  0.00000000000E+00  0.00000000000E+00  0.45593999997E+02  0.45594000000E+02  0.51100000000E-03 0.  1.
         11   -1    0    0    0    0 -0.00000000000E+00 -0.00000000000E+00 -0.45593999997E+02  0.45594000000E+02  0.51100000000E-03 0. -1.
    9900012    2    1    2    0    0 -0.10962805406E+02  0.40522933634E+02  0.11015072950E+02  0.47787273223E+02  0.20000009934E+02 0.  0.
        -12    1    1    2    0    0  0.10962805406E+02 -0.40522933634E+02 -0.11015072950E+02  0.43400726777E+02  0.00000000000E+00 0.  1.
         11    1    3    3    0    0  0.10319600411E+01  0.74694687468E+01  0.38043250963E+01  0.84457560103E+01  0.51100000000E-03 0. -1.
        -11    1    3    3    0    0 -0.29141399894E+00 -0.88663569947E+00  0.30623369363E+01  0.32013985623E+01  0.51100000000E-03 0.  1.
        -12    1    3    3    0    0 -0.11703351448E+02  0.33940100586E+02  0.41484109176E+01  0.36140118651E+02  0.00000000000E+00 0.  1.
</event>
<event>
 7    1  0.2950722E-010  0.4778728E+02  0.7816164E-02  0.1312668E+00
        -11   -1    0    0    0    0  0.00000000000E+00  0.00000000000E+00  0.45593999997E+02  0.45594000000E+02  0.51100000000E-03 0.  1.
         11   -1    0    0    0    0 -0.00000000000E+00 -0.00000000000E+00 -0.45593999997E+02  0.45594000000E+02  0.51100000000E-03 0. -1.
    9900012    2    1    2    0    0 -0.41774073002E+02 -0.11527642270E+02 -0.23795865006E+01  0.47787284068E+02  0.20000059379E+02 0.  0.
        -12    1    1    2    0    0  0.41774073002E+02  0.11527642270E+02  0.23795865006E+01  0.43400715932E+02  0.00000000000E+00 0.  1.
         11    1    3    3    0    0 -0.17883971187E+02  0.43519081637E+01  0.14837318202E+01  0.18465562283E+02  0.51100000000E-03 0. -1.
        -11    1    3    3    0    0 -0.11841921793E+02 -0.93126046145E+01 -0.40458547002E+01  0.15598867170E+02  0.51100000000E-03 0.  1.
         12    1    3    3    0    0 -0.12048180022E+02 -0.65669458195E+01  0.18253637940E+00  0.13722854615E+02  0.00000000000E+00 0. -1.
</event>
<event>
 7    1  0.2950722E-010  0.4778727E+02  0.7816164E-02  0.1312668E+00
        -11   -1    0    0    0    0  0.00000000000E+00  0.00000000000E+00  0.45593999997E+02  0.45594000000E+02  0.51100000000E-03 0.  1.
         11   -1    0    0    0    0 -0.00000000000E+00 -0.00000000000E+00 -0.45593999997E+02  0.45594000000E+02  0.51100000000E-03 0. -1.
    9900012    2    1    2    0    0  0.13199641844E+02  0.35811239505E+02  0.20662725456E+02  0.47787266792E+02  0.19999980612E+02 0.  0.
        -12    1    1    2    0    0 -0.13199641844E+02 -0.35811239505E+02 -0.20662725456E+02  0.43400733208E+02  0.00000000000E+00 0.  1.
         11    1    3    3    0    0 -0.43820863500E+01  0.55312933632E+01  0.22403804880E+01  0.74038633186E+01  0.51100000000E-03 0.  1.
        -11    1    3    3    0    0  0.17374876413E+02  0.24558599298E+02  0.14180145133E+02  0.33257895996E+02  0.51100000000E-03 0. -1.
         12    1    3    3    0    0  0.20685178148E+00  0.57213468445E+01  0.42421998352E+01  0.71255074778E+01  0.00000000000E+00 0. -1.
</event>
<event>
 7    1  0.2950722E-010  0.4778727E+02  0.7816164E-02  0.1312668E+00
        -11   -1    0    0    0    0  0.00000000000E+00  0.00000000000E+00  0.45593999997E+02  0.45594000000E+02  0.51100000000E-03 0.  1.
         11   -1    0    0    0    0 -0.00000000000E+00 -0.00000000000E+00 -0.45593999997E+02  0.45594000000E+02  0.51100000000E-03 0. -1.
    9900012    2    1    2    0    0  0.59876405531E+01 -0.21887855725E+01 -0.42929952460E+02  0.47787269132E+02  0.19999991279E+02 0.  0.
        -12    1    1    2    0    0 -0.59876405531E+01  0.21887855725E+01  0.42929952460E+02  0.43400730868E+02  0.00000000000E+00 0.  1.
         11    1    3    3    0    0 -0.92230365596E+00  0.56882735329E+01 -0.24277741436E+02  0.24952271026E+02  0.51100000000E-03 0. -1.
        -11    1    3    3    0    0  0.48327511977E+01 -0.45719989621E+01 -0.42062469364E+01  0.78709066949E+01  0.51100000000E-03 0.  1.
        -12    1    3    3    0    0  0.20771930113E+01 -0.33050601433E+01 -0.14445964087E+02  0.14964091411E+02  0.00000000000E+00 0.  1.
</event>
<event>
 7    1  0.2950722E-010  0.4778727E+02  0.7816164E-02  0.1312668E+00
        -11   -1    0    0    0    0  0.00000000000E+00  0.00000000000E+00  0.45593999997E+02  0.45594000000E+02  0.51100000000E-03 0.  1.
         11   -1    0    0    0    0 -0.00000000000E+00 -0.00000000000E+00 -0.45593999997E+02  0.45594000000E+02  0.51100000000E-03 0. -1.
    9900012    2    1    2    0    0  0.25450336821E+02 -0.31616924624E+01 -0.35012959342E+02  0.47787271142E+02  0.20000000445E+02 0.  0.
        -12    1    1    2    0    0 -0.25450336821E+02  0.31616924624E+01  0.35012959342E+02  0.43400728858E+02  0.00000000000E+00 0.  1.
         11    1    3    3    0    0  0.10498864489E+02 -0.75546154025E+01 -0.25406651821E+02  0.28509583064E+02  0.51100000000E-03 0. -1.
        -11    1    3    3    0    0  0.12854450082E+02  0.55388208701E+01 -0.94388202333E+01  0.16882142968E+02  0.51100000000E-03 0.  1.
         12    1    3    3    0    0  0.20970222504E+01 -0.11458979300E+01 -0.16748728744E+00  0.23955451104E+01  0.00000000000E+00 0. -1.
</event>
<event>
 7    1  0.2950722E-010  0.4778727E+02  0.7816164E-02  0.1312668E+00
        -11   -1    0    0    0    0  0.00000000000E+00  0.00000000000E+00  0.45593999997E+02  0.45594000000E+02  0.51100000000E-03 0. -1.
         11   -1    0    0    0    0 -0.00000000000E+00 -0.00000000000E+00 -0.45593999997E+02  0.45594000000E+02  0.51100000000E-03 0.  1.
    9900012    2    1    2    0    0  0.78845286840E+01 -0.20703733068E+02  0.37320412629E+02  0.47787267813E+02  0.19999985267E+02 0.  0.
        -12    1    1    2    0    0 -0.78845286840E+01  0.20703733068E+02 -0.37320412629E+02  0.43400732187E+02  0.00000000000E+00 0.  1.
         11    1    3    3    0    0  0.32801498923E+01  0.75683041193E+00  0.15343763811E+02  0.15708700256E+02  0.51100000000E-03 0. -1.
        -11    1    3    3    0    0  0.33206222999E+01 -0.87181005167E+01  0.43573770715E+01  0.10296530692E+02  0.51100000000E-03 0.  1.
         12    1    3    3    0    0  0.12837564918E+01 -0.12742462964E+02  0.17619271747E+02  0.21782036865E+02  0.00000000000E+00 0. -1.
</event>
<event>
 7    1  0.2950722E-010  0.4778727E+02  0.7816164E-02  0.1312668E+00
        -11   -1    0    0    0    0  0.00000000000E+00  0.00000000000E+00  0.45593999997E+02  0.45594000000E+02  0.51100000000E-03 0. -1.
         11   -1    0    0    0    0 -0.00000000000E+00 -0.00000000000E+00 -0.45593999997E+02  0.45594000000E+02  0.51100000000E-03 0.  1.
    9900012    2    1    2    0    0 -0.10444151044E+02 -0.40523809536E+02  0.11504946025E+02  0.47787271742E+02  0.20000003179E+02 0.  0.
        -12    1    1    2    0    0  0.10444151044E+02  0.40523809536E+02 -0.11504946025E+02  0.43400728258E+02  0.00000000000E+00 0.  1.
         11    1    3    3    0    0 -0.69324543115E+01 -0.28984476880E+02  0.15426508714E+02  0.33557949790E+02  0.51100000000E-03 0. -1.
        -11    1    3    3    0    0 -0.21726725681E+01 -0.25598380124E+01 -0.39057172116E+01  0.51505246272E+01  0.51100000000E-03 0.  1.
        -12    1    3    3    0    0 -0.13390241641E+01 -0.89794946438E+01 -0.15845477421E-01  0.90787973239E+01  0.00000000000E+00 0.  1.
</event>
<event>
 7    1  0.2950722E-010  0.4778723E+02  0.7816164E-02  0.1312668E+00
        -11   -1    0    0    0    0  0.00000000000E+00  0.00000000000E+00  0.45593999997E+02  0.45594000000E+02  0.51100000000E-03 0. -1.
         11   -1    0    0    0    0 -0.00000000000E+00 -0.00000000000E+00 -0.45593999997E+02  0.45594000000E+02  0.51100000000E-03 0.  1.
    9900012    2    1    2    0    0 -0.37185876726E+02  0.14336405566E+02 -0.17184434007E+02  0.47787231290E+02  0.19999818744E+02 0.  0.
        -12    1    1    2    0    0  0.37185876726E+02 -0.14336405566E+02  0.17184434007E+02  0.43400768710E+02  0.00000000000E+00 0.  1.
         11    1    3    3    0    0 -0.17535101200E+02  0.10258211864E+02 -0.67274731960E+01  0.21400223845E+02  0.51100000000E-03 0. -1.
        -11    1    3    3    0    0  0.29584724567E-01  0.17082902871E+00  0.24977623379E+01  0.25037721084E+01  0.51100000000E-03 0.  1.
        -12    1    3    3    0    0 -0.19680360251E+02  0.39073646730E+01 -0.12954723149E+02  0.23883235337E+02  0.00000000000E+00 0.  1.
</event>
<event>
 7    1  0.2950722E-010  0.4778727E+02  0.7816164E-02  0.1312668E+00
        -11   -1    0    0    0    0  0.00000000000E+00  0.00000000000E+00  0.45593999997E+02  0.45594000000E+02  0.51100000000E-03 0.  1.
         11   -1    0    0    0    0 -0.00000000000E+00 -0.00000000000E+00 -0.45593999997E+02  0.45594000000E+02  0.51100000000E-03 0. -1.
    9900012    2    1    2    0    0 -0.43112268400E+02  0.94014323043E+00 -0.49063017769E+01  0.47787270133E+02  0.19999995844E+02 0.  0.
        -12    1    1    2    0    0  0.43112268400E+02 -0.94014323043E+00  0.49063017769E+01  0.43400729867E+02  0.00000000000E+00 0.  1.
         11    1    3    3    0    0 -0.14548081835E+02  0.38050896087E+01 -0.95497680535E+00  0.15067759388E+02  0.51100000000E-03 0. -1.
        -11    1    3    3    0    0 -0.28887852130E+02 -0.58313286019E+01 -0.39608126108E+01  0.29735507911E+02  0.51100000000E-03 0.  1.
        -12    1    3    3    0    0  0.32366556532E+00  0.29663822236E+01  0.94876393225E-02  0.29840028335E+01  0.00000000000E+00 0.  1.
</event>
<event>
 7    1  0.2950722E-010  0.4778727E+02  0.7816164E-02  0.1312668E+00
        -11   -1    0    0    0    0  0.00000000000E+00  0.00000000000E+00  0.45593999997E+02  0.45594000000E+02  0.51100000000E-03 0.  1.
         11   -1    0    0    0    0 -0.00000000000E+00 -0.00000000000E+00 -0.45593999997E+02  0.45594000000E+02  0.51100000000E-03 0. -1.
    9900012    2    1    2    0    0  0.14249266188E+01  0.42598056047E+02 -0.81852686633E+01  0.47787269385E+02  0.19999992433E+02 0.  0.
        -12    1    1    2    0    0 -0.14249266188E+01 -0.42598056047E+02  0.81852686633E+01  0.43400730615E+02  0.00000000000E+00 0.  1.
         11    1    3    3    0    0  0.24563310444E+01  0.11416118040E+02 -0.22906756439E+01  0.11899937330E+02  0.51100000000E-03 0. -1.
        -11    1    3    3    0    0 -0.29674466859E+01  0.16268072357E+02 -0.11163637395E+02  0.19952010380E+02  0.51100000000E-03 0.  1.
        -12    1    3    3    0    0  0.19360422602E+01  0.14913865650E+02  0.52690443752E+01  0.15935321675E+02  0.00000000000E+00 0.  1.
</event>
<event>
 7    1  0.2950722E-010  0.4778727E+02  0.7816164E-02  0.1312668E+00
        -11   -1    0    0    0    0  0.00000000000E+00  0.00000000000E+00  0.45593999997E+02  0.45594000000E+02  0.51100000000E-03 0.  1.
         11   -1    0    0    0    0 -0.00000000000E+00 -0.00000000000E+00 -0.45593999997E+02  0.45594000000E+02  0.51100000000E-03 0. -1.
    9900012    2    1    2    0    0  0.26058574188E+02 -0.30572982157E+02 -0.16427620552E+02  0.47787271392E+02  0.20000001585E+02 0.  0.
        -12    1    1    2    0    0 -0.26058574188E+02  0.30572982157E+02  0.16427620552E+02  0.43400728608E+02  0.00000000000E+00 0.  1.
         11    1    3    3    0    0  0.22148390144E+01 -0.24697747175E+01 -0.28193316183E+01  0.43536111506E+01  0.51100000000E-03 0. -1.
        -11    1    3    3    0    0 -0.23610052223E+01 -0.50249514807E+01 -0.49959348219E+01  0.74688585506E+01  0.51100000000E-03 0.  1.
        -12    1    3    3    0    0  0.26204740396E+02 -0.23078255959E+02 -0.86123541114E+01  0.35964801691E+02  0.00000000000E+00 0.  1.
</event>
<event>
 7    1  0.2950722E-010  0.4778727E+02  0.7816164E-02  0.1312668E+00
        -11   -1    0    0    0    0  0.00000000000E+00  0.00000000000E+00  0.45593999997E+02  0.45594000000E+02  0.51100000000E-03 0.  1.
         11   -1    0    0    0    0 -0.00000000000E+00 -0.00000000000E+00 -0.45593999997E+02  0.45594000000E+02  0.51100000000E-03 0. -1.
    9900012    2    1    2    0    0 -0.31939567424E+02 -0.25053029103E+02 -0.15356866393E+02  0.47787267520E+02  0.19999983929E+02 0.  0.
        -12    1    1    2    0    0  0.31939567424E+02  0.25053029103E+02  0.15356866393E+02  0.43400732480E+02  0.00000000000E+00 0.  1.
         11    1    3    3    0    0 -0.91545241056E+01 -0.55161503613E+01 -0.10811325790E+02  0.15202565310E+02  0.51100000000E-03 0. -1.
        -11    1    3    3    0    0 -0.90846609256E+00  0.15745082510E+01 -0.66744124439E+00  0.19364568030E+01  0.51100000000E-03 0.  1.
         12    1    3    3    0    0 -0.21876577225E+02 -0.21111386993E+02 -0.38780993578E+01  0.30648245406E+02  0.00000000000E+00 0. -1.
</event>
<event>
 7    1  0.2950722E-010  0.4778727E+02  0.7816164E-02  0.1312668E+00
        -11   -1    0    0    0    0  0.00000000000E+00  0.00000000000E+00  0.45593999997E+02  0.45594000000E+02  0.51100000000E-03 0.  1.
         11   -1    0    0    0    0 -0.00000000000E+00 -0.00000000000E+00 -0.45593999997E+02  0.45594000000E+02  0.51100000000E-03 0. -1.
    9900012    2    1    2    0    0 -0.17136788947E+02 -0.54927748838E+01 -0.39494090100E+02  0.47787271156E+02  0.20000000510E+02 0.  0.
        -12    1    1    2    0    0  0.17136788947E+02  0.54927748838E+01  0.39494090100E+02  0.43400728844E+02  0.00000000000E+00 0.  1.
         11    1    3    3    0    0  0.11189282016E+01  0.42736455546E+00 -0.96499157252E-01  0.12016460095E+01  0.51100000000E-03 0.  1.
        -11    1    3    3    0    0 -0.60723224919E+01  0.20440269037E+01 -0.26084860820E+02  0.26860214271E+02  0.51100000000E-03 0. -1.
        -12    1    3    3    0    0 -0.12183394657E+02 -0.79641663430E+01 -0.13312730123E+02  0.19725410876E+02  0.00000000000E+00 0.  1.
</event>
<event>
 7    1  0.2950722E-010  0.4778727E+02  0.7816164E-02  0.1312668E+00
        -11   -1    0    0    0    0  0.00000000000E+00  0.00000000000E+00  0.45593999997E+02  0.45594000000E+02  0.51100000000E-03 0.  1.
         11   -1    0    0    0    0 -0.00000000000E+00 -0.00000000000E+00 -0.45593999997E+02  0.45594000000E+02  0.51100000000E-03 0. -1.
    9900012    2    1    2    0    0  0.20045250249E+01  0.24125432026E+02 -0.36021777232E+02  0.47787273901E+02  0.20000013024E+02 0.  0.
        -12    1    1    2    0    0 -0.20045250249E+01 -0.24125432026E+02  0.36021777232E+02  0.43400726099E+02  0.00000000000E+00 0.  1.
         11    1    3    3    0    0 -0.50697486565E+01  0.14422342702E+02 -0.29948718734E+02  0.33624872856E+02  0.51100000000E-03 0. -1.
        -11    1    3    3    0    0  0.55995899194E+01  0.70793929204E+01 -0.64992362955E+01  0.11122647350E+02  0.51100000000E-03 0.  1.
         12    1    3    3    0    0  0.14746837621E+01  0.26236964029E+01  0.42617779828E+00  0.30397536954E+01  0.00000000000E+00 0. -1.
</event>
<event>
 7    1  0.2950722E-010  0.4778728E+02  0.7816164E-02  0.1312668E+00
        -11   -1    0    0    0    0  0.00000000000E+00  0.00000000000E+00  0.45593999997E+02  0.45594000000E+02  0.51100000000E-03 0. -1.
         11   -1    0    0    0    0 -0.00000000000E+00 -0.00000000000E+00 -0.45593999997E+02  0.45594000000E+02  0.51100000000E-03 0.  1.
    9900012    2    1    2    0    0 -0.10423498263E+02 -0.18418182819E+02  0.37891212713E+02  0.47787276789E+02  0.20000026192E+02 0.  0.
        -12    1    1    2    0    0  0.10423498263E+02  0.18418182819E+02 -0.37891212713E+02  0.43400723211E+02  0.00000000000E+00 0.  1.
         11    1    3    3    0    0  0.48704754181E+01 -0.88240617600E+01  0.16179419741E+02  0.19061983637E+02  0.51100000000E-03 0.  1.
        -11    1    3    3    0    0 -0.10755128216E+02 -0.90809516733E+01  0.17929732377E+02  0.22794994397E+02  0.51100000000E-03 0. -1.
         12    1    3    3    0    0 -0.45388454656E+01 -0.51316938578E+00  0.37820605949E+01  0.59302987549E+01  0.00000000000E+00 0. -1.
</event>
<event>
 7    1  0.2950722E-010  0.4778727E+02  0.7816164E-02  0.1312668E+00
        -11   -1    0    0    0    0  0.00000000000E+00  0.00000000000E+00  0.45593999997E+02  0.45594000000E+02  0.51100000000E-03 0.  1.
         11   -1    0    0    0    0 -0.00000000000E+00 -0.00000000000E+00 -0.45593999997E+02  0.45594000000E+02  0.51100000000E-03 0. -1.
    9900012    2    1    2    0    0 -0.41771373517E+02  0.71414538777E+01 -0.93688478386E+01  0.47787270527E+02  0.19999997641E+02 0.  0.
        -12    1    1    2    0    0  0.41771373517E+02 -0.71414538777E+01  0.93688478386E+01  0.43400729473E+02  0.00000000000E+00 0.  1.
         11    1    3    3    0    0 -0.45133201901E+01 -0.88421349883E+00 -0.13173227825E+01  0.47840602237E+01  0.51100000000E-03 0. -1.
        -11    1    3    3    0    0 -0.11189701636E+01  0.47648316538E+01  0.20971257617E+01  0.53248147045E+01  0.51100000000E-03 0.  1.
        -12    1    3    3    0    0 -0.36139083163E+02  0.32608357227E+01 -0.10148650818E+02  0.37678395599E+02  0.00000000000E+00 0.  1.
</event>
<event>
 7    1  0.2950722E-010  0.4778727E+02  0.7816164E-02  0.1312668E+00
        -11   -1    0    0    0    0  0.00000000000E+00  0.00000000000E+00  0.45593999997E+02  0.45594000000E+02  0.51100000000E-03 0. -1.
         11   -1    0    0    0    0 -0.00000000000E+00 -0.00000000000E+00 -0.45593999997E+02  0.45594000000E+02  0.51100000000E-03 0.  1.
    9900012    2    1    2    0    0 -0.27743108799E+02  0.32716340053E+02  0.66018612607E+01  0.47787267697E+02  0.19999984740E+02 0.  0.
        -12    1    1    2    0    0  0.27743108799E+02 -0.32716340053E+02 -0.66018612607E+01  0.43400732303E+02  0.00000000000E+00 0.  1.
         11    1    3    3    0    0 -0.30641524947E+01  0.11158337362E+02 -0.53024089183E+01  0.12728435246E+02  0.51100000000E-03 0. -1.
        -11    1    3    3    0    0 -0.19740201191E+02  0.19045764625E+02  0.96814551327E+01  0.29088610606E+02  0.51100000000E-03 0.  1.
        -12    1    3    3    0    0 -0.49387551126E+01  0.25122380659E+01  0.22228150463E+01  0.59702218461E+01  0.00000000000E+00 0.  1.
</event>
<event>
 7    1  0.2950722E-010  0.4778728E+02  0.7816164E-02  0.1312668E+00
        -11   -1    0    0    0    0  0.00000000000E+00  0.00000000000E+00  0.45593999997E+02  0.45594000000E+02  0.51100000000E-03 0.  1.
         11   -1    0    0    0    0 -0.00000000000E+00 -0.00000000000E+00 -0.45593999997E+02  0.45594000000E+02  0.51100000000E-03 0. -1.
    9900012    2    1    2    0    0  0.26399555420E+02  0.34445758868E+02 -0.41940072976E+00  0.47787277341E+02  0.20000028708E+02 0.  0.
        -12    1    1    2    0    0 -0.26399555420E+02 -0.34445758868E+02  0.41940072976E+00  0.43400722659E+02  0.00000000000E+00 0.  1.
         11    1    3    3    0    0  0.15457325546E+02  0.15765971922E+02 -0.95033594015E+01  0.24037650132E+02  0.51100000000E-03 0. -1.
        -11    1    3    3    0    0  0.77135668577E+01  0.10084971838E+02  0.43604518597E+01  0.13424578627E+02  0.51100000000E-03 0.  1.
         12    1    3    3    0    0  0.32286630167E+01  0.85948151081E+01  0.47235068121E+01  0.10325048582E+02  0.00000000000E+00 0. -1.
</event>
<event>
 7    1  0.2950722E-010  0.4778725E+02  0.7816164E-02  0.1312668E+00
        -11   -1    0    0    0    0  0.00000000000E+00  0.00000000000E+00  0.45593999997E+02  0.45594000000E+02  0.51100000000E-03 0. -1.
         11   -1    0    0    0    0 -0.00000000000E+00 -0.00000000000E+00 -0.45593999997E+02  0.45594000000E+02  0.51100000000E-03 0.  1.
    9900012    2    1    2    0    0 -0.41244992575E+02 -0.95844628342E+01  0.95191250650E+01  0.47787250210E+02  0.19999905008E+02 0.  0.
        -12    1    1    2    0    0  0.41244992575E+02  0.95844628342E+01 -0.95191250650E+01  0.43400749790E+02  0.00000000000E+00 0.  1.
         11    1    3    3    0    0 -0.35880466863E+02 -0.20940928955E+01  0.11053897859E+02  0.37602949159E+02  0.51100000000E-03 0. -1.
        -11    1    3    3    0    0 -0.27516509195E-01 -0.30452324026E+01  0.10683238290E+00  0.30472300476E+01  0.51100000000E-03 0.  1.
         12    1    3    3    0    0 -0.53370092029E+01 -0.44451375361E+01 -0.16416051773E+01  0.71370710032E+01  0.00000000000E+00 0. -1.
</event>
<event>
 7    1  0.2950722E-010  0.4778727E+02  0.7816164E-02  0.1312668E+00
        -11   -1    0    0    0    0  0.00000000000E+00  0.00000000000E+00  0.45593999997E+02  0.45594000000E+02  0.51100000000E-03 0.  1.
         11   -1    0    0    0    0 -0.00000000000E+00 -0.00000000000E+00 -0.45593999997E+02  0.45594000000E+02  0.51100000000E-03 0. -1.
    9900012    2    1    2    0    0 -0.40272156875E+02  0.13602123023E+02 -0.87612002792E+01  0.47787274194E+02  0.20000014361E+02 0.  0.
        -12    1    1    2    0    0  0.40272156875E+02 -0.13602123023E+02  0.87612002792E+01  0.43400725806E+02  0.00000000000E+00 0.  1.
         11    1    3    3    0    0 -0.67301390648E+01  0.54324202133E+01  0.49829658566E+01  0.99817789093E+01  0.51100000000E-03 0. -1.
        -11    1    3    3    0    0 -0.19518193067E+01  0.20561161176E+01 -0.47781484579E-01  0.28354003997E+01  0.51100000000E-03 0.  1.
         12    1    3    3    0    0 -0.31590198504E+02  0.61135866923E+01 -0.13696384651E+02  0.34970094885E+02  0.00000000000E+00 0. -1.
</event>
<event>
 7    1  0.2950722E-010  0.4778727E+02  0.7816164E-02  0.1312668E+00
        -11   -1    0    0    0    0  0.00000000000E+00  0.00000000000E+00  0.45593999997E+02  0.45594000000E+02  0.51100000000E-03 0. -1.
         11   -1    0    0    0    0 -0.00000000000E+00 -0.00000000000E+00 -0.45593999997E+02  0.45594000000E+02  0.51100000000E-03 0.  1.
    9900012    2    1    2    0    0 -0.15398728064E+02 -0.35937169949E+02  0.18842039578E+02  0.47787268838E+02  0.19999989939E+02 0.  0.
        -12    1    1    2    0    0  0.15398728064E+02  0.35937169949E+02 -0.18842039578E+02  0.43400731162E+02  0.00000000000E+00 0.  1.
         11    1    3    3    0    0 -0.21785341727E+01 -0.12288618748E+02  0.48447681285E+01  0.13387603981E+02  0.51100000000E-03 0. -1.
        -11    1    3    3    0    0 -0.11479532370E+02 -0.18822422005E+02  0.29811940802E+01  0.22247488667E+02  0.51100000000E-03 0.  1.
        -12    1    3    3    0    0 -0.17406615211E+01 -0.48261291964E+01  0.11016077369E+02  0.12152176190E+02  0.00000000000E+00 0.  1.
</event>
<event>
 7    1  0.2950722E-010  0.4778727E+02  0.7816164E-02  0.1312668E+00
        -11   -1    0    0    0    0  0.00000000000E+00  0.00000000000E+00  0.45593999997E+02  0.45594000000E+02  0.51100000000E-03 0.  1.
         11   -1    0    0    0    0 -0.00000000000E+00 -0.00000000000E+00 -0.45593999997E+02  0.45594000000E+02  0.51100000000E-03 0. -1.
    9900012    2    1    2    0    0  0.43160155869E+02  0.44801194788E+01  0.86786432336E+00  0.47787265978E+02  0.19999976901E+02 0.  0.
        -12    1    1    2    0    0 -0.43160155869E+02 -0.44801194788E+01 -0.86786432336E+00  0.43400734022E+02  0.00000000000E+00 0.  1.
         11    1    3    3    0    0  0.32703717000E+02 -0.20845541908E+01  0.26824588668E+01  0.32879690656E+02  0.51100000000E-03 0. -1.
        -11    1    3    3    0    0 -0.12047293191E+01  0.45637440212E+00 -0.11496674506E+01  0.17266690000E+01  0.51100000000E-03 0.  1.
         12    1    3    3    0    0  0.11661168187E+02  0.61082992675E+01 -0.66492709281E+00  0.13180906322E+02  0.00000000000E+00 0. -1.
</event>
<event>
 7    1  0.2950722E-010  0.4778728E+02  0.7816164E-02  0.1312668E+00
        -11   -1    0    0    0    0  0.00000000000E+00  0.00000000000E+00  0.45593999997E+02  0.45594000000E+02  0.51100000000E-03 0. -1.
         11   -1    0    0    0    0 -0.00000000000E+00 -0.00000000000E+00 -0.45593999997E+02  0.45594000000E+02  0.51100000000E-03 0.  1.
    9900012    2    1    2    0    0  0.24094965771E+02  0.15398810124E+02  0.32648609084E+02  0.47787281068E+02  0.20000045699E+02 0.  0.
        -12    1    1    2    0    0 -0.24094965771E+02 -0.15398810124E+02 -0.32648609084E+02  0.43400718932E+02  0.00000000000E+00 0.  1.
         11    1    3    3    0    0  0.88260209695E+01  0.25628978260E+01  0.13289958160E+02  0.16158282074E+02  0.51100000000E-03 0. -1.
        -11    1    3    3    0    0  0.31663493488E+01 -0.33017093071E+01  0.55077369836E+01  0.71597639269E+01  0.51100000000E-03 0.  1.
        -12    1    3    3    0    0  0.12102595453E+02  0.16137621606E+02  0.13850913940E+02  0.24469235067E+02  0.00000000000E+00 0.  1.
</event>
<event>
 7    1  0.2950722E-010  0.4778727E+02  0.7816164E-02  0.1312668E+00
        -11   -1    0    0    0    0  0.00000000000E+00  0.00000000000E+00  0.45593999997E+02  0.45594000000E+02  0.51100000000E-03 0.  1.
         11   -1    0    0    0    0 -0.00000000000E+00 -0.00000000000E+00 -0.45593999997E+02  0.45594000000E+02  0.51100000000E-03 0. -1.
    9900012    2    1    2    0    0  0.11955739195E+02 -0.19204271496E+02 -0.37038892436E+02  0.47787270786E+02  0.19999998822E+02 0.  0.
        -12    1    1    2    0    0 -0.11955739195E+02  0.19204271496E+02  0.37038892436E+02  0.43400729214E+02  0.00000000000E+00 0.  1.
         11    1    3    3    0    0  0.12788401628E+02 -0.14003084268E+02 -0.20648827468E+02  0.28035756834E+02  0.51100000000E-03 0. -1.
        -11    1    3    3    0    0 -0.34256519114E+01 -0.31578033349E+01 -0.21453928306E+01  0.51292810001E+01  0.51100000000E-03 0.  1.
        -12    1    3    3    0    0  0.25929894776E+01 -0.20433838931E+01 -0.14244672138E+02  0.14622232952E+02  0.00000000000E+00 0.  1.
</event>
<event>
 7    1  0.2950722E-010  0.4778727E+02  0.7816164E-02  0.1312668E+00
        -11   -1    0    0    0    0  0.00000000000E+00  0.00000000000E+00  0.45593999997E+02  0.45594000000E+02  0.51100000000E-03 0. -1.
         11   -1    0    0    0    0 -0.00000000000E+00 -0.00000000000E+00 -0.45593999997E+02  0.45594000000E+02  0.51100000000E-03 0.  1.
    9900012    2    1    2    0    0  0.17675109370E+01 -0.42591308430E+02  0.81535213256E+01  0.47787267763E+02  0.19999985037E+02 0.  0.
        -12    1    1    2    0    0 -0.17675109370E+01  0.42591308430E+02 -0.81535213256E+01  0.43400732237E+02  0.00000000000E+00 0.  1.
         11    1    3    3    0    0  0.21883876248E+01 -0.20962940036E+02  0.10479744337E+02  0.23538456555E+02  0.51100000000E-03 0. -1.
        -11    1    3    3    0    0  0.13667771229E+01 -0.84912615943E+01 -0.60052570000E+01  0.10489647995E+02  0.51100000000E-03 0.  1.
         12    1    3    3    0    0 -0.17876538107E+01 -0.13137106800E+02  0.36790339882E+01  0.13759163213E+02  0.00000000000E+00 0. -1.
</event>
<event>
 7    1  0.2950722E-010  0.4778727E+02  0.7816164E-02  0.1312668E+00
        -11   -1    0    0    0    0  0.00000000000E+00  0.00000000000E+00  0.45593999997E+02  0.45594000000E+02  0.51100000000E-03 0.  1.
         11   -1    0    0    0    0 -0.00000000000E+00 -0.00000000000E+00 -0.45593999997E+02  0.45594000000E+02  0.51100000000E-03 0. -1.
    9900012    2    1    2    0    0  0.22459704555E+02  0.26729023183E+02 -0.25782630307E+02  0.47787273802E+02  0.20000012571E+02 0.  0.
        -12    1    1    2    0    0 -0.22459704555E+02 -0.26729023183E+02  0.25782630307E+02  0.43400726198E+02  0.00000000000E+00 0.  1.
         11    1    3    3    0    0  0.44523144516E+01  0.62269955744E+01 -0.85899010537E+01  0.11505867122E+02  0.51100000000E-03 0. -1.
        -11    1    3    3    0    0 -0.20061546032E+01  0.81830488106E+01 -0.39392700309E+01  0.93007952761E+01  0.51100000000E-03 0.  1.
        -12    1    3    3    0    0  0.20013544707E+02  0.12318978798E+02 -0.13253459222E+02  0.26980611403E+02  0.00000000000E+00 0.  1.
</event>
<event>
 7    1  0.2950722E-010  0.4778727E+02  0.7816164E-02  0.1312668E+00
        -11   -1    0    0    0    0  0.00000000000E+00  0.00000000000E+00  0.45593999997E+02  0.45594000000E+02  0.51100000000E-03 0.  1.
         11   -1    0    0    0    0 -0.00000000000E+00 -0.00000000000E+00 -0.45593999997E+02  0.45594000000E+02  0.51100000000E-03 0. -1.
    9900012    2    1    2    0    0  0.32101034867E+02 -0.15645871489E+02 -0.24664831207E+02  0.47787266911E+02  0.19999981155E+02 0.  0.
        -12    1    1    2    0    0 -0.32101034867E+02  0.15645871489E+02  0.24664831207E+02  0.43400733089E+02  0.00000000000E+00 0.  1.
         11    1    3    3    0    0  0.26549880376E+02 -0.13458021344E+02 -0.23211774448E+02  0.37746535732E+02  0.51100000000E-03 0. -1.
        -11    1    3    3    0    0 -0.16226692076E+00 -0.31527766827E+01 -0.26527361303E+01  0.41235107132E+01  0.51100000000E-03 0.  1.
         12    1    3    3    0    0  0.57134214113E+01  0.96492653737E+00  0.11996793715E+01  0.59172204657E+01  0.00000000000E+00 0. -1.
</event>
<event>
 7    1  0.2950722E-010  0.4778727E+02  0.7816164E-02  0.1312668E+00
        -11   -1    0    0    0    0  0.00000000000E+00  0.00000000000E+00  0.45593999997E+02  0.45594000000E+02  0.51100000000E-03 0.  1.
         11   -1    0    0    0    0 -0.00000000000E+00 -0.00000000000E+00 -0.45593999997E+02  0.45594000000E+02  0.51100000000E-03 0. -1.
    9900012    2    1    2    0    0  0.45225994390E+01  0.16387769231E+02 -0.39932576413E+02  0.47787267921E+02  0.19999985757E+02 0.  0.
        -12    1    1    2    0    0 -0.45225994390E+01 -0.16387769231E+02  0.39932576413E+02  0.43400732079E+02  0.00000000000E+00 0.  1.
         11    1    3    3    0    0  0.97467430903E+00  0.11345500194E+00 -0.67293274287E+01  0.68004933608E+01  0.51100000000E-03 0. -1.
        -11    1    3    3    0    0  0.10169680180E+02  0.85442595739E+01 -0.23092697990E+02  0.26640185197E+02  0.51100000000E-03 0.  1.
        -12    1    3    3    0    0 -0.66217550505E+01  0.77300546552E+01 -0.10110550994E+02  0.14346589362E+02  0.00000000000E+00 0.  1.
</event>
<event>
 7    1  0.2950722E-010  0.4778727E+02  0.7816164E-02  0.1312668E+00
        -11   -1    0    0    0    0  0.00000000000E+00  0.00000000000E+00  0.45593999997E+02  0.45594000000E+02  0.51100000000E-03 0.  1.
         11   -1    0    0    0    0 -0.00000000000E+00 -0.00000000000E+00 -0.45593999997E+02  0.45594000000E+02  0.51100000000E-03 0. -1.
    9900012    2    1    2    0    0 -0.22338189944E+02  0.95978501367E+01 -0.35951492733E+02  0.47787270894E+02  0.19999999313E+02 0.  0.
        -12    1    1    2    0    0  0.22338189944E+02 -0.95978501367E+01  0.35951492733E+02  0.43400729106E+02  0.00000000000E+00 0.  1.
         11    1    3    3    0    0 -0.14237719778E+01  0.58147250535E+01 -0.16794612471E+02  0.17829670844E+02  0.51100000000E-03 0. -1.
        -11    1    3    3    0    0 -0.45334457978E+01 -0.38569691742E+00 -0.19291246633E+00  0.45539113292E+01  0.51100000000E-03 0.  1.
         12    1    3    3    0    0 -0.16380972169E+02  0.41688220006E+01 -0.18963967796E+02  0.25403688721E+02  0.00000000000E+00 0. -1.
</event>
<event>
 7    1  0.2950722E-010  0.4778727E+02  0.7816164E-02  0.1312668E+00
        -11   -1    0    0    0    0  0.00000000000E+00  0.00000000000E+00  0.45593999997E+02  0.45594000000E+02  0.51100000000E-03 0.  1.
         11   -1    0    0    0    0 -0.00000000000E+00 -0.00000000000E+00 -0.45593999997E+02  0.45594000000E+02  0.51100000000E-03 0. -1.
    9900012    2    1    2    0    0  0.25331102284E+02  0.10740206363E+02 -0.33564958502E+02  0.47787271725E+02  0.20000003101E+02 0.  0.
        -12    1    1    2    0    0 -0.25331102284E+02 -0.10740206363E+02  0.33564958502E+02  0.43400728275E+02  0.00000000000E+00 0.  1.
         11    1    3    3    0    0 -0.44714304151E+00  0.27376140516E+01  0.60204957826E+00  0.28384734543E+01  0.51100000000E-03 0. -1.
        -11    1    3    3    0    0  0.23135999660E+02  0.62103236477E+01 -0.22542747296E+02  0.32894042865E+02  0.51100000000E-03 0.  1.
         12    1    3    3    0    0  0.26422456652E+01  0.17922686635E+01 -0.11624260784E+02  0.12054755405E+02  0.00000000000E+00 0. -1.
</event>
<event>
 7    1  0.2950722E-010  0.4778727E+02  0.7816164E-02  0.1312668E+00
        -11   -1    0    0    0    0  0.00000000000E+00  0.00000000000E+00  0.45593999997E+02  0.45594000000E+02  0.51100000000E-03 0.  1.
         11   -1    0    0    0    0 -0.00000000000E+00 -0.00000000000E+00 -0.45593999997E+02  0.45594000000E+02  0.51100000000E-03 0. -1.
    9900012    2    1    2    0    0  0.43505034218E+01 -0.97696384131E+01 -0.42062458810E+02  0.47787272404E+02  0.20000006197E+02 0.  0.
        -12    1    1    2    0    0 -0.43505034218E+01  0.97696384131E+01  0.42062458810E+02  0.43400727596E+02  0.00000000000E+00 0.  1.
         11    1    3    3    0    0  0.81396785585E+00  0.40920600396E+01 -0.18031768397E+02  0.18508164977E+02  0.51100000000E-03 0. -1.
        -11    1    3    3    0    0  0.36217368069E+01 -0.72923426808E+01 -0.60737499565E+01  0.10158035148E+02  0.51100000000E-03 0.  1.
         12    1    3    3    0    0 -0.85201240911E-01 -0.65693557720E+01 -0.17956940457E+02  0.19121072278E+02  0.00000000000E+00 0. -1.
</event>
<event>
 7    1  0.2950722E-010  0.4778727E+02  0.7816164E-02  0.1312668E+00
        -11   -1    0    0    0    0  0.00000000000E+00  0.00000000000E+00  0.45593999997E+02  0.45594000000E+02  0.51100000000E-03 0.  1.
         11   -1    0    0    0    0 -0.00000000000E+00 -0.00000000000E+00 -0.45593999997E+02  0.45594000000E+02  0.51100000000E-03 0. -1.
    9900012    2    1    2    0    0  0.25090263332E+02 -0.19621940451E+02 -0.29480185565E+02  0.47787271871E+02  0.20000003771E+02 0.  0.
        -12    1    1    2    0    0 -0.25090263332E+02  0.19621940451E+02  0.29480185565E+02  0.43400728129E+02  0.00000000000E+00 0.  1.
         11    1    3    3    0    0  0.19287268485E+01 -0.87498067402E+00 -0.62621743160E+01  0.66106282501E+01  0.51100000000E-03 0. -1.
        -11    1    3    3    0    0  0.14365930371E+02 -0.59778199348E+01 -0.20001663798E+02  0.25341287290E+02  0.51100000000E-03 0.  1.
        -12    1    3    3    0    0  0.87956061123E+01 -0.12769139843E+02 -0.32163474516E+01  0.15835356331E+02  0.00000000000E+00 0.  1.
</event>
<event>
 7    1  0.2950722E-010  0.4778728E+02  0.7816164E-02  0.1312668E+00
        -11   -1    0    0    0    0  0.00000000000E+00  0.00000000000E+00  0.45593999997E+02  0.45594000000E+02  0.51100000000E-03 0. -1.
         11   -1    0    0    0    0 -0.00000000000E+00 -0.00000000000E+00 -0.45593999997E+02  0.45594000000E+02  0.51100000000E-03 0.  1.
    9900012    2    1    2    0    0  0.28215870390E+02 -0.25813937337E+02  0.20521393307E+02  0.47787282426E+02  0.20000051892E+02 0.  0.
        -12    1    1    2    0    0 -0.28215870390E+02  0.25813937337E+02 -0.20521393307E+02  0.43400717574E+02  0.00000000000E+00 0.  1.
         11    1    3    3    0    0  0.25871164082E+02 -0.17201445428E+02  0.15330210047E+02  0.34644223128E+02  0.51100000000E-03 0. -1.
        -11    1    3    3    0    0  0.25922446188E+01 -0.26258437294E+01 -0.16560263870E+01  0.40444049143E+01  0.51100000000E-03 0.  1.
         12    1    3    3    0    0 -0.24753831135E+00 -0.59866481795E+01  0.68472096469E+01  0.90986543834E+01  0.00000000000E+00 0. -1.
</event>
<event>
 7    1  0.2950722E-010  0.4778727E+02  0.7816164E-02  0.1312668E+00
        -11   -1    0    0    0    0  0.00000000000E+00  0.00000000000E+00  0.45593999997E+02  0.45594000000E+02  0.51100000000E-03 0. -1.
         11   -1    0    0    0    0 -0.00000000000E+00 -0.00000000000E+00 -0.45593999997E+02  0.45594000000E+02  0.51100000000E-03 0.  1.
    9900012    2    1    2    0    0 -0.25259111450E+02  0.26920796943E+02  0.22822599122E+02  0.47787273624E+02  0.20000011761E+02 0.  0.
        -12    1    1    2    0    0  0.25259111450E+02 -0.26920796943E+02 -0.22822599122E+02  0.43400726376E+02  0.00000000000E+00 0.  1.
         11    1    3    3    0    0 -0.13956249737E+02  0.12891167785E+02  0.18799155014E+02  0.26727651283E+02  0.51100000000E-03 0. -1.
        -11    1    3    3    0    0 -0.31995558166E+01  0.41121806780E+01 -0.34334801151E+01  0.62398696552E+01  0.51100000000E-03 0.  1.
        -12    1    3    3    0    0 -0.81033058957E+01  0.99174484807E+01  0.74569242232E+01  0.14819752686E+02  0.00000000000E+00 0.  1.
</event>
<event>
 7    1  0.2950722E-010  0.4778727E+02  0.7816164E-02  0.1312668E+00
        -11   -1    0    0    0    0  0.00000000000E+00  0.00000000000E+00  0.45593999997E+02  0.45594000000E+02  0.51100000000E-03 0.  1.
         11   -1    0    0    0    0 -0.00000000000E+00 -0.00000000000E+00 -0.45593999997E+02  0.45594000000E+02  0.51100000000E-03 0. -1.
    9900012    2    1    2    0    0  0.31447218833E+02 -0.20108911855E+02 -0.22143346528E+02  0.47787266092E+02  0.19999977420E+02 0.  0.
        -12    1    1    2    0    0 -0.31447218833E+02  0.20108911855E+02  0.22143346528E+02  0.43400733908E+02  0.00000000000E+00 0.  1.
         11    1    3    3    0    0  0.12519127294E+02 -0.10945690124E+02 -0.78595457389E+01  0.18393181889E+02  0.51100000000E-03 0. -1.
        -11    1    3    3    0    0  0.72523502004E+01 -0.55837127400E+01  0.16688302705E+01  0.93037318387E+01  0.51100000000E-03 0.  1.
        -12    1    3    3    0    0  0.11675741338E+02 -0.35795089903E+01 -0.15952631060E+02  0.20090352364E+02  0.00000000000E+00 0.  1.
</event>
<event>
 7    1  0.2950722E-010  0.4778727E+02  0.7816164E-02  0.1312668E+00
        -11   -1    0    0    0    0  0.00000000000E+00  0.00000000000E+00  0.45593999997E+02  0.45594000000E+02  0.51100000000E-03 0.  1.
         11   -1    0    0    0    0 -0.00000000000E+00 -0.00000000000E+00 -0.45593999997E+02  0.45594000000E+02  0.51100000000E-03 0. -1.
    9900012    2    1    2    0    0 -0.11125774548E+02 -0.12454201748E+02 -0.40059122744E+02  0.47787270565E+02  0.19999997813E+02 0.  0.
        -12    1    1    2    0    0  0.11125774548E+02  0.12454201748E+02  0.40059122744E+02  0.43400729435E+02  0.00000000000E+00 0.  1.
         11    1    3    3    0    0 -0.34830781407E+01 -0.22931162403E+01  0.48965222532E+00  0.41988063766E+01  0.51100000000E-03 0. -1.
        -11    1    3    3    0    0  0.22817673972E+01 -0.11544467282E+01 -0.55256267259E+01  0.60886583644E+01  0.51100000000E-03 0.  1.
         12    1    3    3    0    0 -0.99244638040E+01 -0.90066387795E+01 -0.35023148244E+02  0.37499805824E+02  0.00000000000E+00 0. -1.
</event>
<event>
 7    1  0.2950722E-010  0.4778727E+02  0.7816164E-02  0.1312668E+00
        -11   -1    0    0    0    0  0.00000000000E+00  0.00000000000E+00  0.45593999997E+02  0.45594000000E+02  0.51100000000E-03 0. -1.
         11   -1    0    0    0    0 -0.00000000000E+00 -0.00000000000E+00 -0.45593999997E+02  0.45594000000E+02  0.51100000000E-03 0.  1.
    9900012    2    1    2    0    0  0.24550119006E+02 -0.31357840387E+02  0.17251112238E+02  0.47787269932E+02  0.19999994929E+02 0.  0.
        -12    1    1    2    0    0 -0.24550119006E+02  0.31357840387E+02 -0.17251112238E+02  0.43400730068E+02  0.00000000000E+00 0.  1.
         11    1    3    3    0    0  0.27916134744E+01 -0.84971587669E+01  0.47864120037E+01  0.10144188141E+02  0.51100000000E-03 0. -1.
        -11    1    3    3    0    0 -0.23929442398E+01 -0.24574945218E+00  0.12246380895E+01  0.26993172543E+01  0.51100000000E-03 0.  1.
        -12    1    3    3    0    0  0.24151449771E+02 -0.22614932168E+02  0.11240062145E+02  0.34943764537E+02  0.00000000000E+00 0.  1.
</event>
<event>
 7    1  0.2950722E-010  0.4778727E+02  0.7816164E-02  0.1312668E+00
        -11   -1    0    0    0    0  0.00000000000E+00  0.00000000000E+00  0.45593999997E+02  0.45594000000E+02  0.51100000000E-03 0.  1.
         11   -1    0    0    0    0 -0.00000000000E+00 -0.00000000000E+00 -0.45593999997E+02  0.45594000000E+02  0.51100000000E-03 0. -1.
    9900012    2    1    2    0    0 -0.11708983820E+02  0.25726784819E+02 -0.32934106673E+02  0.47787272568E+02  0.20000006947E+02 0.  0.
        -12    1    1    2    0    0  0.11708983820E+02 -0.25726784819E+02  0.32934106673E+02  0.43400727432E+02  0.00000000000E+00 0.  1.
         11    1    3    3    0    0 -0.33956411270E+01  0.60657295834E+01 -0.20532700275E+02  0.21677528339E+02  0.51100000000E-03 0. -1.
        -11    1    3    3    0    0 -0.34354400492E+01  0.33322549634E+01  0.38932406742E+00  0.48018480779E+01  0.51100000000E-03 0.  1.
        -12    1    3    3    0    0 -0.48779026440E+01  0.16328800273E+02 -0.12790730466E+02  0.21307896152E+02  0.00000000000E+00 0.  1.
</event>
<event>
 7    1  0.2950722E-010  0.4778728E+02  0.7816164E-02  0.1312668E+00
        -11   -1    0    0    0    0  0.00000000000E+00  0.00000000000E+00  0.45593999997E+02  0.45594000000E+02  0.51100000000E-03 0.  1.
         11   -1    0    0    0    0 -0.00000000000E+00 -0.00000000000E+00 -0.45593999997E+02  0.45594000000E+02  0.51100000000E-03 0. -1.
    9900012    2    1    2    0    0 -0.41678178539E+02  0.10992579747E+02 -0.50710349203E+01  0.47787276838E+02  0.20000026415E+02 0.  0.
        -12    1    1    2    0    0  0.41678178539E+02 -0.10992579747E+02  0.50710349203E+01  0.43400723162E+02  0.00000000000E+00 0.  1.
         11    1    3    3    0    0  0.10066401694E+01  0.87362260489E+00 -0.25983035047E+01  0.29202264039E+01  0.51100000000E-03 0. -1.
        -11    1    3    3    0    0 -0.21986282868E+02  0.59822166486E+00 -0.52384814225E+00  0.22000657278E+02  0.51100000000E-03 0.  1.
         12    1    3    3    0    0 -0.20698535840E+02  0.95207354769E+01 -0.19488832734E+01  0.22866393156E+02  0.00000000000E+00 0. -1.
</event>
<event>
 7    1  0.2950722E-010  0.4778727E+02  0.7816164E-02  0.1312668E+00
        -11   -1    0    0    0    0  0.00000000000E+00  0.00000000000E+00  0.45593999997E+02  0.45594000000E+02  0.51100000000E-03 0.  1.
         11   -1    0    0    0    0 -0.00000000000E+00 -0.00000000000E+00 -0.45593999997E+02  0.45594000000E+02  0.51100000000E-03 0. -1.
    9900012    2    1    2    0    0 -0.29799628444E+02  0.27792978055E+02  0.14938400610E+02  0.47787270774E+02  0.19999998767E+02 0.  0.
        -12    1    1    2    0    0  0.29799628444E+02 -0.27792978055E+02 -0.14938400610E+02  0.43400729226E+02  0.00000000000E+00 0.  1.
         11    1    3    3    0    0  0.12952166259E+01  0.84724843597E+01  0.25972705696E+01  0.89558021420E+01  0.51100000000E-03 0.  1.
        -11    1    3    3    0    0 -0.16707336822E+02  0.11348444045E+02  0.86638131661E+01  0.21976895704E+02  0.51100000000E-03 0. -1.
        -12    1    3    3    0    0 -0.14387508248E+02  0.79720496496E+01  0.36773168743E+01  0.16854572928E+02  0.00000000000E+00 0.  1.
</event>
<event>
 7    1  0.2950722E-010  0.4778727E+02  0.7816164E-02  0.1312668E+00
        -11   -1    0    0    0    0  0.00000000000E+00  0.00000000000E+00  0.45593999997E+02  0.45594000000E+02  0.51100000000E-03 0. -1.
         11   -1    0    0    0    0 -0.00000000000E+00 -0.00000000000E+00 -0.45593999997E+02  0.45594000000E+02  0.51100000000E-03 0.  1.
    9900012    2    1    2    0    0  0.99246647767E+00 -0.41706834392E+02  0.11965711884E+02  0.47787270909E+02  0.19999999383E+02 0.  0.
        -12    1    1    2    0    0 -0.99246647767E+00  0.41706834392E+02 -0.11965711884E+02  0.43400729091E+02  0.00000000000E+00 0.  1.
         11    1    3    3    0    0  0.20241673699E+01 -0.12427186950E+02  0.58033215710E+00  0.12604325238E+02  0.51100000000E-03 0. -1.
        -11    1    3    3    0    0  0.37592189030E+01 -0.40966961820E+00  0.13476503293E-03  0.37814754047E+01  0.51100000000E-03 0.  1.
        -12    1    3    3    0    0 -0.47909197953E+01 -0.28869977824E+02  0.11385244962E+02  0.31401470266E+02  0.00000000000E+00 0.  1.
</event>
<event>
 7    1  0.2950722E-010  0.4778727E+02  0.7816164E-02  0.1312668E+00
        -11   -1    0    0    0    0  0.00000000000E+00  0.00000000000E+00  0.45593999997E+02  0.45594000000E+02  0.51100000000E-03 0. -1.
         11   -1    0    0    0    0 -0.00000000000E+00 -0.00000000000E+00 -0.45593999997E+02  0.45594000000E+02  0.51100000000E-03 0.  1.
    9900012    2    1    2    0    0  0.35297064810E+01  0.42535624040E+02  0.78667060817E+01  0.47787271839E+02  0.20000003622E+02 0.  0.
        -12    1    1    2    0    0 -0.35297064810E+01 -0.42535624040E+02 -0.78667060817E+01  0.43400728161E+02  0.00000000000E+00 0.  1.
         11    1    3    3    0    0  0.10520749006E+02  0.17220289892E+02  0.74153351429E+00  0.20193425064E+02  0.51100000000E-03 0. -1.
        -11    1    3    3    0    0 -0.55091125013E+01  0.23534412837E+02  0.73568691031E+01  0.25265439466E+02  0.51100000000E-03 0.  1.
         12    1    3    3    0    0 -0.14819300236E+01  0.17809213104E+01 -0.23169653568E+00  0.23284073083E+01  0.00000000000E+00 0. -1.
</event>
<event>
 7    1  0.2950722E-010  0.4778728E+02  0.7816164E-02  0.1312668E+00
        -11   -1    0    0    0    0  0.00000000000E+00  0.00000000000E+00  0.45593999997E+02  0.45594000000E+02  0.51100000000E-03 0.  1.
         11   -1    0    0    0    0 -0.00000000000E+00 -0.00000000000E+00 -0.45593999997E+02  0.45594000000E+02  0.51100000000E-03 0. -1.
    9900012    2    1    2    0    0 -0.60317104574E+01 -0.42660864751E+02 -0.52241697845E+01  0.47787275786E+02  0.20000021621E+02 0.  0.
        -12    1    1    2    0    0  0.60317104574E+01  0.42660864751E+02  0.52241697845E+01  0.43400724214E+02  0.00000000000E+00 0.  1.
         11    1    3    3    0    0 -0.68463773580E+01 -0.36127094808E+02 -0.93315207996E+01  0.37935697475E+02  0.51100000000E-03 0. -1.
        -11    1    3    3    0    0  0.11728589566E+01  0.53781734350E+00 -0.52199722451E+00  0.13918789425E+01  0.51100000000E-03 0.  1.
         12    1    3    3    0    0 -0.35819205601E+00 -0.70715872859E+01  0.46293482396E+01  0.84596993690E+01  0.00000000000E+00 0. -1.
</event>
<event>
 7    1  0.2950722E-010  0.4778727E+02  0.7816164E-02  0.1312668E+00
        -11   -1    0    0    0    0  0.00000000000E+00  0.00000000000E+00  0.45593999997E+02  0.45594000000E+02  0.51100000000E-03 0.  1.
         11   -1    0    0    0    0 -0.00000000000E+00 -0.00000000000E+00 -0.45593999997E+02  0.45594000000E+02  0.51100000000E-03 0. -1.
    9900012    2    1    2    0    0 -0.47226404994E+00  0.98161223939E+01 -0.42273442391E+02  0.47787271622E+02  0.20000002632E+02 0.  0.
        -12    1    1    2    0    0  0.47226404994E+00 -0.98161223939E+01  0.42273442391E+02  0.43400728378E+02  0.00000000000E+00 0.  1.
         11    1    3    3    0    0 -0.28689926970E+01  0.13454899724E+02 -0.33921600219E+02  0.36605196453E+02  0.51100000000E-03 0. -1.
        -11    1    3    3    0    0  0.19393364670E+01 -0.31240966917E+01 -0.93055911583E+01  0.10005750004E+02  0.51100000000E-03 0.  1.
         12    1    3    3    0    0  0.45739218007E+00 -0.51468063862E+00  0.95374898590E+00  0.11763251652E+01  0.00000000000E+00 0. -1.
</event>
<event>
 7    1  0.2950722E-010  0.4778728E+02  0.7816164E-02  0.1312668E+00
        -11   -1    0    0    0    0  0.00000000000E+00  0.00000000000E+00  0.45593999997E+02  0.45594000000E+02  0.51100000000E-03 0. -1.
         11   -1    0    0    0    0 -0.00000000000E+00 -0.00000000000E+00 -0.45593999997E+02  0.45594000000E+02  0.51100000000E-03 0.  1.
    9900012    2    1    2    0    0  0.14252625299E+02 -0.21870205815E+02  0.34672453975E+02  0.47787282322E+02  0.20000051417E+02 0.  0.
        -12    1    1    2    0    0 -0.14252625299E+02  0.21870205815E+02 -0.34672453975E+02  0.43400717678E+02  0.00000000000E+00 0.  1.
         11    1    3    3    0    0  0.17652775110E+02 -0.15500860551E+02  0.24073197426E+02  0.33636527489E+02  0.51100000000E-03 0. -1.
        -11    1    3    3    0    0 -0.47728579287E+01 -0.62246753464E+01  0.79773696393E+01  0.11187724639E+02  0.51100000000E-03 0.  1.
        -12    1    3    3    0    0  0.13727081181E+01 -0.14466991777E+00  0.26218869100E+01  0.29630301941E+01  0.00000000000E+00 0.  1.
</event>
<event>
 7    1  0.2950722E-010  0.4778727E+02  0.7816164E-02  0.1312668E+00
        -11   -1    0    0    0    0  0.00000000000E+00  0.00000000000E+00  0.45593999997E+02  0.45594000000E+02  0.51100000000E-03 0.  1.
         11   -1    0    0    0    0 -0.00000000000E+00 -0.00000000000E+00 -0.45593999997E+02  0.45594000000E+02  0.51100000000E-03 0. -1.
    9900012    2    1    2    0    0 -0.14428430561E+02 -0.28492973450E+02 -0.29386969697E+02  0.47787272674E+02  0.20000007429E+02 0.  0.
        -12    1    1    2    0    0  0.14428430561E+02  0.28492973450E+02  0.29386969697E+02  0.43400727326E+02  0.00000000000E+00 0.  1.
         11    1    3    3    0    0 -0.68347108908E+01 -0.42715216740E+01 -0.14872569221E+02  0.16916042264E+02  0.51100000000E-03 0. -1.
        -11    1    3    3    0    0 -0.84105752766E+01 -0.24834377826E+02 -0.13852801112E+02  0.29654412781E+02  0.51100000000E-03 0.  1.
        -12    1    3    3    0    0  0.81685560651E+00  0.61292604954E+00 -0.66159936330E+00  0.12168176287E+01  0.00000000000E+00 0.  1.
</event>
<event>
 7    1  0.2950722E-010  0.4778727E+02  0.7816164E-02  0.1312668E+00
        -11   -1    0    0    0    0  0.00000000000E+00  0.00000000000E+00  0.45593999997E+02  0.45594000000E+02  0.51100000000E-03 0.  1.
         11   -1    0    0    0    0 -0.00000000000E+00 -0.00000000000E+00 -0.45593999997E+02  0.45594000000E+02  0.51100000000E-03 0. -1.
    9900012    2    1    2    0    0 -0.19163527173E+02  0.15079263813E+02 -0.35902624415E+02  0.47787269468E+02  0.19999992810E+02 0.  0.
        -12    1    1    2    0    0  0.19163527173E+02 -0.15079263813E+02  0.35902624415E+02  0.43400730532E+02  0.00000000000E+00 0.  1.
         11    1    3    3    0    0  0.10861671766E+01  0.81220068451E+01 -0.12049057266E+02  0.14571428742E+02  0.51100000000E-03 0. -1.
        -11    1    3    3    0    0 -0.69464384761E+01  0.68329365705E+01 -0.11346176302E+02  0.14955859942E+02  0.51100000000E-03 0.  1.
         12    1    3    3    0    0 -0.13303255873E+02  0.12432039778E+00 -0.12507390847E+02  0.18259980783E+02  0.00000000000E+00 0. -1.
</event>
<event>
 7    1  0.2950722E-010  0.4778728E+02  0.7816164E-02  0.1312668E+00
        -11   -1    0    0    0    0  0.00000000000E+00  0.00000000000E+00  0.45593999997E+02  0.45594000000E+02  0.51100000000E-03 0.  1.
         11   -1    0    0    0    0 -0.00000000000E+00 -0.00000000000E+00 -0.45593999997E+02  0.45594000000E+02  0.51100000000E-03 0. -1.
    9900012    2    1    2    0    0  0.38854497077E+02  0.97610446561E+01 -0.16693476433E+02  0.47787284669E+02  0.20000062119E+02 0.  0.
        -12    1    1    2    0    0 -0.38854497077E+02 -0.97610446561E+01  0.16693476433E+02  0.43400715331E+02  0.00000000000E+00 0.  1.
         11    1    3    3    0    0  0.17520356141E+02  0.96052511717E+01 -0.16243094933E+02  0.25749987624E+02  0.51100000000E-03 0. -1.
        -11    1    3    3    0    0  0.87761832875E+01 -0.26428768103E+01 -0.75422314220E-01  0.91657994587E+01  0.51100000000E-03 0.  1.
        -12    1    3    3    0    0  0.12557957648E+02  0.27986702946E+01 -0.37495918521E+00  0.12871497586E+02  0.00000000000E+00 0.  1.
</event>
<event>
 7    1  0.2950722E-010  0.4778727E+02  0.7816164E-02  0.1312668E+00
        -11   -1    0    0    0    0  0.00000000000E+00  0.00000000000E+00  0.45593999997E+02  0.45594000000E+02  0.51100000000E-03 0.  1.
         11   -1    0    0    0    0 -0.00000000000E+00 -0.00000000000E+00 -0.45593999997E+02  0.45594000000E+02  0.51100000000E-03 0. -1.
    9900012    2    1    2    0    0 -0.29978004339E+01 -0.23138037205E+02 -0.36596006507E+02  0.47787271142E+02  0.20000000445E+02 0.  0.
        -12    1    1    2    0    0  0.29978004339E+01  0.23138037205E+02  0.36596006507E+02  0.43400728858E+02  0.00000000000E+00 0.  1.
         11    1    3    3    0    0  0.39355080015E+01 -0.90875273994E+01 -0.15857979418E+02  0.18696173110E+02  0.51100000000E-03 0. -1.
        -11    1    3    3    0    0 -0.37373414324E+01 -0.77675301208E+01 -0.16945734343E+01  0.87848633766E+01  0.51100000000E-03 0.  1.
        -12    1    3    3    0    0 -0.31959670031E+01 -0.62829796850E+01 -0.19043453654E+02  0.20306234656E+02  0.00000000000E+00 0.  1.
</event>
<event>
 7    1  0.2950722E-010  0.4778728E+02  0.7816164E-02  0.1312668E+00
        -11   -1    0    0    0    0  0.00000000000E+00  0.00000000000E+00  0.45593999997E+02  0.45594000000E+02  0.51100000000E-03 0. -1.
         11   -1    0    0    0    0 -0.00000000000E+00 -0.00000000000E+00 -0.45593999997E+02  0.45594000000E+02  0.51100000000E-03 0.  1.
    9900012    2    1    2    0    0 -0.95848393988E+01 -0.42297795596E+02  0.16278697361E+01  0.47787278595E+02  0.20000034427E+02 0.  0.
        -12    1    1    2    0    0  0.95848393988E+01  0.42297795596E+02 -0.16278697361E+01  0.43400721405E+02  0.00000000000E+00 0.  1.
         11    1    3    3    0    0  0.25362836152E+01 -0.21394434956E+02 -0.16138425728E+01  0.21604607605E+02  0.51100000000E-03 0. -1.
        -11    1    3    3    0    0 -0.11525587426E+02 -0.14538978354E+02  0.55833042921E+01  0.19375095978E+02  0.51100000000E-03 0.  1.
         12    1    3    3    0    0 -0.59553558753E+00 -0.63643822860E+01 -0.23415919832E+01  0.68075750113E+01  0.00000000000E+00 0. -1.
</event>
<event>
 7    1  0.2950722E-010  0.4778727E+02  0.7816164E-02  0.1312668E+00
        -11   -1    0    0    0    0  0.00000000000E+00  0.00000000000E+00  0.45593999997E+02  0.45594000000E+02  0.51100000000E-03 0.  1.
         11   -1    0    0    0    0 -0.00000000000E+00 -0.00000000000E+00 -0.45593999997E+02  0.45594000000E+02  0.51100000000E-03 0. -1.
    9900012    2    1    2    0    0  0.15068560334E+01 -0.23346181843E+02 -0.36555553140E+02  0.47787270892E+02  0.19999999303E+02 0.  0.
        -12    1    1    2    0    0 -0.15068560334E+01  0.23346181843E+02  0.36555553140E+02  0.43400729108E+02  0.00000000000E+00 0.  1.
         11    1    3    3    0    0  0.69086344076E+01 -0.15329749010E+02 -0.21323637411E+02  0.27155624589E+02  0.51100000000E-03 0. -1.
        -11    1    3    3    0    0 -0.27465341832E+01  0.17474151188E+01 -0.15256335454E+01  0.35950615563E+01  0.51100000000E-03 0.  1.
        -12    1    3    3    0    0 -0.26552441909E+01 -0.97638479520E+01 -0.13706282183E+02  0.17036584747E+02  0.00000000000E+00 0.  1.
</event>
<event>
 7    1  0.2950722E-010  0.4778727E+02  0.7816164E-02  0.1312668E+00
        -11   -1    0    0    0    0  0.00000000000E+00  0.00000000000E+00  0.45593999997E+02  0.45594000000E+02  0.51100000000E-03 0.  1.
         11   -1    0    0    0    0 -0.00000000000E+00 -0.00000000000E+00 -0.45593999997E+02  0.45594000000E+02  0.51100000000E-03 0. -1.
    9900012    2    1    2    0    0  0.17228305710E+01 -0.24691968923E+02 -0.35650550663E+02  0.47787271469E+02  0.20000001935E+02 0.  0.
        -12    1    1    2    0    0 -0.17228305710E+01  0.24691968923E+02  0.35650550663E+02  0.43400728531E+02  0.00000000000E+00 0.  1.
         11    1    3    3    0    0 -0.12418572314E+00  0.27711593594E+01 -0.23517937624E+01  0.36367128634E+01  0.51100000000E-03 0. -1.
        -11    1    3    3    0    0  0.85363499861E+00  0.51367934746E+00 -0.11602925692E+01  0.15293260902E+01  0.51100000000E-03 0.  1.
         12    1    3    3    0    0  0.99338129552E+00 -0.27976807630E+02 -0.32138464331E+02  0.42621232515E+02  0.00000000000E+00 0. -1.
</event>
<event>
 7    1  0.2950722E-010  0.4778727E+02  0.7816164E-02  0.1312668E+00
        -11   -1    0    0    0    0  0.00000000000E+00  0.00000000000E+00  0.45593999997E+02  0.45594000000E+02  0.51100000000E-03 0. -1.
         11   -1    0    0    0    0 -0.00000000000E+00 -0.00000000000E+00 -0.45593999997E+02  0.45594000000E+02  0.51100000000E-03 0.  1.
    9900012    2    1    2    0    0 -0.27721668728E+02 -0.58704114962E+01  0.32873556051E+02  0.47787270333E+02  0.19999996757E+02 0.  0.
        -12    1    1    2    0    0  0.27721668728E+02  0.58704114962E+01 -0.32873556051E+02  0.43400729667E+02  0.00000000000E+00 0.  1.
         11    1    3    3    0    0 -0.14630277554E+02  0.27709378100E+01  0.20210385309E+02  0.25103441841E+02  0.51100000000E-03 0. -1.
        -11    1    3    3    0    0 -0.56499999825E+01 -0.96846264192E+01  0.86783725116E+01  0.14178456841E+02  0.51100000000E-03 0.  1.
        -12    1    3    3    0    0 -0.74413911907E+01  0.10432771130E+01  0.39847982305E+01  0.85053716512E+01  0.00000000000E+00 0.  1.
</event>
<event>
 7    1  0.2950722E-010  0.4778726E+02  0.7816164E-02  0.1312668E+00
        -11   -1    0    0    0    0  0.00000000000E+00  0.00000000000E+00  0.45593999997E+02  0.45594000000E+02  0.51100000000E-03 0.  1.
         11   -1    0    0    0    0 -0.00000000000E+00 -0.00000000000E+00 -0.45593999997E+02  0.45594000000E+02  0.51100000000E-03 0. -1.
    9900012    2    1    2    0    0  0.17404704037E+02  0.10519410884E+02 -0.38341129886E+02  0.47787263037E+02  0.19999963493E+02 0.  0.
        -12    1    1    2    0    0 -0.17404704037E+02 -0.10519410884E+02  0.38341129886E+02  0.43400736963E+02  0.00000000000E+00 0.  1.
         11    1    3    3    0    0  0.35228723198E+01 -0.19382991129E+00 -0.45303774217E+01  0.57421702570E+01  0.51100000000E-03 0. -1.
        -11    1    3    3    0    0  0.11646325585E+02  0.41779628838E+01 -0.67046780261E+01  0.14072845525E+02  0.51100000000E-03 0.  1.
        -12    1    3    3    0    0  0.22355061320E+01  0.65352779112E+01 -0.27106074438E+02  0.27972247255E+02  0.00000000000E+00 0.  1.
</event>
<event>
 7    1  0.2950722E-010  0.4778727E+02  0.7816164E-02  0.1312668E+00
        -11   -1    0    0    0    0  0.00000000000E+00  0.00000000000E+00  0.45593999997E+02  0.45594000000E+02  0.51100000000E-03 0. -1.
         11   -1    0    0    0    0 -0.00000000000E+00 -0.00000000000E+00 -0.45593999997E+02  0.45594000000E+02  0.51100000000E-03 0.  1.
    9900012    2    1    2    0    0  0.39701935957E+02 -0.35971222149E+01  0.17159261653E+02  0.47787271119E+02  0.20000000338E+02 0.  0.
        -12    1    1    2    0    0 -0.39701935957E+02  0.35971222149E+01 -0.17159261653E+02  0.43400728881E+02  0.00000000000E+00 0.  1.
         11    1    3    3    0    0  0.19130249336E+02 -0.77710512610E+01  0.10650974370E+02  0.23233573394E+02  0.51100000000E-03 0. -1.
        -11    1    3    3    0    0  0.62935184656E+01  0.51230359745E+01 -0.13526415964E+01  0.82269989560E+01  0.51100000000E-03 0.  1.
        -12    1    3    3    0    0  0.14278168156E+02 -0.94910692848E+00  0.78609288796E+01  0.16326698769E+02  0.00000000000E+00 0.  1.
</event>
<event>
 7    1  0.2950722E-010  0.4778727E+02  0.7816164E-02  0.1312668E+00
        -11   -1    0    0    0    0  0.00000000000E+00  0.00000000000E+00  0.45593999997E+02  0.45594000000E+02  0.51100000000E-03 0.  1.
         11   -1    0    0    0    0 -0.00000000000E+00 -0.00000000000E+00 -0.45593999997E+02  0.45594000000E+02  0.51100000000E-03 0. -1.
    9900012    2    1    2    0    0 -0.32859247769E+02  0.42662712721E+01 -0.28030197572E+02  0.47787271775E+02  0.20000003332E+02 0.  0.
        -12    1    1    2    0    0  0.32859247769E+02 -0.42662712721E+01  0.28030197572E+02  0.43400728225E+02  0.00000000000E+00 0.  1.
         11    1    3    3    0    0 -0.17175357391E+02  0.24912232066E+01 -0.22577025372E+02  0.28476677641E+02  0.51100000000E-03 0. -1.
        -11    1    3    3    0    0 -0.76499085392E+01 -0.33787470343E+01 -0.92602607442E-01  0.83633490710E+01  0.51100000000E-03 0.  1.
        -12    1    3    3    0    0 -0.80339818386E+01  0.51537950997E+01 -0.53605695926E+01  0.10947245063E+02  0.00000000000E+00 0.  1.
</event>
<event>
 7    1  0.2950722E-010  0.4778727E+02  0.7816164E-02  0.1312668E+00
        -11   -1    0    0    0    0  0.00000000000E+00  0.00000000000E+00  0.45593999997E+02  0.45594000000E+02  0.51100000000E-03 0. -1.
         11   -1    0    0    0    0 -0.00000000000E+00 -0.00000000000E+00 -0.45593999997E+02  0.45594000000E+02  0.51100000000E-03 0.  1.
    9900012    2    1    2    0    0 -0.19089297257E+02 -0.16468909614E+02  0.35326997336E+02  0.47787274264E+02  0.20000014681E+02 0.  0.
        -12    1    1    2    0    0  0.19089297257E+02  0.16468909614E+02 -0.35326997336E+02  0.43400725736E+02  0.00000000000E+00 0.  1.
         11    1    3    3    0    0  0.27667566455E+00  0.28800044132E+01  0.36076702856E+01  0.46245280834E+01  0.51100000000E-03 0.  1.
        -11    1    3    3    0    0 -0.50268451696E+01 -0.12589273501E+01  0.20539894430E+01  0.55743110180E+01  0.51100000000E-03 0. -1.
         12    1    3    3    0    0 -0.14339127752E+02 -0.18089986677E+02  0.29665337607E+02  0.37588435163E+02  0.00000000000E+00 0. -1.
</event>
<event>
 7    1  0.2950722E-010  0.4778727E+02  0.7816164E-02  0.1312668E+00
        -11   -1    0    0    0    0  0.00000000000E+00  0.00000000000E+00  0.45593999997E+02  0.45594000000E+02  0.51100000000E-03 0.  1.
         11   -1    0    0    0    0 -0.00000000000E+00 -0.00000000000E+00 -0.45593999997E+02  0.45594000000E+02  0.51100000000E-03 0. -1.
    9900012    2    1    2    0    0  0.30336044684E+02  0.26060477114E+01 -0.30928246725E+02  0.47787268011E+02  0.19999986168E+02 0.  0.
        -12    1    1    2    0    0 -0.30336044684E+02 -0.26060477114E+01  0.30928246725E+02  0.43400731989E+02  0.00000000000E+00 0.  1.
         11    1    3    3    0    0  0.27470335432E+02  0.73159806768E+01 -0.26028121006E+02  0.38543559584E+02  0.51100000000E-03 0. -1.
        -11    1    3    3    0    0 -0.43872385093E+00 -0.41459882186E+01 -0.14016674293E+01  0.43984507237E+01  0.51100000000E-03 0.  1.
         12    1    3    3    0    0  0.33044331025E+01 -0.56394474689E+00 -0.34984582899E+01  0.48452577034E+01  0.00000000000E+00 0. -1.
</event>
<event>
 7    1  0.2950722E-010  0.4778729E+02  0.7816164E-02  0.1312668E+00
        -11   -1    0    0    0    0  0.00000000000E+00  0.00000000000E+00  0.45593999997E+02  0.45594000000E+02  0.51100000000E-03 0.  1.
         11   -1    0    0    0    0 -0.00000000000E+00 -0.00000000000E+00 -0.45593999997E+02  0.45594000000E+02  0.51100000000E-03 0. -1.
    9900012    2    1    2    0    0  0.29670699635E+02  0.24654303630E+02 -0.19885579842E+02  0.47787292748E+02  0.20000098955E+02 0.  0.
        -12    1    1    2    0    0 -0.29670699635E+02 -0.24654303630E+02  0.19885579842E+02  0.43400707252E+02  0.00000000000E+00 0.  1.
         11    1    3    3    0    0  0.18147700742E+02  0.14425846825E+02 -0.12603288414E+02  0.26387250291E+02  0.51100000000E-03 0. -1.
        -11    1    3    3    0    0  0.84808263090E+01  0.90376523267E+01  0.10619072221E+01  0.12439100517E+02  0.51100000000E-03 0.  1.
        -12    1    3    3    0    0  0.30421725840E+01  0.11908044787E+01 -0.83441986499E+01  0.89609419396E+01  0.00000000000E+00 0.  1.
</event>
<event>
 7    1  0.2950722E-010  0.4778728E+02  0.7816164E-02  0.1312668E+00
        -11   -1    0    0    0    0  0.00000000000E+00  0.00000000000E+00  0.45593999997E+02  0.45594000000E+02  0.51100000000E-03 0.  1.
         11   -1    0    0    0    0 -0.00000000000E+00 -0.00000000000E+00 -0.45593999997E+02  0.45594000000E+02  0.51100000000E-03 0. -1.
    9900012    2    1    2    0    0 -0.15560696638E+01 -0.63906254562E+01 -0.42899432779E+02  0.47787276742E+02  0.20000025977E+02 0.  0.
        -12    1    1    2    0    0  0.15560696638E+01  0.63906254562E+01  0.42899432779E+02  0.43400723258E+02  0.00000000000E+00 0.  1.
         11    1    3    3    0    0  0.18463125558E+01 -0.30372832859E+01 -0.19566602694E+01  0.40573981174E+01  0.51100000000E-03 0. -1.
        -11    1    3    3    0    0 -0.65856043912E+01  0.28026977133E+01 -0.29467447116E+02  0.30324177474E+02  0.51100000000E-03 0.  1.
        -12    1    3    3    0    0  0.31832221717E+01 -0.61560398836E+01 -0.11475325394E+02  0.13405701150E+02  0.00000000000E+00 0.  1.
</event>
<event>
 7    1  0.2950722E-010  0.4778727E+02  0.7816164E-02  0.1312668E+00
        -11   -1    0    0    0    0  0.00000000000E+00  0.00000000000E+00  0.45593999997E+02  0.45594000000E+02  0.51100000000E-03 0. -1.
         11   -1    0    0    0    0 -0.00000000000E+00 -0.00000000000E+00 -0.45593999997E+02  0.45594000000E+02  0.51100000000E-03 0.  1.
    9900012    2    1    2    0    0 -0.42474507690E+02 -0.66683950514E+01  0.59222003875E+01  0.47787265519E+02  0.19999974806E+02 0.  0.
        -12    1    1    2    0    0  0.42474507690E+02  0.66683950514E+01 -0.59222003875E+01  0.43400734481E+02  0.00000000000E+00 0.  1.
         11    1    3    3    0    0 -0.84834074151E+01 -0.29912830525E+01  0.55566089238E+01  0.10573167863E+02  0.51100000000E-03 0. -1.
        -11    1    3    3    0    0 -0.10697074092E+02  0.56424520821E+01  0.80899373345E+00  0.12121020202E+02  0.51100000000E-03 0.  1.
        -12    1    3    3    0    0 -0.23294026183E+02 -0.93195640810E+01 -0.44340226976E+00  0.25093077453E+02  0.00000000000E+00 0.  1.
</event>
<event>
 7    1  0.2950722E-010  0.4778727E+02  0.7816164E-02  0.1312668E+00
        -11   -1    0    0    0    0  0.00000000000E+00  0.00000000000E+00  0.45593999997E+02  0.45594000000E+02  0.51100000000E-03 0.  1.
         11   -1    0    0    0    0 -0.00000000000E+00 -0.00000000000E+00 -0.45593999997E+02  0.45594000000E+02  0.51100000000E-03 0. -1.
    9900012    2    1    2    0    0 -0.33473359754E+02 -0.18980405412E+02 -0.20072412164E+02  0.47787270364E+02  0.19999996897E+02 0.  0.
        -12    1    1    2    0    0  0.33473359754E+02  0.18980405412E+02  0.20072412164E+02  0.43400729636E+02  0.00000000000E+00 0.  1.
         11    1    3    3    0    0 -0.67690340806E+01 -0.19429117698E+01 -0.76628113876E+01  0.10407372731E+02  0.51100000000E-03 0. -1.
        -11    1    3    3    0    0 -0.27127139731E+02 -0.13777380267E+02 -0.14266785929E+02  0.33604152987E+02  0.51100000000E-03 0.  1.
        -12    1    3    3    0    0  0.42281405700E+00 -0.32601133751E+01  0.18571851519E+01  0.37757446462E+01  0.00000000000E+00 0.  1.
</event>
<event>
 7    1  0.2950722E-010  0.4778726E+02  0.7816164E-02  0.1312668E+00
        -11   -1    0    0    0    0  0.00000000000E+00  0.00000000000E+00  0.45593999997E+02  0.45594000000E+02  0.51100000000E-03 0.  1.
         11   -1    0    0    0    0 -0.00000000000E+00 -0.00000000000E+00 -0.45593999997E+02  0.45594000000E+02  0.51100000000E-03 0. -1.
    9900012    2    1    2    0    0 -0.18638686900E+02 -0.21358059439E+02 -0.32864223317E+02  0.47787256612E+02  0.19999934198E+02 0.  0.
        -12    1    1    2    0    0  0.18638686900E+02  0.21358059439E+02  0.32864223317E+02  0.43400743388E+02  0.00000000000E+00 0.  1.
         11    1    3    3    0    0 -0.58788493697E+01 -0.19864898453E+02 -0.25595740059E+02  0.32928968552E+02  0.51100000000E-03 0. -1.
        -11    1    3    3    0    0 -0.91782113255E+01 -0.79299504505E+00 -0.60031263139E+01  0.10995723263E+02  0.51100000000E-03 0.  1.
         12    1    3    3    0    0 -0.35816262053E+01 -0.70016594105E+00 -0.12653569445E+01  0.38625647977E+01  0.00000000000E+00 0. -1.
</event>
<event>
 7    1  0.2950722E-010  0.4778727E+02  0.7816164E-02  0.1312668E+00
        -11   -1    0    0    0    0  0.00000000000E+00  0.00000000000E+00  0.45593999997E+02  0.45594000000E+02  0.51100000000E-03 0.  1.
         11   -1    0    0    0    0 -0.00000000000E+00 -0.00000000000E+00 -0.45593999997E+02  0.45594000000E+02  0.51100000000E-03 0. -1.
    9900012    2    1    2    0    0 -0.25192037614E+02  0.26805780092E+02 -0.23031171375E+02  0.47787268896E+02  0.19999990205E+02 0.  0.
        -12    1    1    2    0    0  0.25192037614E+02 -0.26805780092E+02  0.23031171375E+02  0.43400731104E+02  0.00000000000E+00 0.  1.
         11    1    3    3    0    0 -0.13094081791E+02  0.81384750055E+01 -0.75843624822E+01  0.17181743447E+02  0.51100000000E-03 0. -1.
        -11    1    3    3    0    0 -0.13325786775E+01  0.10253596614E+02 -0.49577568178E+00  0.10351705330E+02  0.51100000000E-03 0.  1.
        -12    1    3    3    0    0 -0.10765377145E+02  0.84137084726E+01 -0.14951033211E+02  0.20253820119E+02  0.00000000000E+00 0.  1.
</event>
<event>
 7    1  0.2950722E-010  0.4778727E+02  0.7816164E-02  0.1312668E+00
        -11   -1    0    0    0    0  0.00000000000E+00  0.00000000000E+00  0.45593999997E+02  0.45594000000E+02  0.51100000000E-03 0. -1.
         11   -1    0    0    0    0 -0.00000000000E+00 -0.00000000000E+00 -0.45593999997E+02  0.45594000000E+02  0.51100000000E-03 0.  1.
    9900012    2    1    2    0    0  0.84395203435E+01 -0.11797936862E+02  0.40904845667E+02  0.47787271701E+02  0.20000002993E+02 0.  0.
        -12    1    1    2    0    0 -0.84395203435E+01  0.11797936862E+02 -0.40904845667E+02  0.43400728299E+02  0.00000000000E+00 0.  1.
         11    1    3    3    0    0 -0.40801884749E+01 -0.41756372587E+01  0.78211616479E+01  0.97598388455E+01  0.51100000000E-03 0. -1.
        -11    1    3    3    0    0  0.93292447816E+01 -0.10767191216E+02  0.25956125452E+02  0.29608911895E+02  0.51100000000E-03 0.  1.
        -12    1    3    3    0    0  0.31904640367E+01  0.31448916129E+01  0.71275585678E+01  0.84185209606E+01  0.00000000000E+00 0.  1.
</event>
<event>
 7    1  0.2950722E-010  0.4778727E+02  0.7816164E-02  0.1312668E+00
        -11   -1    0    0    0    0  0.00000000000E+00  0.00000000000E+00  0.45593999997E+02  0.45594000000E+02  0.51100000000E-03 0.  1.
         11   -1    0    0    0    0 -0.00000000000E+00 -0.00000000000E+00 -0.45593999997E+02  0.45594000000E+02  0.51100000000E-03 0. -1.
    9900012    2    1    2    0    0 -0.38535610496E+02 -0.95229176487E+01 -0.17548340144E+02  0.47787268685E+02  0.19999989243E+02 0.  0.
        -12    1    1    2    0    0  0.38535610496E+02  0.95229176487E+01  0.17548340144E+02  0.43400731315E+02  0.00000000000E+00 0.  1.
         11    1    3    3    0    0 -0.60280426797E+01  0.36388100187E+00 -0.24680785960E-01  0.60390659323E+01  0.51100000000E-03 0. -1.
        -11    1    3    3    0    0 -0.25148060540E+02 -0.10972560110E+02 -0.60865849570E+01  0.28104599997E+02  0.51100000000E-03 0.  1.
        -12    1    3    3    0    0 -0.73595072759E+01  0.10857614595E+01 -0.11437074401E+02  0.13643602756E+02  0.00000000000E+00 0.  1.
</event>
<event>
 7    1  0.2950722E-010  0.4778727E+02  0.7816164E-02  0.1312668E+00
        -11   -1    0    0    0    0  0.00000000000E+00  0.00000000000E+00  0.45593999997E+02  0.45594000000E+02  0.51100000000E-03 0.  1.
         11   -1    0    0    0    0 -0.00000000000E+00 -0.00000000000E+00 -0.45593999997E+02  0.45594000000E+02  0.51100000000E-03 0. -1.
    9900012    2    1    2    0    0 -0.34298335122E+02 -0.19004194569E+02 -0.18603443047E+02  0.47787270783E+02  0.19999998810E+02 0.  0.
        -12    1    1    2    0    0  0.34298335122E+02  0.19004194569E+02  0.18603443047E+02  0.43400729217E+02  0.00000000000E+00 0.  1.
         11    1    3    3    0    0 -0.25094757049E+02 -0.13536749374E+02 -0.74682300012E+01  0.29474817634E+02  0.51100000000E-03 0. -1.
        -11    1    3    3    0    0 -0.58754752034E+01  0.18023984001E+01 -0.27711109648E+01  0.67415803117E+01  0.51100000000E-03 0.  1.
         12    1    3    3    0    0 -0.33281028698E+01 -0.72698435951E+01 -0.83641020807E+01  0.11570872838E+02  0.00000000000E+00 0. -1.
</event>
<event>
 7    1  0.2950722E-010  0.4778724E+02  0.7816164E-02  0.1312668E+00
        -11   -1    0    0    0    0  0.00000000000E+00  0.00000000000E+00  0.45593999997E+02  0.45594000000E+02  0.51100000000E-03 0. -1.
         11   -1    0    0    0    0 -0.00000000000E+00 -0.00000000000E+00 -0.45593999997E+02  0.45594000000E+02  0.51100000000E-03 0.  1.
    9900012    2    1    2    0    0 -0.47919237786E+01  0.41448485761E+02  0.11945136595E+02  0.47787242015E+02  0.19999867645E+02 0.  0.
        -12    1    1    2    0    0  0.47919237786E+01 -0.41448485761E+02 -0.11945136595E+02  0.43400757985E+02  0.00000000000E+00 0.  1.
         11    1    3    3    0    0 -0.38933892232E+01  0.17991694727E+01  0.15802433483E+01  0.45708489075E+01  0.51100000000E-03 0. -1.
        -11    1    3    3    0    0  0.38341696103E+01  0.25471221927E+02  0.14201857760E+01  0.25797304723E+02  0.51100000000E-03 0.  1.
        -12    1    3    3    0    0 -0.47327041656E+01  0.14178094361E+02  0.89447074708E+01  0.17419088385E+02  0.00000000000E+00 0.  1.
</event>
<event>
 7    1  0.2950722E-010  0.4778727E+02  0.7816164E-02  0.1312668E+00
        -11   -1    0    0    0    0  0.00000000000E+00  0.00000000000E+00  0.45593999997E+02  0.45594000000E+02  0.51100000000E-03 0. -1.
         11   -1    0    0    0    0 -0.00000000000E+00 -0.00000000000E+00 -0.45593999997E+02  0.45594000000E+02  0.51100000000E-03 0.  1.
    9900012    2    1    2    0    0  0.31506671887E+02  0.16027244033E+02 -0.25180952123E+02  0.47787271037E+02  0.19999999967E+02 0.  0.
        -12    1    1    2    0    0 -0.31506671887E+02 -0.16027244033E+02  0.25180952123E+02  0.43400728963E+02  0.00000000000E+00 0.  1.
         11    1    3    3    0    0 -0.32065051178E+00  0.38894737666E+01  0.75460777632E+00  0.39749535958E+01  0.51100000000E-03 0. -1.
        -11    1    3    3    0    0  0.88860486261E+01  0.10170749123E+01 -0.11314644761E+02  0.14422811373E+02  0.51100000000E-03 0.  1.
         12    1    3    3    0    0  0.22941273772E+02  0.11120695354E+02 -0.14620915138E+02  0.29389506068E+02  0.00000000000E+00 0. -1.
</event>
<event>
 7    1  0.2950722E-010  0.4778728E+02  0.7816164E-02  0.1312668E+00
        -11   -1    0    0    0    0  0.00000000000E+00  0.00000000000E+00  0.45593999997E+02  0.45594000000E+02  0.51100000000E-03 0. -1.
         11   -1    0    0    0    0 -0.00000000000E+00 -0.00000000000E+00 -0.45593999997E+02  0.45594000000E+02  0.51100000000E-03 0.  1.
    9900012    2    1    2    0    0  0.63006015603E+01 -0.32679870623E+02  0.27855889944E+02  0.47787284239E+02  0.20000060160E+02 0.  0.
        -12    1    1    2    0    0 -0.63006015603E+01  0.32679870623E+02 -0.27855889944E+02  0.43400715761E+02  0.00000000000E+00 0.  1.
         11    1    3    3    0    0  0.34185468623E+01 -0.51121756802E+01  0.11145271507E+02  0.12729410043E+02  0.51100000000E-03 0. -1.
        -11    1    3    3    0    0 -0.40414277601E+01 -0.19364106973E+02  0.13127577546E+02  0.23740999762E+02  0.51100000000E-03 0.  1.
        -12    1    3    3    0    0  0.69234824581E+01 -0.82035879698E+01  0.35830408915E+01  0.11316874434E+02  0.00000000000E+00 0.  1.
</event>
<event>
 7    1  0.2950722E-010  0.4778727E+02  0.7816164E-02  0.1312668E+00
        -11   -1    0    0    0    0  0.00000000000E+00  0.00000000000E+00  0.45593999997E+02  0.45594000000E+02  0.51100000000E-03 0.  1.
         11   -1    0    0    0    0 -0.00000000000E+00 -0.00000000000E+00 -0.45593999997E+02  0.45594000000E+02  0.51100000000E-03 0. -1.
    9900012    2    1    2    0    0  0.19112573042E+02  0.15753986565E+02 -0.35639088269E+02  0.47787272430E+02  0.20000006318E+02 0.  0.
        -12    1    1    2    0    0 -0.19112573042E+02 -0.15753986565E+02  0.35639088269E+02  0.43400727570E+02  0.00000000000E+00 0.  1.
         11    1    3    3    0    0  0.18607759267E+02  0.13563866761E+02 -0.30917411594E+02  0.38550143014E+02  0.51100000000E-03 0. -1.
        -11    1    3    3    0    0 -0.10786632283E+01  0.47726695902E+01 -0.26222252135E+01  0.55513921416E+01  0.51100000000E-03 0.  1.
         12    1    3    3    0    0  0.15834770034E+01 -0.25825497866E+01 -0.20994514610E+01  0.36857372746E+01  0.00000000000E+00 0. -1.
</event>
<event>
 7    1  0.2950722E-010  0.4778727E+02  0.7816164E-02  0.1312668E+00
        -11   -1    0    0    0    0  0.00000000000E+00  0.00000000000E+00  0.45593999997E+02  0.45594000000E+02  0.51100000000E-03 0.  1.
         11   -1    0    0    0    0 -0.00000000000E+00 -0.00000000000E+00 -0.45593999997E+02  0.45594000000E+02  0.51100000000E-03 0. -1.
    9900012    2    1    2    0    0  0.31565870523E+02  0.17110017129E+02 -0.24381689476E+02  0.47787266715E+02  0.19999980259E+02 0.  0.
        -12    1    1    2    0    0 -0.31565870523E+02 -0.17110017129E+02  0.24381689476E+02  0.43400733285E+02  0.00000000000E+00 0.  1.
         11    1    3    3    0    0  0.45654354247E+01  0.36261644265E+01  0.20966498736E+01  0.61958219809E+01  0.51100000000E-03 0.  1.
        -11    1    3    3    0    0  0.47792040362E+01  0.41342040006E+01 -0.11746936839E+02  0.13338776529E+02  0.51100000000E-03 0. -1.
         12    1    3    3    0    0  0.22221231062E+02  0.93496487019E+01 -0.14731402511E+02  0.28252668205E+02  0.00000000000E+00 0. -1.
</event>
<event>
 7    1  0.2950722E-010  0.4778728E+02  0.7816164E-02  0.1312668E+00
        -11   -1    0    0    0    0  0.00000000000E+00  0.00000000000E+00  0.45593999997E+02  0.45594000000E+02  0.51100000000E-03 0.  1.
         11   -1    0    0    0    0 -0.00000000000E+00 -0.00000000000E+00 -0.45593999997E+02  0.45594000000E+02  0.51100000000E-03 0. -1.
    9900012    2    1    2    0    0 -0.24925834886E+02  0.43981546837E+01 -0.35255938993E+02  0.47787282913E+02  0.20000054112E+02 0.  0.
        -12    1    1    2    0    0  0.24925834886E+02 -0.43981546837E+01  0.35255938993E+02  0.43400717087E+02  0.00000000000E+00 0.  1.
         11    1    3    3    0    0 -0.16195726158E+02  0.83409131558E+01 -0.21673280480E+02  0.28312602584E+02  0.51100000000E-03 0. -1.
        -11    1    3    3    0    0 -0.28576734358E+01 -0.35422985398E+01 -0.12740050354E+02  0.13528601543E+02  0.51100000000E-03 0.  1.
        -12    1    3    3    0    0 -0.58724352923E+01 -0.40045993223E+00 -0.84260815888E+00  0.59460787859E+01  0.00000000000E+00 0.  1.
</event>
<event>
 7    1  0.2950722E-010  0.4778726E+02  0.7816164E-02  0.1312668E+00
        -11   -1    0    0    0    0  0.00000000000E+00  0.00000000000E+00  0.45593999997E+02  0.45594000000E+02  0.51100000000E-03 0.  1.
         11   -1    0    0    0    0 -0.00000000000E+00 -0.00000000000E+00 -0.45593999997E+02  0.45594000000E+02  0.51100000000E-03 0. -1.
    9900012    2    1    2    0    0  0.24550127835E+02 -0.21830052957E+02 -0.28361310858E+02  0.47787263342E+02  0.19999964882E+02 0.  0.
        -12    1    1    2    0    0 -0.24550127835E+02  0.21830052957E+02  0.28361310858E+02  0.43400736658E+02  0.00000000000E+00 0.  1.
         11    1    3    3    0    0  0.97990294910E+01 -0.10395237502E+02 -0.62739185486E+01  0.15602691944E+02  0.51100000000E-03 0. -1.
        -11    1    3    3    0    0  0.13252711165E+01 -0.94769957605E+01 -0.67681503855E+01  0.11720821306E+02  0.51100000000E-03 0.  1.
        -12    1    3    3    0    0  0.13425827228E+02 -0.19578196949E+01 -0.15319241924E+02  0.20463750092E+02  0.00000000000E+00 0.  1.
</event>
<event>
 7    1  0.2950722E-010  0.4778727E+02  0.7816164E-02  0.1312668E+00
        -11   -1    0    0    0    0  0.00000000000E+00  0.00000000000E+00  0.45593999997E+02  0.45594000000E+02  0.51100000000E-03 0.  1.
         11   -1    0    0    0    0 -0.00000000000E+00 -0.00000000000E+00 -0.45593999997E+02  0.45594000000E+02  0.51100000000E-03 0. -1.
    9900012    2    1    2    0    0 -0.33079990707E+02 -0.18499297883E+02 -0.21145067584E+02  0.47787266245E+02  0.19999978119E+02 0.  0.
        -12    1    1    2    0    0  0.33079990707E+02  0.18499297883E+02  0.21145067584E+02  0.43400733755E+02  0.00000000000E+00 0.  1.
         11    1    3    3    0    0 -0.16327209792E+01 -0.60435799789E+01 -0.68382123550E+01  0.92710185649E+01  0.51100000000E-03 0. -1.
        -11    1    3    3    0    0 -0.30303720000E+02 -0.10969264394E+02 -0.16007603193E+02  0.35984490651E+02  0.51100000000E-03 0.  1.
        -12    1    3    3    0    0 -0.11435497274E+01 -0.14864535101E+01  0.17007479642E+01  0.25317570291E+01  0.00000000000E+00 0.  1.
</event>
<event>
 7    1  0.2950722E-010  0.4778727E+02  0.7816164E-02  0.1312668E+00
        -11   -1    0    0    0    0  0.00000000000E+00  0.00000000000E+00  0.45593999997E+02  0.45594000000E+02  0.51100000000E-03 0.  1.
         11   -1    0    0    0    0 -0.00000000000E+00 -0.00000000000E+00 -0.45593999997E+02  0.45594000000E+02  0.51100000000E-03 0. -1.
    9900012    2    1    2    0    0 -0.29731579139E+02 -0.13817057647E+02 -0.28438453799E+02  0.47787268041E+02  0.19999986304E+02 0.  0.
        -12    1    1    2    0    0  0.29731579139E+02  0.13817057647E+02  0.28438453799E+02  0.43400731959E+02  0.00000000000E+00 0.  1.
         11    1    3    3    0    0 -0.10242824568E+02 -0.24575017176E+01 -0.48821979612E+01  0.11609936564E+02  0.51100000000E-03 0. -1.
        -11    1    3    3    0    0 -0.16116368586E+02 -0.89737099280E+00 -0.16680913752E+02  0.23211968787E+02  0.51100000000E-03 0.  1.
        -12    1    3    3    0    0 -0.33723859852E+01 -0.10462184937E+02 -0.68753420858E+01  0.12965362690E+02  0.00000000000E+00 0.  1.
</event>
<event>
 7    1  0.2950722E-010  0.4778727E+02  0.7816164E-02  0.1312668E+00
        -11   -1    0    0    0    0  0.00000000000E+00  0.00000000000E+00  0.45593999997E+02  0.45594000000E+02  0.51100000000E-03 0.  1.
         11   -1    0    0    0    0 -0.00000000000E+00 -0.00000000000E+00 -0.45593999997E+02  0.45594000000E+02  0.51100000000E-03 0. -1.
    9900012    2    1    2    0    0 -0.16014878587E+01  0.23962155038E+02 -0.36150706526E+02  0.47787271667E+02  0.20000002841E+02 0.  0.
        -12    1    1    2    0    0  0.16014878587E+01 -0.23962155038E+02  0.36150706526E+02  0.43400728333E+02  0.00000000000E+00 0.  1.
         11    1    3    3    0    0 -0.32575570155E+01 -0.11642501623E+01 -0.90305271870E+01  0.96704486807E+01  0.51100000000E-03 0. -1.
        -11    1    3    3    0    0  0.32969620083E-01  0.67553382487E+01 -0.21801306551E+01  0.70984964453E+01  0.51100000000E-03 0.  1.
         12    1    3    3    0    0  0.16230995367E+01  0.18371066952E+02 -0.24940048684E+02  0.31018326541E+02  0.00000000000E+00 0. -1.
</event>
<event>
 7    1  0.2950722E-010  0.4778727E+02  0.7816164E-02  0.1312668E+00
        -11   -1    0    0    0    0  0.00000000000E+00  0.00000000000E+00  0.45593999997E+02  0.45594000000E+02  0.51100000000E-03 0.  1.
         11   -1    0    0    0    0 -0.00000000000E+00 -0.00000000000E+00 -0.45593999997E+02  0.45594000000E+02  0.51100000000E-03 0. -1.
    9900012    2    1    2    0    0 -0.24222857448E+02 -0.35644506378E+02  0.51327843573E+01  0.47787272665E+02  0.20000007390E+02 0.  0.
        -12    1    1    2    0    0  0.24222857448E+02  0.35644506378E+02 -0.51327843573E+01  0.43400727335E+02  0.00000000000E+00 0.  1.
         11    1    3    3    0    0 -0.54804880020E+01 -0.43328154045E+01  0.16112950873E+00  0.69882044225E+01  0.51100000000E-03 0. -1.
        -11    1    3    3    0    0 -0.14740980572E+02 -0.32916525640E+02  0.34668098610E+01  0.36232760581E+02  0.51100000000E-03 0.  1.
        -12    1    3    3    0    0 -0.40013888744E+01  0.16048346661E+01  0.15048449876E+01  0.45663076623E+01  0.00000000000E+00 0.  1.
</event>
<event>
 7    1  0.2950722E-010  0.4778728E+02  0.7816164E-02  0.1312668E+00
        -11   -1    0    0    0    0  0.00000000000E+00  0.00000000000E+00  0.45593999997E+02  0.45594000000E+02  0.51100000000E-03 0.  1.
         11   -1    0    0    0    0 -0.00000000000E+00 -0.00000000000E+00 -0.45593999997E+02  0.45594000000E+02  0.51100000000E-03 0. -1.
    9900012    2    1    2    0    0 -0.21200825388E+02 -0.31406584344E+01 -0.37739679361E+02  0.47787284213E+02  0.20000060042E+02 0.  0.
        -12    1    1    2    0    0  0.21200825388E+02  0.31406584344E+01  0.37739679361E+02  0.43400715787E+02  0.00000000000E+00 0.  1.
         11    1    3    3    0    0 -0.23475312499E+02 -0.26112481260E+01 -0.34268773170E+02  0.41620400389E+02  0.51100000000E-03 0. -1.
        -11    1    3    3    0    0  0.26044900066E+01 -0.16870329429E+00  0.51753376599E-01  0.26104611986E+01  0.51100000000E-03 0.  1.
        -12    1    3    3    0    0 -0.33000289532E+00 -0.36070701416E+00 -0.35226595680E+01  0.35564226257E+01  0.00000000000E+00 0.  1.
</event>
<event>
 7    1  0.2950722E-010  0.4778728E+02  0.7816164E-02  0.1312668E+00
        -11   -1    0    0    0    0  0.00000000000E+00  0.00000000000E+00  0.45593999997E+02  0.45594000000E+02  0.51100000000E-03 0. -1.
         11   -1    0    0    0    0 -0.00000000000E+00 -0.00000000000E+00 -0.45593999997E+02  0.45594000000E+02  0.51100000000E-03 0.  1.
    9900012    2    1    2    0    0  0.35568204354E+02 -0.14067802358E+02  0.20509078719E+02  0.47787279567E+02  0.20000038860E+02 0.  0.
        -12    1    1    2    0    0 -0.35568204354E+02  0.14067802358E+02 -0.20509078719E+02  0.43400720433E+02  0.00000000000E+00 0.  1.
         11    1    3    3    0    0  0.20216268184E+02 -0.65246027923E+01  0.20411460937E+02  0.29460069225E+02  0.51100000000E-03 0. -1.
        -11    1    3    3    0    0 -0.29074282044E+00 -0.40275424390E+00  0.99117469813E+00  0.11086793549E+01  0.51100000000E-03 0.  1.
         12    1    3    3    0    0  0.15642678991E+02 -0.71404453221E+01 -0.89355691684E+00  0.17218530988E+02  0.00000000000E+00 0. -1.
</event>
<event>
 7    1  0.2950722E-010  0.4778727E+02  0.7816164E-02  0.1312668E+00
        -11   -1    0    0    0    0  0.00000000000E+00  0.00000000000E+00  0.45593999997E+02  0.45594000000E+02  0.51100000000E-03 0.  1.
         11   -1    0    0    0    0 -0.00000000000E+00 -0.00000000000E+00 -0.45593999997E+02  0.45594000000E+02  0.51100000000E-03 0. -1.
    9900012    2    1    2    0    0  0.32515266781E+01 -0.20681606127E+02 -0.38017387734E+02  0.47787273879E+02  0.20000012925E+02 0.  0.
        -12    1    1    2    0    0 -0.32515266781E+01  0.20681606127E+02  0.38017387734E+02  0.43400726121E+02  0.00000000000E+00 0.  1.
         11    1    3    3    0    0 -0.12165589184E+01 -0.39612286438E+00  0.14954968795E+01  0.19681057145E+01  0.51100000000E-03 0.  1.
        -11    1    3    3    0    0 -0.11159157986E+01 -0.15668278042E+02 -0.29973068926E+02  0.33839696600E+02  0.51100000000E-03 0. -1.
        -12    1    3    3    0    0  0.55840013951E+01 -0.46172052209E+01 -0.95398156872E+01  0.11979471565E+02  0.00000000000E+00 0.  1.
</event>
<event>
 7    1  0.2950722E-010  0.4778728E+02  0.7816164E-02  0.1312668E+00
        -11   -1    0    0    0    0  0.00000000000E+00  0.00000000000E+00  0.45593999997E+02  0.45594000000E+02  0.51100000000E-03 0.  1.
         11   -1    0    0    0    0 -0.00000000000E+00 -0.00000000000E+00 -0.45593999997E+02  0.45594000000E+02  0.51100000000E-03 0. -1.
    9900012    2    1    2    0    0  0.19083655090E+02 -0.83644531171E+01 -0.38071941189E+02  0.47787277962E+02  0.20000031539E+02 0.  0.
        -12    1    1    2    0    0 -0.19083655090E+02  0.83644531171E+01  0.38071941189E+02  0.43400722038E+02  0.00000000000E+00 0.  1.
         11    1    3    3    0    0  0.81871100669E+01 -0.11950739929E+02 -0.10980999870E+02  0.18177769789E+02  0.51100000000E-03 0. -1.
        -11    1    3    3    0    0  0.66481108558E+01  0.15130389507E+01 -0.19596114493E+02  0.20748358207E+02  0.51100000000E-03 0.  1.
        -12    1    3    3    0    0  0.42484341668E+01  0.20732478608E+01 -0.74948268261E+01  0.88611499657E+01  0.00000000000E+00 0.  1.
</event>
<event>
 7    1  0.2950722E-010  0.4778727E+02  0.7816164E-02  0.1312668E+00
        -11   -1    0    0    0    0  0.00000000000E+00  0.00000000000E+00  0.45593999997E+02  0.45594000000E+02  0.51100000000E-03 0.  1.
         11   -1    0    0    0    0 -0.00000000000E+00 -0.00000000000E+00 -0.45593999997E+02  0.45594000000E+02  0.51100000000E-03 0. -1.
    9900012    2    1    2    0    0  0.40652700247E+02 -0.15071288728E+02  0.19589734830E+01  0.47787270071E+02  0.19999995561E+02 0.  0.
        -12    1    1    2    0    0 -0.40652700247E+02  0.15071288728E+02 -0.19589734830E+01  0.43400729929E+02  0.00000000000E+00 0.  1.
         11    1    3    3    0    0  0.58713116096E+01 -0.26946757309E+01 -0.12085969099E+00  0.64612835132E+01  0.51100000000E-03 0. -1.
        -11    1    3    3    0    0  0.26313902809E+02 -0.29465921605E+01  0.75326818597E+01  0.27528988043E+02  0.51100000000E-03 0.  1.
        -12    1    3    3    0    0  0.84674858277E+01 -0.94300208363E+01 -0.54528486857E+01  0.13796998514E+02  0.00000000000E+00 0.  1.
</event>
<event>
 7    1  0.2950722E-010  0.4778727E+02  0.7816164E-02  0.1312668E+00
        -11   -1    0    0    0    0  0.00000000000E+00  0.00000000000E+00  0.45593999997E+02  0.45594000000E+02  0.51100000000E-03 0.  1.
         11   -1    0    0    0    0 -0.00000000000E+00 -0.00000000000E+00 -0.45593999997E+02  0.45594000000E+02  0.51100000000E-03 0. -1.
    9900012    2    1    2    0    0 -0.25747376477E+01 -0.61645690864E+01 -0.42883472398E+02  0.47787269697E+02  0.19999993855E+02 0.  0.
        -12    1    1    2    0    0  0.25747376477E+01  0.61645690864E+01  0.42883472398E+02  0.43400730303E+02  0.00000000000E+00 0.  1.
         11    1    3    3    0    0  0.12953692174E+01  0.62477618688E+00 -0.15782077751E+02  0.15847469990E+02  0.51100000000E-03 0. -1.
        -11    1    3    3    0    0 -0.59712899118E+01 -0.99643718596E+01 -0.25055854339E+02  0.27617763246E+02  0.51100000000E-03 0.  1.
        -12    1    3    3    0    0  0.21011830467E+01  0.31750265863E+01 -0.20455403076E+01  0.43220364609E+01  0.00000000000E+00 0.  1.
</event>
<event>
 7    1  0.2950722E-010  0.4778727E+02  0.7816164E-02  0.1312668E+00
        -11   -1    0    0    0    0  0.00000000000E+00  0.00000000000E+00  0.45593999997E+02  0.45594000000E+02  0.51100000000E-03 0.  1.
         11   -1    0    0    0    0 -0.00000000000E+00 -0.00000000000E+00 -0.45593999997E+02  0.45594000000E+02  0.51100000000E-03 0. -1.
    9900012    2    1    2    0    0  0.25919917879E+02 -0.43525607557E+01 -0.34537468024E+02  0.47787266993E+02  0.19999981530E+02 0.  0.
        -12    1    1    2    0    0 -0.25919917879E+02  0.43525607557E+01  0.34537468024E+02  0.43400733007E+02  0.00000000000E+00 0.  1.
         11    1    3    3    0    0  0.65764559313E+01 -0.64354896721E+01 -0.70474173343E+01  0.11590141987E+02  0.51100000000E-03 0.  1.
        -11    1    3    3    0    0  0.20972655337E+02  0.36499901136E+01 -0.24837862766E+02  0.32712293206E+02  0.51100000000E-03 0. -1.
        -12    1    3    3    0    0 -0.16291933895E+01 -0.15670611971E+01 -0.26521879238E+01  0.34848318007E+01  0.00000000000E+00 0.  1.
</event>
<event>
 7    1  0.2950722E-010  0.4778727E+02  0.7816164E-02  0.1312668E+00
        -11   -1    0    0    0    0  0.00000000000E+00  0.00000000000E+00  0.45593999997E+02  0.45594000000E+02  0.51100000000E-03 0.  1.
         11   -1    0    0    0    0 -0.00000000000E+00 -0.00000000000E+00 -0.45593999997E+02  0.45594000000E+02  0.51100000000E-03 0. -1.
    9900012    2    1    2    0    0 -0.19872015080E+02  0.92056177611E+01 -0.37469762963E+02  0.47787268230E+02  0.19999987166E+02 0.  0.
        -12    1    1    2    0    0  0.19872015080E+02 -0.92056177611E+01  0.37469762963E+02  0.43400731770E+02  0.00000000000E+00 0.  1.
         11    1    3    3    0    0 -0.10754530726E+02  0.80466152350E+01 -0.13996366448E+02  0.19398613916E+02  0.51100000000E-03 0. -1.
        -11    1    3    3    0    0 -0.70130002530E+01  0.52489851249E+01 -0.67912353678E+01  0.11083992759E+02  0.51100000000E-03 0.  1.
        -12    1    3    3    0    0 -0.21044841017E+01 -0.40899825987E+01 -0.16682161147E+02  0.17304661555E+02  0.00000000000E+00 0.  1.
</event>
<event>
 7    1  0.2950722E-010  0.4778727E+02  0.7816164E-02  0.1312668E+00
        -11   -1    0    0    0    0  0.00000000000E+00  0.00000000000E+00  0.45593999997E+02  0.45594000000E+02  0.51100000000E-03 0. -1.
         11   -1    0    0    0    0 -0.00000000000E+00 -0.00000000000E+00 -0.45593999997E+02  0.45594000000E+02  0.51100000000E-03 0.  1.
    9900012    2    1    2    0    0  0.61531490761E+01 -0.12222651883E+02  0.41186997967E+02  0.47787271157E+02  0.20000000512E+02 0.  0.
        -12    1    1    2    0    0 -0.61531490761E+01  0.12222651883E+02 -0.41186997967E+02  0.43400728843E+02  0.00000000000E+00 0.  1.
         11    1    3    3    0    0  0.27855110429E+01 -0.17389756680E+01  0.30156350529E+02  0.30334610360E+02  0.51100000000E-03 0. -1.
        -11    1    3    3    0    0  0.12327844457E+01 -0.39964720105E+01 -0.33210309552E+00  0.41954545341E+01  0.51100000000E-03 0.  1.
         12    1    3    3    0    0  0.21348535874E+01 -0.64872042044E+01  0.11362750533E+02  0.13257206263E+02  0.00000000000E+00 0. -1.
</event>
<event>
 7    1  0.2950722E-010  0.4778727E+02  0.7816164E-02  0.1312668E+00
        -11   -1    0    0    0    0  0.00000000000E+00  0.00000000000E+00  0.45593999997E+02  0.45594000000E+02  0.51100000000E-03 0.  1.
         11   -1    0    0    0    0 -0.00000000000E+00 -0.00000000000E+00 -0.45593999997E+02  0.45594000000E+02  0.51100000000E-03 0. -1.
    9900012    2    1    2    0    0 -0.31082076716E+02 -0.28933596399E+02 -0.89652197455E+01  0.47787266612E+02  0.19999979792E+02 0.  0.
        -12    1    1    2    0    0  0.31082076716E+02  0.28933596399E+02  0.89652197455E+01  0.43400733388E+02  0.00000000000E+00 0.  1.
         11    1    3    3    0    0 -0.10919715514E+01 -0.41743041424E+00 -0.50233101013E+01  0.51575473487E+01  0.51100000000E-03 0. -1.
        -11    1    3    3    0    0 -0.13705771895E+02 -0.15528896093E+02  0.24143248418E+01  0.20852428200E+02  0.51100000000E-03 0.  1.
         12    1    3    3    0    0 -0.16284333269E+02 -0.12987269891E+02 -0.63562344861E+01  0.21777291064E+02  0.00000000000E+00 0. -1.
</event>
<event>
 7    1  0.2950722E-010  0.4778727E+02  0.7816164E-02  0.1312668E+00
        -11   -1    0    0    0    0  0.00000000000E+00  0.00000000000E+00  0.45593999997E+02  0.45594000000E+02  0.51100000000E-03 0.  1.
         11   -1    0    0    0    0 -0.00000000000E+00 -0.00000000000E+00 -0.45593999997E+02  0.45594000000E+02  0.51100000000E-03 0. -1.
    9900012    2    1    2    0    0  0.14228845613E+02  0.40274747603E+02  0.76881963905E+01  0.47787266069E+02  0.19999977316E+02 0.  0.
        -12    1    1    2    0    0 -0.14228845613E+02 -0.40274747603E+02 -0.76881963905E+01  0.43400733931E+02  0.00000000000E+00 0.  1.
         11    1    3    3    0    0  0.82908965017E+01  0.32522702333E+02  0.82429175373E+01  0.34560249155E+02  0.51100000000E-03 0. -1.
        -11    1    3    3    0    0  0.12766513271E+00 -0.10104365717E+01  0.21429158730E+01  0.23726291644E+01  0.51100000000E-03 0.  1.
         12    1    3    3    0    0  0.58102839783E+01  0.87624818419E+01 -0.26976370199E+01  0.10854387750E+02  0.00000000000E+00 0. -1.
</event>
<event>
 7    1  0.2950722E-010  0.4778727E+02  0.7816164E-02  0.1312668E+00
        -11   -1    0    0    0    0  0.00000000000E+00  0.00000000000E+00  0.45593999997E+02  0.45594000000E+02  0.51100000000E-03 0. -1.
         11   -1    0    0    0    0 -0.00000000000E+00 -0.00000000000E+00 -0.45593999997E+02  0.45594000000E+02  0.51100000000E-03 0.  1.
    9900012    2    1    2    0    0  0.39575032376E+01 -0.26801393101E+02  0.33906440137E+02  0.47787272047E+02  0.20000004573E+02 0.  0.
        -12    1    1    2    0    0 -0.39575032376E+01  0.26801393101E+02 -0.33906440137E+02  0.43400727953E+02  0.00000000000E+00 0.  1.
         11    1    3    3    0    0 -0.57144629189E+01 -0.37376209592E+01  0.52877821701E+01  0.86362918794E+01  0.51100000000E-03 0. -1.
        -11    1    3    3    0    0  0.70565779124E+01 -0.21018370041E+02  0.28095157244E+02  0.35789733610E+02  0.51100000000E-03 0.  1.
        -12    1    3    3    0    0  0.26153882441E+01 -0.20454021003E+01  0.52350072322E+00  0.33612465584E+01  0.00000000000E+00 0.  1.
</event>
<event>
 7    1  0.2950722E-010  0.4778727E+02  0.7816164E-02  0.1312668E+00
        -11   -1    0    0    0    0  0.00000000000E+00  0.00000000000E+00  0.45593999997E+02  0.45594000000E+02  0.51100000000E-03 0.  1.
         11   -1    0    0    0    0 -0.00000000000E+00 -0.00000000000E+00 -0.45593999997E+02  0.45594000000E+02  0.51100000000E-03 0. -1.
    9900012    2    1    2    0    0 -0.11407874845E+02  0.41787283426E+02 -0.27031213432E+01  0.47787268098E+02  0.19999986567E+02 0.  0.
        -12    1    1    2    0    0  0.11407874845E+02 -0.41787283426E+02  0.27031213432E+01  0.43400731902E+02  0.00000000000E+00 0.  1.
         11    1    3    3    0    0 -0.81455937582E+01  0.37509648685E+02 -0.35331998161E+01  0.38546179361E+02  0.51100000000E-03 0. -1.
        -11    1    3    3    0    0 -0.24559148267E+01 -0.58092456433E+00  0.29473974124E+01  0.38802245751E+01  0.51100000000E-03 0.  1.
         12    1    3    3    0    0 -0.80636625962E+00  0.48585593055E+01 -0.21173189395E+01  0.53608641618E+01  0.00000000000E+00 0. -1.
</event>
<event>
 7    1  0.2950722E-010  0.4778729E+02  0.7816164E-02  0.1312668E+00
        -11   -1    0    0    0    0  0.00000000000E+00  0.00000000000E+00  0.45593999997E+02  0.45594000000E+02  0.51100000000E-03 0.  1.
         11   -1    0    0    0    0 -0.00000000000E+00 -0.00000000000E+00 -0.45593999997E+02  0.45594000000E+02  0.51100000000E-03 0. -1.
    9900012    2    1    2    0    0  0.26085829387E+02 -0.25891828111E+02 -0.23081684156E+02  0.47787292619E+02  0.20000098365E+02 0.  0.
        -12    1    1    2    0    0 -0.26085829387E+02  0.25891828111E+02  0.23081684156E+02  0.43400707381E+02  0.00000000000E+00 0.  1.
         11    1    3    3    0    0  0.16531397742E+02 -0.22141848892E+02 -0.17503024270E+02  0.32709393796E+02  0.51100000000E-03 0. -1.
        -11    1    3    3    0    0  0.58271915231E+01 -0.26203475135E+01  0.18830256267E+01  0.66609434700E+01  0.51100000000E-03 0.  1.
        -12    1    3    3    0    0  0.37272401215E+01 -0.11296317058E+01 -0.74616855123E+01  0.84169553521E+01  0.00000000000E+00 0.  1.
</event>
<event>
 7    1  0.2950722E-010  0.4778727E+02  0.7816164E-02  0.1312668E+00
        -11   -1    0    0    0    0  0.00000000000E+00  0.00000000000E+00  0.45593999997E+02  0.45594000000E+02  0.51100000000E-03 0.  1.
         11   -1    0    0    0    0 -0.00000000000E+00 -0.00000000000E+00 -0.45593999997E+02  0.45594000000E+02  0.51100000000E-03 0. -1.
    9900012    2    1    2    0    0 -0.20608394216E+02  0.16651842909E+02 -0.34374898066E+02  0.47787269574E+02  0.19999993295E+02 0.  0.
        -12    1    1    2    0    0  0.20608394216E+02 -0.16651842909E+02  0.34374898066E+02  0.43400730426E+02  0.00000000000E+00 0.  1.
         11    1    3    3    0    0 -0.93035060804E+01  0.73780285767E+01 -0.18923519713E+02  0.22340325191E+02  0.51100000000E-03 0. -1.
        -11    1    3    3    0    0 -0.57681305918E+01 -0.18677719631E+01 -0.62964232489E+00  0.60956010654E+01  0.51100000000E-03 0.  1.
        -12    1    3    3    0    0 -0.55367575440E+01  0.11141586295E+02 -0.14821736029E+02  0.19351343317E+02  0.00000000000E+00 0.  1.
</event>
<event>
 7    1  0.2950722E-010  0.4778727E+02  0.7816164E-02  0.1312668E+00
        -11   -1    0    0    0    0  0.00000000000E+00  0.00000000000E+00  0.45593999997E+02  0.45594000000E+02  0.51100000000E-03 0. -1.
         11   -1    0    0    0    0 -0.00000000000E+00 -0.00000000000E+00 -0.45593999997E+02  0.45594000000E+02  0.51100000000E-03 0.  1.
    9900012    2    1    2    0    0  0.22444871007E+02  0.35472425611E+02  0.11025340931E+02  0.47787270099E+02  0.19999995689E+02 0.  0.
        -12    1    1    2    0    0 -0.22444871007E+02 -0.35472425611E+02 -0.11025340931E+02  0.43400729901E+02  0.00000000000E+00 0.  1.
         11    1    3    3    0    0  0.13963062824E+02  0.23372345500E+02  0.96755697668E+01  0.28893776288E+02  0.51100000000E-03 0. -1.
        -11    1    3    3    0    0  0.36950747187E+01  0.10054569123E+02 -0.39949410745E+01  0.11432737724E+02  0.51100000000E-03 0.  1.
        -12    1    3    3    0    0  0.47867334646E+01  0.20455109886E+01  0.53447122390E+01  0.74607560866E+01  0.00000000000E+00 0.  1.
</event>
<event>
 7    1  0.2950722E-010  0.4778727E+02  0.7816164E-02  0.1312668E+00
        -11   -1    0    0    0    0  0.00000000000E+00  0.00000000000E+00  0.45593999997E+02  0.45594000000E+02  0.51100000000E-03 0. -1.
         11   -1    0    0    0    0 -0.00000000000E+00 -0.00000000000E+00 -0.45593999997E+02  0.45594000000E+02  0.51100000000E-03 0.  1.
    9900012    2    1    2    0    0 -0.19741698568E+02  0.26616691908E+02  0.28025702658E+02  0.47787274661E+02  0.20000016490E+02 0.  0.
        -12    1    1    2    0    0  0.19741698568E+02 -0.26616691908E+02 -0.28025702658E+02  0.43400725339E+02  0.00000000000E+00 0.  1.
         11    1    3    3    0    0 -0.14575337669E+02  0.20517296483E+02  0.25102779453E+02  0.35546440886E+02  0.51100000000E-03 0. -1.
        -11    1    3    3    0    0  0.20653387044E+01  0.64952670785E+00 -0.98457820323E+00  0.23784245642E+01  0.51100000000E-03 0.  1.
        -12    1    3    3    0    0 -0.72316996030E+01  0.54498687176E+01  0.39075014079E+01  0.98624092107E+01  0.00000000000E+00 0.  1.
</event>
<event>
 7    1  0.2950722E-010  0.4778727E+02  0.7816164E-02  0.1312668E+00
        -11   -1    0    0    0    0  0.00000000000E+00  0.00000000000E+00  0.45593999997E+02  0.45594000000E+02  0.51100000000E-03 0.  1.
         11   -1    0    0    0    0 -0.00000000000E+00 -0.00000000000E+00 -0.45593999997E+02  0.45594000000E+02  0.51100000000E-03 0. -1.
    9900012    2    1    2    0    0  0.16325724400E+02  0.53512934924E+01 -0.39855463425E+02  0.47787267472E+02  0.19999983710E+02 0.  0.
        -12    1    1    2    0    0 -0.16325724400E+02 -0.53512934924E+01  0.39855463425E+02  0.43400732528E+02  0.00000000000E+00 0.  1.
         11    1    3    3    0    0  0.16010538203E+02  0.62316209783E+01 -0.30673010756E+02  0.35156848873E+02  0.51100000000E-03 0. -1.
        -11    1    3    3    0    0 -0.39095370111E+01 -0.18674444106E+01 -0.44824895170E+01  0.62341431488E+01  0.51100000000E-03 0.  1.
        -12    1    3    3    0    0  0.42247232077E+01  0.98711692478E+00 -0.46999631514E+01  0.63962754497E+01  0.00000000000E+00 0.  1.
</event>
<event>
 7    1  0.2950722E-010  0.4778727E+02  0.7816164E-02  0.1312668E+00
        -11   -1    0    0    0    0  0.00000000000E+00  0.00000000000E+00  0.45593999997E+02  0.45594000000E+02  0.51100000000E-03 0.  1.
         11   -1    0    0    0    0 -0.00000000000E+00 -0.00000000000E+00 -0.45593999997E+02  0.45594000000E+02  0.51100000000E-03 0. -1.
    9900012    2    1    2    0    0 -0.36244891410E+02 -0.23873204445E+02 -0.34729089619E-01  0.47787271320E+02  0.20000001258E+02 0.  0.
        -12    1    1    2    0    0  0.36244891410E+02  0.23873204445E+02  0.34729089619E-01  0.43400728680E+02  0.00000000000E+00 0.  1.
         11    1    3    3    0    0 -0.74759775216E+01 -0.14182137988E+02 -0.19673217436E+01  0.16152202107E+02  0.51100000000E-03 0. -1.
        -11    1    3    3    0    0 -0.14558447313E+02 -0.29688903577E+01 -0.30024883866E+01  0.15158417955E+02  0.51100000000E-03 0.  1.
         12    1    3    3    0    0 -0.14210466575E+02 -0.67221760999E+01  0.49350810406E+01  0.16476651258E+02  0.00000000000E+00 0. -1.
</event>
<event>
 7    1  0.2950722E-010  0.4778727E+02  0.7816164E-02  0.1312668E+00
        -11   -1    0    0    0    0  0.00000000000E+00  0.00000000000E+00  0.45593999997E+02  0.45594000000E+02  0.51100000000E-03 0.  1.
         11   -1    0    0    0    0 -0.00000000000E+00 -0.00000000000E+00 -0.45593999997E+02  0.45594000000E+02  0.51100000000E-03 0. -1.
    9900012    2    1    2    0    0 -0.31246388798E+02 -0.29588907427E+02 -0.56376198032E+01  0.47787274053E+02  0.20000013719E+02 0.  0.
        -12    1    1    2    0    0  0.31246388798E+02  0.29588907427E+02  0.56376198032E+01  0.43400725947E+02  0.00000000000E+00 0.  1.
         11    1    3    3    0    0 -0.69478820414E+01 -0.89213898798E+01  0.61620400916E+01  0.12877693916E+02  0.51100000000E-03 0. -1.
        -11    1    3    3    0    0 -0.92710293520E+01 -0.83359683614E+01 -0.87517396061E+01  0.15232639304E+02  0.51100000000E-03 0.  1.
         12    1    3    3    0    0 -0.15027477405E+02 -0.12331549185E+02 -0.30479202887E+01  0.19676940833E+02  0.00000000000E+00 0. -1.
</event>
<event>
 7    1  0.2950722E-010  0.4778727E+02  0.7816164E-02  0.1312668E+00
        -11   -1    0    0    0    0  0.00000000000E+00  0.00000000000E+00  0.45593999997E+02  0.45594000000E+02  0.51100000000E-03 0.  1.
         11   -1    0    0    0    0 -0.00000000000E+00 -0.00000000000E+00 -0.45593999997E+02  0.45594000000E+02  0.51100000000E-03 0. -1.
    9900012    2    1    2    0    0  0.30566975883E+01 -0.16934494024E+02 -0.39843480038E+02  0.47787269712E+02  0.19999993924E+02 0.  0.
        -12    1    1    2    0    0 -0.30566975883E+01  0.16934494024E+02  0.39843480038E+02  0.43400730288E+02  0.00000000000E+00 0.  1.
         11    1    3    3    0    0  0.17029146342E+01 -0.14107355866E+02 -0.23597689745E+02  0.27545750477E+02  0.51100000000E-03 0. -1.
        -11    1    3    3    0    0  0.35494820637E+00  0.34830776942E+01 -0.89406359286E+00  0.36134704125E+01  0.51100000000E-03 0.  1.
        -12    1    3    3    0    0  0.99883474778E+00 -0.63102158528E+01 -0.15351726700E+02  0.16628048823E+02  0.00000000000E+00 0.  1.
</event>
<event>
 7    1  0.2950722E-010  0.4778727E+02  0.7816164E-02  0.1312668E+00
        -11   -1    0    0    0    0  0.00000000000E+00  0.00000000000E+00  0.45593999997E+02  0.45594000000E+02  0.51100000000E-03 0.  1.
         11   -1    0    0    0    0 -0.00000000000E+00 -0.00000000000E+00 -0.45593999997E+02  0.45594000000E+02  0.51100000000E-03 0. -1.
    9900012    2    1    2    0    0  0.15794618536E+02  0.34723421646E+02  0.20698723054E+02  0.47787272798E+02  0.20000007997E+02 0.  0.
        -12    1    1    2    0    0 -0.15794618536E+02 -0.34723421646E+02 -0.20698723054E+02  0.43400727202E+02  0.00000000000E+00 0.  1.
         11    1    3    3    0    0  0.18448294733E+02  0.31954585765E+02  0.14821328902E+02  0.39763135197E+02  0.51100000000E-03 0. -1.
        -11    1    3    3    0    0 -0.22200421644E+01  0.31398857651E+01  0.62530738860E+01  0.73408720950E+01  0.51100000000E-03 0.  1.
        -12    1    3    3    0    0 -0.43363403264E+00 -0.37104988375E+00 -0.37567973359E+00  0.68326550675E+00  0.00000000000E+00 0.  1.
</event>
<event>
 7    1  0.2950722E-010  0.4778727E+02  0.7816164E-02  0.1312668E+00
        -11   -1    0    0    0    0  0.00000000000E+00  0.00000000000E+00  0.45593999997E+02  0.45594000000E+02  0.51100000000E-03 0. -1.
         11   -1    0    0    0    0 -0.00000000000E+00 -0.00000000000E+00 -0.45593999997E+02  0.45594000000E+02  0.51100000000E-03 0.  1.
    9900012    2    1    2    0    0  0.36939756076E+02  0.14999892601E+02  0.17148792432E+02  0.47787269144E+02  0.19999991333E+02 0.  0.
        -12    1    1    2    0    0 -0.36939756076E+02 -0.14999892601E+02 -0.17148792432E+02  0.43400730856E+02  0.00000000000E+00 0.  1.
         11    1    3    3    0    0  0.20631850560E+02  0.11695099689E+02  0.97583998112E+01  0.25645174622E+02  0.51100000000E-03 0. -1.
        -11    1    3    3    0    0  0.60653263556E+01 -0.14779790631E+01  0.87582250293E+01  0.10755422439E+02  0.51100000000E-03 0.  1.
        -12    1    3    3    0    0  0.10242579161E+02  0.47827719751E+01 -0.13678324082E+01  0.11386672083E+02  0.00000000000E+00 0.  1.
</event>
<event>
 7    1  0.2950722E-010  0.4778727E+02  0.7816164E-02  0.1312668E+00
        -11   -1    0    0    0    0  0.00000000000E+00  0.00000000000E+00  0.45593999997E+02  0.45594000000E+02  0.51100000000E-03 0.  1.
         11   -1    0    0    0    0 -0.00000000000E+00 -0.00000000000E+00 -0.45593999997E+02  0.45594000000E+02  0.51100000000E-03 0. -1.
    9900012    2    1    2    0    0 -0.17978317664E+02  0.31599848102E+01 -0.39375347019E+02  0.47787270019E+02  0.19999995324E+02 0.  0.
        -12    1    1    2    0    0  0.17978317664E+02 -0.31599848102E+01  0.39375347019E+02  0.43400729981E+02  0.00000000000E+00 0.  1.
         11    1    3    3    0    0  0.24702987678E+01 -0.36039498131E+01 -0.61844543985E+01  0.75722061994E+01  0.51100000000E-03 0. -1.
        -11    1    3    3    0    0 -0.12878057012E+02  0.37786883722E+01 -0.14121200700E+02  0.19481559170E+02  0.51100000000E-03 0.  1.
        -12    1    3    3    0    0 -0.75705594195E+01  0.29852462511E+01 -0.19069691921E+02  0.20733504649E+02  0.00000000000E+00 0.  1.
</event>
<event>
 7    1  0.2950722E-010  0.4778725E+02  0.7816164E-02  0.1312668E+00
        -11   -1    0    0    0    0  0.00000000000E+00  0.00000000000E+00  0.45593999997E+02  0.45594000000E+02  0.51100000000E-03 0.  1.
         11   -1    0    0    0    0 -0.00000000000E+00 -0.00000000000E+00 -0.45593999997E+02  0.45594000000E+02  0.51100000000E-03 0. -1.
    9900012    2    1    2    0    0 -0.15513734048E+02 -0.35795613705E+01 -0.40374938947E+02  0.47787252326E+02  0.19999914654E+02 0.  0.
        -12    1    1    2    0    0  0.15513734048E+02  0.35795613705E+01  0.40374938947E+02  0.43400747674E+02  0.00000000000E+00 0.  1.
         11    1    3    3    0    0 -0.47170306959E+01 -0.17814114007E+00 -0.30491951885E+01  0.56195822273E+01  0.51100000000E-03 0. -1.
        -11    1    3    3    0    0 -0.14005188429E+02 -0.60505016055E+01 -0.31596988257E+02  0.35087370090E+02  0.51100000000E-03 0.  1.
        -12    1    3    3    0    0  0.32084850770E+01  0.26490813751E+01 -0.57287555014E+01  0.70803000088E+01  0.00000000000E+00 0.  1.
</event>
<event>
 7    1  0.2950722E-010  0.4778727E+02  0.7816164E-02  0.1312668E+00
        -11   -1    0    0    0    0  0.00000000000E+00  0.00000000000E+00  0.45593999997E+02  0.45594000000E+02  0.51100000000E-03 0.  1.
         11   -1    0    0    0    0 -0.00000000000E+00 -0.00000000000E+00 -0.45593999997E+02  0.45594000000E+02  0.51100000000E-03 0. -1.
    9900012    2    1    2    0    0 -0.36157863421E+02  0.17143279966E+02 -0.16802972123E+02  0.47787274115E+02  0.20000013999E+02 0.  0.
        -12    1    1    2    0    0  0.36157863421E+02 -0.17143279966E+02  0.16802972123E+02  0.43400725885E+02  0.00000000000E+00 0.  1.
         11    1    3    3    0    0 -0.88950786070E+01  0.36693025176E+01 -0.44129298773E+01  0.10585846908E+02  0.51100000000E-03 0. -1.
        -11    1    3    3    0    0 -0.19204266975E+02  0.13233480394E+02 -0.16086770431E+02  0.28332191171E+02  0.51100000000E-03 0.  1.
        -12    1    3    3    0    0 -0.80585178387E+01  0.24049705447E+00  0.36967281848E+01  0.88692360360E+01  0.00000000000E+00 0.  1.
</event>
<event>
 7    1  0.2950722E-010  0.4778727E+02  0.7816164E-02  0.1312668E+00
        -11   -1    0    0    0    0  0.00000000000E+00  0.00000000000E+00  0.45593999997E+02  0.45594000000E+02  0.51100000000E-03 0.  1.
         11   -1    0    0    0    0 -0.00000000000E+00 -0.00000000000E+00 -0.45593999997E+02  0.45594000000E+02  0.51100000000E-03 0. -1.
    9900012    2    1    2    0    0 -0.41624709252E+02 -0.92929157132E+00 -0.12253297242E+02  0.47787270784E+02  0.19999998815E+02 0.  0.
        -12    1    1    2    0    0  0.41624709252E+02  0.92929157132E+00  0.12253297242E+02  0.43400729216E+02  0.00000000000E+00 0.  1.
         11    1    3    3    0    0 -0.33432619416E+02 -0.99841591767E+00 -0.16841176115E+02  0.37448125301E+02  0.51100000000E-03 0. -1.
        -11    1    3    3    0    0 -0.62307573210E+01  0.18981354376E+01  0.26570392937E+01  0.70345655873E+01  0.51100000000E-03 0.  1.
         12    1    3    3    0    0 -0.19613325149E+01 -0.18290110913E+01  0.19308395797E+01  0.33045798960E+01  0.00000000000E+00 0. -1.
</event>
<event>
 7    1  0.2950722E-010  0.4778728E+02  0.7816164E-02  0.1312668E+00
        -11   -1    0    0    0    0  0.00000000000E+00  0.00000000000E+00  0.45593999997E+02  0.45594000000E+02  0.51100000000E-03 0. -1.
         11   -1    0    0    0    0 -0.00000000000E+00 -0.00000000000E+00 -0.45593999997E+02  0.45594000000E+02  0.51100000000E-03 0.  1.
    9900012    2    1    2    0    0 -0.27359432673E+02 -0.21538666153E+02  0.25906951128E+02  0.47787276358E+02  0.20000024227E+02 0.  0.
        -12    1    1    2    0    0  0.27359432673E+02  0.21538666153E+02 -0.25906951128E+02  0.43400723642E+02  0.00000000000E+00 0.  1.
         11    1    3    3    0    0 -0.16873601615E+02 -0.79646698416E+01  0.64636575102E+01  0.19746727978E+02  0.51100000000E-03 0. -1.
        -11    1    3    3    0    0 -0.36890988871E+01 -0.42328392508E+01  0.14361399099E+02  0.15419992317E+02  0.51100000000E-03 0.  1.
        -12    1    3    3    0    0 -0.67967321710E+01 -0.93411570610E+01  0.50818945193E+01  0.12620556063E+02  0.00000000000E+00 0.  1.
</event>
<event>
 7    1  0.2950722E-010  0.4778727E+02  0.7816164E-02  0.1312668E+00
        -11   -1    0    0    0    0  0.00000000000E+00  0.00000000000E+00  0.45593999997E+02  0.45594000000E+02  0.51100000000E-03 0.  1.
         11   -1    0    0    0    0 -0.00000000000E+00 -0.00000000000E+00 -0.45593999997E+02  0.45594000000E+02  0.51100000000E-03 0. -1.
    9900012    2    1    2    0    0 -0.29935307000E+02 -0.31416307389E+02 -0.71836019736E+00  0.47787274009E+02  0.20000013517E+02 0.  0.
        -12    1    1    2    0    0  0.29935307000E+02  0.31416307389E+02  0.71836019736E+00  0.43400725991E+02  0.00000000000E+00 0.  1.
         11    1    3    3    0    0 -0.19074963885E+02 -0.13095631251E+02  0.77765662309E+01  0.24409522480E+02  0.51100000000E-03 0. -1.
        -11    1    3    3    0    0 -0.93546280145E+01 -0.16505441525E+02 -0.58934227872E+01  0.19866330754E+02  0.51100000000E-03 0.  1.
         12    1    3    3    0    0 -0.15057151001E+01 -0.18152346135E+01 -0.26015036411E+01  0.35114207750E+01  0.00000000000E+00 0. -1.
</event>
<event>
 7    1  0.2950722E-010  0.4778727E+02  0.7816164E-02  0.1312668E+00
        -11   -1    0    0    0    0  0.00000000000E+00  0.00000000000E+00  0.45593999997E+02  0.45594000000E+02  0.51100000000E-03 0.  1.
         11   -1    0    0    0    0 -0.00000000000E+00 -0.00000000000E+00 -0.45593999997E+02  0.45594000000E+02  0.51100000000E-03 0. -1.
    9900012    2    1    2    0    0 -0.15402581078E+02 -0.21189083535E+02 -0.34603561592E+02  0.47787271437E+02  0.20000001792E+02 0.  0.
        -12    1    1    2    0    0  0.15402581078E+02  0.21189083535E+02  0.34603561592E+02  0.43400728563E+02  0.00000000000E+00 0.  1.
         11    1    3    3    0    0  0.37599243962E+01 -0.80276464455E+01 -0.75514024262E+01  0.11644905229E+02  0.51100000000E-03 0. -1.
        -11    1    3    3    0    0 -0.15299718595E+02 -0.11250278505E+02 -0.18233720647E+02  0.26327148049E+02  0.51100000000E-03 0.  1.
        -12    1    3    3    0    0 -0.38627868790E+01 -0.19111585844E+01 -0.88184385190E+01  0.98152181596E+01  0.00000000000E+00 0.  1.
</event>
<event>
 7    1  0.2950722E-010  0.4778727E+02  0.7816164E-02  0.1312668E+00
        -11   -1    0    0    0    0  0.00000000000E+00  0.00000000000E+00  0.45593999997E+02  0.45594000000E+02  0.51100000000E-03 0.  1.
         11   -1    0    0    0    0 -0.00000000000E+00 -0.00000000000E+00 -0.45593999997E+02  0.45594000000E+02  0.51100000000E-03 0. -1.
    9900012    2    1    2    0    0  0.39531761087E+02  0.17764617023E+02 -0.22981079392E+01  0.47787273592E+02  0.20000011616E+02 0.  0.
        -12    1    1    2    0    0 -0.39531761087E+02 -0.17764617023E+02  0.22981079392E+01  0.43400726408E+02  0.00000000000E+00 0.  1.
         11    1    3    3    0    0  0.85230327903E+01  0.79747011106E+01  0.56100133046E+01  0.12950297112E+02  0.51100000000E-03 0. -1.
        -11    1    3    3    0    0  0.26811360444E+02  0.65002935911E+01 -0.32921240519E+01  0.27783825271E+02  0.51100000000E-03 0.  1.
         12    1    3    3    0    0  0.41973678526E+01  0.32896223216E+01 -0.46159971919E+01  0.70531512095E+01  0.00000000000E+00 0. -1.
</event>
<event>
 7    1  0.2950722E-010  0.4778727E+02  0.7816164E-02  0.1312668E+00
        -11   -1    0    0    0    0  0.00000000000E+00  0.00000000000E+00  0.45593999997E+02  0.45594000000E+02  0.51100000000E-03 0. -1.
         11   -1    0    0    0    0 -0.00000000000E+00 -0.00000000000E+00 -0.45593999997E+02  0.45594000000E+02  0.51100000000E-03 0.  1.
    9900012    2    1    2    0    0  0.41841495468E+02  0.11404552548E+02 -0.16877970679E+01  0.47787271657E+02  0.20000002792E+02 0.  0.
        -12    1    1    2    0    0 -0.41841495468E+02 -0.11404552548E+02  0.16877970679E+01  0.43400728343E+02  0.00000000000E+00 0.  1.
         11    1    3    3    0    0  0.28024924163E+01  0.14704545886E+01 -0.40006683337E+00  0.31900241649E+01  0.51100000000E-03 0. -1.
        -11    1    3    3    0    0  0.35439171143E+02  0.42930474702E+01  0.41980831698E+01  0.35944248642E+02  0.51100000000E-03 0.  1.
        -12    1    3    3    0    0  0.35998319082E+01  0.56410504888E+01 -0.54858134044E+01  0.86529988497E+01  0.00000000000E+00 0.  1.
</event>
<event>
 7    1  0.2950722E-010  0.4778728E+02  0.7816164E-02  0.1312668E+00
        -11   -1    0    0    0    0  0.00000000000E+00  0.00000000000E+00  0.45593999997E+02  0.45594000000E+02  0.51100000000E-03 0.  1.
         11   -1    0    0    0    0 -0.00000000000E+00 -0.00000000000E+00 -0.45593999997E+02  0.45594000000E+02  0.51100000000E-03 0. -1.
    9900012    2    1    2    0    0 -0.43103973335E+02 -0.45239664867E+01  0.22812525123E+01  0.47787275317E+02  0.20000019478E+02 0.  0.
        -12    1    1    2    0    0  0.43103973335E+02  0.45239664867E+01 -0.22812525123E+01  0.43400724683E+02  0.00000000000E+00 0.  1.
         11    1    3    3    0    0 -0.13627530407E+02 -0.63370394244E+01 -0.17135290982E+01  0.15126263117E+02  0.51100000000E-03 0. -1.
        -11    1    3    3    0    0 -0.20433511258E+02  0.31271443849E+01  0.86468972826E+01  0.22407057978E+02  0.51100000000E-03 0.  1.
        -12    1    3    3    0    0 -0.90429316699E+01 -0.13140714471E+01 -0.46521156721E+01  0.10253954222E+02  0.00000000000E+00 0.  1.
</event>
<event>
 7    1  0.2950722E-010  0.4778727E+02  0.7816164E-02  0.1312668E+00
        -11   -1    0    0    0    0  0.00000000000E+00  0.00000000000E+00  0.45593999997E+02  0.45594000000E+02  0.51100000000E-03 0. -1.
         11   -1    0    0    0    0 -0.00000000000E+00 -0.00000000000E+00 -0.45593999997E+02  0.45594000000E+02  0.51100000000E-03 0.  1.
    9900012    2    1    2    0    0 -0.28060472485E+02 -0.25867244212E+02  0.20666853696E+02  0.47787270964E+02  0.19999999632E+02 0.  0.
        -12    1    1    2    0    0  0.28060472485E+02  0.25867244212E+02 -0.20666853696E+02  0.43400729036E+02  0.00000000000E+00 0.  1.
         11    1    3    3    0    0 -0.16812517222E+02 -0.11029923990E+02  0.11880193221E+02  0.23355062616E+02  0.51100000000E-03 0. -1.
        -11    1    3    3    0    0 -0.68245111576E+01 -0.15393503291E+02  0.29617316738E+01  0.17096951509E+02  0.51100000000E-03 0.  1.
        -12    1    3    3    0    0 -0.44234441053E+01  0.55618306990E+00  0.58249288007E+01  0.73352568390E+01  0.00000000000E+00 0.  1.
</event>
<event>
 7    1  0.2950722E-010  0.4778729E+02  0.7816164E-02  0.1312668E+00
        -11   -1    0    0    0    0  0.00000000000E+00  0.00000000000E+00  0.45593999997E+02  0.45594000000E+02  0.51100000000E-03 0. -1.
         11   -1    0    0    0    0 -0.00000000000E+00 -0.00000000000E+00 -0.45593999997E+02  0.45594000000E+02  0.51100000000E-03 0.  1.
    9900012    2    1    2    0    0 -0.44574812560E+01 -0.11396772296E+02  0.41639720952E+02  0.47787286655E+02  0.20000071173E+02 0.  0.
        -12    1    1    2    0    0  0.44574812560E+01  0.11396772296E+02 -0.41639720952E+02  0.43400713345E+02  0.00000000000E+00 0.  1.
         11    1    3    3    0    0 -0.35408826488E+01 -0.89758719290E+00  0.21017499696E+02  0.21332576179E+02  0.51100000000E-03 0. -1.
        -11    1    3    3    0    0  0.40015682391E+01 -0.68732400492E+01  0.43325924771E+01  0.90567839204E+01  0.51100000000E-03 0.  1.
        -12    1    3    3    0    0 -0.49181668463E+01 -0.36259450537E+01  0.16289628779E+02  0.17397926555E+02  0.00000000000E+00 0.  1.
</event>
<event>
 7    1  0.2950722E-010  0.4778727E+02  0.7816164E-02  0.1312668E+00
        -11   -1    0    0    0    0  0.00000000000E+00  0.00000000000E+00  0.45593999997E+02  0.45594000000E+02  0.51100000000E-03 0. -1.
         11   -1    0    0    0    0 -0.00000000000E+00 -0.00000000000E+00 -0.45593999997E+02  0.45594000000E+02  0.51100000000E-03 0.  1.
    9900012    2    1    2    0    0 -0.36116154344E+02  0.65056225108E+01  0.23171607128E+02  0.47787272982E+02  0.20000008832E+02 0.  0.
        -12    1    1    2    0    0  0.36116154344E+02 -0.65056225108E+01 -0.23171607128E+02  0.43400727018E+02  0.00000000000E+00 0.  1.
         11    1    3    3    0    0 -0.20237237181E+02  0.82113517236E+01  0.17857520040E+02  0.28211045498E+02  0.51100000000E-03 0. -1.
        -11    1    3    3    0    0 -0.31433887215E+01  0.34106506801E+01  0.33274533529E+01  0.57083602543E+01  0.51100000000E-03 0.  1.
         12    1    3    3    0    0 -0.12735528442E+02 -0.51163798930E+01  0.19866337351E+01  0.13867867230E+02  0.00000000000E+00 0. -1.
</event>
<event>
 7    1  0.2950722E-010  0.4778727E+02  0.7816164E-02  0.1312668E+00
        -11   -1    0    0    0    0  0.00000000000E+00  0.00000000000E+00  0.45593999997E+02  0.45594000000E+02  0.51100000000E-03 0.  1.
         11   -1    0    0    0    0 -0.00000000000E+00 -0.00000000000E+00 -0.45593999997E+02  0.45594000000E+02  0.51100000000E-03 0. -1.
    9900012    2    1    2    0    0  0.41871207846E+02  0.78977824830E+01 -0.82492590153E+01  0.47787270871E+02  0.19999999209E+02 0.  0.
        -12    1    1    2    0    0 -0.41871207846E+02 -0.78977824830E+01  0.82492590153E+01  0.43400729129E+02  0.00000000000E+00 0.  1.
         11    1    3    3    0    0  0.19405899530E+02  0.71541304171E+01 -0.35467074254E+01  0.20984509821E+02  0.51100000000E-03 0. -1.
        -11    1    3    3    0    0  0.70548470427E+01 -0.57361665942E+01  0.98180366292E+00  0.91454039105E+01  0.51100000000E-03 0.  1.
        -12    1    3    3    0    0  0.15410461273E+02  0.64798186601E+01 -0.56843552528E+01  0.17657357140E+02  0.00000000000E+00 0.  1.
</event>
<event>
 7    1  0.2950722E-010  0.4778727E+02  0.7816164E-02  0.1312668E+00
        -11   -1    0    0    0    0  0.00000000000E+00  0.00000000000E+00  0.45593999997E+02  0.45594000000E+02  0.51100000000E-03 0.  1.
         11   -1    0    0    0    0 -0.00000000000E+00 -0.00000000000E+00 -0.45593999997E+02  0.45594000000E+02  0.51100000000E-03 0. -1.
    9900012    2    1    2    0    0 -0.10649157680E+02 -0.37865285141E+02  0.18342270125E+02  0.47787271303E+02  0.20000001177E+02 0.  0.
        -12    1    1    2    0    0  0.10649157680E+02  0.37865285141E+02 -0.18342270125E+02  0.43400728697E+02  0.00000000000E+00 0.  1.
         11    1    3    3    0    0 -0.64244061466E+01 -0.12895059531E+02  0.13470667768E+02  0.19723449116E+02  0.51100000000E-03 0.  1.
        -11    1    3    3    0    0 -0.50764025002E+00 -0.11026154233E+02 -0.32474659066E+01  0.11505642567E+02  0.51100000000E-03 0. -1.
        -12    1    3    3    0    0 -0.37171112839E+01 -0.13944071377E+02  0.81190682633E+01  0.16558179620E+02  0.00000000000E+00 0.  1.
</event>
<event>
 7    1  0.2950722E-010  0.4778727E+02  0.7816164E-02  0.1312668E+00
        -11   -1    0    0    0    0  0.00000000000E+00  0.00000000000E+00  0.45593999997E+02  0.45594000000E+02  0.51100000000E-03 0.  1.
         11   -1    0    0    0    0 -0.00000000000E+00 -0.00000000000E+00 -0.45593999997E+02  0.45594000000E+02  0.51100000000E-03 0. -1.
    9900012    2    1    2    0    0 -0.25230675669E+02 -0.15586097511E+01 -0.35278987415E+02  0.47787271756E+02  0.20000003244E+02 0.  0.
        -12    1    1    2    0    0  0.25230675669E+02  0.15586097511E+01  0.35278987415E+02  0.43400728244E+02  0.00000000000E+00 0.  1.
         11    1    3    3    0    0  0.24887469612E+00  0.67301344220E-01 -0.35220923195E+01  0.35315156312E+01  0.51100000000E-03 0.  1.
        -11    1    3    3    0    0 -0.58842506228E+01 -0.93037860311E+00 -0.21129505136E+02  0.21953268488E+02  0.51100000000E-03 0. -1.
        -12    1    3    3    0    0 -0.19595299743E+02 -0.69553249223E+00 -0.10627389959E+02  0.22302487637E+02  0.00000000000E+00 0.  1.
</event>
<event>
 7    1  0.2950722E-010  0.4778727E+02  0.7816164E-02  0.1312668E+00
        -11   -1    0    0    0    0  0.00000000000E+00  0.00000000000E+00  0.45593999997E+02  0.45594000000E+02  0.51100000000E-03 0.  1.
         11   -1    0    0    0    0 -0.00000000000E+00 -0.00000000000E+00 -0.45593999997E+02  0.45594000000E+02  0.51100000000E-03 0. -1.
    9900012    2    1    2    0    0 -0.17081673445E+02  0.39179361519E+02 -0.75377095832E+01  0.47787274171E+02  0.20000014255E+02 0.  0.
        -12    1    1    2    0    0  0.17081673445E+02 -0.39179361519E+02  0.75377095832E+01  0.43400725829E+02  0.00000000000E+00 0.  1.
         11    1    3    3    0    0 -0.97035529169E+01  0.26951623460E+02  0.20518063982E+01  0.28718615149E+02  0.51100000000E-03 0. -1.
        -11    1    3    3    0    0 -0.11288324627E+01  0.25869771450E+01 -0.66281595314E+01  0.72041108065E+01  0.51100000000E-03 0.  1.
         12    1    3    3    0    0 -0.62492880654E+01  0.96407609144E+01 -0.29613564500E+01  0.11864548215E+02  0.00000000000E+00 0. -1.
</event>
<event>
 7    1  0.2950722E-010  0.4778727E+02  0.7816164E-02  0.1312668E+00
        -11   -1    0    0    0    0  0.00000000000E+00  0.00000000000E+00  0.45593999997E+02  0.45594000000E+02  0.51100000000E-03 0.  1.
         11   -1    0    0    0    0 -0.00000000000E+00 -0.00000000000E+00 -0.45593999997E+02  0.45594000000E+02  0.51100000000E-03 0. -1.
    9900012    2    1    2    0    0 -0.12173605925E+02 -0.47990288546E+01 -0.41381106412E+02  0.47787270432E+02  0.19999997207E+02 0.  0.
        -12    1    1    2    0    0  0.12173605925E+02  0.47990288546E+01  0.41381106412E+02  0.43400729568E+02  0.00000000000E+00 0.  1.
         11    1    3    3    0    0 -0.44609522068E+01 -0.72858101188E+01 -0.37944528195E+02  0.38894348482E+02  0.51100000000E-03 0. -1.
        -11    1    3    3    0    0 -0.41697613622E+01  0.15369302164E+01 -0.12248702823E+01  0.46097040878E+01  0.51100000000E-03 0.  1.
         12    1    3    3    0    0 -0.35428923562E+01  0.94985104781E+00 -0.22117079348E+01  0.42832178615E+01  0.00000000000E+00 0. -1.
</event>
<event>
 7    1  0.2950722E-010  0.4778727E+02  0.7816164E-02  0.1312668E+00
        -11   -1    0    0    0    0  0.00000000000E+00  0.00000000000E+00  0.45593999997E+02  0.45594000000E+02  0.51100000000E-03 0.  1.
         11   -1    0    0    0    0 -0.00000000000E+00 -0.00000000000E+00 -0.45593999997E+02  0.45594000000E+02  0.51100000000E-03 0. -1.
    9900012    2    1    2    0    0 -0.38679559567E+02  0.76393780685E+01 -0.18142623942E+02  0.47787271560E+02  0.20000002353E+02 0.  0.
        -12    1    1    2    0    0  0.38679559567E+02 -0.76393780685E+01  0.18142623942E+02  0.43400728440E+02  0.00000000000E+00 0.  1.
         11    1    3    3    0    0 -0.55740022179E+01 -0.40981012592E+01  0.10452228047E+01  0.69968868526E+01  0.51100000000E-03 0. -1.
        -11    1    3    3    0    0 -0.15536078072E+02  0.79562342773E+01 -0.58467375530E+01  0.18408034279E+02  0.51100000000E-03 0.  1.
         12    1    3    3    0    0 -0.17569479277E+02  0.37812450503E+01 -0.13341109194E+02  0.22382350429E+02  0.00000000000E+00 0. -1.
</event>
<event>
 7    1  0.2950722E-010  0.4778728E+02  0.7816164E-02  0.1312668E+00
        -11   -1    0    0    0    0  0.00000000000E+00  0.00000000000E+00  0.45593999997E+02  0.45594000000E+02  0.51100000000E-03 0.  1.
         11   -1    0    0    0    0 -0.00000000000E+00 -0.00000000000E+00 -0.45593999997E+02  0.45594000000E+02  0.51100000000E-03 0. -1.
    9900012    2    1    2    0    0  0.25347611035E+02 -0.62210468985E+01 -0.34675925074E+02  0.47787278929E+02  0.20000035949E+02 0.  0.
        -12    1    1    2    0    0 -0.25347611035E+02  0.62210468985E+01  0.34675925074E+02  0.43400721071E+02  0.00000000000E+00 0.  1.
         11    1    3    3    0    0  0.15011496800E+02 -0.99288893680E+01 -0.18901029307E+02  0.26099363774E+02  0.51100000000E-03 0. -1.
        -11    1    3    3    0    0  0.26923308760E+01 -0.30927622846E+01 -0.20930905145E+01  0.46037867303E+01  0.51100000000E-03 0.  1.
         12    1    3    3    0    0  0.76437833594E+01  0.68006047541E+01 -0.13681805253E+02  0.17084128425E+02  0.00000000000E+00 0. -1.
</event>
<event>
 7    1  0.2950722E-010  0.4778728E+02  0.7816164E-02  0.1312668E+00
        -11   -1    0    0    0    0  0.00000000000E+00  0.00000000000E+00  0.45593999997E+02  0.45594000000E+02  0.51100000000E-03 0.  1.
         11   -1    0    0    0    0 -0.00000000000E+00 -0.00000000000E+00 -0.45593999997E+02  0.45594000000E+02  0.51100000000E-03 0. -1.
    9900012    2    1    2    0    0  0.40334163259E+02 -0.67303544234E+01 -0.14542345331E+02  0.47787283368E+02  0.20000056188E+02 0.  0.
        -12    1    1    2    0    0 -0.40334163259E+02  0.67303544234E+01  0.14542345331E+02  0.43400716632E+02  0.00000000000E+00 0.  1.
         11    1    3    3    0    0  0.17875848484E+02 -0.12465239210E+02 -0.99284265833E+01  0.23947897658E+02  0.51100000000E-03 0. -1.
        -11    1    3    3    0    0  0.17257822011E+02  0.46002461806E+01 -0.48633204716E+01  0.18510715052E+02  0.51100000000E-03 0.  1.
         12    1    3    3    0    0  0.52004927642E+01  0.11346386056E+01  0.24940172370E+00  0.53286706575E+01  0.00000000000E+00 0. -1.
</event>
<event>
 7    1  0.2950722E-010  0.4778727E+02  0.7816164E-02  0.1312668E+00
        -11   -1    0    0    0    0  0.00000000000E+00  0.00000000000E+00  0.45593999997E+02  0.45594000000E+02  0.51100000000E-03 0. -1.
         11   -1    0    0    0    0 -0.00000000000E+00 -0.00000000000E+00 -0.45593999997E+02  0.45594000000E+02  0.51100000000E-03 0.  1.
    9900012    2    1    2    0    0  0.27804635418E+02 -0.33317552554E+02  0.68280291638E+00  0.47787270988E+02  0.19999999742E+02 0.  0.
        -12    1    1    2    0    0 -0.27804635418E+02  0.33317552554E+02 -0.68280291638E+00  0.43400729012E+02  0.00000000000E+00 0.  1.
         11    1    3    3    0    0  0.18336379911E+02 -0.10523732319E+02 -0.17812105176E+01  0.21216608620E+02  0.51100000000E-03 0. -1.
        -11    1    3    3    0    0  0.35476188727E+01 -0.79054740971E+00 -0.13407260716E+00  0.36371060746E+01  0.51100000000E-03 0.  1.
         12    1    3    3    0    0  0.59206366352E+01 -0.22003272825E+02  0.25980860411E+01  0.22933556293E+02  0.00000000000E+00 0. -1.
</event>
<event>
 7    1  0.2950722E-010  0.4778727E+02  0.7816164E-02  0.1312668E+00
        -11   -1    0    0    0    0  0.00000000000E+00  0.00000000000E+00  0.45593999997E+02  0.45594000000E+02  0.51100000000E-03 0.  1.
         11   -1    0    0    0    0 -0.00000000000E+00 -0.00000000000E+00 -0.45593999997E+02  0.45594000000E+02  0.51100000000E-03 0. -1.
    9900012    2    1    2    0    0 -0.19296184294E+02 -0.20050649403E+02 -0.33305436565E+02  0.47787269884E+02  0.19999994711E+02 0.  0.
        -12    1    1    2    0    0  0.19296184294E+02  0.20050649403E+02  0.33305436565E+02  0.43400730116E+02  0.00000000000E+00 0.  1.
         11    1    3    3    0    0 -0.61470414753E+01 -0.54575785736E+01 -0.84030748151E+01  0.11755124389E+02  0.51100000000E-03 0. -1.
        -11    1    3    3    0    0 -0.10460947872E+02 -0.93852311403E+01 -0.26466344345E+02  0.29966337400E+02  0.51100000000E-03 0.  1.
        -12    1    3    3    0    0 -0.26881949473E+01 -0.52078396889E+01  0.15639825949E+01  0.60658080960E+01  0.00000000000E+00 0.  1.
</event>
<event>
 7    1  0.2950722E-010  0.4778727E+02  0.7816164E-02  0.1312668E+00
        -11   -1    0    0    0    0  0.00000000000E+00  0.00000000000E+00  0.45593999997E+02  0.45594000000E+02  0.51100000000E-03 0. -1.
         11   -1    0    0    0    0 -0.00000000000E+00 -0.00000000000E+00 -0.45593999997E+02  0.45594000000E+02  0.51100000000E-03 0.  1.
    9900012    2    1    2    0    0  0.23384842166E+02  0.24135228091E+01  0.36482154574E+02  0.47787268003E+02  0.19999986135E+02 0.  0.
        -12    1    1    2    0    0 -0.23384842166E+02 -0.24135228091E+01 -0.36482154574E+02  0.43400731997E+02  0.00000000000E+00 0.  1.
         11    1    3    3    0    0  0.76051912820E+01  0.82743862180E+01  0.19436817056E+02  0.22452043543E+02  0.51100000000E-03 0. -1.
        -11    1    3    3    0    0  0.16573178443E+02 -0.60097854666E+01  0.17053600063E+02  0.24527801378E+02  0.51100000000E-03 0.  1.
        -12    1    3    3    0    0 -0.79352755856E+00  0.14892205775E+00 -0.82625450037E-02  0.80742308310E+00  0.00000000000E+00 0.  1.
</event>
<event>
 7    1  0.2950722E-010  0.4778726E+02  0.7816164E-02  0.1312668E+00
        -11   -1    0    0    0    0  0.00000000000E+00  0.00000000000E+00  0.45593999997E+02  0.45594000000E+02  0.51100000000E-03 0. -1.
         11   -1    0    0    0    0 -0.00000000000E+00 -0.00000000000E+00 -0.45593999997E+02  0.45594000000E+02  0.51100000000E-03 0.  1.
    9900012    2    1    2    0    0  0.42663551174E+02 -0.34929963561E+00  0.79575931350E+01  0.47787263860E+02  0.19999967244E+02 0.  0.
        -12    1    1    2    0    0 -0.42663551174E+02  0.34929963561E+00 -0.79575931350E+01  0.43400736140E+02  0.00000000000E+00 0.  1.
         11    1    3    3    0    0  0.33927392113E+02  0.49183057747E+01  0.11141662880E+02  0.36047112496E+02  0.51100000000E-03 0. -1.
        -11    1    3    3    0    0  0.73447185681E+01 -0.22254252613E+01 -0.33871678168E+01  0.83887015991E+01  0.51100000000E-03 0.  1.
         12    1    3    3    0    0  0.13914404919E+01 -0.30421801489E+01  0.20309807220E+00  0.33514497651E+01  0.00000000000E+00 0. -1.
</event>
<event>
 7    1  0.2950722E-010  0.4778727E+02  0.7816164E-02  0.1312668E+00
        -11   -1    0    0    0    0  0.00000000000E+00  0.00000000000E+00  0.45593999997E+02  0.45594000000E+02  0.51100000000E-03 0.  1.
         11   -1    0    0    0    0 -0.00000000000E+00 -0.00000000000E+00 -0.45593999997E+02  0.45594000000E+02  0.51100000000E-03 0. -1.
    9900012    2    1    2    0    0  0.31105159809E+02  0.22440939816E+02 -0.20310009502E+02  0.47787271521E+02  0.20000002172E+02 0.  0.
        -12    1    1    2    0    0 -0.31105159809E+02 -0.22440939816E+02  0.20310009502E+02  0.43400728479E+02  0.00000000000E+00 0.  1.
         11    1    3    3    0    0  0.14499962942E+02  0.11193441005E+02 -0.16620141838E+02  0.24734008204E+02  0.51100000000E-03 0. -1.
        -11    1    3    3    0    0  0.12227426952E+02  0.69633043764E+01  0.25601369462E+01  0.14302163443E+02  0.51100000000E-03 0.  1.
        -12    1    3    3    0    0  0.43777699152E+01  0.42841944348E+01 -0.62500046095E+01  0.87510998740E+01  0.00000000000E+00 0.  1.
</event>
<event>
 7    1  0.2950722E-010  0.4778727E+02  0.7816164E-02  0.1312668E+00
        -11   -1    0    0    0    0  0.00000000000E+00  0.00000000000E+00  0.45593999997E+02  0.45594000000E+02  0.51100000000E-03 0.  1.
         11   -1    0    0    0    0 -0.00000000000E+00 -0.00000000000E+00 -0.45593999997E+02  0.45594000000E+02  0.51100000000E-03 0. -1.
    9900012    2    1    2    0    0  0.33473681985E+02  0.44097886649E+01 -0.27270680384E+02  0.47787266938E+02  0.19999981277E+02 0.  0.
        -12    1    1    2    0    0 -0.33473681985E+02 -0.44097886649E+01  0.27270680384E+02  0.43400733062E+02  0.00000000000E+00 0.  1.
         11    1    3    3    0    0  0.23251858363E+02 -0.31094457197E+01 -0.17678223949E+02  0.29374090152E+02  0.51100000000E-03 0. -1.
        -11    1    3    3    0    0 -0.15696513251E+01  0.22288537276E+01 -0.23447002230E+01  0.35957215713E+01  0.51100000000E-03 0.  1.
        -12    1    3    3    0    0  0.11791474948E+02  0.52903806570E+01 -0.72477562121E+01  0.14817455215E+02  0.00000000000E+00 0.  1.
</event>
<event>
 7    1  0.2950722E-010  0.4778727E+02  0.7816164E-02  0.1312668E+00
        -11   -1    0    0    0    0  0.00000000000E+00  0.00000000000E+00  0.45593999997E+02  0.45594000000E+02  0.51100000000E-03 0.  1.
         11   -1    0    0    0    0 -0.00000000000E+00 -0.00000000000E+00 -0.45593999997E+02  0.45594000000E+02  0.51100000000E-03 0. -1.
    9900012    2    1    2    0    0  0.19143385828E+02 -0.37288715172E+02 -0.11256386030E+02  0.47787265829E+02  0.19999976219E+02 0.  0.
        -12    1    1    2    0    0 -0.19143385828E+02  0.37288715172E+02  0.11256386030E+02  0.43400734171E+02  0.00000000000E+00 0.  1.
         11    1    3    3    0    0  0.20747305852E+01 -0.82865423634E+01 -0.40477786008E+01  0.94528198547E+01  0.51100000000E-03 0. -1.
        -11    1    3    3    0    0  0.12371669701E+01 -0.13150379576E+02  0.32614676851E+01  0.13605154789E+02  0.51100000000E-03 0.  1.
        -12    1    3    3    0    0  0.15831488273E+02 -0.15851793233E+02 -0.10470075115E+02  0.24729291185E+02  0.00000000000E+00 0.  1.
</event>
<event>
 7    1  0.2950722E-010  0.4778727E+02  0.7816164E-02  0.1312668E+00
        -11   -1    0    0    0    0  0.00000000000E+00  0.00000000000E+00  0.45593999997E+02  0.45594000000E+02  0.51100000000E-03 0.  1.
         11   -1    0    0    0    0 -0.00000000000E+00 -0.00000000000E+00 -0.45593999997E+02  0.45594000000E+02  0.51100000000E-03 0. -1.
    9900012    2    1    2    0    0 -0.95269401121E+01  0.20435130362E+02 -0.37084578180E+02  0.47787273283E+02  0.20000010204E+02 0.  0.
        -12    1    1    2    0    0  0.95269401121E+01 -0.20435130362E+02  0.37084578180E+02  0.43400726717E+02  0.00000000000E+00 0.  1.
         11    1    3    3    0    0 -0.38818113265E-01  0.12769396366E+02 -0.14529372573E+02  0.19343258723E+02  0.51100000000E-03 0. -1.
        -11    1    3    3    0    0 -0.10264717604E+02  0.32227626997E+01 -0.85862892611E+01  0.13764991480E+02  0.51100000000E-03 0.  1.
        -12    1    3    3    0    0  0.77659560547E+00  0.44429712957E+01 -0.13968916346E+02  0.14679023079E+02  0.00000000000E+00 0.  1.
</event>
<event>
 7    1  0.2950722E-010  0.4778728E+02  0.7816164E-02  0.1312668E+00
        -11   -1    0    0    0    0  0.00000000000E+00  0.00000000000E+00  0.45593999997E+02  0.45594000000E+02  0.51100000000E-03 0.  1.
         11   -1    0    0    0    0 -0.00000000000E+00 -0.00000000000E+00 -0.45593999997E+02  0.45594000000E+02  0.51100000000E-03 0. -1.
    9900012    2    1    2    0    0  0.14372401968E+02 -0.40832006666E+02 -0.31311162772E+01  0.47787278856E+02  0.20000035616E+02 0.  0.
        -12    1    1    2    0    0 -0.14372401968E+02  0.40832006666E+02  0.31311162772E+01  0.43400721144E+02  0.00000000000E+00 0.  1.
         11    1    3    3    0    0  0.19450738439E+01 -0.17312185773E+02 -0.57394690757E+01  0.18342207993E+02  0.51100000000E-03 0. -1.
        -11    1    3    3    0    0  0.34024250284E+01 -0.10599332153E+02  0.69174988064E+01  0.13106262937E+02  0.51100000000E-03 0.  1.
        -12    1    3    3    0    0  0.90249030962E+01 -0.12920488739E+02 -0.43091460078E+01  0.16338807927E+02  0.00000000000E+00 0.  1.
</event>
<event>
 7    1  0.2950722E-010  0.4778725E+02  0.7816164E-02  0.1312668E+00
        -11   -1    0    0    0    0  0.00000000000E+00  0.00000000000E+00  0.45593999997E+02  0.45594000000E+02  0.51100000000E-03 0.  1.
         11   -1    0    0    0    0 -0.00000000000E+00 -0.00000000000E+00 -0.45593999997E+02  0.45594000000E+02  0.51100000000E-03 0. -1.
    9900012    2    1    2    0    0 -0.17788092048E+02 -0.26332567414E+01 -0.39500318356E+02  0.47787246435E+02  0.19999887796E+02 0.  0.
        -12    1    1    2    0    0  0.17788092048E+02  0.26332567414E+01  0.39500318356E+02  0.43400753565E+02  0.00000000000E+00 0.  1.
         11    1    3    3    0    0 -0.10369915021E+02 -0.57630629604E+01 -0.21025256351E+02  0.24141446458E+02  0.51100000000E-03 0. -1.
        -11    1    3    3    0    0 -0.51018981219E+01  0.72459144634E+01 -0.16056046550E+02  0.18339282209E+02  0.51100000000E-03 0.  1.
        -12    1    3    3    0    0 -0.23162789050E+01 -0.41161082444E+01 -0.24190154549E+01  0.53065177675E+01  0.00000000000E+00 0.  1.
</event>
<event>
 7    1  0.2950722E-010  0.4778727E+02  0.7816164E-02  0.1312668E+00
        -11   -1    0    0    0    0  0.00000000000E+00  0.00000000000E+00  0.45593999997E+02  0.45594000000E+02  0.51100000000E-03 0.  1.
         11   -1    0    0    0    0 -0.00000000000E+00 -0.00000000000E+00 -0.45593999997E+02  0.45594000000E+02  0.51100000000E-03 0. -1.
    9900012    2    1    2    0    0 -0.23732620945E+02 -0.27425233526E+02 -0.23837841711E+02  0.47787269265E+02  0.19999991887E+02 0.  0.
        -12    1    1    2    0    0  0.23732620945E+02  0.27425233526E+02  0.23837841711E+02  0.43400730735E+02  0.00000000000E+00 0.  1.
         11    1    3    3    0    0 -0.20153563111E+02 -0.11727487805E+02 -0.19277424971E+02  0.30254242513E+02  0.51100000000E-03 0. -1.
        -11    1    3    3    0    0 -0.44493201593E+00 -0.12270002466E+02 -0.35312636566E+01  0.12775787580E+02  0.51100000000E-03 0.  1.
        -12    1    3    3    0    0 -0.31341258183E+01 -0.34277432553E+01 -0.10291530830E+01  0.47572391718E+01  0.00000000000E+00 0.  1.
</event>
<event>
 7    1  0.2950722E-010  0.4778727E+02  0.7816164E-02  0.1312668E+00
        -11   -1    0    0    0    0  0.00000000000E+00  0.00000000000E+00  0.45593999997E+02  0.45594000000E+02  0.51100000000E-03 0. -1.
         11   -1    0    0    0    0 -0.00000000000E+00 -0.00000000000E+00 -0.45593999997E+02  0.45594000000E+02  0.51100000000E-03 0.  1.
    9900012    2    1    2    0    0  0.59927915311E+01  0.12448081210E+02  0.41143103875E+02  0.47787271059E+02  0.20000000067E+02 0.  0.
        -12    1    1    2    0    0 -0.59927915311E+01 -0.12448081210E+02 -0.41143103875E+02  0.43400728941E+02  0.00000000000E+00 0.  1.
         11    1    3    3    0    0  0.87082749140E+01  0.30429832835E+01  0.17120062114E+02  0.19447116143E+02  0.51100000000E-03 0. -1.
        -11    1    3    3    0    0 -0.38978267940E+01  0.83767284993E+01  0.79436508734E+01  0.12184589592E+02  0.51100000000E-03 0.  1.
        -12    1    3    3    0    0  0.11823434110E+01  0.10283694269E+01  0.16079390888E+02  0.16155565324E+02  0.00000000000E+00 0.  1.
</event>
<event>
 7    1  0.2950722E-010  0.4778727E+02  0.7816164E-02  0.1312668E+00
        -11   -1    0    0    0    0  0.00000000000E+00  0.00000000000E+00  0.45593999997E+02  0.45594000000E+02  0.51100000000E-03 0. -1.
         11   -1    0    0    0    0 -0.00000000000E+00 -0.00000000000E+00 -0.45593999997E+02  0.45594000000E+02  0.51100000000E-03 0.  1.
    9900012    2    1    2    0    0  0.19530206402E+01  0.19458653502E+02  0.38744930295E+02  0.47787272940E+02  0.20000008644E+02 0.  0.
        -12    1    1    2    0    0 -0.19530206402E+01 -0.19458653502E+02 -0.38744930295E+02  0.43400727060E+02  0.00000000000E+00 0.  1.
         11    1    3    3    0    0  0.22241300185E+01  0.12129235537E+02  0.22432592009E+02  0.25598560380E+02  0.51100000000E-03 0. -1.
        -11    1    3    3    0    0  0.54753150605E+01  0.11893198496E+01  0.27765428535E+01  0.62532189467E+01  0.51100000000E-03 0.  1.
        -12    1    3    3    0    0 -0.57464244388E+01  0.61400981160E+01  0.13535795433E+02  0.15935493614E+02  0.00000000000E+00 0.  1.
</event>
<event>
 7    1  0.2950722E-010  0.4778727E+02  0.7816164E-02  0.1312668E+00
        -11   -1    0    0    0    0  0.00000000000E+00  0.00000000000E+00  0.45593999997E+02  0.45594000000E+02  0.51100000000E-03 0.  1.
         11   -1    0    0    0    0 -0.00000000000E+00 -0.00000000000E+00 -0.45593999997E+02  0.45594000000E+02  0.51100000000E-03 0. -1.
    9900012    2    1    2    0    0 -0.21013299653E+02  0.70955999158E+01 -0.37305723593E+02  0.47787270591E+02  0.19999997931E+02 0.  0.
        -12    1    1    2    0    0  0.21013299653E+02 -0.70955999158E+01  0.37305723593E+02  0.43400729409E+02  0.00000000000E+00 0.  1.
         11    1    3    3    0    0 -0.22521708093E+02  0.77033086679E+01 -0.31656474578E+02  0.39606826215E+02  0.51100000000E-03 0. -1.
        -11    1    3    3    0    0  0.30180318078E+01 -0.21905651104E+01 -0.35534841658E+01  0.51511495293E+01  0.51100000000E-03 0.  1.
         12    1    3    3    0    0 -0.15096233685E+01  0.15828563583E+01 -0.20957648486E+01  0.30292948464E+01  0.00000000000E+00 0. -1.
</event>
<event>
 7    1  0.2950722E-010  0.4778727E+02  0.7816164E-02  0.1312668E+00
        -11   -1    0    0    0    0  0.00000000000E+00  0.00000000000E+00  0.45593999997E+02  0.45594000000E+02  0.51100000000E-03 0. -1.
         11   -1    0    0    0    0 -0.00000000000E+00 -0.00000000000E+00 -0.45593999997E+02  0.45594000000E+02  0.51100000000E-03 0.  1.
    9900012    2    1    2    0    0 -0.17553047745E+02  0.26511278055E+02  0.29540918521E+02  0.47787271708E+02  0.20000003025E+02 0.  0.
        -12    1    1    2    0    0  0.17553047745E+02 -0.26511278055E+02 -0.29540918521E+02  0.43400728292E+02  0.00000000000E+00 0.  1.
         11    1    3    3    0    0 -0.43171387214E+01 -0.59012937222E+00  0.85580496711E+01  0.96034448950E+01  0.51100000000E-03 0. -1.
        -11    1    3    3    0    0  0.10157311076E+01 -0.24967387139E+00  0.49194024693E+00  0.11558772394E+01  0.51100000000E-03 0.  1.
         12    1    3    3    0    0 -0.14251640132E+02  0.27351081298E+02  0.20490928603E+02  0.37027949573E+02  0.00000000000E+00 0. -1.
</event>
<event>
 7    1  0.2950722E-010  0.4778727E+02  0.7816164E-02  0.1312668E+00
        -11   -1    0    0    0    0  0.00000000000E+00  0.00000000000E+00  0.45593999997E+02  0.45594000000E+02  0.51100000000E-03 0.  1.
         11   -1    0    0    0    0 -0.00000000000E+00 -0.00000000000E+00 -0.45593999997E+02  0.45594000000E+02  0.51100000000E-03 0. -1.
    9900012    2    1    2    0    0 -0.26413390844E+02  0.10593720889E+02 -0.32767805838E+02  0.47787271463E+02  0.20000001908E+02 0.  0.
        -12    1    1    2    0    0  0.26413390844E+02 -0.10593720889E+02  0.32767805838E+02  0.43400728537E+02  0.00000000000E+00 0.  1.
         11    1    3    3    0    0 -0.64987853186E+01  0.76811036219E+01 -0.14520483993E+02  0.17665730076E+02  0.51100000000E-03 0. -1.
        -11    1    3    3    0    0 -0.21847209096E+02  0.28068137390E+01 -0.16637816162E+02  0.27604269155E+02  0.51100000000E-03 0.  1.
        -12    1    3    3    0    0  0.19326035708E+01  0.10580352769E+00 -0.16095056825E+01  0.25172722321E+01  0.00000000000E+00 0.  1.
</event>
<event>
 7    1  0.2950722E-010  0.4778727E+02  0.7816164E-02  0.1312668E+00
        -11   -1    0    0    0    0  0.00000000000E+00  0.00000000000E+00  0.45593999997E+02  0.45594000000E+02  0.51100000000E-03 0.  1.
         11   -1    0    0    0    0 -0.00000000000E+00 -0.00000000000E+00 -0.45593999997E+02  0.45594000000E+02  0.51100000000E-03 0. -1.
    9900012    2    1    2    0    0 -0.54825956317E+01  0.39393973099E+02 -0.17368918108E+02  0.47787270886E+02  0.19999999279E+02 0.  0.
        -12    1    1    2    0    0  0.54825956317E+01 -0.39393973099E+02  0.17368918108E+02  0.43400729114E+02  0.00000000000E+00 0.  1.
         11    1    3    3    0    0 -0.80740249654E+01  0.13576485490E+02 -0.12025909386E+02  0.19852791598E+02  0.51100000000E-03 0. -1.
        -11    1    3    3    0    0  0.56145998202E+01  0.14673070737E+02 -0.45684513928E+01  0.16361341155E+02  0.51100000000E-03 0.  1.
         12    1    3    3    0    0 -0.30231704866E+01  0.11144416871E+02 -0.77455732868E+00  0.11573138133E+02  0.00000000000E+00 0. -1.
</event>
<event>
 7    1  0.2950722E-010  0.4778727E+02  0.7816164E-02  0.1312668E+00
        -11   -1    0    0    0    0  0.00000000000E+00  0.00000000000E+00  0.45593999997E+02  0.45594000000E+02  0.51100000000E-03 0.  1.
         11   -1    0    0    0    0 -0.00000000000E+00 -0.00000000000E+00 -0.45593999997E+02  0.45594000000E+02  0.51100000000E-03 0. -1.
    9900012    2    1    2    0    0 -0.42138569368E+00  0.38917023679E+02 -0.19207060208E+02  0.47787268903E+02  0.19999990234E+02 0.  0.
        -12    1    1    2    0    0  0.42138569368E+00 -0.38917023679E+02  0.19207060208E+02  0.43400731097E+02  0.00000000000E+00 0.  1.
         11    1    3    3    0    0  0.16705188256E+01  0.20491258419E+02 -0.18121798118E+02  0.27405872948E+02  0.51100000000E-03 0. -1.
        -11    1    3    3    0    0 -0.15211744844E+01  0.42654705498E+01 -0.38481831066E+01  0.59427875872E+01  0.51100000000E-03 0.  1.
         12    1    3    3    0    0 -0.57073003487E+00  0.14160294710E+02  0.27629210162E+01  0.14438608368E+02  0.00000000000E+00 0. -1.
</event>
<event>
 7    1  0.2950722E-010  0.4778727E+02  0.7816164E-02  0.1312668E+00
        -11   -1    0    0    0    0  0.00000000000E+00  0.00000000000E+00  0.45593999997E+02  0.45594000000E+02  0.51100000000E-03 0. -1.
         11   -1    0    0    0    0 -0.00000000000E+00 -0.00000000000E+00 -0.45593999997E+02  0.45594000000E+02  0.51100000000E-03 0.  1.
    9900012    2    1    2    0    0  0.19647191669E+02 -0.32769512151E+02 -0.20585679481E+02  0.47787271126E+02  0.20000000373E+02 0.  0.
        -12    1    1    2    0    0 -0.19647191669E+02  0.32769512151E+02  0.20585679481E+02  0.43400728874E+02  0.00000000000E+00 0.  1.
         11    1    3    3    0    0  0.94339507158E+01 -0.57368823034E+01 -0.69648482004E+01  0.13054514751E+02  0.51100000000E-03 0. -1.
        -11    1    3    3    0    0  0.36803020368E+01 -0.15668531556E+02 -0.37769909998E+00  0.16099383873E+02  0.51100000000E-03 0.  1.
        -12    1    3    3    0    0  0.65329389164E+01 -0.11364098291E+02 -0.13243132181E+02  0.18633372503E+02  0.00000000000E+00 0.  1.
</event>
<event>
 7    1  0.2950722E-010  0.4778728E+02  0.7816164E-02  0.1312668E+00
        -11   -1    0    0    0    0  0.00000000000E+00  0.00000000000E+00  0.45593999997E+02  0.45594000000E+02  0.51100000000E-03 0.  1.
         11   -1    0    0    0    0 -0.00000000000E+00 -0.00000000000E+00 -0.45593999997E+02  0.45594000000E+02  0.51100000000E-03 0. -1.
    9900012    2    1    2    0    0 -0.25064410619E+02 -0.33718869835E+02 -0.10882828996E+02  0.47787276163E+02  0.20000023337E+02 0.  0.
        -12    1    1    2    0    0  0.25064410619E+02  0.33718869835E+02  0.10882828996E+02  0.43400723837E+02  0.00000000000E+00 0.  1.
         11    1    3    3    0    0 -0.69746352253E+01 -0.23866647269E+02 -0.77431952103E+01  0.26042646961E+02  0.51100000000E-03 0. -1.
        -11    1    3    3    0    0 -0.34401079363E+01  0.70066144830E-01 -0.20770341485E+01  0.40191196789E+01  0.51100000000E-03 0.  1.
         12    1    3    3    0    0 -0.14649667457E+02 -0.99222887110E+01 -0.10625996371E+01  0.17725509523E+02  0.00000000000E+00 0. -1.
</event>
<event>
 7    1  0.2950722E-010  0.4778727E+02  0.7816164E-02  0.1312668E+00
        -11   -1    0    0    0    0  0.00000000000E+00  0.00000000000E+00  0.45593999997E+02  0.45594000000E+02  0.51100000000E-03 0.  1.
         11   -1    0    0    0    0 -0.00000000000E+00 -0.00000000000E+00 -0.45593999997E+02  0.45594000000E+02  0.51100000000E-03 0. -1.
    9900012    2    1    2    0    0 -0.30434137709E+02  0.22340212485E+02 -0.21407982068E+02  0.47787268114E+02  0.19999986639E+02 0.  0.
        -12    1    1    2    0    0  0.30434137709E+02 -0.22340212485E+02  0.21407982068E+02  0.43400731886E+02  0.00000000000E+00 0.  1.
         11    1    3    3    0    0  0.23743881761E+00  0.26261173329E+00 -0.21408296674E+01  0.21699064590E+01  0.51100000000E-03 0.  1.
        -11    1    3    3    0    0 -0.25263868410E+02  0.19526083823E+02 -0.22267118109E+02  0.38927567939E+02  0.51100000000E-03 0. -1.
        -12    1    3    3    0    0 -0.54077081170E+01  0.25515169294E+01  0.29999657081E+01  0.66897937165E+01  0.00000000000E+00 0.  1.
</event>
<event>
 7    1  0.2950722E-010  0.4778727E+02  0.7816164E-02  0.1312668E+00
        -11   -1    0    0    0    0  0.00000000000E+00  0.00000000000E+00  0.45593999997E+02  0.45594000000E+02  0.51100000000E-03 0. -1.
         11   -1    0    0    0    0 -0.00000000000E+00 -0.00000000000E+00 -0.45593999997E+02  0.45594000000E+02  0.51100000000E-03 0.  1.
    9900012    2    1    2    0    0  0.38184237621E+02  0.27327636504E+00  0.20627957291E+02  0.47787270689E+02  0.19999998381E+02 0.  0.
        -12    1    1    2    0    0 -0.38184237621E+02 -0.27327636504E+00 -0.20627957291E+02  0.43400729311E+02  0.00000000000E+00 0.  1.
         11    1    3    3    0    0  0.11752646702E+02 -0.69359183024E+01  0.61382038053E+01  0.14963596273E+02  0.51100000000E-03 0. -1.
        -11    1    3    3    0    0  0.14343381547E+02  0.89240878166E+01  0.58922759802E+01  0.17891083088E+02  0.51100000000E-03 0.  1.
        -12    1    3    3    0    0  0.12088209372E+02 -0.17148931491E+01  0.85974775052E+01  0.14932591329E+02  0.00000000000E+00 0.  1.
</event>
<event>
 7    1  0.2950722E-010  0.4778727E+02  0.7816164E-02  0.1312668E+00
        -11   -1    0    0    0    0  0.00000000000E+00  0.00000000000E+00  0.45593999997E+02  0.45594000000E+02  0.51100000000E-03 0.  1.
         11   -1    0    0    0    0 -0.00000000000E+00 -0.00000000000E+00 -0.45593999997E+02  0.45594000000E+02  0.51100000000E-03 0. -1.
    9900012    2    1    2    0    0  0.80172021475E+01 -0.11221913062E+02 -0.41151139743E+02  0.47787272297E+02  0.20000005710E+02 0.  0.
        -12    1    1    2    0    0 -0.80172021475E+01  0.11221913062E+02  0.41151139743E+02  0.43400727703E+02  0.00000000000E+00 0.  1.
         11    1    3    3    0    0  0.13457324391E+01  0.17330928462E+01 -0.20687256290E+02  0.20803297327E+02  0.51100000000E-03 0. -1.
        -11    1    3    3    0    0  0.69376024872E+01 -0.35180721758E+01 -0.65469425984E+01  0.10167085018E+02  0.51100000000E-03 0.  1.
         12    1    3    3    0    0 -0.26613277883E+00 -0.94369337325E+01 -0.13916940855E+02  0.16816889953E+02  0.00000000000E+00 0. -1.
</event>
<event>
 7    1  0.2950722E-010  0.4778727E+02  0.7816164E-02  0.1312668E+00
        -11   -1    0    0    0    0  0.00000000000E+00  0.00000000000E+00  0.45593999997E+02  0.45594000000E+02  0.51100000000E-03 0. -1.
         11   -1    0    0    0    0 -0.00000000000E+00 -0.00000000000E+00 -0.45593999997E+02  0.45594000000E+02  0.51100000000E-03 0.  1.
    9900012    2    1    2    0    0  0.42670894455E+02  0.54840098062E+01  0.57221994058E+01  0.47787272320E+02  0.20000005816E+02 0.  0.
        -12    1    1    2    0    0 -0.42670894455E+02 -0.54840098062E+01 -0.57221994058E+01  0.43400727680E+02  0.00000000000E+00 0.  1.
         11    1    3    3    0    0  0.77103215491E+01  0.41668654320E+01  0.72062195792E+01  0.11346427931E+02  0.51100000000E-03 0.  1.
        -11    1    3    3    0    0  0.25477754937E+02  0.31125627816E+01 -0.50362435969E+01  0.26156601337E+02  0.51100000000E-03 0. -1.
         12    1    3    3    0    0  0.94828179685E+01 -0.17954184075E+01  0.35522234235E+01  0.10284243051E+02  0.00000000000E+00 0. -1.
</event>
<event>
 7    1  0.2950722E-010  0.4778730E+02  0.7816164E-02  0.1312668E+00
        -11   -1    0    0    0    0  0.00000000000E+00  0.00000000000E+00  0.45593999997E+02  0.45594000000E+02  0.51100000000E-03 0.  1.
         11   -1    0    0    0    0 -0.00000000000E+00 -0.00000000000E+00 -0.45593999997E+02  0.45594000000E+02  0.51100000000E-03 0. -1.
    9900012    2    1    2    0    0 -0.40440424811E+01  0.27440227858E+02 -0.33381143167E+02  0.47787296047E+02  0.20000113998E+02 0.  0.
        -12    1    1    2    0    0  0.40440424811E+01 -0.27440227858E+02  0.33381143167E+02  0.43400703953E+02  0.00000000000E+00 0.  1.
         11    1    3    3    0    0 -0.57250983482E+01  0.45408281637E+01 -0.68841968983E+01  0.10039324614E+02  0.51100000000E-03 0. -1.
        -11    1    3    3    0    0  0.49357806655E+01  0.21182530373E+02 -0.17135003096E+02  0.27688803787E+02  0.51100000000E-03 0.  1.
        -12    1    3    3    0    0 -0.32547247984E+01  0.17168693210E+01 -0.93619431721E+01  0.10059167646E+02  0.00000000000E+00 0.  1.
</event>
<event>
 7    1  0.2950722E-010  0.4778727E+02  0.7816164E-02  0.1312668E+00
        -11   -1    0    0    0    0  0.00000000000E+00  0.00000000000E+00  0.45593999997E+02  0.45594000000E+02  0.51100000000E-03 0.  1.
         11   -1    0    0    0    0 -0.00000000000E+00 -0.00000000000E+00 -0.45593999997E+02  0.45594000000E+02  0.51100000000E-03 0. -1.
    9900012    2    1    2    0    0  0.18171715177E+02  0.79645685119E+00 -0.39405300293E+02  0.47787271122E+02  0.20000000352E+02 0.  0.
        -12    1    1    2    0    0 -0.18171715177E+02 -0.79645685119E+00  0.39405300293E+02  0.43400728878E+02  0.00000000000E+00 0.  1.
         11    1    3    3    0    0  0.73582392149E+01 -0.16381377099E+01 -0.12893475562E+02  0.14935491014E+02  0.51100000000E-03 0. -1.
        -11    1    3    3    0    0  0.34461662435E+01 -0.66709309090E+01 -0.82372355415E+01  0.11145825703E+02  0.51100000000E-03 0.  1.
        -12    1    3    3    0    0  0.73673097183E+01  0.91055254701E+01 -0.18274589190E+02  0.21705954405E+02  0.00000000000E+00 0.  1.
</event>
<event>
 7    1  0.2950722E-010  0.4778725E+02  0.7816164E-02  0.1312668E+00
        -11   -1    0    0    0    0  0.00000000000E+00  0.00000000000E+00  0.45593999997E+02  0.45594000000E+02  0.51100000000E-03 0. -1.
         11   -1    0    0    0    0 -0.00000000000E+00 -0.00000000000E+00 -0.45593999997E+02  0.45594000000E+02  0.51100000000E-03 0.  1.
    9900012    2    1    2    0    0 -0.42855027283E+02 -0.90077993438E+00 -0.68014852151E+01  0.47787251515E+02  0.19999910957E+02 0.  0.
        -12    1    1    2    0    0  0.42855027283E+02  0.90077993438E+00  0.68014852151E+01  0.43400748485E+02  0.00000000000E+00 0.  1.
         11    1    3    3    0    0 -0.48807179398E+01  0.36870737900E+01  0.21108545432E+01  0.64708289967E+01  0.51100000000E-03 0. -1.
        -11    1    3    3    0    0 -0.12724802273E+02 -0.50626107297E+01 -0.83829318552E+01  0.16056904030E+02  0.51100000000E-03 0.  1.
        -12    1    3    3    0    0 -0.25249507070E+02  0.47475700526E+00 -0.52940790309E+00  0.25259518488E+02  0.00000000000E+00 0.  1.
</event>
<event>
 7    1  0.2950722E-010  0.4778728E+02  0.7816164E-02  0.1312668E+00
        -11   -1    0    0    0    0  0.00000000000E+00  0.00000000000E+00  0.45593999997E+02  0.45594000000E+02  0.51100000000E-03 0. -1.
         11   -1    0    0    0    0 -0.00000000000E+00 -0.00000000000E+00 -0.45593999997E+02  0.45594000000E+02  0.51100000000E-03 0.  1.
    9900012    2    1    2    0    0 -0.19023245729E+02  0.26465587657E+02  0.28658532528E+02  0.47787277716E+02  0.20000030420E+02 0.  0.
        -12    1    1    2    0    0  0.19023245729E+02 -0.26465587657E+02 -0.28658532528E+02  0.43400722284E+02  0.00000000000E+00 0.  1.
         11    1    3    3    0    0 -0.16371632021E+01  0.97030764571E+01  0.12809154155E+02  0.16152536225E+02  0.51100000000E-03 0. -1.
        -11    1    3    3    0    0 -0.73401393223E+01  0.35563796781E+01 -0.71680434376E+00  0.81877524641E+01  0.51100000000E-03 0.  1.
        -12    1    3    3    0    0 -0.10045943204E+02  0.13206131522E+02  0.16566182716E+02  0.23446989027E+02  0.00000000000E+00 0.  1.
</event>
<event>
 7    1  0.2950722E-010  0.4778725E+02  0.7816164E-02  0.1312668E+00
        -11   -1    0    0    0    0  0.00000000000E+00  0.00000000000E+00  0.45593999997E+02  0.45594000000E+02  0.51100000000E-03 0.  1.
         11   -1    0    0    0    0 -0.00000000000E+00 -0.00000000000E+00 -0.45593999997E+02  0.45594000000E+02  0.51100000000E-03 0. -1.
    9900012    2    1    2    0    0  0.20856488385E+02  0.24647075073E+02 -0.29002647525E+02  0.47787251379E+02  0.19999910337E+02 0.  0.
        -12    1    1    2    0    0 -0.20856488385E+02 -0.24647075073E+02  0.29002647525E+02  0.43400748621E+02  0.00000000000E+00 0.  1.
         11    1    3    3    0    0  0.15134795057E+02  0.19425636687E+02 -0.19958298993E+02  0.31697808774E+02  0.51100000000E-03 0. -1.
        -11    1    3    3    0    0  0.48767948660E+01  0.20254009837E+01  0.11224920991E+01  0.53986448377E+01  0.51100000000E-03 0.  1.
         12    1    3    3    0    0  0.84489846196E+00  0.31960374027E+01 -0.10166840631E+02  0.10690797767E+02  0.00000000000E+00 0. -1.
</event>
<event>
 7    1  0.2950722E-010  0.4778727E+02  0.7816164E-02  0.1312668E+00
        -11   -1    0    0    0    0  0.00000000000E+00  0.00000000000E+00  0.45593999997E+02  0.45594000000E+02  0.51100000000E-03 0.  1.
         11   -1    0    0    0    0 -0.00000000000E+00 -0.00000000000E+00 -0.45593999997E+02  0.45594000000E+02  0.51100000000E-03 0. -1.
    9900012    2    1    2    0    0 -0.39176244116E+02 -0.45837819433E+01 -0.18106189000E+02  0.47787271435E+02  0.20000001779E+02 0.  0.
        -12    1    1    2    0    0  0.39176244116E+02  0.45837819433E+01  0.18106189000E+02  0.43400728565E+02  0.00000000000E+00 0.  1.
         11    1    3    3    0    0 -0.60872685349E+01  0.15202536791E+01 -0.93255367185E+01  0.11239735086E+02  0.51100000000E-03 0. -1.
        -11    1    3    3    0    0 -0.30139728909E+02 -0.88546110979E+01 -0.82594732815E+01  0.32481168321E+02  0.51100000000E-03 0.  1.
         12    1    3    3    0    0 -0.29492466722E+01  0.27505754754E+01 -0.52117899969E+00  0.40663680268E+01  0.00000000000E+00 0. -1.
</event>
<event>
 7    1  0.2950722E-010  0.4778727E+02  0.7816164E-02  0.1312668E+00
        -11   -1    0    0    0    0  0.00000000000E+00  0.00000000000E+00  0.45593999997E+02  0.45594000000E+02  0.51100000000E-03 0.  1.
         11   -1    0    0    0    0 -0.00000000000E+00 -0.00000000000E+00 -0.45593999997E+02  0.45594000000E+02  0.51100000000E-03 0. -1.
    9900012    2    1    2    0    0  0.27173318626E+02 -0.58924574307E+01 -0.33324359614E+02  0.47787271395E+02  0.20000001600E+02 0.  0.
        -12    1    1    2    0    0 -0.27173318626E+02  0.58924574307E+01  0.33324359614E+02  0.43400728605E+02  0.00000000000E+00 0.  1.
         11    1    3    3    0    0  0.15700043472E+02 -0.32102814813E+01 -0.28955221963E+02  0.33093838571E+02  0.51100000000E-03 0. -1.
        -11    1    3    3    0    0  0.10602594092E+02  0.61098618742E+00 -0.31933510497E+01  0.11089896158E+02  0.51100000000E-03 0.  1.
         12    1    3    3    0    0  0.87068106123E+00 -0.32931621368E+01 -0.11757866017E+01  0.36035366659E+01  0.00000000000E+00 0. -1.
</event>
<event>
 7    1  0.2950722E-010  0.4778727E+02  0.7816164E-02  0.1312668E+00
        -11   -1    0    0    0    0  0.00000000000E+00  0.00000000000E+00  0.45593999997E+02  0.45594000000E+02  0.51100000000E-03 0.  1.
         11   -1    0    0    0    0 -0.00000000000E+00 -0.00000000000E+00 -0.45593999997E+02  0.45594000000E+02  0.51100000000E-03 0. -1.
    9900012    2    1    2    0    0  0.80840486192E+01 -0.22479197729E+02 -0.36234750206E+02  0.47787270800E+02  0.19999998885E+02 0.  0.
        -12    1    1    2    0    0 -0.80840486192E+01  0.22479197729E+02  0.36234750206E+02  0.43400729200E+02  0.00000000000E+00 0.  1.
         11    1    3    3    0    0 -0.27920509208E+01 -0.85987919181E+01 -0.14705211455E+02  0.17262039711E+02  0.51100000000E-03 0. -1.
        -11    1    3    3    0    0  0.71607415416E+01 -0.11992299336E+02 -0.74261285091E+01  0.15818939524E+02  0.51100000000E-03 0.  1.
        -12    1    3    3    0    0  0.37153579984E+01 -0.18881064748E+01 -0.14103410242E+02  0.14706291564E+02  0.00000000000E+00 0.  1.
</event>
<event>
 7    1  0.2950722E-010  0.4778727E+02  0.7816164E-02  0.1312668E+00
        -11   -1    0    0    0    0  0.00000000000E+00  0.00000000000E+00  0.45593999997E+02  0.45594000000E+02  0.51100000000E-03 0.  1.
         11   -1    0    0    0    0 -0.00000000000E+00 -0.00000000000E+00 -0.45593999997E+02  0.45594000000E+02  0.51100000000E-03 0. -1.
    9900012    2    1    2    0    0 -0.27825076042E+01  0.32791784761E+02 -0.28294518829E+02  0.47787270834E+02  0.19999999041E+02 0.  0.
        -12    1    1    2    0    0  0.27825076042E+01 -0.32791784761E+02  0.28294518829E+02  0.43400729166E+02  0.00000000000E+00 0.  1.
         11    1    3    3    0    0 -0.75277408033E+01  0.13843244721E+02 -0.56329291119E+01  0.16734162562E+02  0.51100000000E-03 0. -1.
        -11    1    3    3    0    0  0.75962367970E-03  0.11678681431E+02 -0.17222714845E+02  0.20808976607E+02  0.51100000000E-03 0.  1.
         12    1    3    3    0    0  0.47444735754E+01  0.72698586084E+01 -0.54388748725E+01  0.10244131665E+02  0.00000000000E+00 0. -1.
</event>
<event>
 7    1  0.2950722E-010  0.4778727E+02  0.7816164E-02  0.1312668E+00
        -11   -1    0    0    0    0  0.00000000000E+00  0.00000000000E+00  0.45593999997E+02  0.45594000000E+02  0.51100000000E-03 0.  1.
         11   -1    0    0    0    0 -0.00000000000E+00 -0.00000000000E+00 -0.45593999997E+02  0.45594000000E+02  0.51100000000E-03 0. -1.
    9900012    2    1    2    0    0 -0.36336498779E+02  0.37319372534E+01 -0.23438326282E+02  0.47787266848E+02  0.19999980867E+02 0.  0.
        -12    1    1    2    0    0  0.36336498779E+02 -0.37319372534E+01  0.23438326282E+02  0.43400733152E+02  0.00000000000E+00 0.  1.
         11    1    3    3    0    0 -0.29064939200E+02  0.71779701880E+01 -0.14537942759E+02  0.33281311973E+02  0.51100000000E-03 0. -1.
        -11    1    3    3    0    0 -0.73344641259E+01 -0.52930524160E+01 -0.88541591478E+01  0.12657286533E+02  0.51100000000E-03 0.  1.
         12    1    3    3    0    0  0.62904546975E-01  0.18470194813E+01 -0.46224375545E-01  0.18486683422E+01  0.00000000000E+00 0. -1.
</event>
<event>
 7    1  0.2950722E-010  0.4778727E+02  0.7816164E-02  0.1312668E+00
        -11   -1    0    0    0    0  0.00000000000E+00  0.00000000000E+00  0.45593999997E+02  0.45594000000E+02  0.51100000000E-03 0. -1.
         11   -1    0    0    0    0 -0.00000000000E+00 -0.00000000000E+00 -0.45593999997E+02  0.45594000000E+02  0.51100000000E-03 0.  1.
    9900012    2    1    2    0    0 -0.10636984468E+02  0.38390194196E+02  0.17224133923E+02  0.47787271453E+02  0.20000001863E+02 0.  0.
        -12    1    1    2    0    0  0.10636984468E+02 -0.38390194196E+02 -0.17224133923E+02  0.43400728547E+02  0.00000000000E+00 0.  1.
         11    1    3    3    0    0 -0.12087890637E+02  0.22997679975E+02  0.18367669491E+02  0.31817945676E+02  0.51100000000E-03 0.  1.
        -11    1    3    3    0    0  0.46202911912E+00  0.14680594998E+02 -0.83077092419E+00  0.14711339877E+02  0.51100000000E-03 0. -1.
        -12    1    3    3    0    0  0.98887704924E+00  0.71191922390E+00 -0.31276464427E+00  0.12579858992E+01  0.00000000000E+00 0.  1.
</event>
<event>
 7    1  0.2950722E-010  0.4778727E+02  0.7816164E-02  0.1312668E+00
        -11   -1    0    0    0    0  0.00000000000E+00  0.00000000000E+00  0.45593999997E+02  0.45594000000E+02  0.51100000000E-03 0.  1.
         11   -1    0    0    0    0 -0.00000000000E+00 -0.00000000000E+00 -0.45593999997E+02  0.45594000000E+02  0.51100000000E-03 0. -1.
    9900012    2    1    2    0    0 -0.17733242706E+02 -0.19868471140E+02 -0.34269505674E+02  0.47787273491E+02  0.20000011156E+02 0.  0.
        -12    1    1    2    0    0  0.17733242706E+02  0.19868471140E+02  0.34269505674E+02  0.43400726509E+02  0.00000000000E+00 0.  1.
         11    1    3    3    0    0  0.19609048266E+01 -0.72545760060E+00 -0.45833610798E+01  0.50377212624E+01  0.51100000000E-03 0. -1.
        -11    1    3    3    0    0 -0.15970673016E+02 -0.14905554131E+02 -0.29986925623E+02  0.37100588258E+02  0.51100000000E-03 0.  1.
        -12    1    3    3    0    0 -0.37234745172E+01 -0.42374594085E+01  0.30078102795E+00  0.56489639710E+01  0.00000000000E+00 0.  1.
</event>
<event>
 7    1  0.2950722E-010  0.4778727E+02  0.7816164E-02  0.1312668E+00
        -11   -1    0    0    0    0  0.00000000000E+00  0.00000000000E+00  0.45593999997E+02  0.45594000000E+02  0.51100000000E-03 0.  1.
         11   -1    0    0    0    0 -0.00000000000E+00 -0.00000000000E+00 -0.45593999997E+02  0.45594000000E+02  0.51100000000E-03 0. -1.
    9900012    2    1    2    0    0  0.20817558492E+02 -0.22682550560E+02 -0.30590102144E+02  0.47787272003E+02  0.20000004370E+02 0.  0.
        -12    1    1    2    0    0 -0.20817558492E+02  0.22682550560E+02  0.30590102144E+02  0.43400727997E+02  0.00000000000E+00 0.  1.
         11    1    3    3    0    0  0.10671933473E+02 -0.13873251022E+02 -0.24627664399E+02  0.30213889388E+02  0.51100000000E-03 0. -1.
        -11    1    3    3    0    0  0.11440764544E+02 -0.49616055289E+01 -0.44214159137E+01  0.13230931249E+02  0.51100000000E-03 0.  1.
        -12    1    3    3    0    0 -0.12951395249E+01 -0.38476940091E+01 -0.15410218320E+01  0.43424513657E+01  0.00000000000E+00 0.  1.
</event>
<event>
 7    1  0.2950722E-010  0.4778727E+02  0.7816164E-02  0.1312668E+00
        -11   -1    0    0    0    0  0.00000000000E+00  0.00000000000E+00  0.45593999997E+02  0.45594000000E+02  0.51100000000E-03 0.  1.
         11   -1    0    0    0    0 -0.00000000000E+00 -0.00000000000E+00 -0.45593999997E+02  0.45594000000E+02  0.51100000000E-03 0. -1.
    9900012    2    1    2    0    0  0.35212150530E+02 -0.10079226376E+02 -0.23283834780E+02  0.47787270612E+02  0.19999998030E+02 0.  0.
        -12    1    1    2    0    0 -0.35212150530E+02  0.10079226376E+02  0.23283834780E+02  0.43400729388E+02  0.00000000000E+00 0.  1.
         11    1    3    3    0    0  0.61820744356E+01 -0.48539804148E+01 -0.74541489635E+01  0.10832520816E+02  0.51100000000E-03 0. -1.
        -11    1    3    3    0    0  0.20963307839E+02 -0.23402594381E+01 -0.18420428703E+02  0.28004451140E+02  0.51100000000E-03 0.  1.
        -12    1    3    3    0    0  0.80667682559E+01 -0.28849865233E+01  0.25907428865E+01  0.89502986564E+01  0.00000000000E+00 0.  1.
</event>
<event>
 7    1  0.2950722E-010  0.4778727E+02  0.7816164E-02  0.1312668E+00
        -11   -1    0    0    0    0  0.00000000000E+00  0.00000000000E+00  0.45593999997E+02  0.45594000000E+02  0.51100000000E-03 0. -1.
         11   -1    0    0    0    0 -0.00000000000E+00 -0.00000000000E+00 -0.45593999997E+02  0.45594000000E+02  0.51100000000E-03 0.  1.
    9900012    2    1    2    0    0  0.33098674452E+02 -0.12900326793E+02  0.24933557011E+02  0.47787274810E+02  0.20000017167E+02 0.  0.
        -12    1    1    2    0    0 -0.33098674452E+02  0.12900326793E+02 -0.24933557011E+02  0.43400725190E+02  0.00000000000E+00 0.  1.
         11    1    3    3    0    0  0.75932177070E+01 -0.10782490234E+01  0.47098158378E+01  0.90001078655E+01  0.51100000000E-03 0. -1.
        -11    1    3    3    0    0  0.18730396079E+02 -0.89556543989E+01  0.42372603396E+01  0.21189286407E+02  0.51100000000E-03 0.  1.
        -12    1    3    3    0    0  0.67750606661E+01 -0.28664233706E+01  0.15986480833E+02  0.17597880537E+02  0.00000000000E+00 0.  1.
</event>
<event>
 7    1  0.2950722E-010  0.4778727E+02  0.7816164E-02  0.1312668E+00
        -11   -1    0    0    0    0  0.00000000000E+00  0.00000000000E+00  0.45593999997E+02  0.45594000000E+02  0.51100000000E-03 0.  1.
         11   -1    0    0    0    0 -0.00000000000E+00 -0.00000000000E+00 -0.45593999997E+02  0.45594000000E+02  0.51100000000E-03 0. -1.
    9900012    2    1    2    0    0 -0.12977434192E+02  0.10628948141E+02 -0.40027925732E+02  0.47787272182E+02  0.20000005184E+02 0.  0.
        -12    1    1    2    0    0  0.12977434192E+02 -0.10628948141E+02  0.40027925732E+02  0.43400727818E+02  0.00000000000E+00 0.  1.
         11    1    3    3    0    0 -0.70977644373E+01  0.85969688777E+01 -0.56034456025E+01  0.12477368984E+02  0.51100000000E-03 0. -1.
        -11    1    3    3    0    0 -0.55015576523E+01  0.33777867017E+01 -0.28722302195E+02  0.29438872656E+02  0.51100000000E-03 0.  1.
        -12    1    3    3    0    0 -0.37811210201E+00 -0.13458074383E+01 -0.57021779346E+01  0.58710305416E+01  0.00000000000E+00 0.  1.
</event>
<event>
 7    1  0.2950722E-010  0.4778728E+02  0.7816164E-02  0.1312668E+00
        -11   -1    0    0    0    0  0.00000000000E+00  0.00000000000E+00  0.45593999997E+02  0.45594000000E+02  0.51100000000E-03 0. -1.
         11   -1    0    0    0    0 -0.00000000000E+00 -0.00000000000E+00 -0.45593999997E+02  0.45594000000E+02  0.51100000000E-03 0.  1.
    9900012    2    1    2    0    0  0.32960409448E+02 -0.25975938155E+02  0.11067276171E+02  0.47787279316E+02  0.20000037715E+02 0.  0.
        -12    1    1    2    0    0 -0.32960409448E+02  0.25975938155E+02 -0.11067276171E+02  0.43400720684E+02  0.00000000000E+00 0.  1.
         11    1    3    3    0    0  0.22906632265E+02 -0.11830178381E+02  0.74677511138E+01  0.26840905893E+02  0.51100000000E-03 0. -1.
        -11    1    3    3    0    0 -0.24001577758E+01 -0.23627778456E+01 -0.24173270073E+00  0.33766716536E+01  0.51100000000E-03 0.  1.
        -12    1    3    3    0    0  0.12453934959E+02 -0.11782981928E+02  0.38412577582E+01  0.17569701769E+02  0.00000000000E+00 0.  1.
</event>
<event>
 7    1  0.2950722E-010  0.4778727E+02  0.7816164E-02  0.1312668E+00
        -11   -1    0    0    0    0  0.00000000000E+00  0.00000000000E+00  0.45593999997E+02  0.45594000000E+02  0.51100000000E-03 0.  1.
         11   -1    0    0    0    0 -0.00000000000E+00 -0.00000000000E+00 -0.45593999997E+02  0.45594000000E+02  0.51100000000E-03 0. -1.
    9900012    2    1    2    0    0 -0.45996831022E+01 -0.12772193555E+02 -0.41223016440E+02  0.47787273080E+02  0.20000009279E+02 0.  0.
        -12    1    1    2    0    0  0.45996831022E+01  0.12772193555E+02  0.41223016440E+02  0.43400726920E+02  0.00000000000E+00 0.  1.
         11    1    3    3    0    0 -0.50400538537E+01  0.11311124394E+00 -0.19195728858E+01  0.53944135294E+01  0.51100000000E-03 0. -1.
        -11    1    3    3    0    0  0.12316427470E+00  0.10014395294E+01 -0.40237695089E+00  0.10862587359E+01  0.51100000000E-03 0.  1.
         12    1    3    3    0    0  0.31720647678E+00 -0.13886744328E+02 -0.38901066603E+02  0.41306600814E+02  0.00000000000E+00 0. -1.
</event>
<event>
 7    1  0.2950722E-010  0.4778728E+02  0.7816164E-02  0.1312668E+00
        -11   -1    0    0    0    0  0.00000000000E+00  0.00000000000E+00  0.45593999997E+02  0.45594000000E+02  0.51100000000E-03 0.  1.
         11   -1    0    0    0    0 -0.00000000000E+00 -0.00000000000E+00 -0.45593999997E+02  0.45594000000E+02  0.51100000000E-03 0. -1.
    9900012    2    1    2    0    0  0.40676185950E+01  0.11947558057E+02 -0.41525091309E+02  0.47787275665E+02  0.20000021066E+02 0.  0.
        -12    1    1    2    0    0 -0.40676185950E+01 -0.11947558057E+02  0.41525091309E+02  0.43400724335E+02  0.00000000000E+00 0.  1.
         11    1    3    3    0    0 -0.53908338830E+01  0.34947883698E+00 -0.79362841021E+01  0.96004078570E+01  0.51100000000E-03 0. -1.
        -11    1    3    3    0    0 -0.39402975614E+00  0.48867339004E+01 -0.41403989912E+01  0.64170344965E+01  0.51100000000E-03 0.  1.
         12    1    3    3    0    0  0.98524822340E+01  0.67113453200E+01 -0.29448408216E+02  0.31769833311E+02  0.00000000000E+00 0. -1.
</event>
<event>
 7    1  0.2950722E-010  0.4778723E+02  0.7816164E-02  0.1312668E+00
        -11   -1    0    0    0    0  0.00000000000E+00  0.00000000000E+00  0.45593999997E+02  0.45594000000E+02  0.51100000000E-03 0.  1.
         11   -1    0    0    0    0 -0.00000000000E+00 -0.00000000000E+00 -0.45593999997E+02  0.45594000000E+02  0.51100000000E-03 0. -1.
    9900012    2    1    2    0    0  0.32374311150E+02  0.23722213545E+02 -0.16516281864E+02  0.47787228065E+02  0.19999804040E+02 0.  0.
        -12    1    1    2    0    0 -0.32374311150E+02 -0.23722213545E+02  0.16516281864E+02  0.43400771935E+02  0.00000000000E+00 0.  1.
         11    1    3    3    0    0  0.14282032857E+02  0.97400322862E+00 -0.66657230039E+01  0.15791042025E+02  0.51100000000E-03 0. -1.
        -11    1    3    3    0    0 -0.60259573870E+00  0.17945748943E+01  0.67119718154E+00  0.20085135283E+01  0.51100000000E-03 0.  1.
         12    1    3    3    0    0  0.18694874031E+02  0.20953635422E+02 -0.10521756041E+02  0.29987672512E+02  0.00000000000E+00 0. -1.
</event>
<event>
 7    1  0.2950722E-010  0.4778727E+02  0.7816164E-02  0.1312668E+00
        -11   -1    0    0    0    0  0.00000000000E+00  0.00000000000E+00  0.45593999997E+02  0.45594000000E+02  0.51100000000E-03 0.  1.
         11   -1    0    0    0    0 -0.00000000000E+00 -0.00000000000E+00 -0.45593999997E+02  0.45594000000E+02  0.51100000000E-03 0. -1.
    9900012    2    1    2    0    0  0.10243022333E+02  0.18457458657E+02 -0.37921318095E+02  0.47787266681E+02  0.19999980105E+02 0.  0.
        -12    1    1    2    0    0 -0.10243022333E+02 -0.18457458657E+02  0.37921318095E+02  0.43400733319E+02  0.00000000000E+00 0.  1.
         11    1    3    3    0    0  0.18162423020E+01  0.26226848877E-01 -0.56486133963E+01  0.59334861177E+01  0.51100000000E-03 0. -1.
        -11    1    3    3    0    0  0.62596602949E+01  0.13428965966E+02 -0.33170258821E+02  0.36328866545E+02  0.51100000000E-03 0.  1.
        -12    1    3    3    0    0  0.21671197364E+01  0.50022658424E+01  0.89755412243E+00  0.55249140186E+01  0.00000000000E+00 0.  1.
</event>
<event>
 7    1  0.2950722E-010  0.4778727E+02  0.7816164E-02  0.1312668E+00
        -11   -1    0    0    0    0  0.00000000000E+00  0.00000000000E+00  0.45593999997E+02  0.45594000000E+02  0.51100000000E-03 0.  1.
         11   -1    0    0    0    0 -0.00000000000E+00 -0.00000000000E+00 -0.45593999997E+02  0.45594000000E+02  0.51100000000E-03 0. -1.
    9900012    2    1    2    0    0 -0.34900247560E+02  0.19432609123E+02 -0.16969674082E+02  0.47787269413E+02  0.19999992560E+02 0.  0.
        -12    1    1    2    0    0  0.34900247560E+02 -0.19432609123E+02  0.16969674082E+02  0.43400730587E+02  0.00000000000E+00 0.  1.
         11    1    3    3    0    0 -0.34674084235E+01  0.21851560778E+01 -0.89635703006E+01  0.98561362132E+01  0.51100000000E-03 0. -1.
        -11    1    3    3    0    0 -0.28938207407E+02  0.17529353291E+02 -0.93254678382E+01  0.35095048446E+02  0.51100000000E-03 0.  1.
        -12    1    3    3    0    0 -0.24946317296E+01 -0.28190024570E+00  0.13193640572E+01  0.28360847538E+01  0.00000000000E+00 0.  1.
</event>
<event>
 7    1  0.2950722E-010  0.4778727E+02  0.7816164E-02  0.1312668E+00
        -11   -1    0    0    0    0  0.00000000000E+00  0.00000000000E+00  0.45593999997E+02  0.45594000000E+02  0.51100000000E-03 0.  1.
         11   -1    0    0    0    0 -0.00000000000E+00 -0.00000000000E+00 -0.45593999997E+02  0.45594000000E+02  0.51100000000E-03 0. -1.
    9900012    2    1    2    0    0  0.38433732341E+02  0.14924100061E+02 -0.13555164361E+02  0.47787273910E+02  0.20000013064E+02 0.  0.
        -12    1    1    2    0    0 -0.38433732341E+02 -0.14924100061E+02  0.13555164361E+02  0.43400726090E+02  0.00000000000E+00 0.  1.
         11    1    3    3    0    0  0.27577029818E+02  0.91159957434E+01 -0.74176188997E+00  0.29054159134E+02  0.51100000000E-03 0.  1.
        -11    1    3    3    0    0  0.54521070308E+01  0.53961003110E+00 -0.82805114533E+01  0.99289234185E+01  0.51100000000E-03 0. -1.
        -12    1    3    3    0    0  0.54045954921E+01  0.52684942865E+01 -0.45328910178E+01  0.88041913575E+01  0.00000000000E+00 0.  1.
</event>
<event>
 7    1  0.2950722E-010  0.4778727E+02  0.7816164E-02  0.1312668E+00
        -11   -1    0    0    0    0  0.00000000000E+00  0.00000000000E+00  0.45593999997E+02  0.45594000000E+02  0.51100000000E-03 0. -1.
         11   -1    0    0    0    0 -0.00000000000E+00 -0.00000000000E+00 -0.45593999997E+02  0.45594000000E+02  0.51100000000E-03 0.  1.
    9900012    2    1    2    0    0  0.40450494848E+02  0.42492606271E+01  0.15143459283E+02  0.47787272951E+02  0.20000008691E+02 0.  0.
        -12    1    1    2    0    0 -0.40450494848E+02 -0.42492606271E+01 -0.15143459283E+02  0.43400727049E+02  0.00000000000E+00 0.  1.
         11    1    3    3    0    0  0.33034038758E+02  0.90322282645E+01  0.16706595638E+02  0.38104319993E+02  0.51100000000E-03 0. -1.
        -11    1    3    3    0    0  0.11593335191E+01 -0.23413709054E+01  0.49274760956E+00  0.26587351114E+01  0.51100000000E-03 0.  1.
         12    1    3    3    0    0  0.62571225711E+01 -0.24415967320E+01 -0.20558839643E+01  0.70242178459E+01  0.00000000000E+00 0. -1.
</event>
<event>
 7    1  0.2950722E-010  0.4778727E+02  0.7816164E-02  0.1312668E+00
        -11   -1    0    0    0    0  0.00000000000E+00  0.00000000000E+00  0.45593999997E+02  0.45594000000E+02  0.51100000000E-03 0.  1.
         11   -1    0    0    0    0 -0.00000000000E+00 -0.00000000000E+00 -0.45593999997E+02  0.45594000000E+02  0.51100000000E-03 0. -1.
    9900012    2    1    2    0    0 -0.35603789395E+01 -0.26125472994E+02 -0.34473271182E+02  0.47787273469E+02  0.20000011056E+02 0.  0.
        -12    1    1    2    0    0  0.35603789395E+01  0.26125472994E+02  0.34473271182E+02  0.43400726531E+02  0.00000000000E+00 0.  1.
         11    1    3    3    0    0  0.24946356395E+01 -0.85148387313E+01 -0.21868599844E+02  0.23600028496E+02  0.51100000000E-03 0. -1.
        -11    1    3    3    0    0  0.97926057669E+00 -0.50581169051E+01 -0.71194790942E+01  0.87880874334E+01  0.51100000000E-03 0.  1.
         12    1    3    3    0    0 -0.70342751557E+01 -0.12552517358E+02 -0.54851922437E+01  0.15399157540E+02  0.00000000000E+00 0. -1.
</event>
<event>
 7    1  0.2950722E-010  0.4778727E+02  0.7816164E-02  0.1312668E+00
        -11   -1    0    0    0    0  0.00000000000E+00  0.00000000000E+00  0.45593999997E+02  0.45594000000E+02  0.51100000000E-03 0.  1.
         11   -1    0    0    0    0 -0.00000000000E+00 -0.00000000000E+00 -0.45593999997E+02  0.45594000000E+02  0.51100000000E-03 0. -1.
    9900012    2    1    2    0    0  0.19791732879E+02  0.19024123879E+02 -0.33615376416E+02  0.47787268309E+02  0.19999987529E+02 0.  0.
        -12    1    1    2    0    0 -0.19791732879E+02 -0.19024123879E+02  0.33615376416E+02  0.43400731691E+02  0.00000000000E+00 0.  1.
         11    1    3    3    0    0  0.48976180776E+01  0.17938035765E+01 -0.31927981233E+01  0.61154193824E+01  0.51100000000E-03 0. -1.
        -11    1    3    3    0    0  0.17801640132E+02  0.94799882897E+01 -0.22452243661E+02  0.30180652993E+02  0.51100000000E-03 0.  1.
        -12    1    3    3    0    0 -0.29075253312E+01  0.77503320130E+01 -0.79703346314E+01  0.11491195934E+02  0.00000000000E+00 0.  1.
</event>
<event>
 7    1  0.2950722E-010  0.4778727E+02  0.7816164E-02  0.1312668E+00
        -11   -1    0    0    0    0  0.00000000000E+00  0.00000000000E+00  0.45593999997E+02  0.45594000000E+02  0.51100000000E-03 0.  1.
         11   -1    0    0    0    0 -0.00000000000E+00 -0.00000000000E+00 -0.45593999997E+02  0.45594000000E+02  0.51100000000E-03 0. -1.
    9900012    2    1    2    0    0  0.49900899659E+01  0.14420166908E+02 -0.40629807269E+02  0.47787269012E+02  0.19999990735E+02 0.  0.
        -12    1    1    2    0    0 -0.49900899659E+01 -0.14420166908E+02  0.40629807269E+02  0.43400730988E+02  0.00000000000E+00 0.  1.
         11    1    3    3    0    0  0.68144477342E+01  0.25489796109E+00 -0.30383119450E+01  0.74654544824E+01  0.51100000000E-03 0. -1.
        -11    1    3    3    0    0 -0.81685136185E+00  0.12820657177E+02 -0.34287298155E+02  0.36614960216E+02  0.51100000000E-03 0.  1.
        -12    1    3    3    0    0 -0.10075064064E+01  0.13446117706E+01 -0.33041971696E+01  0.37068543144E+01  0.00000000000E+00 0.  1.
</event>
<event>
 7    1  0.2950722E-010  0.4778728E+02  0.7816164E-02  0.1312668E+00
        -11   -1    0    0    0    0  0.00000000000E+00  0.00000000000E+00  0.45593999997E+02  0.45594000000E+02  0.51100000000E-03 0.  1.
         11   -1    0    0    0    0 -0.00000000000E+00 -0.00000000000E+00 -0.45593999997E+02  0.45594000000E+02  0.51100000000E-03 0. -1.
    9900012    2    1    2    0    0 -0.41408743267E+02 -0.94815222146E+01 -0.88903943215E+01  0.47787281185E+02  0.20000046237E+02 0.  0.
        -12    1    1    2    0    0  0.41408743267E+02  0.94815222146E+01  0.88903943215E+01  0.43400718815E+02  0.00000000000E+00 0.  1.
         11    1    3    3    0    0 -0.16672522633E+01  0.23188582308E+01  0.21829668532E+01  0.35947431268E+01  0.51100000000E-03 0. -1.
        -11    1    3    3    0    0 -0.39755426207E+00  0.83621806958E+00  0.77125817061E+00  0.12050516495E+01  0.51100000000E-03 0.  1.
         12    1    3    3    0    0 -0.39343936741E+02 -0.12636598515E+02 -0.11844619345E+02  0.42987486409E+02  0.00000000000E+00 0. -1.
</event>
<event>
 7    1  0.2950722E-010  0.4778728E+02  0.7816164E-02  0.1312668E+00
        -11   -1    0    0    0    0  0.00000000000E+00  0.00000000000E+00  0.45593999997E+02  0.45594000000E+02  0.51100000000E-03 0.  1.
         11   -1    0    0    0    0 -0.00000000000E+00 -0.00000000000E+00 -0.45593999997E+02  0.45594000000E+02  0.51100000000E-03 0. -1.
    9900012    2    1    2    0    0 -0.29444063486E+02 -0.24530904862E+02 -0.20369209964E+02  0.47787275554E+02  0.20000020559E+02 0.  0.
        -12    1    1    2    0    0  0.29444063486E+02  0.24530904862E+02  0.20369209964E+02  0.43400724446E+02  0.00000000000E+00 0.  1.
         11    1    3    3    0    0 -0.18443992259E+02 -0.11296807717E+02 -0.61250368337E+01  0.22479207983E+02  0.51100000000E-03 0. -1.
        -11    1    3    3    0    0 -0.36644258788E+01 -0.11051644963E+02 -0.13171298648E+02  0.17579817455E+02  0.51100000000E-03 0.  1.
         12    1    3    3    0    0 -0.73356453478E+01 -0.21824521815E+01 -0.10728744824E+01  0.77282501155E+01  0.00000000000E+00 0. -1.
</event>
<event>
 7    1  0.2950722E-010  0.4778726E+02  0.7816164E-02  0.1312668E+00
        -11   -1    0    0    0    0  0.00000000000E+00  0.00000000000E+00  0.45593999997E+02  0.45594000000E+02  0.51100000000E-03 0. -1.
         11   -1    0    0    0    0 -0.00000000000E+00 -0.00000000000E+00 -0.45593999997E+02  0.45594000000E+02  0.51100000000E-03 0.  1.
    9900012    2    1    2    0    0 -0.95399054014E+01 -0.42112911005E+02 -0.43723124422E+01  0.47787260554E+02  0.19999952169E+02 0.  0.
        -12    1    1    2    0    0  0.95399054014E+01  0.42112911005E+02  0.43723124422E+01  0.43400739446E+02  0.00000000000E+00 0.  1.
         11    1    3    3    0    0 -0.47674004532E+01 -0.10137093093E+02  0.39799552411E+01  0.11888179315E+02  0.51100000000E-03 0. -1.
        -11    1    3    3    0    0  0.27325482966E+01 -0.96479810329E+01 -0.71451624727E+01  0.12312745641E+02  0.51100000000E-03 0.  1.
        -12    1    3    3    0    0 -0.75050532448E+01 -0.22327836879E+02 -0.12071052107E+01  0.23586335597E+02  0.00000000000E+00 0.  1.
</event>
<event>
 7    1  0.2950722E-010  0.4778727E+02  0.7816164E-02  0.1312668E+00
        -11   -1    0    0    0    0  0.00000000000E+00  0.00000000000E+00  0.45593999997E+02  0.45594000000E+02  0.51100000000E-03 0. -1.
         11   -1    0    0    0    0 -0.00000000000E+00 -0.00000000000E+00 -0.45593999997E+02  0.45594000000E+02  0.51100000000E-03 0.  1.
    9900012    2    1    2    0    0 -0.38318905576E+01 -0.39507418355E+02  0.17552878002E+02  0.47787274010E+02  0.20000013522E+02 0.  0.
        -12    1    1    2    0    0  0.38318905576E+01  0.39507418355E+02 -0.17552878002E+02  0.43400725990E+02  0.00000000000E+00 0.  1.
         11    1    3    3    0    0 -0.93097616419E+01 -0.14746406518E+02  0.58854853708E+01  0.18405627002E+02  0.51100000000E-03 0. -1.
        -11    1    3    3    0    0  0.46865769560E+01 -0.12438364560E+02  0.14809570161E+01  0.13374234574E+02  0.51100000000E-03 0.  1.
         12    1    3    3    0    0  0.79129412835E+00 -0.12322647277E+02  0.10186435615E+02  0.16007412434E+02  0.00000000000E+00 0. -1.
</event>
<event>
 7    1  0.2950722E-010  0.4778727E+02  0.7816164E-02  0.1312668E+00
        -11   -1    0    0    0    0  0.00000000000E+00  0.00000000000E+00  0.45593999997E+02  0.45594000000E+02  0.51100000000E-03 0.  1.
         11   -1    0    0    0    0 -0.00000000000E+00 -0.00000000000E+00 -0.45593999997E+02  0.45594000000E+02  0.51100000000E-03 0. -1.
    9900012    2    1    2    0    0  0.32394041272E+02  0.20235744745E+02 -0.20609812483E+02  0.47787266758E+02  0.19999980459E+02 0.  0.
        -12    1    1    2    0    0 -0.32394041272E+02 -0.20235744745E+02  0.20609812483E+02  0.43400733242E+02  0.00000000000E+00 0.  1.
         11    1    3    3    0    0  0.11943555646E+02  0.96285377714E+01 -0.10746745286E+02  0.18730984907E+02  0.51100000000E-03 0. -1.
        -11    1    3    3    0    0  0.19938046017E+01 -0.34840207424E+01 -0.23434364184E+01  0.46481557452E+01  0.51100000000E-03 0.  1.
        -12    1    3    3    0    0  0.18456681024E+02  0.14091227716E+02 -0.75196307785E+01  0.24408126106E+02  0.00000000000E+00 0.  1.
</event>
<event>
 7    1  0.2950722E-010  0.4778727E+02  0.7816164E-02  0.1312668E+00
        -11   -1    0    0    0    0  0.00000000000E+00  0.00000000000E+00  0.45593999997E+02  0.45594000000E+02  0.51100000000E-03 0.  1.
         11   -1    0    0    0    0 -0.00000000000E+00 -0.00000000000E+00 -0.45593999997E+02  0.45594000000E+02  0.51100000000E-03 0. -1.
    9900012    2    1    2    0    0  0.12182181705E+02 -0.25889075488E+02 -0.32633932809E+02  0.47787270152E+02  0.19999995932E+02 0.  0.
        -12    1    1    2    0    0 -0.12182181705E+02  0.25889075488E+02  0.32633932809E+02  0.43400729848E+02  0.00000000000E+00 0.  1.
         11    1    3    3    0    0  0.23089950594E+01 -0.15580477228E+02 -0.20115727296E+02  0.25548487504E+02  0.51100000000E-03 0. -1.
        -11    1    3    3    0    0  0.11406073295E+02 -0.10368967298E+02 -0.77967449563E+01  0.17274351594E+02  0.51100000000E-03 0.  1.
        -12    1    3    3    0    0 -0.15328866487E+01  0.60369037716E-01 -0.47214605573E+01  0.49644310543E+01  0.00000000000E+00 0.  1.
</event>
<event>
 7    1  0.2950722E-010  0.4778727E+02  0.7816164E-02  0.1312668E+00
        -11   -1    0    0    0    0  0.00000000000E+00  0.00000000000E+00  0.45593999997E+02  0.45594000000E+02  0.51100000000E-03 0.  1.
         11   -1    0    0    0    0 -0.00000000000E+00 -0.00000000000E+00 -0.45593999997E+02  0.45594000000E+02  0.51100000000E-03 0. -1.
    9900012    2    1    2    0    0  0.17586472900E+02  0.55155734020E+01 -0.39292720344E+02  0.47787269003E+02  0.19999990694E+02 0.  0.
        -12    1    1    2    0    0 -0.17586472900E+02 -0.55155734020E+01  0.39292720344E+02  0.43400730997E+02  0.00000000000E+00 0.  1.
         11    1    3    3    0    0  0.13367617520E+02 -0.24527977550E+01 -0.11943892636E+02  0.18093258041E+02  0.51100000000E-03 0. -1.
        -11    1    3    3    0    0 -0.15031061120E+01  0.27054383640E+01 -0.13117432335E+02  0.13477602015E+02  0.51100000000E-03 0.  1.
        -12    1    3    3    0    0  0.57219614916E+01  0.52629327930E+01 -0.14231395373E+02  0.16216408947E+02  0.00000000000E+00 0.  1.
</event>
<event>
 7    1  0.2950722E-010  0.4778727E+02  0.7816164E-02  0.1312668E+00
        -11   -1    0    0    0    0  0.00000000000E+00  0.00000000000E+00  0.45593999997E+02  0.45594000000E+02  0.51100000000E-03 0. -1.
         11   -1    0    0    0    0 -0.00000000000E+00 -0.00000000000E+00 -0.45593999997E+02  0.45594000000E+02  0.51100000000E-03 0.  1.
    9900012    2    1    2    0    0  0.37766635969E+02 -0.21022368712E+02 -0.39197612589E+01  0.47787270662E+02  0.19999998258E+02 0.  0.
        -12    1    1    2    0    0 -0.37766635969E+02  0.21022368712E+02  0.39197612589E+01  0.43400729338E+02  0.00000000000E+00 0.  1.
         11    1    3    3    0    0  0.20365448097E+02 -0.66497351603E+01 -0.60840590674E+01  0.22270748279E+02  0.51100000000E-03 0. -1.
        -11    1    3    3    0    0  0.17974527475E+02 -0.13582697484E+02  0.45095353071E+01  0.22976275108E+02  0.51100000000E-03 0.  1.
         12    1    3    3    0    0 -0.57333960370E+00 -0.78993606824E+00 -0.23452374987E+01  0.25402472750E+01  0.00000000000E+00 0. -1.
</event>
<event>
 7    1  0.2950722E-010  0.4778727E+02  0.7816164E-02  0.1312668E+00
        -11   -1    0    0    0    0  0.00000000000E+00  0.00000000000E+00  0.45593999997E+02  0.45594000000E+02  0.51100000000E-03 0.  1.
         11   -1    0    0    0    0 -0.00000000000E+00 -0.00000000000E+00 -0.45593999997E+02  0.45594000000E+02  0.51100000000E-03 0. -1.
    9900012    2    1    2    0    0 -0.25452717332E+02 -0.17053292813E+01 -0.35112307528E+02  0.47787272962E+02  0.20000008742E+02 0.  0.
        -12    1    1    2    0    0  0.25452717332E+02  0.17053292813E+01  0.35112307528E+02  0.43400727038E+02  0.00000000000E+00 0.  1.
         11    1    3    3    0    0 -0.82505439712E+01 -0.82428169103E+01 -0.11062384519E+02  0.16074571781E+02  0.51100000000E-03 0. -1.
        -11    1    3    3    0    0 -0.39671146212E+01 -0.18961522106E+01 -0.25131403459E+01  0.50645104682E+01  0.51100000000E-03 0.  1.
         12    1    3    3    0    0 -0.13235058739E+02  0.84336398396E+01 -0.21536782663E+02  0.26648190712E+02  0.00000000000E+00 0. -1.
</event>
<event>
 7    1  0.2950722E-010  0.4778727E+02  0.7816164E-02  0.1312668E+00
        -11   -1    0    0    0    0  0.00000000000E+00  0.00000000000E+00  0.45593999997E+02  0.45594000000E+02  0.51100000000E-03 0.  1.
         11   -1    0    0    0    0 -0.00000000000E+00 -0.00000000000E+00 -0.45593999997E+02  0.45594000000E+02  0.51100000000E-03 0. -1.
    9900012    2    1    2    0    0 -0.17405882869E+02 -0.14602340988E+02 -0.36978778164E+02  0.47787272411E+02  0.20000006230E+02 0.  0.
        -12    1    1    2    0    0  0.17405882869E+02  0.14602340988E+02  0.36978778164E+02  0.43400727589E+02  0.00000000000E+00 0.  1.
         11    1    3    3    0    0 -0.17216985462E+02 -0.13236661544E+02 -0.25996859165E+02  0.33874333705E+02  0.51100000000E-03 0. -1.
        -11    1    3    3    0    0 -0.21959618741E+00  0.11535072847E+01  0.10771901409E+01  0.15934680424E+01  0.51100000000E-03 0.  1.
         12    1    3    3    0    0  0.30698780796E-01 -0.25191867280E+01 -0.12059109140E+02  0.12319470663E+02  0.00000000000E+00 0. -1.
</event>
<event>
 7    1  0.2950722E-010  0.4778732E+02  0.7816164E-02  0.1312668E+00
        -11   -1    0    0    0    0  0.00000000000E+00  0.00000000000E+00  0.45593999997E+02  0.45594000000E+02  0.51100000000E-03 0. -1.
         11   -1    0    0    0    0 -0.00000000000E+00 -0.00000000000E+00 -0.45593999997E+02  0.45594000000E+02  0.51100000000E-03 0.  1.
    9900012    2    1    2    0    0  0.17654088896E+02  0.23716418817E+02  0.31772376208E+02  0.47787317216E+02  0.20000210512E+02 0.  0.
        -12    1    1    2    0    0 -0.17654088896E+02 -0.23716418817E+02 -0.31772376208E+02  0.43400682784E+02  0.00000000000E+00 0.  1.
         11    1    3    3    0    0  0.15545422520E+02  0.60188331348E+01  0.11869698066E+02  0.20464023213E+02  0.51100000000E-03 0. -1.
        -11    1    3    3    0    0 -0.81774427704E+00  0.12329314698E+01  0.21980424141E+00  0.14957071497E+01  0.51100000000E-03 0.  1.
         12    1    3    3    0    0  0.29264106524E+01  0.16464654212E+02  0.19682873901E+02  0.25827586853E+02  0.00000000000E+00 0. -1.
</event>
<event>
 7    1  0.2950722E-010  0.4778727E+02  0.7816164E-02  0.1312668E+00
        -11   -1    0    0    0    0  0.00000000000E+00  0.00000000000E+00  0.45593999997E+02  0.45594000000E+02  0.51100000000E-03 0. -1.
         11   -1    0    0    0    0 -0.00000000000E+00 -0.00000000000E+00 -0.45593999997E+02  0.45594000000E+02  0.51100000000E-03 0.  1.
    9900012    2    1    2    0    0 -0.27394298599E+02 -0.95380640785E+01  0.32283136625E+02  0.47787272213E+02  0.20000005328E+02 0.  0.
        -12    1    1    2    0    0  0.27394298599E+02  0.95380640785E+01 -0.32283136625E+02  0.43400727787E+02  0.00000000000E+00 0.  1.
         11    1    3    3    0    0 -0.29111158075E+01  0.27315232339E+01  0.10272427083E+02  0.11020824509E+02  0.51100000000E-03 0. -1.
        -11    1    3    3    0    0 -0.11941841053E+02 -0.61120468840E+01  0.40532141412E+01  0.14014036891E+02  0.51100000000E-03 0.  1.
        -12    1    3    3    0    0 -0.12541341738E+02 -0.61575404284E+01  0.17957495401E+02  0.22752410813E+02  0.00000000000E+00 0.  1.
</event>
<event>
 7    1  0.2950722E-010  0.4778727E+02  0.7816164E-02  0.1312668E+00
        -11   -1    0    0    0    0  0.00000000000E+00  0.00000000000E+00  0.45593999997E+02  0.45594000000E+02  0.51100000000E-03 0. -1.
         11   -1    0    0    0    0 -0.00000000000E+00 -0.00000000000E+00 -0.45593999997E+02  0.45594000000E+02  0.51100000000E-03 0.  1.
    9900012    2    1    2    0    0  0.90017008998E+01  0.21519752932E+02  0.36599081820E+02  0.47787272179E+02  0.20000005172E+02 0.  0.
        -12    1    1    2    0    0 -0.90017008998E+01 -0.21519752932E+02 -0.36599081820E+02  0.43400727821E+02  0.00000000000E+00 0.  1.
         11    1    3    3    0    0 -0.99979669544E+00 -0.11886947731E+01 -0.99091820841E+00  0.18424190220E+01  0.51100000000E-03 0. -1.
        -11    1    3    3    0    0  0.74547625227E+01  0.12719739357E+02  0.14597568006E+02  0.20747391295E+02  0.51100000000E-03 0.  1.
         12    1    3    3    0    0  0.25467350725E+01  0.99887083483E+01  0.22992432022E+02  0.25197461862E+02  0.00000000000E+00 0. -1.
</event>
<event>
 7    1  0.2950722E-010  0.4778727E+02  0.7816164E-02  0.1312668E+00
        -11   -1    0    0    0    0  0.00000000000E+00  0.00000000000E+00  0.45593999997E+02  0.45594000000E+02  0.51100000000E-03 0. -1.
         11   -1    0    0    0    0 -0.00000000000E+00 -0.00000000000E+00 -0.45593999997E+02  0.45594000000E+02  0.51100000000E-03 0.  1.
    9900012    2    1    2    0    0 -0.37149191897E+02  0.22439788033E+02 -0.12983368924E+00  0.47787269564E+02  0.19999993252E+02 0.  0.
        -12    1    1    2    0    0  0.37149191897E+02 -0.22439788033E+02  0.12983368924E+00  0.43400730436E+02  0.00000000000E+00 0.  1.
         11    1    3    3    0    0 -0.10286563343E+02  0.13369832703E+02 -0.48896049215E+01  0.17563429291E+02  0.51100000000E-03 0. -1.
        -11    1    3    3    0    0 -0.17372734473E+02  0.10355039944E+01  0.31394353036E+01  0.17684462838E+02  0.51100000000E-03 0.  1.
        -12    1    3    3    0    0 -0.94898940812E+01  0.80344513358E+01  0.16203359287E+01  0.12539377435E+02  0.00000000000E+00 0.  1.
</event>
<event>
 7    1  0.2950722E-010  0.4778727E+02  0.7816164E-02  0.1312668E+00
        -11   -1    0    0    0    0  0.00000000000E+00  0.00000000000E+00  0.45593999997E+02  0.45594000000E+02  0.51100000000E-03 0.  1.
         11   -1    0    0    0    0 -0.00000000000E+00 -0.00000000000E+00 -0.45593999997E+02  0.45594000000E+02  0.51100000000E-03 0. -1.
    9900012    2    1    2    0    0 -0.20517684998E+02  0.22315905579E+02 -0.31058784606E+02  0.47787272579E+02  0.20000006997E+02 0.  0.
        -12    1    1    2    0    0  0.20517684998E+02 -0.22315905579E+02  0.31058784606E+02  0.43400727421E+02  0.00000000000E+00 0.  1.
         11    1    3    3    0    0 -0.44989970290E+01  0.67583391696E+01 -0.19768318867E+02  0.21370600218E+02  0.51100000000E-03 0. -1.
        -11    1    3    3    0    0 -0.49976462225E+01  0.40254397055E+01  0.70820761005E+00  0.64561746312E+01  0.51100000000E-03 0.  1.
         12    1    3    3    0    0 -0.11021041746E+02  0.11532126704E+02 -0.11998673349E+02  0.19960497730E+02  0.00000000000E+00 0. -1.
</event>
<event>
 7    1  0.2950722E-010  0.4778727E+02  0.7816164E-02  0.1312668E+00
        -11   -1    0    0    0    0  0.00000000000E+00  0.00000000000E+00  0.45593999997E+02  0.45594000000E+02  0.51100000000E-03 0. -1.
         11   -1    0    0    0    0 -0.00000000000E+00 -0.00000000000E+00 -0.45593999997E+02  0.45594000000E+02  0.51100000000E-03 0.  1.
    9900012    2    1    2    0    0  0.36639525725E+02 -0.22168930879E+02 -0.70502990539E+01  0.47787273527E+02  0.20000011317E+02 0.  0.
        -12    1    1    2    0    0 -0.36639525725E+02  0.22168930879E+02  0.70502990539E+01  0.43400726473E+02  0.00000000000E+00 0.  1.
         11    1    3    3    0    0  0.60586852409E+01 -0.55343535901E+01  0.42049927972E+01  0.92205586162E+01  0.51100000000E-03 0. -1.
        -11    1    3    3    0    0  0.29141975348E+02 -0.11571695598E+02 -0.11222606749E+02  0.33303239613E+02  0.51100000000E-03 0.  1.
        -12    1    3    3    0    0  0.14388651359E+01 -0.50628816906E+01 -0.32685102484E-01  0.52634752975E+01  0.00000000000E+00 0.  1.
</event>
<event>
 7    1  0.2950722E-010  0.4778727E+02  0.7816164E-02  0.1312668E+00
        -11   -1    0    0    0    0  0.00000000000E+00  0.00000000000E+00  0.45593999997E+02  0.45594000000E+02  0.51100000000E-03 0. -1.
         11   -1    0    0    0    0 -0.00000000000E+00 -0.00000000000E+00 -0.45593999997E+02  0.45594000000E+02  0.51100000000E-03 0.  1.
    9900012    2    1    2    0    0  0.40019548786E+02  0.14563267538E+02  0.83648188312E+01  0.47787271429E+02  0.20000001752E+02 0.  0.
        -12    1    1    2    0    0 -0.40019548786E+02 -0.14563267538E+02 -0.83648188312E+01  0.43400728571E+02  0.00000000000E+00 0.  1.
         11    1    3    3    0    0  0.25335421159E+01  0.26569530678E+01 -0.15017185654E+01  0.39665342768E+01  0.51100000000E-03 0. -1.
        -11    1    3    3    0    0  0.77926081034E+01  0.97576928594E+01  0.58158620803E+01  0.13775397018E+02  0.51100000000E-03 0.  1.
        -12    1    3    3    0    0  0.29693398567E+02  0.21486216112E+01  0.40506753163E+01  0.30045340134E+02  0.00000000000E+00 0.  1.
</event>
<event>
 7    1  0.2950722E-010  0.4778727E+02  0.7816164E-02  0.1312668E+00
        -11   -1    0    0    0    0  0.00000000000E+00  0.00000000000E+00  0.45593999997E+02  0.45594000000E+02  0.51100000000E-03 0. -1.
         11   -1    0    0    0    0 -0.00000000000E+00 -0.00000000000E+00 -0.45593999997E+02  0.45594000000E+02  0.51100000000E-03 0.  1.
    9900012    2    1    2    0    0  0.31191498047E+02 -0.66154487913E+01  0.29444009866E+02  0.47787269245E+02  0.19999991795E+02 0.  0.
        -12    1    1    2    0    0 -0.31191498047E+02  0.66154487913E+01 -0.29444009866E+02  0.43400730755E+02  0.00000000000E+00 0.  1.
         11    1    3    3    0    0  0.11941947286E+02  0.49583208456E+01  0.91059724766E+01  0.15814986108E+02  0.51100000000E-03 0. -1.
        -11    1    3    3    0    0  0.17188880460E+02 -0.13445004945E+02  0.18726020289E+02  0.28755688230E+02  0.51100000000E-03 0.  1.
        -12    1    3    3    0    0  0.20606703009E+01  0.18712353081E+01  0.16120171004E+01  0.32165949076E+01  0.00000000000E+00 0.  1.
</event>
<event>
 7    1  0.2950722E-010  0.4778727E+02  0.7816164E-02  0.1312668E+00
        -11   -1    0    0    0    0  0.00000000000E+00  0.00000000000E+00  0.45593999997E+02  0.45594000000E+02  0.51100000000E-03 0. -1.
         11   -1    0    0    0    0 -0.00000000000E+00 -0.00000000000E+00 -0.45593999997E+02  0.45594000000E+02  0.51100000000E-03 0.  1.
    9900012    2    1    2    0    0 -0.20176093383E+02 -0.26218691259E+02  0.28091444125E+02  0.47787265576E+02  0.19999975066E+02 0.  0.
        -12    1    1    2    0    0  0.20176093383E+02  0.26218691259E+02 -0.28091444125E+02  0.43400734424E+02  0.00000000000E+00 0.  1.
         11    1    3    3    0    0 -0.56283271811E+00 -0.45419898417E+01  0.16606069751E+01  0.48686823862E+01  0.51100000000E-03 0. -1.
        -11    1    3    3    0    0 -0.23460198189E+01  0.14000011717E+01 -0.12071100874E+01  0.29867921414E+01  0.51100000000E-03 0.  1.
        -12    1    3    3    0    0 -0.17267240846E+02 -0.23076702589E+02  0.27637947238E+02  0.39931791048E+02  0.00000000000E+00 0.  1.
</event>
<event>
 7    1  0.2950722E-010  0.4778728E+02  0.7816164E-02  0.1312668E+00
        -11   -1    0    0    0    0  0.00000000000E+00  0.00000000000E+00  0.45593999997E+02  0.45594000000E+02  0.51100000000E-03 0.  1.
         11   -1    0    0    0    0 -0.00000000000E+00 -0.00000000000E+00 -0.45593999997E+02  0.45594000000E+02  0.51100000000E-03 0. -1.
    9900012    2    1    2    0    0 -0.19727397928E+02 -0.13766149843E+02  0.36124032091E+02  0.47787276446E+02  0.20000024628E+02 0.  0.
        -12    1    1    2    0    0  0.19727397928E+02  0.13766149843E+02 -0.36124032091E+02  0.43400723554E+02  0.00000000000E+00 0.  1.
         11    1    3    3    0    0  0.31299690167E+00 -0.95232620580E+01  0.71057026977E+01  0.11886189397E+02  0.51100000000E-03 0. -1.
        -11    1    3    3    0    0 -0.13257285156E+02 -0.47787120312E+01  0.21995370363E+02  0.26122557609E+02  0.51100000000E-03 0.  1.
        -12    1    3    3    0    0 -0.67831096739E+01  0.53582424670E+00  0.70229590305E+01  0.97785294404E+01  0.00000000000E+00 0.  1.
</event>
<event>
 7    1  0.2950722E-010  0.4778727E+02  0.7816164E-02  0.1312668E+00
        -11   -1    0    0    0    0  0.00000000000E+00  0.00000000000E+00  0.45593999997E+02  0.45594000000E+02  0.51100000000E-03 0.  1.
         11   -1    0    0    0    0 -0.00000000000E+00 -0.00000000000E+00 -0.45593999997E+02  0.45594000000E+02  0.51100000000E-03 0. -1.
    9900012    2    1    2    0    0 -0.17443511680E+02  0.39626259513E+02  0.30177768716E+01  0.47787268209E+02  0.19999987073E+02 0.  0.
        -12    1    1    2    0    0  0.17443511680E+02 -0.39626259513E+02 -0.30177768716E+01  0.43400731791E+02  0.00000000000E+00 0.  1.
         11    1    3    3    0    0 -0.10833214175E+02  0.24072731694E+02 -0.44092147741E+01  0.26763708931E+02  0.51100000000E-03 0. -1.
        -11    1    3    3    0    0 -0.69623972124E+01  0.45231499404E+01  0.51031146838E+01  0.97455446263E+01  0.51100000000E-03 0.  1.
        -12    1    3    3    0    0  0.35209970739E+00  0.11030377879E+02  0.23238769619E+01  0.11278014652E+02  0.00000000000E+00 0.  1.
</event>
<event>
 7    1  0.2950722E-010  0.4778727E+02  0.7816164E-02  0.1312668E+00
        -11   -1    0    0    0    0  0.00000000000E+00  0.00000000000E+00  0.45593999997E+02  0.45594000000E+02  0.51100000000E-03 0. -1.
         11   -1    0    0    0    0 -0.00000000000E+00 -0.00000000000E+00 -0.45593999997E+02  0.45594000000E+02  0.51100000000E-03 0.  1.
    9900012    2    1    2    0    0  0.32421720551E+02 -0.27498380562E+02  0.87346624149E+01  0.47787271613E+02  0.20000002594E+02 0.  0.
        -12    1    1    2    0    0 -0.32421720551E+02  0.27498380562E+02 -0.87346624149E+01  0.43400728387E+02  0.00000000000E+00 0.  1.
         11    1    3    3    0    0 -0.10995793932E+01 -0.75716131882E+01  0.18044021659E+01  0.78609330586E+01  0.51100000000E-03 0. -1.
        -11    1    3    3    0    0  0.25009551681E+02 -0.12247976274E+02  0.52982442947E+01  0.28347169012E+02  0.51100000000E-03 0.  1.
         12    1    3    3    0    0  0.85117482625E+01 -0.76787910995E+01  0.16320159543E+01  0.11579169543E+02  0.00000000000E+00 0. -1.
</event>
<event>
 7    1  0.2950722E-010  0.4778727E+02  0.7816164E-02  0.1312668E+00
        -11   -1    0    0    0    0  0.00000000000E+00  0.00000000000E+00  0.45593999997E+02  0.45594000000E+02  0.51100000000E-03 0. -1.
         11   -1    0    0    0    0 -0.00000000000E+00 -0.00000000000E+00 -0.45593999997E+02  0.45594000000E+02  0.51100000000E-03 0.  1.
    9900012    2    1    2    0    0 -0.16070932328E+02  0.40297464878E+02  0.12095153253E+01  0.47787268799E+02  0.19999989761E+02 0.  0.
        -12    1    1    2    0    0  0.16070932328E+02 -0.40297464878E+02 -0.12095153253E+01  0.43400731201E+02  0.00000000000E+00 0.  1.
         11    1    3    3    0    0 -0.64525307288E+01  0.25675994188E+02  0.69748550330E+00  0.26483548037E+02  0.51100000000E-03 0. -1.
        -11    1    3    3    0    0 -0.75376044720E+01  0.25206170701E+01 -0.30594189598E+01  0.85163980780E+01  0.51100000000E-03 0.  1.
        -12    1    3    3    0    0 -0.20807971271E+01  0.12100853620E+02  0.35714487818E+01  0.12787322683E+02  0.00000000000E+00 0.  1.
</event>
<event>
 7    1  0.2950722E-010  0.4778727E+02  0.7816164E-02  0.1312668E+00
        -11   -1    0    0    0    0  0.00000000000E+00  0.00000000000E+00  0.45593999997E+02  0.45594000000E+02  0.51100000000E-03 0.  1.
         11   -1    0    0    0    0 -0.00000000000E+00 -0.00000000000E+00 -0.45593999997E+02  0.45594000000E+02  0.51100000000E-03 0. -1.
    9900012    2    1    2    0    0  0.15138508657E+02  0.21106065296E+02 -0.34770429765E+02  0.47787271634E+02  0.20000002688E+02 0.  0.
        -12    1    1    2    0    0 -0.15138508657E+02 -0.21106065296E+02  0.34770429765E+02  0.43400728366E+02  0.00000000000E+00 0.  1.
         11    1    3    3    0    0 -0.90209480690E+00  0.11382689708E+02 -0.22460865921E+02  0.25196624739E+02  0.51100000000E-03 0. -1.
        -11    1    3    3    0    0  0.64630969261E+01  0.50484755642E+01 -0.43088106811E+01  0.92641555009E+01  0.51100000000E-03 0.  1.
         12    1    3    3    0    0  0.95775065378E+01  0.46749000237E+01 -0.80007531631E+01  0.13326491395E+02  0.00000000000E+00 0. -1.
</event>
<event>
 7    1  0.2950722E-010  0.4778726E+02  0.7816164E-02  0.1312668E+00
        -11   -1    0    0    0    0  0.00000000000E+00  0.00000000000E+00  0.45593999997E+02  0.45594000000E+02  0.51100000000E-03 0. -1.
         11   -1    0    0    0    0 -0.00000000000E+00 -0.00000000000E+00 -0.45593999997E+02  0.45594000000E+02  0.51100000000E-03 0.  1.
    9900012    2    1    2    0    0 -0.29482702624E+02 -0.21275452697E+02  0.23701252012E+02  0.47787262813E+02  0.19999962468E+02 0.  0.
        -12    1    1    2    0    0  0.29482702624E+02  0.21275452697E+02 -0.23701252012E+02  0.43400737187E+02  0.00000000000E+00 0.  1.
         11    1    3    3    0    0 -0.41924238283E+01 -0.19060686674E+01  0.10576008351E+02  0.11535227272E+02  0.51100000000E-03 0. -1.
        -11    1    3    3    0    0 -0.19042473259E+02 -0.19872835979E+02  0.10797396490E+02  0.29565675518E+02  0.51100000000E-03 0.  1.
        -12    1    3    3    0    0 -0.62478055365E+01  0.50345194904E+00  0.23278471717E+01  0.66863600218E+01  0.00000000000E+00 0.  1.
</event>
<event>
 7    1  0.2950722E-010  0.4778727E+02  0.7816164E-02  0.1312668E+00
        -11   -1    0    0    0    0  0.00000000000E+00  0.00000000000E+00  0.45593999997E+02  0.45594000000E+02  0.51100000000E-03 0. -1.
         11   -1    0    0    0    0 -0.00000000000E+00 -0.00000000000E+00 -0.45593999997E+02  0.45594000000E+02  0.51100000000E-03 0.  1.
    9900012    2    1    2    0    0  0.18112391262E+02 -0.15846204575E+01  0.39408798874E+02  0.47787272265E+02  0.20000005564E+02 0.  0.
        -12    1    1    2    0    0 -0.18112391262E+02  0.15846204575E+01 -0.39408798874E+02  0.43400727735E+02  0.00000000000E+00 0.  1.
         11    1    3    3    0    0  0.14162467449E+02  0.38414620522E+01  0.18701329484E+02  0.23771243966E+02  0.51100000000E-03 0. -1.
        -11    1    3    3    0    0  0.11972819347E+01 -0.81816941095E+01  0.13970068518E+02  0.16233804767E+02  0.51100000000E-03 0.  1.
        -12    1    3    3    0    0  0.27526418778E+01  0.27556115998E+01  0.67374008721E+01  0.77822235324E+01  0.00000000000E+00 0.  1.
</event>
<event>
 7    1  0.2950722E-010  0.4778727E+02  0.7816164E-02  0.1312668E+00
        -11   -1    0    0    0    0  0.00000000000E+00  0.00000000000E+00  0.45593999997E+02  0.45594000000E+02  0.51100000000E-03 0.  1.
         11   -1    0    0    0    0 -0.00000000000E+00 -0.00000000000E+00 -0.45593999997E+02  0.45594000000E+02  0.51100000000E-03 0. -1.
    9900012    2    1    2    0    0  0.82627167544E-01  0.38718229233E+02 -0.19609049988E+02  0.47787274849E+02  0.20000017348E+02 0.  0.
        -12    1    1    2    0    0 -0.82627167544E-01 -0.38718229233E+02  0.19609049988E+02  0.43400725151E+02  0.00000000000E+00 0.  1.
         11    1    3    3    0    0 -0.94158975199E+01  0.13205681509E+02 -0.60499336288E+01  0.17310425974E+02  0.51100000000E-03 0. -1.
        -11    1    3    3    0    0  0.64544762253E+01  0.14629283333E+02 -0.76987727177E+01  0.17746754515E+02  0.51100000000E-03 0.  1.
         12    1    3    3    0    0  0.30440484621E+01  0.10883264391E+02 -0.58603436412E+01  0.12730094361E+02  0.00000000000E+00 0. -1.
</event>
<event>
 7    1  0.2950722E-010  0.4778726E+02  0.7816164E-02  0.1312668E+00
        -11   -1    0    0    0    0  0.00000000000E+00  0.00000000000E+00  0.45593999997E+02  0.45594000000E+02  0.51100000000E-03 0.  1.
         11   -1    0    0    0    0 -0.00000000000E+00 -0.00000000000E+00 -0.45593999997E+02  0.45594000000E+02  0.51100000000E-03 0. -1.
    9900012    2    1    2    0    0  0.52256989653E+01 -0.34093393050E+02 -0.26343053827E+02  0.47787264243E+02  0.19999968988E+02 0.  0.
        -12    1    1    2    0    0 -0.52256989653E+01  0.34093393050E+02  0.26343053827E+02  0.43400735757E+02  0.00000000000E+00 0.  1.
         11    1    3    3    0    0  0.20309153621E+01 -0.19386660860E+01 -0.27695924558E+01  0.39438161764E+01  0.51100000000E-03 0. -1.
        -11    1    3    3    0    0 -0.29592288918E+00 -0.31329932711E+02 -0.24898356561E+02  0.40019750296E+02  0.51100000000E-03 0.  1.
        -12    1    3    3    0    0  0.34907064924E+01 -0.82479425251E+00  0.13248951895E+01  0.38236977703E+01  0.00000000000E+00 0.  1.
</event>
<event>
 7    1  0.2950722E-010  0.4778727E+02  0.7816164E-02  0.1312668E+00
        -11   -1    0    0    0    0  0.00000000000E+00  0.00000000000E+00  0.45593999997E+02  0.45594000000E+02  0.51100000000E-03 0. -1.
         11   -1    0    0    0    0 -0.00000000000E+00 -0.00000000000E+00 -0.45593999997E+02  0.45594000000E+02  0.51100000000E-03 0.  1.
    9900012    2    1    2    0    0 -0.83703692488E+01  0.24197701412E+02  0.35043279567E+02  0.47787270999E+02  0.19999999792E+02 0.  0.
        -12    1    1    2    0    0  0.83703692488E+01 -0.24197701412E+02 -0.35043279567E+02  0.43400729001E+02  0.00000000000E+00 0.  1.
         11    1    3    3    0    0 -0.22601528742E+01  0.80767619806E+01  0.10095535801E+02  0.13124870227E+02  0.51100000000E-03 0. -1.
        -11    1    3    3    0    0 -0.11738111935E+02  0.12934671486E+02  0.19746438788E+02  0.26363058307E+02  0.51100000000E-03 0.  1.
        -12    1    3    3    0    0  0.56278955607E+01  0.31862679459E+01  0.52013049783E+01  0.82993424645E+01  0.00000000000E+00 0.  1.
</event>
<event>
 7    1  0.2950722E-010  0.4778727E+02  0.7816164E-02  0.1312668E+00
        -11   -1    0    0    0    0  0.00000000000E+00  0.00000000000E+00  0.45593999997E+02  0.45594000000E+02  0.51100000000E-03 0.  1.
         11   -1    0    0    0    0 -0.00000000000E+00 -0.00000000000E+00 -0.45593999997E+02  0.45594000000E+02  0.51100000000E-03 0. -1.
    9900012    2    1    2    0    0  0.19481136265E+02  0.10199084654E+02 -0.37417740249E+02  0.47787270936E+02  0.19999999506E+02 0.  0.
        -12    1    1    2    0    0 -0.19481136265E+02 -0.10199084654E+02  0.37417740249E+02  0.43400729064E+02  0.00000000000E+00 0.  1.
         11    1    3    3    0    0 -0.28118822274E+01  0.51759061112E+01 -0.57312219224E+01  0.82184907810E+01  0.51100000000E-03 0. -1.
        -11    1    3    3    0    0  0.11501118069E+02  0.44010612261E+00 -0.11802711159E+02  0.16485551286E+02  0.51100000000E-03 0.  1.
         12    1    3    3    0    0  0.10791900423E+02  0.45830724206E+01 -0.19883807167E+02  0.23083228869E+02  0.00000000000E+00 0. -1.
</event>
<event>
 7    1  0.2950722E-010  0.4778727E+02  0.7816164E-02  0.1312668E+00
        -11   -1    0    0    0    0  0.00000000000E+00  0.00000000000E+00  0.45593999997E+02  0.45594000000E+02  0.51100000000E-03 0. -1.
         11   -1    0    0    0    0 -0.00000000000E+00 -0.00000000000E+00 -0.45593999997E+02  0.45594000000E+02  0.51100000000E-03 0.  1.
    9900012    2    1    2    0    0 -0.18971828722E+02  0.32193623802E+02  0.22074044151E+02  0.47787272774E+02  0.20000007888E+02 0.  0.
        -12    1    1    2    0    0  0.18971828722E+02 -0.32193623802E+02 -0.22074044151E+02  0.43400727226E+02  0.00000000000E+00 0.  1.
         11    1    3    3    0    0 -0.15397023777E+01  0.75259370749E+01  0.13313118874E+01  0.77963327193E+01  0.51100000000E-03 0. -1.
        -11    1    3    3    0    0 -0.61610526912E+01  0.17966822136E+02  0.52741421805E+01  0.19712479396E+02  0.51100000000E-03 0.  1.
        -12    1    3    3    0    0 -0.11271073653E+02  0.67008645904E+01  0.15468590083E+02  0.20278460659E+02  0.00000000000E+00 0.  1.
</event>
<event>
 7    1  0.2950722E-010  0.4778728E+02  0.7816164E-02  0.1312668E+00
        -11   -1    0    0    0    0  0.00000000000E+00  0.00000000000E+00  0.45593999997E+02  0.45594000000E+02  0.51100000000E-03 0.  1.
         11   -1    0    0    0    0 -0.00000000000E+00 -0.00000000000E+00 -0.45593999997E+02  0.45594000000E+02  0.51100000000E-03 0. -1.
    9900012    2    1    2    0    0 -0.29285672214E+01 -0.28398156263E+01 -0.43208585162E+02  0.47787275461E+02  0.20000020139E+02 0.  0.
        -12    1    1    2    0    0  0.29285672214E+01  0.28398156263E+01  0.43208585162E+02  0.43400724539E+02  0.00000000000E+00 0.  1.
         11    1    3    3    0    0  0.36011449870E+01 -0.19973609763E+01 -0.43140137204E+01  0.59639257816E+01  0.51100000000E-03 0. -1.
        -11    1    3    3    0    0 -0.42109376357E+01 -0.64350067447E+01 -0.30616867543E+02  0.31567924955E+02  0.51100000000E-03 0.  1.
        -12    1    3    3    0    0 -0.23187745726E+01  0.55925520947E+01 -0.82777038989E+01  0.10255424725E+02  0.00000000000E+00 0.  1.
</event>
<event>
 7    1  0.2950722E-010  0.4778728E+02  0.7816164E-02  0.1312668E+00
        -11   -1    0    0    0    0  0.00000000000E+00  0.00000000000E+00  0.45593999997E+02  0.45594000000E+02  0.51100000000E-03 0.  1.
         11   -1    0    0    0    0 -0.00000000000E+00 -0.00000000000E+00 -0.45593999997E+02  0.45594000000E+02  0.51100000000E-03 0. -1.
    9900012    2    1    2    0    0 -0.42397125747E+02  0.86742252995E+01  0.32961292376E+01  0.47787275074E+02  0.20000018371E+02 0.  0.
        -12    1    1    2    0    0  0.42397125747E+02 -0.86742252995E+01 -0.32961292376E+01  0.43400724926E+02  0.00000000000E+00 0.  1.
         11    1    3    3    0    0 -0.15469307791E+02 -0.31890193853E+00  0.35575866079E+01  0.15876322141E+02  0.51100000000E-03 0. -1.
        -11    1    3    3    0    0 -0.74285810890E+01  0.98826395164E+01 -0.74211896719E+00  0.12385520644E+02  0.51100000000E-03 0.  1.
        -12    1    3    3    0    0 -0.19499236867E+02 -0.88951227832E+00  0.48066159695E+00  0.19525432289E+02  0.00000000000E+00 0.  1.
</event>
<event>
 7    1  0.2950722E-010  0.4778727E+02  0.7816164E-02  0.1312668E+00
        -11   -1    0    0    0    0  0.00000000000E+00  0.00000000000E+00  0.45593999997E+02  0.45594000000E+02  0.51100000000E-03 0.  1.
         11   -1    0    0    0    0 -0.00000000000E+00 -0.00000000000E+00 -0.45593999997E+02  0.45594000000E+02  0.51100000000E-03 0. -1.
    9900012    2    1    2    0    0  0.36399867356E+02 -0.22224061528E+02 -0.80475997752E+01  0.47787272857E+02  0.20000008265E+02 0.  0.
        -12    1    1    2    0    0 -0.36399867356E+02  0.22224061528E+02  0.80475997752E+01  0.43400727143E+02  0.00000000000E+00 0.  1.
         11    1    3    3    0    0  0.15379142341E+02 -0.91517889634E+01 -0.10735501635E+02  0.20869217906E+02  0.51100000000E-03 0. -1.
        -11    1    3    3    0    0  0.11521285466E+02 -0.35585649069E+01  0.53845664157E+01  0.13205944068E+02  0.51100000000E-03 0.  1.
        -12    1    3    3    0    0  0.94994395490E+01 -0.95137076580E+01 -0.26966645560E+01  0.13712110883E+02  0.00000000000E+00 0.  1.
</event>
<event>
 7    1  0.2950722E-010  0.4778727E+02  0.7816164E-02  0.1312668E+00
        -11   -1    0    0    0    0  0.00000000000E+00  0.00000000000E+00  0.45593999997E+02  0.45594000000E+02  0.51100000000E-03 0.  1.
         11   -1    0    0    0    0 -0.00000000000E+00 -0.00000000000E+00 -0.45593999997E+02  0.45594000000E+02  0.51100000000E-03 0. -1.
    9900012    2    1    2    0    0  0.16363850495E+02 -0.21830404594E+02 -0.33753233376E+02  0.47787274993E+02  0.20000018004E+02 0.  0.
        -12    1    1    2    0    0 -0.16363850495E+02  0.21830404594E+02  0.33753233376E+02  0.43400725007E+02  0.00000000000E+00 0.  1.
         11    1    3    3    0    0  0.85211144984E+01 -0.10185295021E+02 -0.15853760595E+02  0.20680699994E+02  0.51100000000E-03 0. -1.
        -11    1    3    3    0    0  0.48391592233E+00 -0.12669236408E+02 -0.91914457865E+01  0.15659706309E+02  0.51100000000E-03 0.  1.
        -12    1    3    3    0    0  0.73588200745E+01  0.10241268356E+01 -0.87080269947E+01  0.11446868690E+02  0.00000000000E+00 0.  1.
</event>
<event>
 7    1  0.2950722E-010  0.4778727E+02  0.7816164E-02  0.1312668E+00
        -11   -1    0    0    0    0  0.00000000000E+00  0.00000000000E+00  0.45593999997E+02  0.45594000000E+02  0.51100000000E-03 0.  1.
         11   -1    0    0    0    0 -0.00000000000E+00 -0.00000000000E+00 -0.45593999997E+02  0.45594000000E+02  0.51100000000E-03 0. -1.
    9900012    2    1    2    0    0 -0.11003955824E+02  0.55436572550E+01 -0.41614949067E+02  0.47787272294E+02  0.20000005698E+02 0.  0.
        -12    1    1    2    0    0  0.11003955824E+02 -0.55436572550E+01  0.41614949067E+02  0.43400727706E+02  0.00000000000E+00 0.  1.
         11    1    3    3    0    0 -0.59406173958E+01  0.18206680117E+01 -0.33418098284E+02  0.33990808467E+02  0.51100000000E-03 0. -1.
        -11    1    3    3    0    0 -0.51146959871E+01  0.49202080648E+00 -0.90919067706E+01  0.10443417472E+02  0.51100000000E-03 0.  1.
         12    1    3    3    0    0  0.51357559167E-01  0.32309684369E+01  0.89505598746E+00  0.33530463552E+01  0.00000000000E+00 0. -1.
</event>
<event>
 7    1  0.2950722E-010  0.4778727E+02  0.7816164E-02  0.1312668E+00
        -11   -1    0    0    0    0  0.00000000000E+00  0.00000000000E+00  0.45593999997E+02  0.45594000000E+02  0.51100000000E-03 0.  1.
         11   -1    0    0    0    0 -0.00000000000E+00 -0.00000000000E+00 -0.45593999997E+02  0.45594000000E+02  0.51100000000E-03 0. -1.
    9900012    2    1    2    0    0 -0.83903193984E+01 -0.39012766624E+02 -0.17065460952E+02  0.47787269859E+02  0.19999994594E+02 0.  0.
        -12    1    1    2    0    0  0.83903193984E+01  0.39012766624E+02  0.17065460952E+02  0.43400730141E+02  0.00000000000E+00 0.  1.
         11    1    3    3    0    0 -0.35299259969E+01 -0.76110280499E+01 -0.53340911736E+01  0.99418637302E+01  0.51100000000E-03 0. -1.
        -11    1    3    3    0    0 -0.10774881717E+02 -0.14622088511E+02 -0.66520961490E+01  0.19343059010E+02  0.51100000000E-03 0.  1.
        -12    1    3    3    0    0  0.59144883153E+01 -0.16779650064E+02 -0.50792736294E+01  0.18502347119E+02  0.00000000000E+00 0.  1.
</event>
<event>
 7    1  0.2950722E-010  0.4778727E+02  0.7816164E-02  0.1312668E+00
        -11   -1    0    0    0    0  0.00000000000E+00  0.00000000000E+00  0.45593999997E+02  0.45594000000E+02  0.51100000000E-03 0. -1.
         11   -1    0    0    0    0 -0.00000000000E+00 -0.00000000000E+00 -0.45593999997E+02  0.45594000000E+02  0.51100000000E-03 0.  1.
    9900012    2    1    2    0    0  0.20968600048E+01  0.76997921706E+01  0.42660755579E+02  0.47787266275E+02  0.19999978253E+02 0.  0.
        -12    1    1    2    0    0 -0.20968600048E+01 -0.76997921706E+01 -0.42660755579E+02  0.43400733725E+02  0.00000000000E+00 0.  1.
         11    1    3    3    0    0  0.95487763545E+01  0.24093089986E+01  0.14263441268E+02  0.17332906761E+02  0.51100000000E-03 0. -1.
        -11    1    3    3    0    0 -0.47375108525E+01 -0.13099171020E+00  0.96496208645E+01  0.10750644213E+02  0.51100000000E-03 0.  1.
         12    1    3    3    0    0 -0.27144054971E+01  0.54214748822E+01  0.18747693446E+02  0.19703715301E+02  0.00000000000E+00 0. -1.
</event>
<event>
 7    1  0.2950722E-010  0.4778727E+02  0.7816164E-02  0.1312668E+00
        -11   -1    0    0    0    0  0.00000000000E+00  0.00000000000E+00  0.45593999997E+02  0.45594000000E+02  0.51100000000E-03 0.  1.
         11   -1    0    0    0    0 -0.00000000000E+00 -0.00000000000E+00 -0.45593999997E+02  0.45594000000E+02  0.51100000000E-03 0. -1.
    9900012    2    1    2    0    0 -0.79851758110E+01 -0.18094155851E+02 -0.38632393949E+02  0.47787269927E+02  0.19999994904E+02 0.  0.
        -12    1    1    2    0    0  0.79851758110E+01  0.18094155851E+02  0.38632393949E+02  0.43400730073E+02  0.00000000000E+00 0.  1.
         11    1    3    3    0    0 -0.15385748517E+01  0.26411074765E+01 -0.16287006069E+02  0.16571337551E+02  0.51100000000E-03 0. -1.
        -11    1    3    3    0    0 -0.49811449973E+01 -0.16099834894E+02 -0.18431099034E+02  0.24974424938E+02  0.51100000000E-03 0.  1.
         12    1    3    3    0    0 -0.14654559620E+01 -0.46354284332E+01 -0.39142888455E+01  0.62415074382E+01  0.00000000000E+00 0. -1.
</event>
<event>
 7    1  0.2950722E-010  0.4778727E+02  0.7816164E-02  0.1312668E+00
        -11   -1    0    0    0    0  0.00000000000E+00  0.00000000000E+00  0.45593999997E+02  0.45594000000E+02  0.51100000000E-03 0.  1.
         11   -1    0    0    0    0 -0.00000000000E+00 -0.00000000000E+00 -0.45593999997E+02  0.45594000000E+02  0.51100000000E-03 0. -1.
    9900012    2    1    2    0    0  0.22686821268E+02 -0.27996377160E+02  0.24189546922E+02  0.47787272199E+02  0.20000005265E+02 0.  0.
        -12    1    1    2    0    0 -0.22686821268E+02  0.27996377160E+02 -0.24189546922E+02  0.43400727801E+02  0.00000000000E+00 0.  1.
         11    1    3    3    0    0  0.51660309686E+01 -0.12744771214E+02  0.53288216895E+01  0.14748335843E+02  0.51100000000E-03 0. -1.
        -11    1    3    3    0    0  0.12769137469E+02 -0.13613130579E+02  0.20526799637E+02  0.27743786682E+02  0.51100000000E-03 0.  1.
        -12    1    3    3    0    0  0.47516528304E+01 -0.16384753668E+01 -0.16660744047E+01  0.52951496740E+01  0.00000000000E+00 0.  1.
</event>
<event>
 7    1  0.2950722E-010  0.4778727E+02  0.7816164E-02  0.1312668E+00
        -11   -1    0    0    0    0  0.00000000000E+00  0.00000000000E+00  0.45593999997E+02  0.45594000000E+02  0.51100000000E-03 0.  1.
         11   -1    0    0    0    0 -0.00000000000E+00 -0.00000000000E+00 -0.45593999997E+02  0.45594000000E+02  0.51100000000E-03 0. -1.
    9900012    2    1    2    0    0 -0.25912599052E+02 -0.17450934723E+02 -0.30126823849E+02  0.47787269274E+02  0.19999991927E+02 0.  0.
        -12    1    1    2    0    0  0.25912599052E+02  0.17450934723E+02  0.30126823849E+02  0.43400730726E+02  0.00000000000E+00 0.  1.
         11    1    3    3    0    0 -0.11092941684E+02 -0.71707183922E+01 -0.10768211784E+02  0.17041917226E+02  0.51100000000E-03 0. -1.
        -11    1    3    3    0    0 -0.10205760768E+02 -0.14305734254E+02 -0.12586798646E+02  0.21615713864E+02  0.51100000000E-03 0.  1.
        -12    1    3    3    0    0 -0.46138965992E+01  0.40255179233E+01 -0.67718134194E+01  0.91296381837E+01  0.00000000000E+00 0.  1.
</event>
<event>
 7    1  0.2950722E-010  0.4778727E+02  0.7816164E-02  0.1312668E+00
        -11   -1    0    0    0    0  0.00000000000E+00  0.00000000000E+00  0.45593999997E+02  0.45594000000E+02  0.51100000000E-03 0.  1.
         11   -1    0    0    0    0 -0.00000000000E+00 -0.00000000000E+00 -0.45593999997E+02  0.45594000000E+02  0.51100000000E-03 0. -1.
    9900012    2    1    2    0    0 -0.73828730125E+01 -0.23362172892E+02 -0.35823530352E+02  0.47787271169E+02  0.20000000570E+02 0.  0.
        -12    1    1    2    0    0  0.73828730125E+01  0.23362172892E+02  0.35823530352E+02  0.43400728831E+02  0.00000000000E+00 0.  1.
         11    1    3    3    0    0  0.61119625675E+01 -0.97022229228E+01 -0.16094293798E+02  0.19761465259E+02  0.51100000000E-03 0. -1.
        -11    1    3    3    0    0 -0.79551998342E+01 -0.10894832061E+02 -0.15388720633E+02  0.20464488584E+02  0.51100000000E-03 0.  1.
         12    1    3    3    0    0 -0.55396357458E+01 -0.27651179076E+01 -0.43405159216E+01  0.75613173260E+01  0.00000000000E+00 0. -1.
</event>
<event>
 7    1  0.2950722E-010  0.4778727E+02  0.7816164E-02  0.1312668E+00
        -11   -1    0    0    0    0  0.00000000000E+00  0.00000000000E+00  0.45593999997E+02  0.45594000000E+02  0.51100000000E-03 0.  1.
         11   -1    0    0    0    0 -0.00000000000E+00 -0.00000000000E+00 -0.45593999997E+02  0.45594000000E+02  0.51100000000E-03 0. -1.
    9900012    2    1    2    0    0 -0.26145347489E+02  0.27153558450E+02  0.21511123990E+02  0.47787269739E+02  0.19999994049E+02 0.  0.
        -12    1    1    2    0    0  0.26145347489E+02 -0.27153558450E+02 -0.21511123990E+02  0.43400730261E+02  0.00000000000E+00 0.  1.
         11    1    3    3    0    0 -0.23956898083E+02  0.19898978132E+02  0.19191198465E+02  0.36581476122E+02  0.51100000000E-03 0. -1.
        -11    1    3    3    0    0  0.27045768625E+01  0.75470042189E+00  0.30617526985E+00  0.28245446162E+01  0.51100000000E-03 0.  1.
         12    1    3    3    0    0 -0.48930262685E+01  0.64998798960E+01  0.20137502552E+01  0.83812490010E+01  0.00000000000E+00 0. -1.
</event>
<event>
 7    1  0.2950722E-010  0.4778727E+02  0.7816164E-02  0.1312668E+00
        -11   -1    0    0    0    0  0.00000000000E+00  0.00000000000E+00  0.45593999997E+02  0.45594000000E+02  0.51100000000E-03 0. -1.
         11   -1    0    0    0    0 -0.00000000000E+00 -0.00000000000E+00 -0.45593999997E+02  0.45594000000E+02  0.51100000000E-03 0.  1.
    9900012    2    1    2    0    0  0.43245599366E+02  0.34189400118E+01  0.13236632482E+01  0.47787273050E+02  0.20000009145E+02 0.  0.
        -12    1    1    2    0    0 -0.43245599366E+02 -0.34189400118E+01 -0.13236632482E+01  0.43400726950E+02  0.00000000000E+00 0.  1.
         11    1    3    3    0    0  0.28513499921E+02 -0.19379298227E+01  0.39934677248E+01  0.28856940837E+02  0.51100000000E-03 0. -1.
        -11    1    3    3    0    0  0.12738653340E+02  0.44255978609E+01 -0.61430813306E+01  0.14818793940E+02  0.51100000000E-03 0.  1.
        -12    1    3    3    0    0  0.19934461047E+01  0.93127197362E+00  0.34732768539E+01  0.41115382724E+01  0.00000000000E+00 0.  1.
</event>
<event>
 7    1  0.2950722E-010  0.4778727E+02  0.7816164E-02  0.1312668E+00
        -11   -1    0    0    0    0  0.00000000000E+00  0.00000000000E+00  0.45593999997E+02  0.45594000000E+02  0.51100000000E-03 0. -1.
         11   -1    0    0    0    0 -0.00000000000E+00 -0.00000000000E+00 -0.45593999997E+02  0.45594000000E+02  0.51100000000E-03 0.  1.
    9900012    2    1    2    0    0 -0.36488127042E+02 -0.44738845860E+01 -0.23069988001E+02  0.47787269538E+02  0.19999993129E+02 0.  0.
        -12    1    1    2    0    0  0.36488127042E+02  0.44738845860E+01  0.23069988001E+02  0.43400730462E+02  0.00000000000E+00 0.  1.
         11    1    3    3    0    0 -0.10940777652E+02 -0.24504867072E+00 -0.28981383807E+01  0.11320771653E+02  0.51100000000E-03 0. -1.
        -11    1    3    3    0    0 -0.26161853308E+02 -0.20486117061E+00 -0.16159578371E+02  0.30750878199E+02  0.51100000000E-03 0.  1.
        -12    1    3    3    0    0  0.61450391848E+00 -0.40239747447E+01 -0.40122712495E+01  0.57156196856E+01  0.00000000000E+00 0.  1.
</event>
<event>
 7    1  0.2950722E-010  0.4778727E+02  0.7816164E-02  0.1312668E+00
        -11   -1    0    0    0    0  0.00000000000E+00  0.00000000000E+00  0.45593999997E+02  0.45594000000E+02  0.51100000000E-03 0.  1.
         11   -1    0    0    0    0 -0.00000000000E+00 -0.00000000000E+00 -0.45593999997E+02  0.45594000000E+02  0.51100000000E-03 0. -1.
    9900012    2    1    2    0    0 -0.42429033357E+02  0.86136574311E+00  0.90916700422E+01  0.47787270897E+02  0.19999999326E+02 0.  0.
        -12    1    1    2    0    0  0.42429033357E+02 -0.86136574311E+00 -0.90916700422E+01  0.43400729103E+02  0.00000000000E+00 0.  1.
         11    1    3    3    0    0 -0.12685421288E+02 -0.42301615721E+01  0.68726420834E+01  0.15034872452E+02  0.51100000000E-03 0. -1.
        -11    1    3    3    0    0 -0.18732370160E+02  0.91654064082E+01  0.25318390421E+01  0.21007536163E+02  0.51100000000E-03 0.  1.
        -12    1    3    3    0    0 -0.11011241909E+02 -0.40738790930E+01 -0.31281108328E+00  0.11744862282E+02  0.00000000000E+00 0.  1.
</event>
<event>
 7    1  0.2950722E-010  0.4778725E+02  0.7816164E-02  0.1312668E+00
        -11   -1    0    0    0    0  0.00000000000E+00  0.00000000000E+00  0.45593999997E+02  0.45594000000E+02  0.51100000000E-03 0.  1.
         11   -1    0    0    0    0 -0.00000000000E+00 -0.00000000000E+00 -0.45593999997E+02  0.45594000000E+02  0.51100000000E-03 0. -1.
    9900012    2    1    2    0    0  0.21873651363E+02  0.21899645355E+01 -0.37421547530E+02  0.47787253600E+02  0.19999920462E+02 0.  0.
        -12    1    1    2    0    0 -0.21873651363E+02 -0.21899645355E+01  0.37421547530E+02  0.43400746400E+02  0.00000000000E+00 0.  1.
         11    1    3    3    0    0  0.64248997612E+01  0.39890620003E+01 -0.19615357955E+02  0.21022707260E+02  0.51100000000E-03 0. -1.
        -11    1    3    3    0    0  0.62491046891E+01 -0.77634221537E+00  0.43194498888E+00  0.63119405404E+01  0.51100000000E-03 0.  1.
        -12    1    3    3    0    0  0.91996469124E+01 -0.10227552494E+01 -0.18238134564E+02  0.20452605799E+02  0.00000000000E+00 0.  1.
</event>
<event>
 7    1  0.2950722E-010  0.4778728E+02  0.7816164E-02  0.1312668E+00
        -11   -1    0    0    0    0  0.00000000000E+00  0.00000000000E+00  0.45593999997E+02  0.45594000000E+02  0.51100000000E-03 0.  1.
         11   -1    0    0    0    0 -0.00000000000E+00 -0.00000000000E+00 -0.45593999997E+02  0.45594000000E+02  0.51100000000E-03 0. -1.
    9900012    2    1    2    0    0 -0.23445286392E+02  0.36410900608E+02 -0.28614177568E+01  0.47787275943E+02  0.20000022333E+02 0.  0.
        -12    1    1    2    0    0  0.23445286392E+02 -0.36410900608E+02  0.28614177568E+01  0.43400724057E+02  0.00000000000E+00 0.  1.
         11    1    3    3    0    0 -0.16939638905E+02  0.27696253757E+02  0.41461088844E+01  0.32729559385E+02  0.51100000000E-03 0. -1.
        -11    1    3    3    0    0 -0.54045591775E+01  0.88172679716E+01 -0.83688685460E+01  0.13303812814E+02  0.51100000000E-03 0.  1.
        -12    1    3    3    0    0 -0.11010883100E+01 -0.10262112019E+00  0.13613419048E+01  0.17539037438E+01  0.00000000000E+00 0.  1.
</event>
<event>
 7    1  0.2950722E-010  0.4778727E+02  0.7816164E-02  0.1312668E+00
        -11   -1    0    0    0    0  0.00000000000E+00  0.00000000000E+00  0.45593999997E+02  0.45594000000E+02  0.51100000000E-03 0. -1.
         11   -1    0    0    0    0 -0.00000000000E+00 -0.00000000000E+00 -0.45593999997E+02  0.45594000000E+02  0.51100000000E-03 0.  1.
    9900012    2    1    2    0    0  0.41477343642E+02  0.68867944196E+01 -0.10762236898E+02  0.47787265950E+02  0.19999976774E+02 0.  0.
        -12    1    1    2    0    0 -0.41477343642E+02 -0.68867944196E+01  0.10762236898E+02  0.43400734050E+02  0.00000000000E+00 0.  1.
         11    1    3    3    0    0  0.23289046909E+02 -0.40510740480E+01 -0.11046014428E+02  0.26092246777E+02  0.51100000000E-03 0. -1.
        -11    1    3    3    0    0  0.37558850145E+00 -0.64331661474E-01 -0.63246203491E+00  0.73838592336E+00  0.51100000000E-03 0.  1.
         12    1    3    3    0    0  0.17812708232E+02  0.11002200129E+02  0.91623956493E+00  0.20956633250E+02  0.00000000000E+00 0. -1.
</event>
<event>
 7    1  0.2950722E-010  0.4778728E+02  0.7816164E-02  0.1312668E+00
        -11   -1    0    0    0    0  0.00000000000E+00  0.00000000000E+00  0.45593999997E+02  0.45594000000E+02  0.51100000000E-03 0. -1.
         11   -1    0    0    0    0 -0.00000000000E+00 -0.00000000000E+00 -0.45593999997E+02  0.45594000000E+02  0.51100000000E-03 0.  1.
    9900012    2    1    2    0    0 -0.41796921907E+02 -0.11123430018E+02  0.35929638160E+01  0.47787276904E+02  0.20000026715E+02 0.  0.
        -12    1    1    2    0    0  0.41796921907E+02  0.11123430018E+02 -0.35929638160E+01  0.43400723096E+02  0.00000000000E+00 0.  1.
         11    1    3    3    0    0 -0.26696919451E+02 -0.90731665679E+01 -0.44285779004E+01  0.28542252227E+02  0.51100000000E-03 0. -1.
        -11    1    3    3    0    0 -0.93047988480E+00  0.24367591693E+01  0.85866501821E+00  0.27460688155E+01  0.51100000000E-03 0.  1.
        -12    1    3    3    0    0 -0.14169522572E+02 -0.44870226195E+01  0.71628766983E+01  0.16498955861E+02  0.00000000000E+00 0.  1.
</event>
<event>
 7    1  0.2950722E-010  0.4778727E+02  0.7816164E-02  0.1312668E+00
        -11   -1    0    0    0    0  0.00000000000E+00  0.00000000000E+00  0.45593999997E+02  0.45594000000E+02  0.51100000000E-03 0.  1.
         11   -1    0    0    0    0 -0.00000000000E+00 -0.00000000000E+00 -0.45593999997E+02  0.45594000000E+02  0.51100000000E-03 0. -1.
    9900012    2    1    2    0    0 -0.16931597640E+02  0.26420597761E+02 -0.29981600810E+02  0.47787269916E+02  0.19999994856E+02 0.  0.
        -12    1    1    2    0    0  0.16931597640E+02 -0.26420597761E+02  0.29981600810E+02  0.43400730084E+02  0.00000000000E+00 0.  1.
         11    1    3    3    0    0 -0.61197459783E+00 -0.22812385377E+01 -0.26881795659E+00  0.23771465099E+01  0.51100000000E-03 0. -1.
        -11    1    3    3    0    0 -0.14481022951E+02  0.18434838221E+02 -0.16954736084E+02  0.28931062232E+02  0.51100000000E-03 0.  1.
        -12    1    3    3    0    0 -0.18386000917E+01  0.10266998078E+02 -0.12758046769E+02  0.16479061174E+02  0.00000000000E+00 0.  1.
</event>
<event>
 7    1  0.2950722E-010  0.4778727E+02  0.7816164E-02  0.1312668E+00
        -11   -1    0    0    0    0  0.00000000000E+00  0.00000000000E+00  0.45593999997E+02  0.45594000000E+02  0.51100000000E-03 0. -1.
         11   -1    0    0    0    0 -0.00000000000E+00 -0.00000000000E+00 -0.45593999997E+02  0.45594000000E+02  0.51100000000E-03 0.  1.
    9900012    2    1    2    0    0  0.10381272328E+02 -0.35670416521E+02  0.22438226209E+02  0.47787269299E+02  0.19999992042E+02 0.  0.
        -12    1    1    2    0    0 -0.10381272328E+02  0.35670416521E+02 -0.22438226209E+02  0.43400730701E+02  0.00000000000E+00 0.  1.
         11    1    3    3    0    0  0.22809952818E+01 -0.22810813530E+02  0.13109012934E+02  0.26407998291E+02  0.51100000000E-03 0. -1.
        -11    1    3    3    0    0  0.93742627408E+01 -0.52127147382E+01  0.82927970182E+01  0.13558011636E+02  0.51100000000E-03 0.  1.
        -12    1    3    3    0    0 -0.12739856942E+01 -0.76468882535E+01  0.10364162573E+01  0.78212593723E+01  0.00000000000E+00 0.  1.
</event>
<event>
 7    1  0.2950722E-010  0.4778727E+02  0.7816164E-02  0.1312668E+00
        -11   -1    0    0    0    0  0.00000000000E+00  0.00000000000E+00  0.45593999997E+02  0.45594000000E+02  0.51100000000E-03 0.  1.
         11   -1    0    0    0    0 -0.00000000000E+00 -0.00000000000E+00 -0.45593999997E+02  0.45594000000E+02  0.51100000000E-03 0. -1.
    9900012    2    1    2    0    0  0.13287848431E+02  0.16918133999E+02 -0.37693941323E+02  0.47787269748E+02  0.19999994091E+02 0.  0.
        -12    1    1    2    0    0 -0.13287848431E+02 -0.16918133999E+02  0.37693941323E+02  0.43400730252E+02  0.00000000000E+00 0.  1.
         11    1    3    3    0    0  0.25235669820E+01  0.60890158562E+01 -0.16864273067E+02  0.18106579212E+02  0.51100000000E-03 0. -1.
        -11    1    3    3    0    0 -0.27597609234E+01 -0.31072671142E+00 -0.46488560097E+00  0.28158391869E+01  0.51100000000E-03 0.  1.
        -12    1    3    3    0    0  0.13524042373E+02  0.11139844854E+02 -0.20364782654E+02  0.26864851350E+02  0.00000000000E+00 0.  1.
</event>
<event>
 7    1  0.2950722E-010  0.4778727E+02  0.7816164E-02  0.1312668E+00
        -11   -1    0    0    0    0  0.00000000000E+00  0.00000000000E+00  0.45593999997E+02  0.45594000000E+02  0.51100000000E-03 0.  1.
         11   -1    0    0    0    0 -0.00000000000E+00 -0.00000000000E+00 -0.45593999997E+02  0.45594000000E+02  0.51100000000E-03 0. -1.
    9900012    2    1    2    0    0 -0.28041024898E+02  0.18246023112E+02 -0.27647906772E+02  0.47787272061E+02  0.20000004635E+02 0.  0.
        -12    1    1    2    0    0  0.28041024898E+02 -0.18246023112E+02  0.27647906772E+02  0.43400727939E+02  0.00000000000E+00 0.  1.
         11    1    3    3    0    0 -0.14005905756E+02  0.14055300135E+02 -0.72175100944E+01  0.21114196886E+02  0.51100000000E-03 0.  1.
        -11    1    3    3    0    0 -0.87514269978E+01 -0.17493319019E+01 -0.13154854319E+02  0.15896472219E+02  0.51100000000E-03 0. -1.
         12    1    3    3    0    0 -0.52836921442E+01  0.59400548794E+01 -0.72755423590E+01  0.10776602956E+02  0.00000000000E+00 0. -1.
</event>
<event>
 7    1  0.2950722E-010  0.4778727E+02  0.7816164E-02  0.1312668E+00
        -11   -1    0    0    0    0  0.00000000000E+00  0.00000000000E+00  0.45593999997E+02  0.45594000000E+02  0.51100000000E-03 0.  1.
         11   -1    0    0    0    0 -0.00000000000E+00 -0.00000000000E+00 -0.45593999997E+02  0.45594000000E+02  0.51100000000E-03 0. -1.
    9900012    2    1    2    0    0  0.66802579126E+01 -0.30427047827E+02 -0.30219073448E+02  0.47787268608E+02  0.19999988893E+02 0.  0.
        -12    1    1    2    0    0 -0.66802579126E+01  0.30427047827E+02  0.30219073448E+02  0.43400731392E+02  0.00000000000E+00 0.  1.
         11    1    3    3    0    0 -0.46283603515E+01 -0.14677383147E+02 -0.76903501435E+01  0.17204324490E+02  0.51100000000E-03 0.  1.
        -11    1    3    3    0    0  0.10573602491E+02 -0.16202376840E+02 -0.19643938367E+02  0.27571768165E+02  0.51100000000E-03 0. -1.
         12    1    3    3    0    0  0.73501577278E+00  0.45271215921E+00 -0.28847849376E+01  0.30111759533E+01  0.00000000000E+00 0. -1.
</event>
<event>
 7    1  0.2950722E-010  0.4778727E+02  0.7816164E-02  0.1312668E+00
        -11   -1    0    0    0    0  0.00000000000E+00  0.00000000000E+00  0.45593999997E+02  0.45594000000E+02  0.51100000000E-03 0.  1.
         11   -1    0    0    0    0 -0.00000000000E+00 -0.00000000000E+00 -0.45593999997E+02  0.45594000000E+02  0.51100000000E-03 0. -1.
    9900012    2    1    2    0    0 -0.27621548612E+02 -0.24795792836E+02 -0.22490931278E+02  0.47787270976E+02  0.19999999687E+02 0.  0.
        -12    1    1    2    0    0  0.27621548612E+02  0.24795792836E+02  0.22490931278E+02  0.43400729024E+02  0.00000000000E+00 0.  1.
         11    1    3    3    0    0 -0.67642413288E+01 -0.14689404544E+02 -0.14109808976E+02  0.21462065982E+02  0.51100000000E-03 0. -1.
        -11    1    3    3    0    0 -0.76609768418E+01 -0.76335025137E+01 -0.65458898374E+00  0.10834639532E+02  0.51100000000E-03 0.  1.
         12    1    3    3    0    0 -0.13196330442E+02 -0.24728857781E+01 -0.77265333178E+01  0.15490565461E+02  0.00000000000E+00 0. -1.
</event>
<event>
 7    1  0.2950722E-010  0.4778727E+02  0.7816164E-02  0.1312668E+00
        -11   -1    0    0    0    0  0.00000000000E+00  0.00000000000E+00  0.45593999997E+02  0.45594000000E+02  0.51100000000E-03 0. -1.
         11   -1    0    0    0    0 -0.00000000000E+00 -0.00000000000E+00 -0.45593999997E+02  0.45594000000E+02  0.51100000000E-03 0.  1.
    9900012    2    1    2    0    0  0.41618502119E+01  0.39518225532E+02  0.17453143415E+02  0.47787270035E+02  0.19999995398E+02 0.  0.
        -12    1    1    2    0    0 -0.41618502119E+01 -0.39518225532E+02 -0.17453143415E+02  0.43400729965E+02  0.00000000000E+00 0.  1.
         11    1    3    3    0    0 -0.26359403891E+01  0.12286652560E+02  0.81204929710E+00  0.12592435713E+02  0.51100000000E-03 0. -1.
        -11    1    3    3    0    0  0.61029917830E+01  0.30624885914E+01  0.39214592942E+01  0.78742103307E+01  0.51100000000E-03 0.  1.
        -12    1    3    3    0    0  0.69479881802E+00  0.24169084381E+02  0.12719634824E+02  0.27320623991E+02  0.00000000000E+00 0.  1.
</event>
<event>
 7    1  0.2950722E-010  0.4778727E+02  0.7816164E-02  0.1312668E+00
        -11   -1    0    0    0    0  0.00000000000E+00  0.00000000000E+00  0.45593999997E+02  0.45594000000E+02  0.51100000000E-03 0. -1.
         11   -1    0    0    0    0 -0.00000000000E+00 -0.00000000000E+00 -0.45593999997E+02  0.45594000000E+02  0.51100000000E-03 0.  1.
    9900012    2    1    2    0    0 -0.40057731419E+02  0.13547576079E+02 -0.97706050094E+01  0.47787269749E+02  0.19999994092E+02 0.  0.
        -12    1    1    2    0    0  0.40057731419E+02 -0.13547576079E+02  0.97706050094E+01  0.43400730251E+02  0.00000000000E+00 0.  1.
         11    1    3    3    0    0 -0.10622060649E+02  0.94506306993E+00  0.29498249710E+01  0.11064483009E+02  0.51100000000E-03 0. -1.
        -11    1    3    3    0    0 -0.28453842644E+02  0.14235437375E+02 -0.13628364464E+02  0.34612153309E+02  0.51100000000E-03 0.  1.
        -12    1    3    3    0    0 -0.98182812723E+00 -0.16329243654E+01  0.90793448354E+00  0.21106334312E+01  0.00000000000E+00 0.  1.
</event>
<event>
 7    1  0.2950722E-010  0.4778728E+02  0.7816164E-02  0.1312668E+00
        -11   -1    0    0    0    0  0.00000000000E+00  0.00000000000E+00  0.45593999997E+02  0.45594000000E+02  0.51100000000E-03 0.  1.
         11   -1    0    0    0    0 -0.00000000000E+00 -0.00000000000E+00 -0.45593999997E+02  0.45594000000E+02  0.51100000000E-03 0. -1.
    9900012    2    1    2    0    0 -0.29517956921E+02  0.30478957004E+02  0.91294123614E+01  0.47787276839E+02  0.20000026421E+02 0.  0.
        -12    1    1    2    0    0  0.29517956921E+02 -0.30478957004E+02 -0.91294123614E+01  0.43400723161E+02  0.00000000000E+00 0.  1.
         11    1    3    3    0    0 -0.19090299867E+02  0.21850325044E+02  0.94027163556E+01  0.30500611939E+02  0.51100000000E-03 0. -1.
        -11    1    3    3    0    0 -0.57356519117E+01  0.45117948270E+01 -0.55058353844E+01  0.91415654542E+01  0.51100000000E-03 0.  1.
        -12    1    3    3    0    0 -0.46920051416E+01  0.41168371332E+01  0.52325313903E+01  0.81450994457E+01  0.00000000000E+00 0.  1.
</event>
<event>
 7    1  0.2950722E-010  0.4778727E+02  0.7816164E-02  0.1312668E+00
        -11   -1    0    0    0    0  0.00000000000E+00  0.00000000000E+00  0.45593999997E+02  0.45594000000E+02  0.51100000000E-03 0.  1.
         11   -1    0    0    0    0 -0.00000000000E+00 -0.00000000000E+00 -0.45593999997E+02  0.45594000000E+02  0.51100000000E-03 0. -1.
    9900012    2    1    2    0    0  0.12175406683E+02  0.38723258297E+02 -0.15358774553E+02  0.47787271702E+02  0.20000002999E+02 0.  0.
        -12    1    1    2    0    0 -0.12175406683E+02 -0.38723258297E+02  0.15358774553E+02  0.43400728298E+02  0.00000000000E+00 0.  1.
         11    1    3    3    0    0  0.57052066710E+01  0.48992095663E+01 -0.98653359383E+01  0.12404696327E+02  0.51100000000E-03 0. -1.
        -11    1    3    3    0    0  0.56571084656E+01  0.14155357634E+02 -0.17462085694E+01  0.15343606830E+02  0.51100000000E-03 0.  1.
         12    1    3    3    0    0  0.81309154611E+00  0.19668691097E+02 -0.37472300453E+01  0.20038968545E+02  0.00000000000E+00 0. -1.
</event>
<event>
 7    1  0.2950722E-010  0.4778727E+02  0.7816164E-02  0.1312668E+00
        -11   -1    0    0    0    0  0.00000000000E+00  0.00000000000E+00  0.45593999997E+02  0.45594000000E+02  0.51100000000E-03 0.  1.
         11   -1    0    0    0    0 -0.00000000000E+00 -0.00000000000E+00 -0.45593999997E+02  0.45594000000E+02  0.51100000000E-03 0. -1.
    9900012    2    1    2    0    0  0.52261123510E+01 -0.40458806008E+02 -0.14812023948E+02  0.47787270889E+02  0.19999999292E+02 0.  0.
        -12    1    1    2    0    0 -0.52261123510E+01  0.40458806008E+02  0.14812023948E+02  0.43400729111E+02  0.00000000000E+00 0.  1.
         11    1    3    3    0    0  0.64737898405E+01 -0.23931122089E+02 -0.10551143963E+02  0.26943184640E+02  0.51100000000E-03 0. -1.
        -11    1    3    3    0    0 -0.37044157527E+01 -0.44195123966E+01 -0.60526015389E+01  0.83599504510E+01  0.51100000000E-03 0.  1.
        -12    1    3    3    0    0  0.24567382631E+01 -0.12108171522E+02  0.17917215537E+01  0.12484135798E+02  0.00000000000E+00 0.  1.
</event>
<event>
 7    1  0.2950722E-010  0.4778728E+02  0.7816164E-02  0.1312668E+00
        -11   -1    0    0    0    0  0.00000000000E+00  0.00000000000E+00  0.45593999997E+02  0.45594000000E+02  0.51100000000E-03 0.  1.
         11   -1    0    0    0    0 -0.00000000000E+00 -0.00000000000E+00 -0.45593999997E+02  0.45594000000E+02  0.51100000000E-03 0. -1.
    9900012    2    1    2    0    0  0.30320237818E+02  0.17131006494E+02 -0.25900476630E+02  0.47787275415E+02  0.20000019926E+02 0.  0.
        -12    1    1    2    0    0 -0.30320237818E+02 -0.17131006494E+02  0.25900476630E+02  0.43400724585E+02  0.00000000000E+00 0.  1.
         11    1    3    3    0    0  0.25922506988E+02  0.14564734737E+02 -0.12967283358E+02  0.32438531170E+02  0.51100000000E-03 0. -1.
        -11    1    3    3    0    0  0.13763486856E+01 -0.17666776461E+00 -0.10513229900E+02  0.10604411836E+02  0.51100000000E-03 0.  1.
        -12    1    3    3    0    0  0.30213821446E+01  0.27429395215E+01 -0.24199633723E+01  0.47443324088E+01  0.00000000000E+00 0.  1.
</event>
<event>
 7    1  0.2950722E-010  0.4778727E+02  0.7816164E-02  0.1312668E+00
        -11   -1    0    0    0    0  0.00000000000E+00  0.00000000000E+00  0.45593999997E+02  0.45594000000E+02  0.51100000000E-03 0.  1.
         11   -1    0    0    0    0 -0.00000000000E+00 -0.00000000000E+00 -0.45593999997E+02  0.45594000000E+02  0.51100000000E-03 0. -1.
    9900012    2    1    2    0    0 -0.84405677272E+01  0.36185007275E+02 -0.22428221992E+02  0.47787273315E+02  0.20000010351E+02 0.  0.
        -12    1    1    2    0    0  0.84405677272E+01 -0.36185007275E+02  0.22428221992E+02  0.43400726685E+02  0.00000000000E+00 0.  1.
         11    1    3    3    0    0 -0.25497065571E+01  0.16414677372E+02 -0.44709836192E+01  0.17202683847E+02  0.51100000000E-03 0. -1.
        -11    1    3    3    0    0  0.26774115822E+01 -0.87615809169E-01 -0.41030404221E+01  0.49001173738E+01  0.51100000000E-03 0.  1.
        -12    1    3    3    0    0 -0.85682727523E+01  0.19857945713E+02 -0.13854197951E+02  0.25684472094E+02  0.00000000000E+00 0.  1.
</event>
<event>
 7    1  0.2950722E-010  0.4778728E+02  0.7816164E-02  0.1312668E+00
        -11   -1    0    0    0    0  0.00000000000E+00  0.00000000000E+00  0.45593999997E+02  0.45594000000E+02  0.51100000000E-03 0.  1.
         11   -1    0    0    0    0 -0.00000000000E+00 -0.00000000000E+00 -0.45593999997E+02  0.45594000000E+02  0.51100000000E-03 0. -1.
    9900012    2    1    2    0    0  0.22360555667E+02  0.21966200102E+01 -0.37132235282E+02  0.47787280119E+02  0.20000041372E+02 0.  0.
        -12    1    1    2    0    0 -0.22360555667E+02 -0.21966200102E+01  0.37132235282E+02  0.43400719881E+02  0.00000000000E+00 0.  1.
         11    1    3    3    0    0  0.89181312547E+01  0.29157516763E+01 -0.34289437788E+01  0.99896110341E+01  0.51100000000E-03 0. -1.
        -11    1    3    3    0    0  0.24894913597E-01 -0.17881535068E+01 -0.12875392971E+02  0.12998994467E+02  0.51100000000E-03 0.  1.
        -12    1    3    3    0    0  0.13417529499E+02  0.10690218407E+01 -0.20827898532E+02  0.24798674618E+02  0.00000000000E+00 0.  1.
</event>
<event>
 7    1  0.2950722E-010  0.4778727E+02  0.7816164E-02  0.1312668E+00
        -11   -1    0    0    0    0  0.00000000000E+00  0.00000000000E+00  0.45593999997E+02  0.45594000000E+02  0.51100000000E-03 0. -1.
         11   -1    0    0    0    0 -0.00000000000E+00 -0.00000000000E+00 -0.45593999997E+02  0.45594000000E+02  0.51100000000E-03 0.  1.
    9900012    2    1    2    0    0 -0.20483676411E+02  0.33279138454E+02  0.18882300006E+02  0.47787270639E+02  0.19999998153E+02 0.  0.
        -12    1    1    2    0    0  0.20483676411E+02 -0.33279138454E+02 -0.18882300006E+02  0.43400729361E+02  0.00000000000E+00 0.  1.
         11    1    3    3    0    0  0.29220082164E+01  0.50483961656E+01  0.44306147744E+00  0.58498495361E+01  0.51100000000E-03 0.  1.
        -11    1    3    3    0    0 -0.15625624793E+02  0.24397134588E+02  0.14772955095E+02  0.32521078223E+02  0.51100000000E-03 0. -1.
        -12    1    3    3    0    0 -0.77800598345E+01  0.38336077001E+01  0.36662834339E+01  0.94163428805E+01  0.00000000000E+00 0.  1.
</event>
<event>
 7    1  0.2950722E-010  0.4778727E+02  0.7816164E-02  0.1312668E+00
        -11   -1    0    0    0    0  0.00000000000E+00  0.00000000000E+00  0.45593999997E+02  0.45594000000E+02  0.51100000000E-03 0.  1.
         11   -1    0    0    0    0 -0.00000000000E+00 -0.00000000000E+00 -0.45593999997E+02  0.45594000000E+02  0.51100000000E-03 0. -1.
    9900012    2    1    2    0    0 -0.26506795054E+02 -0.47874507949E+01 -0.34030769648E+02  0.47787272449E+02  0.20000006402E+02 0.  0.
        -12    1    1    2    0    0  0.26506795054E+02  0.47874507949E+01  0.34030769648E+02  0.43400727551E+02  0.00000000000E+00 0.  1.
         11    1    3    3    0    0 -0.10407775471E+02  0.40525839661E+01 -0.21402523715E+02  0.24141525401E+02  0.51100000000E-03 0. -1.
        -11    1    3    3    0    0 -0.46194817637E+01 -0.69282585371E+01 -0.46698570468E+01  0.95471431968E+01  0.51100000000E-03 0.  1.
        -12    1    3    3    0    0 -0.11479537819E+02 -0.19117762239E+01 -0.79583888869E+01  0.14098603851E+02  0.00000000000E+00 0.  1.
</event>
<event>
 7    1  0.2950722E-010  0.4778727E+02  0.7816164E-02  0.1312668E+00
        -11   -1    0    0    0    0  0.00000000000E+00  0.00000000000E+00  0.45593999997E+02  0.45594000000E+02  0.51100000000E-03 0.  1.
         11   -1    0    0    0    0 -0.00000000000E+00 -0.00000000000E+00 -0.45593999997E+02  0.45594000000E+02  0.51100000000E-03 0. -1.
    9900012    2    1    2    0    0  0.32616612806E+02  0.23442344809E+02 -0.16438859294E+02  0.47787273555E+02  0.20000011447E+02 0.  0.
        -12    1    1    2    0    0 -0.32616612806E+02 -0.23442344809E+02  0.16438859294E+02  0.43400726445E+02  0.00000000000E+00 0.  1.
         11    1    3    3    0    0  0.25050345073E+02  0.20535367881E+02 -0.15696813878E+02  0.35994598045E+02  0.51100000000E-03 0. -1.
        -11    1    3    3    0    0 -0.17573349101E+01 -0.46590018894E+00 -0.45252636254E+00  0.18735179055E+01  0.51100000000E-03 0.  1.
        -12    1    3    3    0    0  0.93236026434E+01  0.33728771174E+01 -0.28951905312E+00  0.99191576046E+01  0.00000000000E+00 0.  1.
</event>
<event>
 7    1  0.2950722E-010  0.4778727E+02  0.7816164E-02  0.1312668E+00
        -11   -1    0    0    0    0  0.00000000000E+00  0.00000000000E+00  0.45593999997E+02  0.45594000000E+02  0.51100000000E-03 0.  1.
         11   -1    0    0    0    0 -0.00000000000E+00 -0.00000000000E+00 -0.45593999997E+02  0.45594000000E+02  0.51100000000E-03 0. -1.
    9900012    2    1    2    0    0  0.16302163949E+02  0.87126368846E+01 -0.39267706099E+02  0.47787270361E+02  0.19999996883E+02 0.  0.
        -12    1    1    2    0    0 -0.16302163949E+02 -0.87126368846E+01  0.39267706099E+02  0.43400729639E+02  0.00000000000E+00 0.  1.
         11    1    3    3    0    0  0.81619733406E+00  0.57894271878E+01 -0.19924924548E+02  0.20765025012E+02  0.51100000000E-03 0. -1.
        -11    1    3    3    0    0  0.16956859150E+02  0.27148103426E+01 -0.16501676720E+02  0.23816183621E+02  0.51100000000E-03 0.  1.
        -12    1    3    3    0    0 -0.14708925351E+01  0.20839935420E+00 -0.28411048312E+01  0.32060617278E+01  0.00000000000E+00 0.  1.
</event>
<event>
 7    1  0.2950722E-010  0.4778726E+02  0.7816164E-02  0.1312668E+00
        -11   -1    0    0    0    0  0.00000000000E+00  0.00000000000E+00  0.45593999997E+02  0.45594000000E+02  0.51100000000E-03 0. -1.
         11   -1    0    0    0    0 -0.00000000000E+00 -0.00000000000E+00 -0.45593999997E+02  0.45594000000E+02  0.51100000000E-03 0.  1.
    9900012    2    1    2    0    0  0.21205038952E+02 -0.18612746333E+02  0.32977818526E+02  0.47787256715E+02  0.19999934665E+02 0.  0.
        -12    1    1    2    0    0 -0.21205038952E+02  0.18612746333E+02 -0.32977818526E+02  0.43400743285E+02  0.00000000000E+00 0.  1.
         11    1    3    3    0    0  0.25272711503E+01  0.30419711750E+01  0.25675084676E+00  0.39631564889E+01  0.51100000000E-03 0. -1.
        -11    1    3    3    0    0  0.24439309060E+01 -0.85493464009E+00  0.44871957904E+01  0.51806020726E+01  0.51100000000E-03 0.  1.
         12    1    3    3    0    0  0.16233836895E+02 -0.20799782868E+02  0.28233871889E+02  0.38643498153E+02  0.00000000000E+00 0. -1.
</event>
<event>
 7    1  0.2950722E-010  0.4778725E+02  0.7816164E-02  0.1312668E+00
        -11   -1    0    0    0    0  0.00000000000E+00  0.00000000000E+00  0.45593999997E+02  0.45594000000E+02  0.51100000000E-03 0.  1.
         11   -1    0    0    0    0 -0.00000000000E+00 -0.00000000000E+00 -0.45593999997E+02  0.45594000000E+02  0.51100000000E-03 0. -1.
    9900012    2    1    2    0    0 -0.36881685446E+02  0.80416922902E+01 -0.21417220022E+02  0.47787252890E+02  0.19999917227E+02 0.  0.
        -12    1    1    2    0    0  0.36881685446E+02 -0.80416922902E+01  0.21417220022E+02  0.43400747110E+02  0.00000000000E+00 0.  1.
         11    1    3    3    0    0 -0.17095365314E+02  0.49014574960E+01 -0.25663877607E+01  0.17968365179E+02  0.51100000000E-03 0.  1.
        -11    1    3    3    0    0 -0.71451707116E+01  0.12527154371E+01 -0.14679592981E+02  0.16374162904E+02  0.51100000000E-03 0. -1.
        -12    1    3    3    0    0 -0.12641149420E+02  0.18875193571E+01 -0.41712392799E+01  0.13444724807E+02  0.00000000000E+00 0.  1.
</event>
<event>
 7    1  0.2950722E-010  0.4778725E+02  0.7816164E-02  0.1312668E+00
        -11   -1    0    0    0    0  0.00000000000E+00  0.00000000000E+00  0.45593999997E+02  0.45594000000E+02  0.51100000000E-03 0. -1.
         11   -1    0    0    0    0 -0.00000000000E+00 -0.00000000000E+00 -0.45593999997E+02  0.45594000000E+02  0.51100000000E-03 0.  1.
    9900012    2    1    2    0    0 -0.42668105837E+02 -0.57741807834E+01 -0.54512613005E+01  0.47787254969E+02  0.19999926707E+02 0.  0.
        -12    1    1    2    0    0  0.42668105837E+02  0.57741807834E+01  0.54512613005E+01  0.43400745031E+02  0.00000000000E+00 0.  1.
         11    1    3    3    0    0 -0.13802520747E+02  0.15151815821E+01 -0.78411919192E+01  0.15946461839E+02  0.51100000000E-03 0. -1.
        -11    1    3    3    0    0 -0.28000108245E+02 -0.70009263510E+01 -0.44209911491E+00  0.28865454845E+02  0.51100000000E-03 0.  1.
        -12    1    3    3    0    0 -0.86547684484E+00 -0.28843601450E+00  0.28320297335E+01  0.29753382858E+01  0.00000000000E+00 0.  1.
</event>
<event>
 7    1  0.2950722E-010  0.4778727E+02  0.7816164E-02  0.1312668E+00
        -11   -1    0    0    0    0  0.00000000000E+00  0.00000000000E+00  0.45593999997E+02  0.45594000000E+02  0.51100000000E-03 0.  1.
         11   -1    0    0    0    0 -0.00000000000E+00 -0.00000000000E+00 -0.45593999997E+02  0.45594000000E+02  0.51100000000E-03 0. -1.
    9900012    2    1    2    0    0  0.40893517638E+02 -0.47911363649E+01  0.13725457039E+02  0.47787274852E+02  0.20000017358E+02 0.  0.
        -12    1    1    2    0    0 -0.40893517638E+02  0.47911363649E+01 -0.13725457039E+02  0.43400725148E+02  0.00000000000E+00 0.  1.
         11    1    3    3    0    0  0.32267350966E+02 -0.92975330039E+01  0.12418396943E+02  0.35802830072E+02  0.51100000000E-03 0. -1.
        -11    1    3    3    0    0  0.59688420011E+01  0.57529812245E+01  0.27227742516E+01  0.87256729075E+01  0.51100000000E-03 0.  1.
         12    1    3    3    0    0  0.26573246716E+01 -0.12465845855E+01 -0.14157141562E+01  0.32587718717E+01  0.00000000000E+00 0. -1.
</event>
<event>
 7    1  0.2950722E-010  0.4778727E+02  0.7816164E-02  0.1312668E+00
        -11   -1    0    0    0    0  0.00000000000E+00  0.00000000000E+00  0.45593999997E+02  0.45594000000E+02  0.51100000000E-03 0. -1.
         11   -1    0    0    0    0 -0.00000000000E+00 -0.00000000000E+00 -0.45593999997E+02  0.45594000000E+02  0.51100000000E-03 0.  1.
    9900012    2    1    2    0    0 -0.16181809275E+02 -0.15932478425E+02  0.36985514835E+02  0.47787272727E+02  0.20000007672E+02 0.  0.
        -12    1    1    2    0    0  0.16181809275E+02  0.15932478425E+02 -0.36985514835E+02  0.43400727273E+02  0.00000000000E+00 0.  1.
         11    1    3    3    0    0 -0.17899366132E+02 -0.11941127796E+02  0.33297174228E+02  0.39644415153E+02  0.51100000000E-03 0. -1.
        -11    1    3    3    0    0  0.20364686786E+01 -0.26006642883E+01 -0.82898439082E+00  0.34055652689E+01  0.51100000000E-03 0.  1.
        -12    1    3    3    0    0 -0.31891182193E+00 -0.13906863404E+01  0.45173249981E+01  0.47372923053E+01  0.00000000000E+00 0.  1.
</event>
<event>
 7    1  0.2950722E-010  0.4778727E+02  0.7816164E-02  0.1312668E+00
        -11   -1    0    0    0    0  0.00000000000E+00  0.00000000000E+00  0.45593999997E+02  0.45594000000E+02  0.51100000000E-03 0.  1.
         11   -1    0    0    0    0 -0.00000000000E+00 -0.00000000000E+00 -0.45593999997E+02  0.45594000000E+02  0.51100000000E-03 0. -1.
    9900012    2    1    2    0    0  0.90978421734E+01 -0.38217174654E+02 -0.18447229377E+02  0.47787269102E+02  0.19999991144E+02 0.  0.
        -12    1    1    2    0    0 -0.90978421734E+01  0.38217174654E+02  0.18447229377E+02  0.43400730898E+02  0.00000000000E+00 0.  1.
         11    1    3    3    0    0  0.38337622948E+00 -0.28118528036E+02 -0.98963228975E+01  0.29811672268E+02  0.51100000000E-03 0. -1.
        -11    1    3    3    0    0  0.50566698207E+01 -0.43869983930E+01  0.44512419859E+00  0.67092324739E+01  0.51100000000E-03 0.  1.
         12    1    3    3    0    0  0.36577961232E+01 -0.57116482251E+01 -0.89960306785E+01  0.11266364360E+02  0.00000000000E+00 0. -1.
</event>
<event>
 7    1  0.2950722E-010  0.4778727E+02  0.7816164E-02  0.1312668E+00
        -11   -1    0    0    0    0  0.00000000000E+00  0.00000000000E+00  0.45593999997E+02  0.45594000000E+02  0.51100000000E-03 0.  1.
         11   -1    0    0    0    0 -0.00000000000E+00 -0.00000000000E+00 -0.45593999997E+02  0.45594000000E+02  0.51100000000E-03 0. -1.
    9900012    2    1    2    0    0  0.46129221924E+01  0.31233050186E+02 -0.29779868899E+02  0.47787273431E+02  0.20000010881E+02 0.  0.
        -12    1    1    2    0    0 -0.46129221924E+01 -0.31233050186E+02  0.29779868899E+02  0.43400726569E+02  0.00000000000E+00 0.  1.
         11    1    3    3    0    0 -0.46840518539E+01  0.15352641682E+02 -0.15212609886E+02  0.22114869391E+02  0.51100000000E-03 0. -1.
        -11    1    3    3    0    0 -0.21516846252E+01  0.26580265804E+01 -0.10808424877E+01  0.35865126199E+01  0.51100000000E-03 0.  1.
         12    1    3    3    0    0  0.11448658671E+02  0.13222381924E+02 -0.13486416525E+02  0.22085891420E+02  0.00000000000E+00 0. -1.
</event>
<event>
 7    1  0.2950722E-010  0.4778724E+02  0.7816164E-02  0.1312668E+00
        -11   -1    0    0    0    0  0.00000000000E+00  0.00000000000E+00  0.45593999997E+02  0.45594000000E+02  0.51100000000E-03 0. -1.
         11   -1    0    0    0    0 -0.00000000000E+00 -0.00000000000E+00 -0.45593999997E+02  0.45594000000E+02  0.51100000000E-03 0.  1.
    9900012    2    1    2    0    0 -0.37188761261E+02  0.12401051449E+02  0.18623525100E+02  0.47787242768E+02  0.19999871077E+02 0.  0.
        -12    1    1    2    0    0  0.37188761261E+02 -0.12401051449E+02 -0.18623525100E+02  0.43400757232E+02  0.00000000000E+00 0.  1.
         11    1    3    3    0    0 -0.12821273146E+02  0.12329356727E+02  0.64881758153E+01  0.18933951201E+02  0.51100000000E-03 0. -1.
        -11    1    3    3    0    0 -0.54032660473E+01 -0.36838636007E+01  0.12208452076E+01  0.66525632871E+01  0.51100000000E-03 0.  1.
         12    1    3    3    0    0 -0.18964222067E+02  0.37555583224E+01  0.10914504078E+02  0.22200728281E+02  0.00000000000E+00 0. -1.
</event>
<event>
 7    1  0.2950722E-010  0.4778727E+02  0.7816164E-02  0.1312668E+00
        -11   -1    0    0    0    0  0.00000000000E+00  0.00000000000E+00  0.45593999997E+02  0.45594000000E+02  0.51100000000E-03 0.  1.
         11   -1    0    0    0    0 -0.00000000000E+00 -0.00000000000E+00 -0.45593999997E+02  0.45594000000E+02  0.51100000000E-03 0. -1.
    9900012    2    1    2    0    0  0.22089616326E+02  0.19265588298E+02 -0.32007960173E+02  0.47787267790E+02  0.19999985163E+02 0.  0.
        -12    1    1    2    0    0 -0.22089616326E+02 -0.19265588298E+02  0.32007960173E+02  0.43400732210E+02  0.00000000000E+00 0.  1.
         11    1    3    3    0    0  0.83805105079E+01  0.13073964779E+02 -0.15882964943E+02  0.22213286273E+02  0.51100000000E-03 0. -1.
        -11    1    3    3    0    0  0.11160278368E+02  0.10719413189E+01 -0.35511224717E+01  0.11760584276E+02  0.51100000000E-03 0.  1.
        -12    1    3    3    0    0  0.25488274507E+01  0.51196821997E+01 -0.12573872759E+02  0.13813397241E+02  0.00000000000E+00 0.  1.
</event>
<event>
 7    1  0.2950722E-010  0.4778727E+02  0.7816164E-02  0.1312668E+00
        -11   -1    0    0    0    0  0.00000000000E+00  0.00000000000E+00  0.45593999997E+02  0.45594000000E+02  0.51100000000E-03 0. -1.
         11   -1    0    0    0    0 -0.00000000000E+00 -0.00000000000E+00 -0.45593999997E+02  0.45594000000E+02  0.51100000000E-03 0.  1.
    9900012    2    1    2    0    0  0.60195241572E+00 -0.21592954997E+02  0.37643132450E+02  0.47787268752E+02  0.19999989546E+02 0.  0.
        -12    1    1    2    0    0 -0.60195241572E+00  0.21592954997E+02 -0.37643132450E+02  0.43400731248E+02  0.00000000000E+00 0.  1.
         11    1    3    3    0    0  0.61673017446E+01 -0.15539737972E+02  0.18897871966E+02  0.25231897117E+02  0.51100000000E-03 0. -1.
        -11    1    3    3    0    0 -0.70664246576E+01 -0.46340352845E+01  0.18664161795E+02  0.20488034953E+02  0.51100000000E-03 0.  1.
        -12    1    3    3    0    0  0.15010753287E+01 -0.14191817409E+01  0.81098689418E-01  0.20673366812E+01  0.00000000000E+00 0.  1.
</event>
<event>
 7    1  0.2950722E-010  0.4778726E+02  0.7816164E-02  0.1312668E+00
        -11   -1    0    0    0    0  0.00000000000E+00  0.00000000000E+00  0.45593999997E+02  0.45594000000E+02  0.51100000000E-03 0.  1.
         11   -1    0    0    0    0 -0.00000000000E+00 -0.00000000000E+00 -0.45593999997E+02  0.45594000000E+02  0.51100000000E-03 0. -1.
    9900012    2    1    2    0    0 -0.36959924525E+02  0.22748301749E+02 -0.32023435017E+00  0.47787264944E+02  0.19999972186E+02 0.  0.
        -12    1    1    2    0    0  0.36959924525E+02 -0.22748301749E+02  0.32023435017E+00  0.43400735056E+02  0.00000000000E+00 0.  1.
         11    1    3    3    0    0 -0.14568500920E+02  0.92980915975E+01 -0.83656333090E+01  0.19201029850E+02  0.51100000000E-03 0. -1.
        -11    1    3    3    0    0 -0.21163126675E+02  0.10319077989E+02  0.50456691850E+01  0.24079453461E+02  0.51100000000E-03 0.  1.
        -12    1    3    3    0    0 -0.12282969305E+01  0.31311321625E+01  0.29997297737E+01  0.45067816326E+01  0.00000000000E+00 0.  1.
</event>
<event>
 7    1  0.2950722E-010  0.4778727E+02  0.7816164E-02  0.1312668E+00
        -11   -1    0    0    0    0  0.00000000000E+00  0.00000000000E+00  0.45593999997E+02  0.45594000000E+02  0.51100000000E-03 0.  1.
         11   -1    0    0    0    0 -0.00000000000E+00 -0.00000000000E+00 -0.45593999997E+02  0.45594000000E+02  0.51100000000E-03 0. -1.
    9900012    2    1    2    0    0 -0.86925645964E+01 -0.40797008682E+02 -0.11986110351E+02  0.47787269154E+02  0.19999991379E+02 0.  0.
        -12    1    1    2    0    0  0.86925645964E+01  0.40797008682E+02  0.11986110351E+02  0.43400730846E+02  0.00000000000E+00 0.  1.
         11    1    3    3    0    0  0.35231189532E+01 -0.10642190276E+02  0.17515396523E+01  0.11346209607E+02  0.51100000000E-03 0.  1.
        -11    1    3    3    0    0 -0.79712297720E+01 -0.27480712660E+02 -0.10545054407E+02  0.30494724873E+02  0.51100000000E-03 0. -1.
        -12    1    3    3    0    0 -0.42444537776E+01 -0.26741057457E+01 -0.31925955955E+01  0.59463346732E+01  0.00000000000E+00 0.  1.
</event>
<event>
 7    1  0.2950722E-010  0.4778727E+02  0.7816164E-02  0.1312668E+00
        -11   -1    0    0    0    0  0.00000000000E+00  0.00000000000E+00  0.45593999997E+02  0.45594000000E+02  0.51100000000E-03 0. -1.
         11   -1    0    0    0    0 -0.00000000000E+00 -0.00000000000E+00 -0.45593999997E+02  0.45594000000E+02  0.51100000000E-03 0.  1.
    9900012    2    1    2    0    0  0.38190224770E+02  0.20554413015E+02 -0.16267898659E+01  0.47787267199E+02  0.19999982469E+02 0.  0.
        -12    1    1    2    0    0 -0.38190224770E+02 -0.20554413015E+02  0.16267898659E+01  0.43400732801E+02  0.00000000000E+00 0.  1.
         11    1    3    3    0    0  0.15806267227E+02 -0.83776088463E+00 -0.13654587554E+00  0.15829042043E+02  0.51100000000E-03 0. -1.
        -11    1    3    3    0    0  0.16442754670E+02  0.17555611129E+02  0.18745941965E+01  0.24126287881E+02  0.51100000000E-03 0.  1.
         12    1    3    3    0    0  0.59412028731E+01  0.38365627709E+01 -0.33648381868E+01  0.78319372761E+01  0.00000000000E+00 0. -1.
</event>
<event>
 7    1  0.2950722E-010  0.4778727E+02  0.7816164E-02  0.1312668E+00
        -11   -1    0    0    0    0  0.00000000000E+00  0.00000000000E+00  0.45593999997E+02  0.45594000000E+02  0.51100000000E-03 0.  1.
         11   -1    0    0    0    0 -0.00000000000E+00 -0.00000000000E+00 -0.45593999997E+02  0.45594000000E+02  0.51100000000E-03 0. -1.
    9900012    2    1    2    0    0  0.32110431648E+02 -0.22735334130E+02 -0.18320706234E+02  0.47787268260E+02  0.19999987306E+02 0.  0.
        -12    1    1    2    0    0 -0.32110431648E+02  0.22735334130E+02  0.18320706234E+02  0.43400731740E+02  0.00000000000E+00 0.  1.
         11    1    3    3    0    0  0.22667508042E+02 -0.18787798799E+02 -0.74248920741E+01  0.30363239733E+02  0.51100000000E-03 0. -1.
        -11    1    3    3    0    0  0.48709666624E+01 -0.52661771020E+00 -0.10633482572E+02  0.11707885988E+02  0.51100000000E-03 0.  1.
         12    1    3    3    0    0  0.45719569437E+01 -0.34209176208E+01 -0.26233158861E+00  0.57161425390E+01  0.00000000000E+00 0. -1.
</event>
<event>
 7    1  0.2950722E-010  0.4778727E+02  0.7816164E-02  0.1312668E+00
        -11   -1    0    0    0    0  0.00000000000E+00  0.00000000000E+00  0.45593999997E+02  0.45594000000E+02  0.51100000000E-03 0.  1.
         11   -1    0    0    0    0 -0.00000000000E+00 -0.00000000000E+00 -0.45593999997E+02  0.45594000000E+02  0.51100000000E-03 0. -1.
    9900012    2    1    2    0    0 -0.85836614560E+01  0.38932305208E+02 -0.17152825541E+02  0.47787273545E+02  0.20000011402E+02 0.  0.
        -12    1    1    2    0    0  0.85836614560E+01 -0.38932305208E+02  0.17152825541E+02  0.43400726455E+02  0.00000000000E+00 0.  1.
         11    1    3    3    0    0  0.46202275852E-01  0.26959759891E+02 -0.50852056438E+01  0.27435198281E+02  0.51100000000E-03 0. -1.
        -11    1    3    3    0    0 -0.37996162431E+01  0.15751787693E+01 -0.62860598077E+01  0.75121781074E+01  0.51100000000E-03 0.  1.
         12    1    3    3    0    0 -0.48302474888E+01  0.10397366547E+02 -0.57815600896E+01  0.12839897157E+02  0.00000000000E+00 0. -1.
</event>
<event>
 7    1  0.2950722E-010  0.4778727E+02  0.7816164E-02  0.1312668E+00
        -11   -1    0    0    0    0  0.00000000000E+00  0.00000000000E+00  0.45593999997E+02  0.45594000000E+02  0.51100000000E-03 0. -1.
         11   -1    0    0    0    0 -0.00000000000E+00 -0.00000000000E+00 -0.45593999997E+02  0.45594000000E+02  0.51100000000E-03 0.  1.
    9900012    2    1    2    0    0  0.13369136802E+01 -0.25359308254E+02  0.35195764771E+02  0.47787266007E+02  0.19999977031E+02 0.  0.
        -12    1    1    2    0    0 -0.13369136802E+01  0.25359308254E+02 -0.35195764771E+02  0.43400733993E+02  0.00000000000E+00 0.  1.
         11    1    3    3    0    0  0.67837225089E+01 -0.18107646424E+02  0.22380191036E+02  0.29576658046E+02  0.51100000000E-03 0. -1.
        -11    1    3    3    0    0 -0.41325285736E+01 -0.49246092163E+01  0.15238776334E+01  0.66069487396E+01  0.51100000000E-03 0.  1.
        -12    1    3    3    0    0 -0.13142802551E+01 -0.23270526135E+01  0.11291696102E+02  0.11603659221E+02  0.00000000000E+00 0.  1.
</event>
<event>
 7    1  0.2950722E-010  0.4778727E+02  0.7816164E-02  0.1312668E+00
        -11   -1    0    0    0    0  0.00000000000E+00  0.00000000000E+00  0.45593999997E+02  0.45594000000E+02  0.51100000000E-03 0. -1.
         11   -1    0    0    0    0 -0.00000000000E+00 -0.00000000000E+00 -0.45593999997E+02  0.45594000000E+02  0.51100000000E-03 0.  1.
    9900012    2    1    2    0    0  0.15285616968E+02 -0.64267705182E+00  0.40614779072E+02  0.47787269603E+02  0.19999993430E+02 0.  0.
        -12    1    1    2    0    0 -0.15285616968E+02  0.64267705182E+00 -0.40614779072E+02  0.43400730397E+02  0.00000000000E+00 0.  1.
         11    1    3    3    0    0  0.90009363569E+01  0.53709958471E+00  0.26355840943E+02  0.27855622113E+02  0.51100000000E-03 0. -1.
        -11    1    3    3    0    0 -0.14066608273E+01  0.24325576401E+01  0.10076020251E+02  0.10460507431E+02  0.51100000000E-03 0.  1.
         12    1    3    3    0    0  0.76913414381E+01 -0.36123342767E+01  0.41829178788E+01  0.94711400594E+01  0.00000000000E+00 0. -1.
</event>
<event>
 7    1  0.2950722E-010  0.4778727E+02  0.7816164E-02  0.1312668E+00
        -11   -1    0    0    0    0  0.00000000000E+00  0.00000000000E+00  0.45593999997E+02  0.45594000000E+02  0.51100000000E-03 0.  1.
         11   -1    0    0    0    0 -0.00000000000E+00 -0.00000000000E+00 -0.45593999997E+02  0.45594000000E+02  0.51100000000E-03 0. -1.
    9900012    2    1    2    0    0 -0.13393489747E+02 -0.37823741249E+02 -0.16540931947E+02  0.47787269599E+02  0.19999993408E+02 0.  0.
        -12    1    1    2    0    0  0.13393489747E+02  0.37823741249E+02  0.16540931947E+02  0.43400730401E+02  0.00000000000E+00 0.  1.
         11    1    3    3    0    0 -0.10577648790E+02 -0.22036663211E+02 -0.10663631154E+02  0.26668599683E+02  0.51100000000E-03 0. -1.
        -11    1    3    3    0    0  0.22975361343E+01 -0.88252763849E+00  0.22976385806E+01  0.33669972719E+01  0.51100000000E-03 0.  1.
        -12    1    3    3    0    0 -0.51133770915E+01 -0.14904550400E+02 -0.81749393733E+01  0.17751672644E+02  0.00000000000E+00 0.  1.
</event>
<event>
 7    1  0.2950722E-010  0.4778727E+02  0.7816164E-02  0.1312668E+00
        -11   -1    0    0    0    0  0.00000000000E+00  0.00000000000E+00  0.45593999997E+02  0.45594000000E+02  0.51100000000E-03 0.  1.
         11   -1    0    0    0    0 -0.00000000000E+00 -0.00000000000E+00 -0.45593999997E+02  0.45594000000E+02  0.51100000000E-03 0. -1.
    9900012    2    1    2    0    0  0.26545217996E+02  0.33842040037E+02  0.58043843598E+01  0.47787272470E+02  0.20000006500E+02 0.  0.
        -12    1    1    2    0    0 -0.26545217996E+02 -0.33842040037E+02 -0.58043843598E+01  0.43400727530E+02  0.00000000000E+00 0.  1.
         11    1    3    3    0    0  0.85996340960E+01  0.10447875191E+02  0.44529858629E+01  0.14245732201E+02  0.51100000000E-03 0. -1.
        -11    1    3    3    0    0  0.18930247098E+02  0.24748824313E+02  0.28573023842E+01  0.31289339035E+02  0.51100000000E-03 0.  1.
        -12    1    3    3    0    0 -0.98466319848E+00 -0.13546594660E+01 -0.15059038872E+01  0.22522012345E+01  0.00000000000E+00 0.  1.
</event>
<event>
 7    1  0.2950722E-010  0.4778727E+02  0.7816164E-02  0.1312668E+00
        -11   -1    0    0    0    0  0.00000000000E+00  0.00000000000E+00  0.45593999997E+02  0.45594000000E+02  0.51100000000E-03 0.  1.
         11   -1    0    0    0    0 -0.00000000000E+00 -0.00000000000E+00 -0.45593999997E+02  0.45594000000E+02  0.51100000000E-03 0. -1.
    9900012    2    1    2    0    0  0.20581512024E+02 -0.38207744761E+02 -0.43927693715E+00  0.47787270040E+02  0.19999995418E+02 0.  0.
        -12    1    1    2    0    0 -0.20581512024E+02  0.38207744761E+02  0.43927693715E+00  0.43400729960E+02  0.00000000000E+00 0.  1.
         11    1    3    3    0    0  0.19287457182E+02 -0.25464787786E+02 -0.43693073873E+01  0.32242088469E+02  0.51100000000E-03 0. -1.
        -11    1    3    3    0    0  0.33074135286E-01  0.88746068473E+00  0.13494234809E+01  0.16154331795E+01  0.51100000000E-03 0.  1.
         12    1    3    3    0    0  0.12609807065E+01 -0.13630417659E+02  0.25806069692E+01  0.13929748391E+02  0.00000000000E+00 0. -1.
</event>
<event>
 7    1  0.2950722E-010  0.4778726E+02  0.7816164E-02  0.1312668E+00
        -11   -1    0    0    0    0  0.00000000000E+00  0.00000000000E+00  0.45593999997E+02  0.45594000000E+02  0.51100000000E-03 0. -1.
         11   -1    0    0    0    0 -0.00000000000E+00 -0.00000000000E+00 -0.45593999997E+02  0.45594000000E+02  0.51100000000E-03 0.  1.
    9900012    2    1    2    0    0  0.84075056912E+01  0.67426189277E+01  0.42041352557E+02  0.47787258223E+02  0.19999941541E+02 0.  0.
        -12    1    1    2    0    0 -0.84075056912E+01 -0.67426189277E+01 -0.42041352557E+02  0.43400741777E+02  0.00000000000E+00 0.  1.
         11    1    3    3    0    0 -0.13125955631E+01 -0.95800037271E+00  0.66952973663E+01  0.68896791588E+01  0.51100000000E-03 0. -1.
        -11    1    3    3    0    0 -0.12128476805E+01  0.59589815679E+01  0.31443763609E+01  0.68459888828E+01  0.51100000000E-03 0.  1.
        -12    1    3    3    0    0  0.10932948935E+02  0.17416377325E+01  0.32201678830E+02  0.34051590181E+02  0.00000000000E+00 0.  1.
</event>
<event>
 7    1  0.2950722E-010  0.4778727E+02  0.7816164E-02  0.1312668E+00
        -11   -1    0    0    0    0  0.00000000000E+00  0.00000000000E+00  0.45593999997E+02  0.45594000000E+02  0.51100000000E-03 0.  1.
         11   -1    0    0    0    0 -0.00000000000E+00 -0.00000000000E+00 -0.45593999997E+02  0.45594000000E+02  0.51100000000E-03 0. -1.
    9900012    2    1    2    0    0  0.19780030792E+02  0.35730164324E+02 -0.14687717984E+02  0.47787270509E+02  0.19999997559E+02 0.  0.
        -12    1    1    2    0    0 -0.19780030792E+02 -0.35730164324E+02  0.14687717984E+02  0.43400729491E+02  0.00000000000E+00 0.  1.
         11    1    3    3    0    0  0.12286293540E+02  0.29923553415E+02 -0.97800285183E+01  0.33793801444E+02  0.51100000000E-03 0. -1.
        -11    1    3    3    0    0 -0.13685643383E+01 -0.10600763590E+00  0.11032774729E+01  0.17610869968E+01  0.51100000000E-03 0.  1.
         12    1    3    3    0    0  0.88623015904E+01  0.59126185447E+01 -0.60109669381E+01  0.12232382068E+02  0.00000000000E+00 0. -1.
</event>
<event>
 7    1  0.2950722E-010  0.4778727E+02  0.7816164E-02  0.1312668E+00
        -11   -1    0    0    0    0  0.00000000000E+00  0.00000000000E+00  0.45593999997E+02  0.45594000000E+02  0.51100000000E-03 0. -1.
         11   -1    0    0    0    0 -0.00000000000E+00 -0.00000000000E+00 -0.45593999997E+02  0.45594000000E+02  0.51100000000E-03 0.  1.
    9900012    2    1    2    0    0 -0.13196176544E+02 -0.36623795669E+02  0.19188063707E+02  0.47787271049E+02  0.20000000023E+02 0.  0.
        -12    1    1    2    0    0  0.13196176544E+02  0.36623795669E+02 -0.19188063707E+02  0.43400728951E+02  0.00000000000E+00 0.  1.
         11    1    3    3    0    0 -0.18243596389E+01  0.19727128141E+01  0.10356606662E+01  0.28796661639E+01  0.51100000000E-03 0. -1.
        -11    1    3    3    0    0 -0.83536347579E+00 -0.32674705627E+01  0.44347572426E+01  0.55714691130E+01  0.51100000000E-03 0.  1.
         12    1    3    3    0    0 -0.10536453430E+02 -0.35329037921E+02  0.13717645798E+02  0.39336135773E+02  0.00000000000E+00 0. -1.
</event>
<event>
 7    1  0.2950722E-010  0.4778727E+02  0.7816164E-02  0.1312668E+00
        -11   -1    0    0    0    0  0.00000000000E+00  0.00000000000E+00  0.45593999997E+02  0.45594000000E+02  0.51100000000E-03 0.  1.
         11   -1    0    0    0    0 -0.00000000000E+00 -0.00000000000E+00 -0.45593999997E+02  0.45594000000E+02  0.51100000000E-03 0. -1.
    9900012    2    1    2    0    0  0.40476312204E+02  0.54466027869E+01 -0.14684213107E+02  0.47787269060E+02  0.19999990951E+02 0.  0.
        -12    1    1    2    0    0 -0.40476312204E+02 -0.54466027869E+01  0.14684213107E+02  0.43400730940E+02  0.00000000000E+00 0.  1.
         11    1    3    3    0    0  0.66902773859E+01 -0.24674694843E+01 -0.75898807908E+01  0.10414149405E+02  0.51100000000E-03 0. -1.
        -11    1    3    3    0    0  0.23108352397E+02  0.10670935221E+02 -0.30867774270E+01  0.25639676365E+02  0.51100000000E-03 0.  1.
        -12    1    3    3    0    0  0.10677682422E+02 -0.27568629498E+01 -0.40075548894E+01  0.11733443289E+02  0.00000000000E+00 0.  1.
</event>
<event>
 7    1  0.2950722E-010  0.4778727E+02  0.7816164E-02  0.1312668E+00
        -11   -1    0    0    0    0  0.00000000000E+00  0.00000000000E+00  0.45593999997E+02  0.45594000000E+02  0.51100000000E-03 0. -1.
         11   -1    0    0    0    0 -0.00000000000E+00 -0.00000000000E+00 -0.45593999997E+02  0.45594000000E+02  0.51100000000E-03 0.  1.
    9900012    2    1    2    0    0 -0.31201744107E+02 -0.26914081290E+02  0.13627431822E+02  0.47787268381E+02  0.19999987856E+02 0.  0.
        -12    1    1    2    0    0  0.31201744107E+02  0.26914081290E+02 -0.13627431822E+02  0.43400731619E+02  0.00000000000E+00 0.  1.
         11    1    3    3    0    0 -0.21506985873E+02 -0.13868573916E+02  0.19755774431E+01  0.25666918208E+02  0.51100000000E-03 0. -1.
        -11    1    3    3    0    0 -0.98262229145E+01 -0.76052368522E+01  0.11080684163E+02  0.16648598924E+02  0.51100000000E-03 0.  1.
        -12    1    3    3    0    0  0.13146468034E+00 -0.54402705221E+01  0.57117021557E+00  0.54717512490E+01  0.00000000000E+00 0.  1.
</event>
<event>
 7    1  0.2950722E-010  0.4778727E+02  0.7816164E-02  0.1312668E+00
        -11   -1    0    0    0    0  0.00000000000E+00  0.00000000000E+00  0.45593999997E+02  0.45594000000E+02  0.51100000000E-03 0. -1.
         11   -1    0    0    0    0 -0.00000000000E+00 -0.00000000000E+00 -0.45593999997E+02  0.45594000000E+02  0.51100000000E-03 0.  1.
    9900012    2    1    2    0    0 -0.35235802287E+02  0.23188103925E+02  0.10216334756E+02  0.47787269334E+02  0.19999992203E+02 0.  0.
        -12    1    1    2    0    0  0.35235802287E+02 -0.23188103925E+02 -0.10216334756E+02  0.43400730666E+02  0.00000000000E+00 0.  1.
         11    1    3    3    0    0 -0.15790906525E+02  0.77534110588E+01 -0.38890156011E+01  0.18016452329E+02  0.51100000000E-03 0. -1.
        -11    1    3    3    0    0 -0.10685322647E+02  0.34291528559E+01  0.45921575519E+01  0.12125309094E+02  0.51100000000E-03 0.  1.
         12    1    3    3    0    0 -0.87595731159E+01  0.12005540010E+02  0.95131928050E+01  0.17645507912E+02  0.00000000000E+00 0. -1.
</event>
<event>
 7    1  0.2950722E-010  0.4778727E+02  0.7816164E-02  0.1312668E+00
        -11   -1    0    0    0    0  0.00000000000E+00  0.00000000000E+00  0.45593999997E+02  0.45594000000E+02  0.51100000000E-03 0.  1.
         11   -1    0    0    0    0 -0.00000000000E+00 -0.00000000000E+00 -0.45593999997E+02  0.45594000000E+02  0.51100000000E-03 0. -1.
    9900012    2    1    2    0    0  0.53180130844E+01  0.25732768178E+02 -0.34542243429E+02  0.47787271869E+02  0.20000003757E+02 0.  0.
        -12    1    1    2    0    0 -0.53180130844E+01 -0.25732768178E+02  0.34542243429E+02  0.43400728131E+02  0.00000000000E+00 0.  1.
         11    1    3    3    0    0  0.46355659514E+00  0.16468138596E+02 -0.16886720981E+02  0.23591859174E+02  0.51100000000E-03 0. -1.
        -11    1    3    3    0    0  0.20631693969E+01  0.21713803755E+00  0.16777827219E+01  0.26681026986E+01  0.51100000000E-03 0.  1.
         12    1    3    3    0    0  0.27912870924E+01  0.90474915439E+01 -0.19333305170E+02  0.21527309996E+02  0.00000000000E+00 0. -1.
</event>
<event>
 7    1  0.2950722E-010  0.4778727E+02  0.7816164E-02  0.1312668E+00
        -11   -1    0    0    0    0  0.00000000000E+00  0.00000000000E+00  0.45593999997E+02  0.45594000000E+02  0.51100000000E-03 0.  1.
         11   -1    0    0    0    0 -0.00000000000E+00 -0.00000000000E+00 -0.45593999997E+02  0.45594000000E+02  0.51100000000E-03 0. -1.
    9900012    2    1    2    0    0  0.40771545413E+02 -0.13878139064E+02  0.53574010152E+01  0.47787269535E+02  0.19999993119E+02 0.  0.
        -12    1    1    2    0    0 -0.40771545413E+02  0.13878139064E+02 -0.53574010152E+01  0.43400730465E+02  0.00000000000E+00 0.  1.
         11    1    3    3    0    0  0.33688895606E+02 -0.14174882783E+02  0.60371148522E-01  0.36549591434E+02  0.51100000000E-03 0. -1.
        -11    1    3    3    0    0  0.76344652103E+01 -0.10397911521E+00  0.63853650932E+01  0.99533290078E+01  0.51100000000E-03 0.  1.
        -12    1    3    3    0    0 -0.55181540318E+00  0.40072283369E+00 -0.10883352265E+01  0.12843490935E+01  0.00000000000E+00 0.  1.
</event>
<event>
 7    1  0.2950722E-010  0.4778727E+02  0.7816164E-02  0.1312668E+00
        -11   -1    0    0    0    0  0.00000000000E+00  0.00000000000E+00  0.45593999997E+02  0.45594000000E+02  0.51100000000E-03 0. -1.
         11   -1    0    0    0    0 -0.00000000000E+00 -0.00000000000E+00 -0.45593999997E+02  0.45594000000E+02  0.51100000000E-03 0.  1.
    9900012    2    1    2    0    0  0.95102842675E+01  0.17911668519E+02  0.38371217613E+02  0.47787265938E+02  0.19999976718E+02 0.  0.
        -12    1    1    2    0    0 -0.95102842675E+01 -0.17911668519E+02 -0.38371217613E+02  0.43400734062E+02  0.00000000000E+00 0.  1.
         11    1    3    3    0    0  0.72394139699E+01  0.15331522261E+02  0.23463159337E+02  0.28947962550E+02  0.51100000000E-03 0. -1.
        -11    1    3    3    0    0 -0.40207657853E+00 -0.24410132165E+01 -0.40229645376E+00  0.25064025606E+01  0.51100000000E-03 0.  1.
         12    1    3    3    0    0  0.26729468761E+01  0.50211594746E+01  0.15310354730E+02  0.16332900828E+02  0.00000000000E+00 0. -1.
</event>
<event>
 7    1  0.2950722E-010  0.4778727E+02  0.7816164E-02  0.1312668E+00
        -11   -1    0    0    0    0  0.00000000000E+00  0.00000000000E+00  0.45593999997E+02  0.45594000000E+02  0.51100000000E-03 0.  1.
         11   -1    0    0    0    0 -0.00000000000E+00 -0.00000000000E+00 -0.45593999997E+02  0.45594000000E+02  0.51100000000E-03 0. -1.
    9900012    2    1    2    0    0  0.60293166436E+01  0.37822699910E+02 -0.20413578894E+02  0.47787268544E+02  0.19999988598E+02 0.  0.
        -12    1    1    2    0    0 -0.60293166436E+01 -0.37822699910E+02  0.20413578894E+02  0.43400731456E+02  0.00000000000E+00 0.  1.
         11    1    3    3    0    0  0.35593728501E+01  0.32271074049E+02 -0.16396110766E+02  0.36372019519E+02  0.51100000000E-03 0. -1.
        -11    1    3    3    0    0 -0.40892163206E+00  0.10209855607E+01 -0.56880304451E+01  0.57933857995E+01  0.51100000000E-03 0.  1.
        -12    1    3    3    0    0  0.28788654255E+01  0.45306403005E+01  0.16705623173E+01  0.56218632256E+01  0.00000000000E+00 0.  1.
</event>
<event>
 7    1  0.2950722E-010  0.4778727E+02  0.7816164E-02  0.1312668E+00
        -11   -1    0    0    0    0  0.00000000000E+00  0.00000000000E+00  0.45593999997E+02  0.45594000000E+02  0.51100000000E-03 0. -1.
         11   -1    0    0    0    0 -0.00000000000E+00 -0.00000000000E+00 -0.45593999997E+02  0.45594000000E+02  0.51100000000E-03 0.  1.
    9900012    2    1    2    0    0 -0.18738011931E+02 -0.38343474495E+02 -0.78922876768E+01  0.47787270372E+02  0.19999996934E+02 0.  0.
        -12    1    1    2    0    0  0.18738011931E+02  0.38343474495E+02  0.78922876768E+01  0.43400729628E+02  0.00000000000E+00 0.  1.
         11    1    3    3    0    0 -0.59879018804E+01 -0.21653206559E+02 -0.72639921806E+00  0.22477632867E+02  0.51100000000E-03 0. -1.
        -11    1    3    3    0    0 -0.90982877478E+01 -0.47154578912E+01 -0.76387858102E+01  0.12781448743E+02  0.51100000000E-03 0.  1.
        -12    1    3    3    0    0 -0.36518223032E+01 -0.11974810045E+02  0.47289735151E+00  0.12528188761E+02  0.00000000000E+00 0.  1.
</event>
<event>
 7    1  0.2950722E-010  0.4778727E+02  0.7816164E-02  0.1312668E+00
        -11   -1    0    0    0    0  0.00000000000E+00  0.00000000000E+00  0.45593999997E+02  0.45594000000E+02  0.51100000000E-03 0. -1.
         11   -1    0    0    0    0 -0.00000000000E+00 -0.00000000000E+00 -0.45593999997E+02  0.45594000000E+02  0.51100000000E-03 0.  1.
    9900012    2    1    2    0    0  0.21431493591E+01 -0.39288346145E+02  0.18315461589E+02  0.47787269992E+02  0.19999995202E+02 0.  0.
        -12    1    1    2    0    0 -0.21431493591E+01  0.39288346145E+02 -0.18315461589E+02  0.43400730008E+02  0.00000000000E+00 0.  1.
         11    1    3    3    0    0 -0.17186341564E+01 -0.66795154797E+01  0.10735991625E+02  0.12760530821E+02  0.51100000000E-03 0. -1.
        -11    1    3    3    0    0  0.34262587392E+01 -0.32806532614E+02  0.84351701874E+01  0.34046437808E+02  0.51100000000E-03 0.  1.
        -12    1    3    3    0    0  0.43552477636E+00  0.19770194834E+00 -0.85570022259E+00  0.98030136292E+00  0.00000000000E+00 0.  1.
</event>
<event>
 7    1  0.2950722E-010  0.4778727E+02  0.7816164E-02  0.1312668E+00
        -11   -1    0    0    0    0  0.00000000000E+00  0.00000000000E+00  0.45593999997E+02  0.45594000000E+02  0.51100000000E-03 0.  1.
         11   -1    0    0    0    0 -0.00000000000E+00 -0.00000000000E+00 -0.45593999997E+02  0.45594000000E+02  0.51100000000E-03 0. -1.
    9900012    2    1    2    0    0 -0.20848624251E+02  0.91031863592E+01 -0.36960657971E+02  0.47787269906E+02  0.19999994809E+02 0.  0.
        -12    1    1    2    0    0  0.20848624251E+02 -0.91031863592E+01  0.36960657971E+02  0.43400730094E+02  0.00000000000E+00 0.  1.
         11    1    3    3    0    0 -0.20926947403E+02  0.54464956556E+01 -0.34070039103E+02  0.40353054498E+02  0.51100000000E-03 0. -1.
        -11    1    3    3    0    0  0.24166693632E+01  0.15328910087E+01 -0.31607271797E+01  0.42638295254E+01  0.51100000000E-03 0.  1.
         12    1    3    3    0    0 -0.23383462106E+01  0.21237996949E+01  0.27010831187E+00  0.31703858827E+01  0.00000000000E+00 0. -1.
</event>
<event>
 7    1  0.2950722E-010  0.4778727E+02  0.7816164E-02  0.1312668E+00
        -11   -1    0    0    0    0  0.00000000000E+00  0.00000000000E+00  0.45593999997E+02  0.45594000000E+02  0.51100000000E-03 0. -1.
         11   -1    0    0    0    0 -0.00000000000E+00 -0.00000000000E+00 -0.45593999997E+02  0.45594000000E+02  0.51100000000E-03 0.  1.
    9900012    2    1    2    0    0  0.40291022746E+02 -0.12887206710E+02  0.97044553503E+01  0.47787273458E+02  0.20000011006E+02 0.  0.
        -12    1    1    2    0    0 -0.40291022746E+02  0.12887206710E+02 -0.97044553503E+01  0.43400726542E+02  0.00000000000E+00 0.  1.
         11    1    3    3    0    0  0.63901824899E+01 -0.32824965405E+01 -0.12853829496E+00  0.71851052982E+01  0.51100000000E-03 0. -1.
        -11    1    3    3    0    0  0.22201302458E+02 -0.78660742532E+00 -0.12217714741E+01  0.22248804639E+02  0.51100000000E-03 0.  1.
        -12    1    3    3    0    0  0.11699537798E+02 -0.88181027446E+01  0.11054765119E+02  0.18353363522E+02  0.00000000000E+00 0.  1.
</event>
<event>
 7    1  0.2950722E-010  0.4778727E+02  0.7816164E-02  0.1312668E+00
        -11   -1    0    0    0    0  0.00000000000E+00  0.00000000000E+00  0.45593999997E+02  0.45594000000E+02  0.51100000000E-03 0. -1.
         11   -1    0    0    0    0 -0.00000000000E+00 -0.00000000000E+00 -0.45593999997E+02  0.45594000000E+02  0.51100000000E-03 0.  1.
    9900012    2    1    2    0    0  0.12989083198E+02 -0.30564874089E+02  0.27940931311E+02  0.47787268981E+02  0.19999990594E+02 0.  0.
        -12    1    1    2    0    0 -0.12989083198E+02  0.30564874089E+02 -0.27940931311E+02  0.43400731019E+02  0.00000000000E+00 0.  1.
         11    1    3    3    0    0  0.14514278941E+02 -0.13166578079E+02  0.14250445551E+02  0.24230110816E+02  0.51100000000E-03 0.  1.
        -11    1    3    3    0    0 -0.97537939649E+00 -0.78715444692E+01  0.14940706218E+01  0.80712343902E+01  0.51100000000E-03 0. -1.
         12    1    3    3    0    0 -0.54981634687E+00 -0.95267515412E+01  0.12196415138E+02  0.15485923775E+02  0.00000000000E+00 0. -1.
</event>
<event>
 7    1  0.2950722E-010  0.4778727E+02  0.7816164E-02  0.1312668E+00
        -11   -1    0    0    0    0  0.00000000000E+00  0.00000000000E+00  0.45593999997E+02  0.45594000000E+02  0.51100000000E-03 0. -1.
         11   -1    0    0    0    0 -0.00000000000E+00 -0.00000000000E+00 -0.45593999997E+02  0.45594000000E+02  0.51100000000E-03 0.  1.
    9900012    2    1    2    0    0  0.21350332546E+02 -0.38730978430E+01  0.37587039927E+02  0.47787272388E+02  0.20000006128E+02 0.  0.
        -12    1    1    2    0    0 -0.21350332546E+02  0.38730978430E+01 -0.37587039927E+02  0.43400727612E+02  0.00000000000E+00 0.  1.
         11    1    3    3    0    0  0.24495702807E+01  0.21817024143E-02  0.18587200142E+02  0.18747917450E+02  0.51100000000E-03 0. -1.
        -11    1    3    3    0    0  0.18153246293E+02 -0.27319738187E+01  0.20146471909E+02  0.27255905096E+02  0.51100000000E-03 0.  1.
        -12    1    3    3    0    0  0.74751597275E+00 -0.11433057267E+01 -0.11466321245E+01  0.17834498432E+01  0.00000000000E+00 0.  1.
</event>
<event>
 7    1  0.2950722E-010  0.4778727E+02  0.7816164E-02  0.1312668E+00
        -11   -1    0    0    0    0  0.00000000000E+00  0.00000000000E+00  0.45593999997E+02  0.45594000000E+02  0.51100000000E-03 0.  1.
         11   -1    0    0    0    0 -0.00000000000E+00 -0.00000000000E+00 -0.45593999997E+02  0.45594000000E+02  0.51100000000E-03 0. -1.
    9900012    2    1    2    0    0  0.41388901437E+02 -0.83919450887E+01 -0.10007863992E+02  0.47787271363E+02  0.20000001454E+02 0.  0.
        -12    1    1    2    0    0 -0.41388901437E+02  0.83919450887E+01  0.10007863992E+02  0.43400728637E+02  0.00000000000E+00 0.  1.
         11    1    3    3    0    0  0.27382234394E+02 -0.16458638627E+01 -0.82215344052E+01  0.28637200571E+02  0.51100000000E-03 0. -1.
        -11    1    3    3    0    0  0.55568188845E+01 -0.45890909199E+00  0.42498552917E+01  0.70107135108E+01  0.51100000000E-03 0.  1.
        -12    1    3    3    0    0  0.84498481579E+01 -0.62871721340E+01 -0.60361848780E+01  0.12139357282E+02  0.00000000000E+00 0.  1.
</event>
<event>
 7    1  0.2950722E-010  0.4778727E+02  0.7816164E-02  0.1312668E+00
        -11   -1    0    0    0    0  0.00000000000E+00  0.00000000000E+00  0.45593999997E+02  0.45594000000E+02  0.51100000000E-03 0.  1.
         11   -1    0    0    0    0 -0.00000000000E+00 -0.00000000000E+00 -0.45593999997E+02  0.45594000000E+02  0.51100000000E-03 0. -1.
    9900012    2    1    2    0    0 -0.39162046635E+02 -0.12465682082E+02 -0.13948631626E+02  0.47787269008E+02  0.19999990716E+02 0.  0.
        -12    1    1    2    0    0  0.39162046635E+02  0.12465682082E+02  0.13948631626E+02  0.43400730992E+02  0.00000000000E+00 0.  1.
         11    1    3    3    0    0 -0.22466657534E+02 -0.44250666151E+01 -0.13844581521E+02  0.26758257661E+02  0.51100000000E-03 0. -1.
        -11    1    3    3    0    0 -0.39825078496E+01  0.88299247958E+00  0.31570424920E+01  0.51581936808E+01  0.51100000000E-03 0.  1.
        -12    1    3    3    0    0 -0.12712881251E+02 -0.89236079461E+01 -0.32610925969E+01  0.15870817666E+02  0.00000000000E+00 0.  1.
</event>
<event>
 7    1  0.2950722E-010  0.4778727E+02  0.7816164E-02  0.1312668E+00
        -11   -1    0    0    0    0  0.00000000000E+00  0.00000000000E+00  0.45593999997E+02  0.45594000000E+02  0.51100000000E-03 0. -1.
         11   -1    0    0    0    0 -0.00000000000E+00 -0.00000000000E+00 -0.45593999997E+02  0.45594000000E+02  0.51100000000E-03 0.  1.
    9900012    2    1    2    0    0  0.55091382076E+01 -0.37708474542E+02  0.20768814914E+02  0.47787270409E+02  0.19999997105E+02 0.  0.
        -12    1    1    2    0    0 -0.55091382076E+01  0.37708474542E+02 -0.20768814914E+02  0.43400729591E+02  0.00000000000E+00 0.  1.
         11    1    3    3    0    0 -0.36448095580E+01 -0.10484449154E+02 -0.31199687920E+00  0.11104307862E+02  0.51100000000E-03 0. -1.
        -11    1    3    3    0    0  0.32002327060E+01 -0.53690996772E+01  0.91513881366E+01  0.11082266276E+02  0.51100000000E-03 0.  1.
         12    1    3    3    0    0  0.59537150596E+01 -0.21854925711E+02  0.11929423656E+02  0.25600696272E+02  0.00000000000E+00 0. -1.
</event>
<event>
 7    1  0.2950722E-010  0.4778727E+02  0.7816164E-02  0.1312668E+00
        -11   -1    0    0    0    0  0.00000000000E+00  0.00000000000E+00  0.45593999997E+02  0.45594000000E+02  0.51100000000E-03 0.  1.
         11   -1    0    0    0    0 -0.00000000000E+00 -0.00000000000E+00 -0.45593999997E+02  0.45594000000E+02  0.51100000000E-03 0. -1.
    9900012    2    1    2    0    0  0.42794369483E+02 -0.72113016484E+01  0.51254759024E+00  0.47787266873E+02  0.19999980980E+02 0.  0.
        -12    1    1    2    0    0 -0.42794369483E+02  0.72113016484E+01 -0.51254759024E+00  0.43400733127E+02  0.00000000000E+00 0.  1.
         11    1    3    3    0    0  0.38992339300E+02 -0.59098894456E+01 -0.67064101429E+00  0.39443365437E+02  0.51100000000E-03 0. -1.
        -11    1    3    3    0    0 -0.50214720019E+00 -0.19468588545E+01  0.30132941923E+01  0.36224788971E+01  0.51100000000E-03 0.  1.
        -12    1    3    3    0    0  0.43041773832E+01  0.64544665161E+00 -0.18301055878E+01  0.47214225387E+01  0.00000000000E+00 0.  1.
</event>
<event>
 7    1  0.2950722E-010  0.4778727E+02  0.7816164E-02  0.1312668E+00
        -11   -1    0    0    0    0  0.00000000000E+00  0.00000000000E+00  0.45593999997E+02  0.45594000000E+02  0.51100000000E-03 0.  1.
         11   -1    0    0    0    0 -0.00000000000E+00 -0.00000000000E+00 -0.45593999997E+02  0.45594000000E+02  0.51100000000E-03 0. -1.
    9900012    2    1    2    0    0  0.31031048299E+02 -0.23096724039E+01 -0.30254963349E+02  0.47787270140E+02  0.19999995874E+02 0.  0.
        -12    1    1    2    0    0 -0.31031048299E+02  0.23096724039E+01  0.30254963349E+02  0.43400729860E+02  0.00000000000E+00 0.  1.
         11    1    3    3    0    0  0.28725763627E+02 -0.31891115544E+01 -0.21923646201E+02  0.36276523972E+02  0.51100000000E-03 0. -1.
        -11    1    3    3    0    0 -0.74783662475E+00  0.27975593998E+01 -0.71538286704E+01  0.77176980454E+01  0.51100000000E-03 0.  1.
        -12    1    3    3    0    0  0.30531212970E+01 -0.19181202493E+01 -0.11774884779E+01  0.37930481227E+01  0.00000000000E+00 0.  1.
</event>
<event>
 7    1  0.2950722E-010  0.4778725E+02  0.7816164E-02  0.1312668E+00
        -11   -1    0    0    0    0  0.00000000000E+00  0.00000000000E+00  0.45593999997E+02  0.45594000000E+02  0.51100000000E-03 0.  1.
         11   -1    0    0    0    0 -0.00000000000E+00 -0.00000000000E+00 -0.45593999997E+02  0.45594000000E+02  0.51100000000E-03 0. -1.
    9900012    2    1    2    0    0  0.37135528631E+02 -0.14985852861E+02 -0.16733250388E+02  0.47787251836E+02  0.19999912419E+02 0.  0.
        -12    1    1    2    0    0 -0.37135528631E+02  0.14985852861E+02  0.16733250388E+02  0.43400748164E+02  0.00000000000E+00 0.  1.
         11    1    3    3    0    0  0.27900567311E+02 -0.10040302444E+02 -0.17118117264E+02  0.34238564053E+02  0.51100000000E-03 0. -1.
        -11    1    3    3    0    0 -0.35329968497E+00 -0.35493152224E+01  0.13446191927E+01  0.38118840814E+01  0.51100000000E-03 0.  1.
         12    1    3    3    0    0  0.95882610048E+01 -0.13962351943E+01 -0.95975231699E+00  0.97368037016E+01  0.00000000000E+00 0. -1.
</event>
<event>
 7    1  0.2950722E-010  0.4778728E+02  0.7816164E-02  0.1312668E+00
        -11   -1    0    0    0    0  0.00000000000E+00  0.00000000000E+00  0.45593999997E+02  0.45594000000E+02  0.51100000000E-03 0.  1.
         11   -1    0    0    0    0 -0.00000000000E+00 -0.00000000000E+00 -0.45593999997E+02  0.45594000000E+02  0.51100000000E-03 0. -1.
    9900012    2    1    2    0    0  0.80278749190E+01  0.27993530391E+02 -0.32179778399E+02  0.47787278148E+02  0.20000032386E+02 0.  0.
        -12    1    1    2    0    0 -0.80278749190E+01 -0.27993530391E+02  0.32179778399E+02  0.43400721852E+02  0.00000000000E+00 0.  1.
         11    1    3    3    0    0  0.83819509127E+01  0.77616431849E+01 -0.17797120257E+02  0.21147995076E+02  0.51100000000E-03 0. -1.
        -11    1    3    3    0    0  0.17685830753E+01 -0.23877370907E+00 -0.65704105793E+00  0.19017366251E+01  0.51100000000E-03 0.  1.
         12    1    3    3    0    0 -0.21226590690E+01  0.20470660916E+02 -0.13725617084E+02  0.24737546446E+02  0.00000000000E+00 0. -1.
</event>
<event>
 7    1  0.2950722E-010  0.4778727E+02  0.7816164E-02  0.1312668E+00
        -11   -1    0    0    0    0  0.00000000000E+00  0.00000000000E+00  0.45593999997E+02  0.45594000000E+02  0.51100000000E-03 0. -1.
         11   -1    0    0    0    0 -0.00000000000E+00 -0.00000000000E+00 -0.45593999997E+02  0.45594000000E+02  0.51100000000E-03 0.  1.
    9900012    2    1    2    0    0  0.41984317765E+02  0.35021251421E+01 -0.10424750467E+02  0.47787271424E+02  0.20000001729E+02 0.  0.
        -12    1    1    2    0    0 -0.41984317765E+02 -0.35021251421E+01  0.10424750467E+02  0.43400728576E+02  0.00000000000E+00 0.  1.
         11    1    3    3    0    0  0.16469975026E+02  0.92296539108E+01 -0.34231855611E+01  0.19187620705E+02  0.51100000000E-03 0. -1.
        -11    1    3    3    0    0  0.16088576774E+02 -0.79765708231E+01 -0.55878480258E+01  0.18806701745E+02  0.51100000000E-03 0.  1.
        -12    1    3    3    0    0  0.94257659653E+01  0.22490420544E+01 -0.14137168797E+01  0.97929489742E+01  0.00000000000E+00 0.  1.
</event>
<event>
 7    1  0.2950722E-010  0.4778727E+02  0.7816164E-02  0.1312668E+00
        -11   -1    0    0    0    0  0.00000000000E+00  0.00000000000E+00  0.45593999997E+02  0.45594000000E+02  0.51100000000E-03 0.  1.
         11   -1    0    0    0    0 -0.00000000000E+00 -0.00000000000E+00 -0.45593999997E+02  0.45594000000E+02  0.51100000000E-03 0. -1.
    9900012    2    1    2    0    0 -0.23504758197E+02 -0.51992789947E+01 -0.36112562259E+02  0.47787270595E+02  0.19999997950E+02 0.  0.
        -12    1    1    2    0    0  0.23504758197E+02  0.51992789947E+01  0.36112562259E+02  0.43400729405E+02  0.00000000000E+00 0.  1.
         11    1    3    3    0    0 -0.40857517057E+00 -0.89059986848E+00 -0.14006024227E+02  0.14040257003E+02  0.51100000000E-03 0. -1.
        -11    1    3    3    0    0 -0.16791880359E+02 -0.60424708426E+01 -0.20162149710E+02  0.26925656558E+02  0.51100000000E-03 0.  1.
        -12    1    3    3    0    0 -0.63043026678E+01  0.17337917163E+01 -0.19443883220E+01  0.68213570343E+01  0.00000000000E+00 0.  1.
</event>
<event>
 7    1  0.2950722E-010  0.4778729E+02  0.7816164E-02  0.1312668E+00
        -11   -1    0    0    0    0  0.00000000000E+00  0.00000000000E+00  0.45593999997E+02  0.45594000000E+02  0.51100000000E-03 0.  1.
         11   -1    0    0    0    0 -0.00000000000E+00 -0.00000000000E+00 -0.45593999997E+02  0.45594000000E+02  0.51100000000E-03 0. -1.
    9900012    2    1    2    0    0 -0.73838975449E+01  0.23002914993E+02 -0.36055030063E+02  0.47787294545E+02  0.20000107150E+02 0.  0.
        -12    1    1    2    0    0  0.73838975449E+01 -0.23002914993E+02  0.36055030063E+02  0.43400705455E+02  0.00000000000E+00 0.  1.
         11    1    3    3    0    0  0.47044139108E+01  0.12480398036E+02 -0.12513936906E+02  0.18289080418E+02  0.51100000000E-03 0. -1.
        -11    1    3    3    0    0 -0.11979174880E+02  0.73815478492E+01 -0.15877234467E+02  0.21214958262E+02  0.51100000000E-03 0.  1.
        -12    1    3    3    0    0 -0.10913657588E+00  0.31409691073E+01 -0.76638586901E+01  0.82832558663E+01  0.00000000000E+00 0.  1.
</event>
<event>
 7    1  0.2950722E-010  0.4778727E+02  0.7816164E-02  0.1312668E+00
        -11   -1    0    0    0    0  0.00000000000E+00  0.00000000000E+00  0.45593999997E+02  0.45594000000E+02  0.51100000000E-03 0.  1.
         11   -1    0    0    0    0 -0.00000000000E+00 -0.00000000000E+00 -0.45593999997E+02  0.45594000000E+02  0.51100000000E-03 0. -1.
    9900012    2    1    2    0    0 -0.93321270493E+01 -0.28217978725E+02 -0.31627209995E+02  0.47787270390E+02  0.19999997017E+02 0.  0.
        -12    1    1    2    0    0  0.93321270493E+01  0.28217978725E+02  0.31627209995E+02  0.43400729610E+02  0.00000000000E+00 0.  1.
         11    1    3    3    0    0 -0.49819433893E+01  0.82171328401E-01 -0.70071721325E+00  0.50316515117E+01  0.51100000000E-03 0. -1.
        -11    1    3    3    0    0 -0.57880872358E+01 -0.26769192562E+02 -0.29226999295E+02  0.40053827686E+02  0.51100000000E-03 0.  1.
        -12    1    3    3    0    0  0.14379035758E+01 -0.15309574921E+01 -0.16994934866E+01  0.27017911923E+01  0.00000000000E+00 0.  1.
</event>
<event>
 7    1  0.2950722E-010  0.4778727E+02  0.7816164E-02  0.1312668E+00
        -11   -1    0    0    0    0  0.00000000000E+00  0.00000000000E+00  0.45593999997E+02  0.45594000000E+02  0.51100000000E-03 0. -1.
         11   -1    0    0    0    0 -0.00000000000E+00 -0.00000000000E+00 -0.45593999997E+02  0.45594000000E+02  0.51100000000E-03 0.  1.
    9900012    2    1    2    0    0  0.29034555708E+02  0.30104131034E+02  0.11591346467E+02  0.47787269091E+02  0.19999991094E+02 0.  0.
        -12    1    1    2    0    0 -0.29034555708E+02 -0.30104131034E+02 -0.11591346467E+02  0.43400730909E+02  0.00000000000E+00 0.  1.
         11    1    3    3    0    0  0.21831689841E+02  0.16229486978E+02  0.13461484189E+02  0.30351778955E+02  0.51100000000E-03 0. -1.
        -11    1    3    3    0    0  0.49600049876E+00 -0.60409204450E+00  0.95136020125E+00  0.12312717761E+01  0.51100000000E-03 0.  1.
         12    1    3    3    0    0  0.67068653685E+01  0.14478736101E+02 -0.28214979228E+01  0.16204218360E+02  0.00000000000E+00 0. -1.
</event>
<event>
 7    1  0.2950722E-010  0.4778726E+02  0.7816164E-02  0.1312668E+00
        -11   -1    0    0    0    0  0.00000000000E+00  0.00000000000E+00  0.45593999997E+02  0.45594000000E+02  0.51100000000E-03 0.  1.
         11   -1    0    0    0    0 -0.00000000000E+00 -0.00000000000E+00 -0.45593999997E+02  0.45594000000E+02  0.51100000000E-03 0. -1.
    9900012    2    1    2    0    0  0.19272846494E+02 -0.38839337277E+02 -0.19203335652E+01  0.47787257920E+02  0.19999940162E+02 0.  0.
        -12    1    1    2    0    0 -0.19272846494E+02  0.38839337277E+02  0.19203335652E+01  0.43400742080E+02  0.00000000000E+00 0.  1.
         11    1    3    3    0    0  0.16801576811E+01 -0.11186085166E+02 -0.69352298853E+00  0.11332802194E+02  0.51100000000E-03 0. -1.
        -11    1    3    3    0    0 -0.52628588500E+00 -0.93081035658E+01  0.40011099915E+01  0.10145277239E+02  0.51100000000E-03 0.  1.
        -12    1    3    3    0    0  0.18118974698E+02 -0.18345148545E+02 -0.52279205681E+01  0.26309178487E+02  0.00000000000E+00 0.  1.
</event>
<event>
 7    1  0.2950722E-010  0.4778727E+02  0.7816164E-02  0.1312668E+00
        -11   -1    0    0    0    0  0.00000000000E+00  0.00000000000E+00  0.45593999997E+02  0.45594000000E+02  0.51100000000E-03 0.  1.
         11   -1    0    0    0    0 -0.00000000000E+00 -0.00000000000E+00 -0.45593999997E+02  0.45594000000E+02  0.51100000000E-03 0. -1.
    9900012    2    1    2    0    0 -0.37723865024E+02 -0.12161080535E+02 -0.17681669724E+02  0.47787270555E+02  0.19999997768E+02 0.  0.
        -12    1    1    2    0    0  0.37723865024E+02  0.12161080535E+02  0.17681669724E+02  0.43400729445E+02  0.00000000000E+00 0.  1.
         11    1    3    3    0    0 -0.14242354877E+02 -0.12872585960E+02 -0.98672411719E+01  0.21584962135E+02  0.51100000000E-03 0. -1.
        -11    1    3    3    0    0 -0.20111499137E-01 -0.89862179882E+00  0.75415480510E+00  0.11733180902E+01  0.51100000000E-03 0.  1.
         12    1    3    3    0    0 -0.23461398648E+02  0.16101272238E+01 -0.85685833570E+01  0.25028990330E+02  0.00000000000E+00 0. -1.
</event>
<event>
 7    1  0.2950722E-010  0.4778727E+02  0.7816164E-02  0.1312668E+00
        -11   -1    0    0    0    0  0.00000000000E+00  0.00000000000E+00  0.45593999997E+02  0.45594000000E+02  0.51100000000E-03 0. -1.
         11   -1    0    0    0    0 -0.00000000000E+00 -0.00000000000E+00 -0.45593999997E+02  0.45594000000E+02  0.51100000000E-03 0.  1.
    9900012    2    1    2    0    0 -0.32785549529E+02 -0.25383237282E+02  0.12822736723E+02  0.47787267634E+02  0.19999984450E+02 0.  0.
        -12    1    1    2    0    0  0.32785549529E+02  0.25383237282E+02 -0.12822736723E+02  0.43400732366E+02  0.00000000000E+00 0.  1.
         11    1    3    3    0    0 -0.22809705125E+02 -0.21136985423E+02  0.13006337513E+02  0.33707856895E+02  0.51100000000E-03 0. -1.
        -11    1    3    3    0    0 -0.87153357428E+01  0.48587215040E+00 -0.18190801588E+01  0.89164007167E+01  0.51100000000E-03 0.  1.
         12    1    3    3    0    0 -0.12605086611E+01 -0.47321240099E+01  0.16354793684E+01  0.51630100226E+01  0.00000000000E+00 0. -1.
</event>
<event>
 7    1  0.2950722E-010  0.4778727E+02  0.7816164E-02  0.1312668E+00
        -11   -1    0    0    0    0  0.00000000000E+00  0.00000000000E+00  0.45593999997E+02  0.45594000000E+02  0.51100000000E-03 0. -1.
         11   -1    0    0    0    0 -0.00000000000E+00 -0.00000000000E+00 -0.45593999997E+02  0.45594000000E+02  0.51100000000E-03 0.  1.
    9900012    2    1    2    0    0  0.71389068574E+01 -0.42323199903E+02 -0.64347654667E+01  0.47787269041E+02  0.19999990865E+02 0.  0.
        -12    1    1    2    0    0 -0.71389068574E+01  0.42323199903E+02  0.64347654667E+01  0.43400730959E+02  0.00000000000E+00 0.  1.
         11    1    3    3    0    0  0.82177719426E+01 -0.24831816374E+02  0.13179687638E+01  0.26189462042E+02  0.51100000000E-03 0. -1.
        -11    1    3    3    0    0 -0.13346185590E+01 -0.36165653185E+01 -0.66376783944E+01  0.76759055576E+01  0.51100000000E-03 0.  1.
        -12    1    3    3    0    0  0.25575347380E+00 -0.13874818211E+02 -0.11150558361E+01  0.13921901442E+02  0.00000000000E+00 0.  1.
</event>
<event>
 7    1  0.2950722E-010  0.4778727E+02  0.7816164E-02  0.1312668E+00
        -11   -1    0    0    0    0  0.00000000000E+00  0.00000000000E+00  0.45593999997E+02  0.45594000000E+02  0.51100000000E-03 0. -1.
         11   -1    0    0    0    0 -0.00000000000E+00 -0.00000000000E+00 -0.45593999997E+02  0.45594000000E+02  0.51100000000E-03 0.  1.
    9900012    2    1    2    0    0  0.43259625421E+02  0.10586935409E+01 -0.33327578899E+01  0.47787270758E+02  0.19999998695E+02 0.  0.
        -12    1    1    2    0    0 -0.43259625421E+02 -0.10586935409E+01  0.33327578899E+01  0.43400729242E+02  0.00000000000E+00 0.  1.
         11    1    3    3    0    0  0.13967034921E+02 -0.68144307297E+01  0.23765054520E+01  0.15721396538E+02  0.51100000000E-03 0. -1.
        -11    1    3    3    0    0  0.72790187416E+01  0.54365967311E+01  0.38945568578E+00  0.90935347280E+01  0.51100000000E-03 0.  1.
         12    1    3    3    0    0  0.22013571758E+02  0.24365275394E+01 -0.60987190277E+01  0.22972339493E+02  0.00000000000E+00 0. -1.
</event>
<event>
 7    1  0.2950722E-010  0.4778727E+02  0.7816164E-02  0.1312668E+00
        -11   -1    0    0    0    0  0.00000000000E+00  0.00000000000E+00  0.45593999997E+02  0.45594000000E+02  0.51100000000E-03 0.  1.
         11   -1    0    0    0    0 -0.00000000000E+00 -0.00000000000E+00 -0.45593999997E+02  0.45594000000E+02  0.51100000000E-03 0. -1.
    9900012    2    1    2    0    0 -0.16785024275E+02  0.98073980829E+01 -0.38803364794E+02  0.47787271707E+02  0.20000003019E+02 0.  0.
        -12    1    1    2    0    0  0.16785024275E+02 -0.98073980829E+01  0.38803364794E+02  0.43400728293E+02  0.00000000000E+00 0.  1.
         11    1    3    3    0    0 -0.36656879145E+01 -0.29141722242E+01 -0.17527013073E+02  0.18141826125E+02  0.51100000000E-03 0. -1.
        -11    1    3    3    0    0 -0.14505960082E+02  0.12225203202E+02 -0.20661324121E+02  0.28049399030E+02  0.51100000000E-03 0.  1.
        -12    1    3    3    0    0  0.13866237213E+01  0.49636710519E+00 -0.61502759976E+00  0.15960465519E+01  0.00000000000E+00 0.  1.
</event>
<event>
 7    1  0.2950722E-010  0.4778727E+02  0.7816164E-02  0.1312668E+00
        -11   -1    0    0    0    0  0.00000000000E+00  0.00000000000E+00  0.45593999997E+02  0.45594000000E+02  0.51100000000E-03 0.  1.
         11   -1    0    0    0    0 -0.00000000000E+00 -0.00000000000E+00 -0.45593999997E+02  0.45594000000E+02  0.51100000000E-03 0. -1.
    9900012    2    1    2    0    0  0.38984797121E+02  0.57507267563E+01 -0.18186199429E+02  0.47787272881E+02  0.20000008373E+02 0.  0.
        -12    1    1    2    0    0 -0.38984797121E+02 -0.57507267563E+01  0.18186199429E+02  0.43400727119E+02  0.00000000000E+00 0.  1.
         11    1    3    3    0    0  0.11965556682E+02  0.64393155562E+01 -0.99229669461E+01  0.16825712610E+02  0.51100000000E-03 0.  1.
        -11    1    3    3    0    0  0.23889472277E+02 -0.15429551378E+01 -0.21434597235E+01  0.24035016457E+02  0.51100000000E-03 0. -1.
        -12    1    3    3    0    0  0.31297681613E+01  0.85436633795E+00 -0.61197727591E+01  0.69265438139E+01  0.00000000000E+00 0.  1.
</event>
<event>
 7    1  0.2950722E-010  0.4778727E+02  0.7816164E-02  0.1312668E+00
        -11   -1    0    0    0    0  0.00000000000E+00  0.00000000000E+00  0.45593999997E+02  0.45594000000E+02  0.51100000000E-03 0. -1.
         11   -1    0    0    0    0 -0.00000000000E+00 -0.00000000000E+00 -0.45593999997E+02  0.45594000000E+02  0.51100000000E-03 0.  1.
    9900012    2    1    2    0    0 -0.27020912462E+01 -0.14015336120E+02  0.40986493767E+02  0.47787267115E+02  0.19999982084E+02 0.  0.
        -12    1    1    2    0    0  0.27020912462E+01  0.14015336120E+02 -0.40986493767E+02  0.43400732885E+02  0.00000000000E+00 0.  1.
         11    1    3    3    0    0  0.39239232107E+01 -0.31174370727E+01  0.16319700985E+02  0.17071854843E+02  0.51100000000E-03 0. -1.
        -11    1    3    3    0    0 -0.85597447614E+01 -0.17424790732E+01  0.96010305241E+01  0.12980186866E+02  0.51100000000E-03 0.  1.
        -12    1    3    3    0    0  0.19337303045E+01 -0.91554199736E+01  0.15065762258E+02  0.17735225406E+02  0.00000000000E+00 0.  1.
</event>
<event>
 7    1  0.2950722E-010  0.4778728E+02  0.7816164E-02  0.1312668E+00
        -11   -1    0    0    0    0  0.00000000000E+00  0.00000000000E+00  0.45593999997E+02  0.45594000000E+02  0.51100000000E-03 0.  1.
         11   -1    0    0    0    0 -0.00000000000E+00 -0.00000000000E+00 -0.45593999997E+02  0.45594000000E+02  0.51100000000E-03 0. -1.
    9900012    2    1    2    0    0  0.31015245008E+02 -0.25670765921E+02 -0.16207688034E+02  0.47787276535E+02  0.20000025033E+02 0.  0.
        -12    1    1    2    0    0 -0.31015245008E+02  0.25670765921E+02  0.16207688034E+02  0.43400723465E+02  0.00000000000E+00 0.  1.
         11    1    3    3    0    0  0.21654083496E+02 -0.23093685403E+02 -0.18570723135E+02  0.36702716460E+02  0.51100000000E-03 0. -1.
        -11    1    3    3    0    0  0.23944593210E+01 -0.68003725805E+00  0.29268901210E+01  0.38422092803E+01  0.51100000000E-03 0.  1.
         12    1    3    3    0    0  0.69667021908E+01 -0.18970432600E+01 -0.56385502053E+00  0.72423507944E+01  0.00000000000E+00 0. -1.
</event>
<event>
 7    1  0.2950722E-010  0.4778726E+02  0.7816164E-02  0.1312668E+00
        -11   -1    0    0    0    0  0.00000000000E+00  0.00000000000E+00  0.45593999997E+02  0.45594000000E+02  0.51100000000E-03 0.  1.
         11   -1    0    0    0    0 -0.00000000000E+00 -0.00000000000E+00 -0.45593999997E+02  0.45594000000E+02  0.51100000000E-03 0. -1.
    9900012    2    1    2    0    0 -0.33793066617E+02  0.22265529119E+02 -0.15681167311E+02  0.47787260991E+02  0.19999954162E+02 0.  0.
        -12    1    1    2    0    0  0.33793066617E+02 -0.22265529119E+02  0.15681167311E+02  0.43400739009E+02  0.00000000000E+00 0.  1.
         11    1    3    3    0    0 -0.20945004623E+02  0.14212341974E+02 -0.18513514341E+02  0.31359752814E+02  0.51100000000E-03 0. -1.
        -11    1    3    3    0    0 -0.87951260110E+01  0.76441986762E+01  0.35171834348E+00  0.11658118245E+02  0.51100000000E-03 0.  1.
         12    1    3    3    0    0 -0.40529359829E+01  0.40898846913E+00  0.24806286866E+01  0.47693899327E+01  0.00000000000E+00 0. -1.
</event>
<event>
 7    1  0.2950722E-010  0.4778727E+02  0.7816164E-02  0.1312668E+00
        -11   -1    0    0    0    0  0.00000000000E+00  0.00000000000E+00  0.45593999997E+02  0.45594000000E+02  0.51100000000E-03 0. -1.
         11   -1    0    0    0    0 -0.00000000000E+00 -0.00000000000E+00 -0.45593999997E+02  0.45594000000E+02  0.51100000000E-03 0.  1.
    9900012    2    1    2    0    0 -0.25073454257E+02 -0.47981259450E+01  0.35098759759E+02  0.47787273536E+02  0.20000011359E+02 0.  0.
        -12    1    1    2    0    0  0.25073454257E+02  0.47981259450E+01 -0.35098759759E+02  0.43400726464E+02  0.00000000000E+00 0.  1.
         11    1    3    3    0    0 -0.25085958250E+02 -0.66911928206E+01  0.22967090132E+02  0.34663591736E+02  0.51100000000E-03 0. -1.
        -11    1    3    3    0    0  0.41064091212E+00  0.17570034874E+01  0.11624306959E+01  0.21463766205E+01  0.51100000000E-03 0.  1.
         12    1    3    3    0    0 -0.39813691933E+00  0.13606338825E+00  0.10969238932E+02  0.10977305179E+02  0.00000000000E+00 0. -1.
</event>
<event>
 7    1  0.2950722E-010  0.4778727E+02  0.7816164E-02  0.1312668E+00
        -11   -1    0    0    0    0  0.00000000000E+00  0.00000000000E+00  0.45593999997E+02  0.45594000000E+02  0.51100000000E-03 0.  1.
         11   -1    0    0    0    0 -0.00000000000E+00 -0.00000000000E+00 -0.45593999997E+02  0.45594000000E+02  0.51100000000E-03 0. -1.
    9900012    2    1    2    0    0  0.39366851799E+02  0.94510722228E+01 -0.15638145676E+02  0.47787269743E+02  0.19999994064E+02 0.  0.
        -12    1    1    2    0    0 -0.39366851799E+02 -0.94510722228E+01  0.15638145676E+02  0.43400730257E+02  0.00000000000E+00 0.  1.
         11    1    3    3    0    0  0.23514858949E+02  0.25952123701E+01 -0.38164961211E+01  0.23963500611E+02  0.51100000000E-03 0.  1.
        -11    1    3    3    0    0 -0.29266505893E-01 -0.54443238926E+00 -0.49875950263E+01  0.50173068037E+01  0.51100000000E-03 0. -1.
         12    1    3    3    0    0  0.15881259356E+02  0.74002922419E+01 -0.68340545281E+01  0.18806462328E+02  0.00000000000E+00 0. -1.
</event>
<event>
 7    1  0.2950722E-010  0.4778727E+02  0.7816164E-02  0.1312668E+00
        -11   -1    0    0    0    0  0.00000000000E+00  0.00000000000E+00  0.45593999997E+02  0.45594000000E+02  0.51100000000E-03 0. -1.
         11   -1    0    0    0    0 -0.00000000000E+00 -0.00000000000E+00 -0.45593999997E+02  0.45594000000E+02  0.51100000000E-03 0.  1.
    9900012    2    1    2    0    0 -0.21687456578E+02 -0.31290796216E+02 -0.20836591928E+02  0.47787271160E+02  0.20000000529E+02 0.  0.
        -12    1    1    2    0    0  0.21687456578E+02  0.31290796216E+02  0.20836591928E+02  0.43400728840E+02  0.00000000000E+00 0.  1.
         11    1    3    3    0    0 -0.37581815418E+01 -0.17234190286E+02 -0.12965227995E+02  0.21891513894E+02  0.51100000000E-03 0. -1.
        -11    1    3    3    0    0  0.11289356511E+00 -0.16063228050E+01 -0.30527444368E+01  0.34514151835E+01  0.51100000000E-03 0.  1.
         12    1    3    3    0    0 -0.18042168601E+02 -0.12450283125E+02 -0.48186194959E+01  0.22444342083E+02  0.00000000000E+00 0. -1.
</event>
<event>
 7    1  0.2950722E-010  0.4778727E+02  0.7816164E-02  0.1312668E+00
        -11   -1    0    0    0    0  0.00000000000E+00  0.00000000000E+00  0.45593999997E+02  0.45594000000E+02  0.51100000000E-03 0. -1.
         11   -1    0    0    0    0 -0.00000000000E+00 -0.00000000000E+00 -0.45593999997E+02  0.45594000000E+02  0.51100000000E-03 0.  1.
    9900012    2    1    2    0    0  0.36664310562E+01  0.21450427895E+02  0.37550760281E+02  0.47787272226E+02  0.20000005389E+02 0.  0.
        -12    1    1    2    0    0 -0.36664310562E+01 -0.21450427895E+02 -0.37550760281E+02  0.43400727774E+02  0.00000000000E+00 0.  1.
         11    1    3    3    0    0 -0.67684805005E+00  0.21978317674E+02  0.20918188880E+02  0.30349220704E+02  0.51100000000E-03 0. -1.
        -11    1    3    3    0    0  0.38682098391E+01 -0.13139010064E+01  0.11061503801E+02  0.11791787388E+02  0.51100000000E-03 0.  1.
        -12    1    3    3    0    0  0.47506926721E+00  0.78601122675E+00  0.55710676011E+01  0.56462641342E+01  0.00000000000E+00 0.  1.
</event>
<event>
 7    1  0.2950722E-010  0.4778726E+02  0.7816164E-02  0.1312668E+00
        -11   -1    0    0    0    0  0.00000000000E+00  0.00000000000E+00  0.45593999997E+02  0.45594000000E+02  0.51100000000E-03 0. -1.
         11   -1    0    0    0    0 -0.00000000000E+00 -0.00000000000E+00 -0.45593999997E+02  0.45594000000E+02  0.51100000000E-03 0.  1.
    9900012    2    1    2    0    0 -0.30970831991E+02  0.22256790039E+02  0.20713925082E+02  0.47787264645E+02  0.19999970821E+02 0.  0.
        -12    1    1    2    0    0  0.30970831991E+02 -0.22256790039E+02 -0.20713925082E+02  0.43400735355E+02  0.00000000000E+00 0.  1.
         11    1    3    3    0    0 -0.21271628418E+02  0.13283353452E+02  0.98026287226E+01  0.26926217422E+02  0.51100000000E-03 0. -1.
        -11    1    3    3    0    0 -0.77512345056E+01  0.40017364480E+01  0.11161075633E-01  0.87232823978E+01  0.51100000000E-03 0.  1.
         12    1    3    3    0    0 -0.19479690674E+01  0.49717001391E+01  0.10900135283E+02  0.12137764825E+02  0.00000000000E+00 0. -1.
</event>
<event>
 7    1  0.2950722E-010  0.4778727E+02  0.7816164E-02  0.1312668E+00
        -11   -1    0    0    0    0  0.00000000000E+00  0.00000000000E+00  0.45593999997E+02  0.45594000000E+02  0.51100000000E-03 0.  1.
         11   -1    0    0    0    0 -0.00000000000E+00 -0.00000000000E+00 -0.45593999997E+02  0.45594000000E+02  0.51100000000E-03 0. -1.
    9900012    2    1    2    0    0 -0.11944849171E+01  0.34605989089E+02 -0.26165283942E+02  0.47787270066E+02  0.19999995539E+02 0.  0.
        -12    1    1    2    0    0  0.11944849171E+01 -0.34605989089E+02  0.26165283942E+02  0.43400729934E+02  0.00000000000E+00 0.  1.
         11    1    3    3    0    0  0.54111045046E+01  0.18762576339E+02 -0.16275587565E+02  0.25420642669E+02  0.51100000000E-03 0. -1.
        -11    1    3    3    0    0 -0.35215140847E+01 -0.38231185714E+00 -0.18942740229E+01  0.40169015597E+01  0.51100000000E-03 0.  1.
        -12    1    3    3    0    0 -0.30840753370E+01  0.16225724607E+02 -0.79954223541E+01  0.18349725838E+02  0.00000000000E+00 0.  1.
</event>
<event>
 7    1  0.2950722E-010  0.4778727E+02  0.7816164E-02  0.1312668E+00
        -11   -1    0    0    0    0  0.00000000000E+00  0.00000000000E+00  0.45593999997E+02  0.45594000000E+02  0.51100000000E-03 0.  1.
         11   -1    0    0    0    0 -0.00000000000E+00 -0.00000000000E+00 -0.45593999997E+02  0.45594000000E+02  0.51100000000E-03 0. -1.
    9900012    2    1    2    0    0 -0.15302419125E+02  0.16754101888E+02 -0.36996749149E+02  0.47787269491E+02  0.19999992916E+02 0.  0.
        -12    1    1    2    0    0  0.15302419125E+02 -0.16754101888E+02  0.36996749149E+02  0.43400730509E+02  0.00000000000E+00 0.  1.
         11    1    3    3    0    0 -0.43858112926E+01 -0.26488249600E+01 -0.21104383562E+01  0.55412602068E+01  0.51100000000E-03 0. -1.
        -11    1    3    3    0    0 -0.56452799377E+01  0.61992823275E+01 -0.69118597708E+01  0.10866190349E+02  0.51100000000E-03 0.  1.
         12    1    3    3    0    0 -0.52713278948E+01  0.13203644521E+02 -0.27974451022E+02  0.31379818935E+02  0.00000000000E+00 0. -1.
</event>
<event>
 7    1  0.2950722E-010  0.4778727E+02  0.7816164E-02  0.1312668E+00
        -11   -1    0    0    0    0  0.00000000000E+00  0.00000000000E+00  0.45593999997E+02  0.45594000000E+02  0.51100000000E-03 0.  1.
         11   -1    0    0    0    0 -0.00000000000E+00 -0.00000000000E+00 -0.45593999997E+02  0.45594000000E+02  0.51100000000E-03 0. -1.
    9900012    2    1    2    0    0  0.22336834078E+02 -0.21862002127E+02 -0.30112156190E+02  0.47787271388E+02  0.20000001568E+02 0.  0.
        -12    1    1    2    0    0 -0.22336834078E+02  0.21862002127E+02  0.30112156190E+02  0.43400728612E+02  0.00000000000E+00 0.  1.
         11    1    3    3    0    0  0.82647028635E+01 -0.18157204680E+01 -0.18334763734E+02  0.20193209643E+02  0.51100000000E-03 0. -1.
        -11    1    3    3    0    0  0.83284772964E+01 -0.15622620211E+02 -0.84560326644E+01  0.19619742226E+02  0.51100000000E-03 0.  1.
        -12    1    3    3    0    0  0.57436539181E+01 -0.44236614479E+01 -0.33213597914E+01  0.79743195196E+01  0.00000000000E+00 0.  1.
</event>
<event>
 7    1  0.2950722E-010  0.4778728E+02  0.7816164E-02  0.1312668E+00
        -11   -1    0    0    0    0  0.00000000000E+00  0.00000000000E+00  0.45593999997E+02  0.45594000000E+02  0.51100000000E-03 0. -1.
         11   -1    0    0    0    0 -0.00000000000E+00 -0.00000000000E+00 -0.45593999997E+02  0.45594000000E+02  0.51100000000E-03 0.  1.
    9900012    2    1    2    0    0  0.29342665041E+01  0.37732796338E+02  0.21242622115E+02  0.47787276115E+02  0.20000023121E+02 0.  0.
        -12    1    1    2    0    0 -0.29342665041E+01 -0.37732796338E+02 -0.21242622115E+02  0.43400723885E+02  0.00000000000E+00 0.  1.
         11    1    3    3    0    0  0.90368072907E+01  0.30082794273E+02  0.16716792650E+02  0.35582152184E+02  0.51100000000E-03 0. -1.
        -11    1    3    3    0    0 -0.55898260818E+00 -0.32422642067E+00  0.20968485921E+01  0.21941646719E+01  0.51100000000E-03 0.  1.
         12    1    3    3    0    0 -0.55435581784E+01  0.79742284859E+01  0.24289808725E+01  0.10010959260E+02  0.00000000000E+00 0. -1.
</event>
<event>
 7    1  0.2950722E-010  0.4778728E+02  0.7816164E-02  0.1312668E+00
        -11   -1    0    0    0    0  0.00000000000E+00  0.00000000000E+00  0.45593999997E+02  0.45594000000E+02  0.51100000000E-03 0.  1.
         11   -1    0    0    0    0 -0.00000000000E+00 -0.00000000000E+00 -0.45593999997E+02  0.45594000000E+02  0.51100000000E-03 0. -1.
    9900012    2    1    2    0    0 -0.40542696521E+02  0.76257559745E+01  0.13481858993E+02  0.47787275152E+02  0.20000018729E+02 0.  0.
        -12    1    1    2    0    0  0.40542696521E+02 -0.76257559745E+01 -0.13481858993E+02  0.43400724848E+02  0.00000000000E+00 0.  1.
         11    1    3    3    0    0 -0.29615673293E+00  0.28315958210E+01  0.39754699062E+01  0.48897857765E+01  0.51100000000E-03 0.  1.
        -11    1    3    3    0    0 -0.39403547680E+02  0.63593522531E+01  0.83522789814E+01  0.40777953545E+02  0.51100000000E-03 0. -1.
         12    1    3    3    0    0 -0.84299210827E+00 -0.15651920997E+01  0.11541101053E+01  0.21195358310E+01  0.00000000000E+00 0. -1.
</event>
<event>
 7    1  0.2950722E-010  0.4778727E+02  0.7816164E-02  0.1312668E+00
        -11   -1    0    0    0    0  0.00000000000E+00  0.00000000000E+00  0.45593999997E+02  0.45594000000E+02  0.51100000000E-03 0.  1.
         11   -1    0    0    0    0 -0.00000000000E+00 -0.00000000000E+00 -0.45593999997E+02  0.45594000000E+02  0.51100000000E-03 0. -1.
    9900012    2    1    2    0    0 -0.36185109639E+02 -0.82840404155E+01 -0.22486344242E+02  0.47787272326E+02  0.20000005845E+02 0.  0.
        -12    1    1    2    0    0  0.36185109639E+02  0.82840404155E+01  0.22486344242E+02  0.43400727674E+02  0.00000000000E+00 0.  1.
         11    1    3    3    0    0 -0.15333525339E+02  0.10570519744E+01 -0.14595033126E+02  0.21195503071E+02  0.51100000000E-03 0. -1.
        -11    1    3    3    0    0 -0.61449700891E+01 -0.32575046280E+01  0.27150395081E+01  0.74661525292E+01  0.51100000000E-03 0.  1.
        -12    1    3    3    0    0 -0.14706614211E+02 -0.60835877619E+01 -0.10606350624E+02  0.19125616727E+02  0.00000000000E+00 0.  1.
</event>
<event>
 7    1  0.2950722E-010  0.4778727E+02  0.7816164E-02  0.1312668E+00
        -11   -1    0    0    0    0  0.00000000000E+00  0.00000000000E+00  0.45593999997E+02  0.45594000000E+02  0.51100000000E-03 0.  1.
         11   -1    0    0    0    0 -0.00000000000E+00 -0.00000000000E+00 -0.45593999997E+02  0.45594000000E+02  0.51100000000E-03 0. -1.
    9900012    2    1    2    0    0  0.19491241063E+00  0.40597574944E+02 -0.15343471420E+02  0.47787271925E+02  0.20000004015E+02 0.  0.
        -12    1    1    2    0    0 -0.19491241063E+00 -0.40597574944E+02  0.15343471420E+02  0.43400728075E+02  0.00000000000E+00 0.  1.
         11    1    3    3    0    0  0.63476864642E+01  0.21137898529E+02 -0.32767870505E+01  0.22312355575E+02  0.51100000000E-03 0. -1.
        -11    1    3    3    0    0  0.10887982339E+01  0.10939947284E+02 -0.40488321836E+01  0.11715842713E+02  0.51100000000E-03 0.  1.
        -12    1    3    3    0    0 -0.72415722875E+01  0.85197291319E+01 -0.80178521863E+01  0.13759073637E+02  0.00000000000E+00 0.  1.
</event>
<event>
 7    1  0.2950722E-010  0.4778727E+02  0.7816164E-02  0.1312668E+00
        -11   -1    0    0    0    0  0.00000000000E+00  0.00000000000E+00  0.45593999997E+02  0.45594000000E+02  0.51100000000E-03 0.  1.
         11   -1    0    0    0    0 -0.00000000000E+00 -0.00000000000E+00 -0.45593999997E+02  0.45594000000E+02  0.51100000000E-03 0. -1.
    9900012    2    1    2    0    0  0.20440767070E+02 -0.19970475192E+02 -0.32664632942E+02  0.47787273243E+02  0.20000010024E+02 0.  0.
        -12    1    1    2    0    0 -0.20440767070E+02  0.19970475192E+02  0.32664632942E+02  0.43400726757E+02  0.00000000000E+00 0.  1.
         11    1    3    3    0    0  0.37600959609E+01 -0.90502502591E+00 -0.14461093239E+02  0.14969322291E+02  0.51100000000E-03 0.  1.
        -11    1    3    3    0    0  0.15876638847E+02 -0.16210956189E+02 -0.19164203100E+02  0.29700664005E+02  0.51100000000E-03 0. -1.
        -12    1    3    3    0    0  0.80403226294E+00 -0.28544939768E+01  0.96066339739E+00  0.31172869464E+01  0.00000000000E+00 0.  1.
</event>
<event>
 7    1  0.2950722E-010  0.4778726E+02  0.7816164E-02  0.1312668E+00
        -11   -1    0    0    0    0  0.00000000000E+00  0.00000000000E+00  0.45593999997E+02  0.45594000000E+02  0.51100000000E-03 0. -1.
         11   -1    0    0    0    0 -0.00000000000E+00 -0.00000000000E+00 -0.45593999997E+02  0.45594000000E+02  0.51100000000E-03 0.  1.
    9900012    2    1    2    0    0  0.52750762637E+01 -0.38357112794E+02 -0.19609432789E+02  0.47787258234E+02  0.19999941593E+02 0.  0.
        -12    1    1    2    0    0 -0.52750762637E+01  0.38357112794E+02  0.19609432789E+02  0.43400741766E+02  0.00000000000E+00 0.  1.
         11    1    3    3    0    0  0.11117647657E+01 -0.12707969979E+02 -0.85190529972E+01  0.15339582332E+02  0.51100000000E-03 0. -1.
        -11    1    3    3    0    0  0.26324501601E+01 -0.24118496189E+02 -0.34491108031E+01  0.24505673177E+02  0.51100000000E-03 0.  1.
        -12    1    3    3    0    0  0.15308613379E+01 -0.15306466260E+01 -0.76412689886E+01  0.79420027251E+01  0.00000000000E+00 0.  1.
</event>
<event>
 7    1  0.2950722E-010  0.4778727E+02  0.7816164E-02  0.1312668E+00
        -11   -1    0    0    0    0  0.00000000000E+00  0.00000000000E+00  0.45593999997E+02  0.45594000000E+02  0.51100000000E-03 0. -1.
         11   -1    0    0    0    0 -0.00000000000E+00 -0.00000000000E+00 -0.45593999997E+02  0.45594000000E+02  0.51100000000E-03 0.  1.
    9900012    2    1    2    0    0  0.41211225038E+02 -0.74133221777E+01  0.11414948547E+02  0.47787268840E+02  0.19999989951E+02 0.  0.
        -12    1    1    2    0    0 -0.41211225038E+02  0.74133221777E+01 -0.11414948547E+02  0.43400731160E+02  0.00000000000E+00 0.  1.
         11    1    3    3    0    0  0.31580393615E+02 -0.11126445742E+02  0.11421533435E+02  0.35377542057E+02  0.51100000000E-03 0. -1.
        -11    1    3    3    0    0  0.96262972125E+01  0.26150940484E+01 -0.19627541931E+01  0.10166450668E+02  0.51100000000E-03 0.  1.
        -12    1    3    3    0    0  0.45342104171E-02  0.10980295160E+01  0.19561693052E+01  0.22432761149E+01  0.00000000000E+00 0.  1.
</event>
<event>
 7    1  0.2950722E-010  0.4778727E+02  0.7816164E-02  0.1312668E+00
        -11   -1    0    0    0    0  0.00000000000E+00  0.00000000000E+00  0.45593999997E+02  0.45594000000E+02  0.51100000000E-03 0.  1.
         11   -1    0    0    0    0 -0.00000000000E+00 -0.00000000000E+00 -0.45593999997E+02  0.45594000000E+02  0.51100000000E-03 0. -1.
    9900012    2    1    2    0    0  0.29210150118E+02 -0.12232199350E+02 -0.29677662750E+02  0.47787271467E+02  0.20000001927E+02 0.  0.
        -12    1    1    2    0    0 -0.29210150118E+02  0.12232199350E+02  0.29677662750E+02  0.43400728533E+02  0.00000000000E+00 0.  1.
         11    1    3    3    0    0  0.23820870752E+02 -0.13608636330E+02 -0.20537187215E+02  0.34269591843E+02  0.51100000000E-03 0. -1.
        -11    1    3    3    0    0  0.30501664924E+01  0.43397329934E+01 -0.24662799212E+01  0.58497294806E+01  0.51100000000E-03 0.  1.
        -12    1    3    3    0    0  0.23391128737E+01 -0.29632960136E+01 -0.66741956147E+01  0.76679501435E+01  0.00000000000E+00 0.  1.
</event>
<event>
 7    1  0.2950722E-010  0.4778728E+02  0.7816164E-02  0.1312668E+00
        -11   -1    0    0    0    0  0.00000000000E+00  0.00000000000E+00  0.45593999997E+02  0.45594000000E+02  0.51100000000E-03 0.  1.
         11   -1    0    0    0    0 -0.00000000000E+00 -0.00000000000E+00 -0.45593999997E+02  0.45594000000E+02  0.51100000000E-03 0. -1.
    9900012    2    1    2    0    0 -0.25719098808E+01 -0.22205921342E+02 -0.37200876677E+02  0.47787275483E+02  0.20000020237E+02 0.  0.
        -12    1    1    2    0    0  0.25719098808E+01  0.22205921342E+02  0.37200876677E+02  0.43400724517E+02  0.00000000000E+00 0.  1.
         11    1    3    3    0    0 -0.17352810336E+01 -0.65977129601E+01 -0.20234816935E+02  0.21353895036E+02  0.51100000000E-03 0.  1.
        -11    1    3    3    0    0 -0.54790013793E+01 -0.98974786569E+01 -0.49627388793E+01  0.12353473897E+02  0.51100000000E-03 0. -1.
        -12    1    3    3    0    0  0.46423725321E+01 -0.57107297250E+01 -0.12003320863E+02  0.14079906550E+02  0.00000000000E+00 0.  1.
</event>
<event>
 7    1  0.2950722E-010  0.4778727E+02  0.7816164E-02  0.1312668E+00
        -11   -1    0    0    0    0  0.00000000000E+00  0.00000000000E+00  0.45593999997E+02  0.45594000000E+02  0.51100000000E-03 0. -1.
         11   -1    0    0    0    0 -0.00000000000E+00 -0.00000000000E+00 -0.45593999997E+02  0.45594000000E+02  0.51100000000E-03 0.  1.
    9900012    2    1    2    0    0 -0.18278980294E+02  0.15492250982E+02  0.36186907840E+02  0.47787271203E+02  0.20000000723E+02 0.  0.
        -12    1    1    2    0    0  0.18278980294E+02 -0.15492250982E+02 -0.36186907840E+02  0.43400728797E+02  0.00000000000E+00 0.  1.
         11    1    3    3    0    0 -0.12985788436E+02  0.70950264325E+01  0.78757077493E+01  0.16762961379E+02  0.51100000000E-03 0. -1.
        -11    1    3    3    0    0 -0.37853537862E+01 -0.19611696210E+00  0.63745386262E+01  0.74163406143E+01  0.51100000000E-03 0.  1.
         12    1    3    3    0    0 -0.15078380716E+01  0.85933415114E+01  0.21936661465E+02  0.23607969210E+02  0.00000000000E+00 0. -1.
</event>
<event>
 7    1  0.2950722E-010  0.4778727E+02  0.7816164E-02  0.1312668E+00
        -11   -1    0    0    0    0  0.00000000000E+00  0.00000000000E+00  0.45593999997E+02  0.45594000000E+02  0.51100000000E-03 0.  1.
         11   -1    0    0    0    0 -0.00000000000E+00 -0.00000000000E+00 -0.45593999997E+02  0.45594000000E+02  0.51100000000E-03 0. -1.
    9900012    2    1    2    0    0  0.30196453586E+02  0.27740544164E+02 -0.14221801142E+02  0.47787271580E+02  0.20000002442E+02 0.  0.
        -12    1    1    2    0    0 -0.30196453586E+02 -0.27740544164E+02  0.14221801142E+02  0.43400728420E+02  0.00000000000E+00 0.  1.
         11    1    3    3    0    0  0.63556054403E+01  0.54827505718E+01 -0.13969989075E+00  0.83948669236E+01  0.51100000000E-03 0. -1.
        -11    1    3    3    0    0  0.24742341402E+02  0.14788380467E+02 -0.13547343368E+02  0.31849806396E+02  0.51100000000E-03 0.  1.
        -12    1    3    3    0    0 -0.90149325621E+00  0.74694131252E+01 -0.53475788379E+00  0.75425982606E+01  0.00000000000E+00 0.  1.
</event>
<event>
 7    1  0.2950722E-010  0.4778727E+02  0.7816164E-02  0.1312668E+00
        -11   -1    0    0    0    0  0.00000000000E+00  0.00000000000E+00  0.45593999997E+02  0.45594000000E+02  0.51100000000E-03 0.  1.
         11   -1    0    0    0    0 -0.00000000000E+00 -0.00000000000E+00 -0.45593999997E+02  0.45594000000E+02  0.51100000000E-03 0. -1.
    9900012    2    1    2    0    0 -0.74232424206E+01 -0.90608380837E+01 -0.41790195798E+02  0.47787265218E+02  0.19999973434E+02 0.  0.
        -12    1    1    2    0    0  0.74232424206E+01  0.90608380837E+01  0.41790195798E+02  0.43400734782E+02  0.00000000000E+00 0.  1.
         11    1    3    3    0    0 -0.92577358919E+01 -0.12658589333E+01 -0.20492713888E+02  0.22522419840E+02  0.51100000000E-03 0. -1.
        -11    1    3    3    0    0  0.41871098194E+01 -0.37332281447E+01 -0.29731863874E+01  0.63489147557E+01  0.51100000000E-03 0.  1.
         12    1    3    3    0    0 -0.23526163481E+01 -0.40617510056E+01 -0.18324295522E+02  0.18915930622E+02  0.00000000000E+00 0. -1.
</event>
<event>
 7    1  0.2950722E-010  0.4778727E+02  0.7816164E-02  0.1312668E+00
        -11   -1    0    0    0    0  0.00000000000E+00  0.00000000000E+00  0.45593999997E+02  0.45594000000E+02  0.51100000000E-03 0.  1.
         11   -1    0    0    0    0 -0.00000000000E+00 -0.00000000000E+00 -0.45593999997E+02  0.45594000000E+02  0.51100000000E-03 0. -1.
    9900012    2    1    2    0    0 -0.25489020304E+02  0.22210642126E+02 -0.27214346618E+02  0.47787269113E+02  0.19999991192E+02 0.  0.
        -12    1    1    2    0    0  0.25489020304E+02 -0.22210642126E+02  0.27214346618E+02  0.43400730887E+02  0.00000000000E+00 0.  1.
         11    1    3    3    0    0 -0.15481406774E+01  0.68956627981E+01 -0.25059167000E+00  0.70717537731E+01  0.51100000000E-03 0. -1.
        -11    1    3    3    0    0 -0.15057114755E+02  0.34344058006E+01 -0.16238010129E+02  0.22409480609E+02  0.51100000000E-03 0.  1.
         12    1    3    3    0    0 -0.88837648713E+01  0.11880573527E+02 -0.10725744819E+02  0.18306034731E+02  0.00000000000E+00 0. -1.
</event>
<event>
 7    1  0.2950722E-010  0.4778728E+02  0.7816164E-02  0.1312668E+00
        -11   -1    0    0    0    0  0.00000000000E+00  0.00000000000E+00  0.45593999997E+02  0.45594000000E+02  0.51100000000E-03 0.  1.
         11   -1    0    0    0    0 -0.00000000000E+00 -0.00000000000E+00 -0.45593999997E+02  0.45594000000E+02  0.51100000000E-03 0. -1.
    9900012    2    1    2    0    0 -0.15072596666E+02  0.23550067048E+02 -0.33193883788E+02  0.47787277090E+02  0.20000027563E+02 0.  0.
        -12    1    1    2    0    0  0.15072596666E+02 -0.23550067048E+02  0.33193883788E+02  0.43400722910E+02  0.00000000000E+00 0.  1.
         11    1    3    3    0    0 -0.12227423978E+02  0.42239333379E+01 -0.12613098087E+02  0.18067699179E+02  0.51100000000E-03 0. -1.
        -11    1    3    3    0    0  0.31901483023E+01  0.56591681370E+01 -0.59879182605E+01  0.88350662448E+01  0.51100000000E-03 0.  1.
        -12    1    3    3    0    0 -0.60353209904E+01  0.13666965573E+02 -0.14592867440E+02  0.20884511666E+02  0.00000000000E+00 0.  1.
</event>
<event>
 7    1  0.2950722E-010  0.4778727E+02  0.7816164E-02  0.1312668E+00
        -11   -1    0    0    0    0  0.00000000000E+00  0.00000000000E+00  0.45593999997E+02  0.45594000000E+02  0.51100000000E-03 0. -1.
         11   -1    0    0    0    0 -0.00000000000E+00 -0.00000000000E+00 -0.45593999997E+02  0.45594000000E+02  0.51100000000E-03 0.  1.
    9900012    2    1    2    0    0 -0.25586100336E+02  0.34876232645E+02  0.35528976365E+01  0.47787271717E+02  0.20000003065E+02 0.  0.
        -12    1    1    2    0    0  0.25586100336E+02 -0.34876232645E+02 -0.35528976365E+01  0.43400728283E+02  0.00000000000E+00 0.  1.
         11    1    3    3    0    0 -0.63219723715E+01  0.21741928687E+02  0.36388555651E+01  0.22932947211E+02  0.51100000000E-03 0. -1.
        -11    1    3    3    0    0 -0.15465273209E+02  0.94133582724E+01 -0.36283531034E+01  0.18464856780E+02  0.51100000000E-03 0.  1.
         12    1    3    3    0    0 -0.37988547556E+01  0.37209456855E+01  0.35423951748E+01  0.63894677261E+01  0.00000000000E+00 0. -1.
</event>
<event>
 7    1  0.2950722E-010  0.4778725E+02  0.7816164E-02  0.1312668E+00
        -11   -1    0    0    0    0  0.00000000000E+00  0.00000000000E+00  0.45593999997E+02  0.45594000000E+02  0.51100000000E-03 0.  1.
         11   -1    0    0    0    0 -0.00000000000E+00 -0.00000000000E+00 -0.45593999997E+02  0.45594000000E+02  0.51100000000E-03 0. -1.
    9900012    2    1    2    0    0 -0.31278614754E+02 -0.13890909586E+02 -0.26689254165E+02  0.47787246574E+02  0.19999888431E+02 0.  0.
        -12    1    1    2    0    0  0.31278614754E+02  0.13890909586E+02  0.26689254165E+02  0.43400753426E+02  0.00000000000E+00 0.  1.
         11    1    3    3    0    0 -0.19506023468E+02 -0.84158522032E+01 -0.55590266995E+01  0.21959378360E+02  0.51100000000E-03 0. -1.
        -11    1    3    3    0    0  0.71072310723E+00 -0.11589027888E+01 -0.38144695520E+01  0.40494890089E+01  0.51100000000E-03 0.  1.
         12    1    3    3    0    0 -0.12483314392E+02 -0.43161545943E+01 -0.17315757913E+02  0.21778379205E+02  0.00000000000E+00 0. -1.
</event>
<event>
 7    1  0.2950722E-010  0.4778727E+02  0.7816164E-02  0.1312668E+00
        -11   -1    0    0    0    0  0.00000000000E+00  0.00000000000E+00  0.45593999997E+02  0.45594000000E+02  0.51100000000E-03 0.  1.
         11   -1    0    0    0    0 -0.00000000000E+00 -0.00000000000E+00 -0.45593999997E+02  0.45594000000E+02  0.51100000000E-03 0. -1.
    9900012    2    1    2    0    0  0.34469979799E+02  0.12836488424E+02 -0.23036246412E+02  0.47787267389E+02  0.19999983334E+02 0.  0.
        -12    1    1    2    0    0 -0.34469979799E+02 -0.12836488424E+02  0.23036246412E+02  0.43400732611E+02  0.00000000000E+00 0.  1.
         11    1    3    3    0    0  0.12250683328E+02 -0.69359606862E+00  0.43199454488E+00  0.12277904424E+02  0.51100000000E-03 0. -1.
        -11    1    3    3    0    0  0.79826356242E+01  0.81778566123E+01 -0.10580051096E+02  0.15573608822E+02  0.51100000000E-03 0.  1.
         12    1    3    3    0    0  0.14236660847E+02  0.53522278807E+01 -0.12888189861E+02  0.19935754143E+02  0.00000000000E+00 0. -1.
</event>
<event>
 7    1  0.2950722E-010  0.4778725E+02  0.7816164E-02  0.1312668E+00
        -11   -1    0    0    0    0  0.00000000000E+00  0.00000000000E+00  0.45593999997E+02  0.45594000000E+02  0.51100000000E-03 0. -1.
         11   -1    0    0    0    0 -0.00000000000E+00 -0.00000000000E+00 -0.45593999997E+02  0.45594000000E+02  0.51100000000E-03 0.  1.
    9900012    2    1    2    0    0  0.41256687858E+02 -0.19241025247E+01  0.13334496336E+02  0.47787248208E+02  0.19999895879E+02 0.  0.
        -12    1    1    2    0    0 -0.41256687858E+02  0.19241025247E+01 -0.13334496336E+02  0.43400751792E+02  0.00000000000E+00 0.  1.
         11    1    3    3    0    0  0.63914799256E+01  0.64111494129E+01  0.78716973441E+00  0.90869955918E+01  0.51100000000E-03 0.  1.
        -11    1    3    3    0    0  0.28698969735E+02 -0.80181234268E+01  0.75051136348E+01  0.30728616925E+02  0.51100000000E-03 0. -1.
         12    1    3    3    0    0  0.61662381974E+01 -0.31712851076E+00  0.50422129666E+01  0.79716356916E+01  0.00000000000E+00 0. -1.
</event>
<event>
 7    1  0.2950722E-010  0.4778727E+02  0.7816164E-02  0.1312668E+00
        -11   -1    0    0    0    0  0.00000000000E+00  0.00000000000E+00  0.45593999997E+02  0.45594000000E+02  0.51100000000E-03 0.  1.
         11   -1    0    0    0    0 -0.00000000000E+00 -0.00000000000E+00 -0.45593999997E+02  0.45594000000E+02  0.51100000000E-03 0. -1.
    9900012    2    1    2    0    0 -0.24309767626E+02 -0.18859935883E+01 -0.35904064208E+02  0.47787267282E+02  0.19999982844E+02 0.  0.
        -12    1    1    2    0    0  0.24309767626E+02  0.18859935883E+01  0.35904064208E+02  0.43400732718E+02  0.00000000000E+00 0.  1.
         11    1    3    3    0    0 -0.94744222818E+01 -0.81187636001E+00 -0.29221934919E+02  0.30730201781E+02  0.51100000000E-03 0. -1.
        -11    1    3    3    0    0 -0.12359009087E+02  0.53020956239E+00 -0.67766599252E+01  0.14104940545E+02  0.51100000000E-03 0.  1.
         12    1    3    3    0    0 -0.24763362575E+01 -0.16043267907E+01  0.94530636595E-01  0.29521249555E+01  0.00000000000E+00 0. -1.
</event>
<event>
 7    1  0.2950722E-010  0.4778727E+02  0.7816164E-02  0.1312668E+00
        -11   -1    0    0    0    0  0.00000000000E+00  0.00000000000E+00  0.45593999997E+02  0.45594000000E+02  0.51100000000E-03 0.  1.
         11   -1    0    0    0    0 -0.00000000000E+00 -0.00000000000E+00 -0.45593999997E+02  0.45594000000E+02  0.51100000000E-03 0. -1.
    9900012    2    1    2    0    0  0.29523171085E+02  0.55923493119E+01 -0.31316627795E+02  0.47787272147E+02  0.20000005026E+02 0.  0.
        -12    1    1    2    0    0 -0.29523171085E+02 -0.55923493119E+01  0.31316627795E+02  0.43400727853E+02  0.00000000000E+00 0.  1.
         11    1    3    3    0    0  0.56698836406E+01  0.69554562766E+00 -0.16859370184E+02  0.17800835022E+02  0.51100000000E-03 0. -1.
        -11    1    3    3    0    0  0.21560218218E+02  0.26809073620E+01 -0.15435272602E+02  0.26651039650E+02  0.51100000000E-03 0.  1.
        -12    1    3    3    0    0  0.22930692267E+01  0.22158963223E+01  0.97801499097E+00  0.33353974744E+01  0.00000000000E+00 0.  1.
</event>
<event>
 7    1  0.2950722E-010  0.4778727E+02  0.7816164E-02  0.1312668E+00
        -11   -1    0    0    0    0  0.00000000000E+00  0.00000000000E+00  0.45593999997E+02  0.45594000000E+02  0.51100000000E-03 0.  1.
         11   -1    0    0    0    0 -0.00000000000E+00 -0.00000000000E+00 -0.45593999997E+02  0.45594000000E+02  0.51100000000E-03 0. -1.
    9900012    2    1    2    0    0  0.13234190826E+02 -0.37430311953E+02 -0.17534282594E+02  0.47787272750E+02  0.20000007777E+02 0.  0.
        -12    1    1    2    0    0 -0.13234190826E+02  0.37430311953E+02  0.17534282594E+02  0.43400727250E+02  0.00000000000E+00 0.  1.
         11    1    3    3    0    0  0.94956064733E+01 -0.27068459094E+02 -0.15134409568E+02  0.32433291126E+02  0.51100000000E-03 0. -1.
        -11    1    3    3    0    0  0.41752334813E+01  0.28199279190E+00  0.73652899639E+00  0.42490669308E+01  0.51100000000E-03 0.  1.
        -12    1    3    3    0    0 -0.43664912830E+00 -0.10643845651E+02 -0.31364020217E+01  0.11104914693E+02  0.00000000000E+00 0.  1.
</event>
<event>
 7    1  0.2950722E-010  0.4778727E+02  0.7816164E-02  0.1312668E+00
        -11   -1    0    0    0    0  0.00000000000E+00  0.00000000000E+00  0.45593999997E+02  0.45594000000E+02  0.51100000000E-03 0.  1.
         11   -1    0    0    0    0 -0.00000000000E+00 -0.00000000000E+00 -0.45593999997E+02  0.45594000000E+02  0.51100000000E-03 0. -1.
    9900012    2    1    2    0    0 -0.30157138402E+02 -0.14280262808E+02 -0.27753273825E+02  0.47787272927E+02  0.20000008582E+02 0.  0.
        -12    1    1    2    0    0  0.30157138402E+02  0.14280262808E+02  0.27753273825E+02  0.43400727073E+02  0.00000000000E+00 0.  1.
         11    1    3    3    0    0 -0.65573961629E+01 -0.97043941829E+01 -0.23652878103E+01  0.11948610697E+02  0.51100000000E-03 0.  1.
        -11    1    3    3    0    0 -0.19909533399E+02 -0.66953560541E+01 -0.20384694475E+02  0.29270344753E+02  0.51100000000E-03 0. -1.
        -12    1    3    3    0    0 -0.36902088402E+01  0.21194874292E+01 -0.50032915401E+01  0.65683174773E+01  0.00000000000E+00 0.  1.
</event>
<event>
 7    1  0.2950722E-010  0.4778727E+02  0.7816164E-02  0.1312668E+00
        -11   -1    0    0    0    0  0.00000000000E+00  0.00000000000E+00  0.45593999997E+02  0.45594000000E+02  0.51100000000E-03 0.  1.
         11   -1    0    0    0    0 -0.00000000000E+00 -0.00000000000E+00 -0.45593999997E+02  0.45594000000E+02  0.51100000000E-03 0. -1.
    9900012    2    1    2    0    0 -0.19011719115E+02 -0.27603147826E+02 -0.27572520580E+02  0.47787272762E+02  0.20000007833E+02 0.  0.
        -12    1    1    2    0    0  0.19011719115E+02  0.27603147826E+02  0.27572520580E+02  0.43400727238E+02  0.00000000000E+00 0.  1.
         11    1    3    3    0    0 -0.79061098455E+01 -0.88731964808E+01 -0.11724731674E+01  0.11942147306E+02  0.51100000000E-03 0. -1.
        -11    1    3    3    0    0  0.32469885582E+00 -0.37545381496E+01 -0.47564943728E+00  0.37984508306E+01  0.51100000000E-03 0.  1.
         12    1    3    3    0    0 -0.11430308125E+02 -0.14975413195E+02 -0.25924397976E+02  0.32046674626E+02  0.00000000000E+00 0. -1.
</event>
<event>
 7    1  0.2950722E-010  0.4778729E+02  0.7816164E-02  0.1312668E+00
        -11   -1    0    0    0    0  0.00000000000E+00  0.00000000000E+00  0.45593999997E+02  0.45594000000E+02  0.51100000000E-03 0.  1.
         11   -1    0    0    0    0 -0.00000000000E+00 -0.00000000000E+00 -0.45593999997E+02  0.45594000000E+02  0.51100000000E-03 0. -1.
    9900012    2    1    2    0    0 -0.11009102519E+02 -0.35251668547E+02 -0.22797829902E+02  0.47787291229E+02  0.20000092029E+02 0.  0.
        -12    1    1    2    0    0  0.11009102519E+02  0.35251668547E+02  0.22797829902E+02  0.43400708771E+02  0.00000000000E+00 0.  1.
         11    1    3    3    0    0 -0.11797737881E+02 -0.33646158323E+02 -0.19752392754E+02  0.40760368114E+02  0.51100000000E-03 0. -1.
        -11    1    3    3    0    0  0.29541687543E+01 -0.15445017473E+01 -0.34782038758E+01  0.48177277984E+01  0.51100000000E-03 0.  1.
         12    1    3    3    0    0 -0.21655333921E+01 -0.61008476526E-01  0.43276672818E+00  0.22091953168E+01  0.00000000000E+00 0. -1.
</event>
<event>
 7    1  0.2950722E-010  0.4778727E+02  0.7816164E-02  0.1312668E+00
        -11   -1    0    0    0    0  0.00000000000E+00  0.00000000000E+00  0.45593999997E+02  0.45594000000E+02  0.51100000000E-03 0.  1.
         11   -1    0    0    0    0 -0.00000000000E+00 -0.00000000000E+00 -0.45593999997E+02  0.45594000000E+02  0.51100000000E-03 0. -1.
    9900012    2    1    2    0    0  0.30466530686E+01  0.42661094232E+02 -0.73737804925E+01  0.47787266196E+02  0.19999977894E+02 0.  0.
        -12    1    1    2    0    0 -0.30466530686E+01 -0.42661094232E+02  0.73737804925E+01  0.43400733804E+02  0.00000000000E+00 0.  1.
         11    1    3    3    0    0  0.52975630907E+01  0.30667330420E+02 -0.11010916404E+02  0.33011961622E+02  0.51100000000E-03 0. -1.
        -11    1    3    3    0    0 -0.90973134532E+00  0.10823058055E+01  0.35066552149E+01  0.37809559683E+01  0.51100000000E-03 0.  1.
        -12    1    3    3    0    0 -0.13411786768E+01  0.10911458006E+02  0.13048069632E+00  0.10994348606E+02  0.00000000000E+00 0.  1.
</event>
<event>
 7    1  0.2950722E-010  0.4778727E+02  0.7816164E-02  0.1312668E+00
        -11   -1    0    0    0    0  0.00000000000E+00  0.00000000000E+00  0.45593999997E+02  0.45594000000E+02  0.51100000000E-03 0.  1.
         11   -1    0    0    0    0 -0.00000000000E+00 -0.00000000000E+00 -0.45593999997E+02  0.45594000000E+02  0.51100000000E-03 0. -1.
    9900012    2    1    2    0    0 -0.97103297782E-02 -0.25777938274E+02 -0.34915914697E+02  0.47787270800E+02  0.19999998887E+02 0.  0.
        -12    1    1    2    0    0  0.97103297782E-02  0.25777938274E+02  0.34915914697E+02  0.43400729200E+02  0.00000000000E+00 0.  1.
         11    1    3    3    0    0  0.29314018106E+01 -0.17585878315E+02 -0.29005199138E+02  0.34046406712E+02  0.51100000000E-03 0. -1.
        -11    1    3    3    0    0  0.16563285545E-01 -0.17671686515E+01  0.23020704476E+01  0.29021867604E+01  0.51100000000E-03 0.  1.
         12    1    3    3    0    0 -0.29576754260E+01 -0.64248913069E+01 -0.82127860062E+01  0.10838677328E+02  0.00000000000E+00 0. -1.
</event>
<event>
 7    1  0.2950722E-010  0.4778727E+02  0.7816164E-02  0.1312668E+00
        -11   -1    0    0    0    0  0.00000000000E+00  0.00000000000E+00  0.45593999997E+02  0.45594000000E+02  0.51100000000E-03 0.  1.
         11   -1    0    0    0    0 -0.00000000000E+00 -0.00000000000E+00 -0.45593999997E+02  0.45594000000E+02  0.51100000000E-03 0. -1.
    9900012    2    1    2    0    0  0.32050151108E+01  0.38472878204E+02 -0.19828988601E+02  0.47787271111E+02  0.20000000302E+02 0.  0.
        -12    1    1    2    0    0 -0.32050151108E+01 -0.38472878204E+02  0.19828988601E+02  0.43400728889E+02  0.00000000000E+00 0.  1.
         11    1    3    3    0    0  0.62902116730E+01  0.30724535469E+02 -0.16717304864E+02  0.35539163255E+02  0.51100000000E-03 0. -1.
        -11    1    3    3    0    0  0.44470656155E+00  0.20596108633E+00  0.22770062531E+01  0.23291504100E+01  0.51100000000E-03 0.  1.
        -12    1    3    3    0    0 -0.35299031238E+01  0.75423816486E+01 -0.53886899910E+01  0.99189574460E+01  0.00000000000E+00 0.  1.
</event>
<event>
 7    1  0.2950722E-010  0.4778727E+02  0.7816164E-02  0.1312668E+00
        -11   -1    0    0    0    0  0.00000000000E+00  0.00000000000E+00  0.45593999997E+02  0.45594000000E+02  0.51100000000E-03 0. -1.
         11   -1    0    0    0    0 -0.00000000000E+00 -0.00000000000E+00 -0.45593999997E+02  0.45594000000E+02  0.51100000000E-03 0.  1.
    9900012    2    1    2    0    0 -0.37892239649E+02  0.20982747737E+02 -0.27433677438E+01  0.47787267348E+02  0.19999983145E+02 0.  0.
        -12    1    1    2    0    0  0.37892239649E+02 -0.20982747737E+02  0.27433677438E+01  0.43400732652E+02  0.00000000000E+00 0.  1.
         11    1    3    3    0    0 -0.34227151860E+02  0.17311360148E+02  0.20432929005E+01  0.38410365278E+02  0.51100000000E-03 0. -1.
        -11    1    3    3    0    0 -0.13069134232E+01  0.50796662498E+01 -0.25365923506E+01  0.58262623455E+01  0.51100000000E-03 0.  1.
         12    1    3    3    0    0 -0.23581743651E+01 -0.14082786614E+01 -0.22500682936E+01  0.35506397241E+01  0.00000000000E+00 0. -1.
</event>
<event>
 7    1  0.2950722E-010  0.4778727E+02  0.7816164E-02  0.1312668E+00
        -11   -1    0    0    0    0  0.00000000000E+00  0.00000000000E+00  0.45593999997E+02  0.45594000000E+02  0.51100000000E-03 0. -1.
         11   -1    0    0    0    0 -0.00000000000E+00 -0.00000000000E+00 -0.45593999997E+02  0.45594000000E+02  0.51100000000E-03 0.  1.
    9900012    2    1    2    0    0 -0.14335258869E+01 -0.37185325459E+02  0.22334285929E+02  0.47787265514E+02  0.19999974785E+02 0.  0.
        -12    1    1    2    0    0  0.14335258869E+01  0.37185325459E+02 -0.22334285929E+02  0.43400734486E+02  0.00000000000E+00 0.  1.
         11    1    3    3    0    0  0.78177661867E+01 -0.23536655601E+02  0.10511773168E+02  0.26936759279E+02  0.51100000000E-03 0. -1.
        -11    1    3    3    0    0 -0.45896466580E+01 -0.52232284376E+01  0.77035313638E+01  0.10377445133E+02  0.51100000000E-03 0.  1.
         12    1    3    3    0    0 -0.46616454156E+01 -0.84254414197E+01  0.41189813973E+01  0.10473061102E+02  0.00000000000E+00 0. -1.
</event>
<event>
 7    1  0.2950722E-010  0.4778726E+02  0.7816164E-02  0.1312668E+00
        -11   -1    0    0    0    0  0.00000000000E+00  0.00000000000E+00  0.45593999997E+02  0.45594000000E+02  0.51100000000E-03 0.  1.
         11   -1    0    0    0    0 -0.00000000000E+00 -0.00000000000E+00 -0.45593999997E+02  0.45594000000E+02  0.51100000000E-03 0. -1.
    9900012    2    1    2    0    0 -0.21256852008E+02 -0.37460406185E+02 -0.53374678463E+01  0.47787258626E+02  0.19999943377E+02 0.  0.
        -12    1    1    2    0    0  0.21256852008E+02  0.37460406185E+02  0.53374678463E+01  0.43400741374E+02  0.00000000000E+00 0.  1.
         11    1    3    3    0    0 -0.13926446467E+01  0.18655541748E+01 -0.82180368805E+00  0.24688282755E+01  0.51100000000E-03 0. -1.
        -11    1    3    3    0    0 -0.24956370249E+01 -0.70427651521E+01  0.27214232850E+01  0.79520368526E+01  0.51100000000E-03 0.  1.
         12    1    3    3    0    0 -0.17368570336E+02 -0.32283195208E+02 -0.72370874433E+01  0.37366393498E+02  0.00000000000E+00 0. -1.
</event>
<event>
 7    1  0.2950722E-010  0.4778727E+02  0.7816164E-02  0.1312668E+00
        -11   -1    0    0    0    0  0.00000000000E+00  0.00000000000E+00  0.45593999997E+02  0.45594000000E+02  0.51100000000E-03 0.  1.
         11   -1    0    0    0    0 -0.00000000000E+00 -0.00000000000E+00 -0.45593999997E+02  0.45594000000E+02  0.51100000000E-03 0. -1.
    9900012    2    1    2    0    0 -0.28022839415E+02 -0.28157894701E+02 -0.17477883912E+02  0.47787274327E+02  0.20000014968E+02 0.  0.
        -12    1    1    2    0    0  0.28022839415E+02  0.28157894701E+02  0.17477883912E+02  0.43400725673E+02  0.00000000000E+00 0.  1.
         11    1    3    3    0    0 -0.45864795460E+01 -0.58900299575E+01 -0.51028049247E+01  0.90425032976E+01  0.51100000000E-03 0. -1.
        -11    1    3    3    0    0 -0.15280353889E+02 -0.22976802206E+02 -0.13061879375E+02  0.30529253965E+02  0.51100000000E-03 0.  1.
        -12    1    3    3    0    0 -0.81560059800E+01  0.70893746239E+00  0.68680038784E+00  0.82155170650E+01  0.00000000000E+00 0.  1.
</event>
<event>
 7    1  0.2950722E-010  0.4778727E+02  0.7816164E-02  0.1312668E+00
        -11   -1    0    0    0    0  0.00000000000E+00  0.00000000000E+00  0.45593999997E+02  0.45594000000E+02  0.51100000000E-03 0.  1.
         11   -1    0    0    0    0 -0.00000000000E+00 -0.00000000000E+00 -0.45593999997E+02  0.45594000000E+02  0.51100000000E-03 0. -1.
    9900012    2    1    2    0    0 -0.11520354831E+02  0.92079153725E+01 -0.40818118675E+02  0.47787273127E+02  0.20000009494E+02 0.  0.
        -12    1    1    2    0    0  0.11520354831E+02 -0.92079153725E+01  0.40818118675E+02  0.43400726873E+02  0.00000000000E+00 0.  1.
         11    1    3    3    0    0 -0.72828111339E+01  0.19893447559E+01 -0.14245700516E+02  0.16122556063E+02  0.51100000000E-03 0. -1.
        -11    1    3    3    0    0  0.48710632851E+01 -0.47161794315E+00 -0.48714712822E+01  0.69051367637E+01  0.51100000000E-03 0.  1.
        -12    1    3    3    0    0 -0.91086069825E+01  0.76901885597E+01 -0.21700946877E+02  0.24759580300E+02  0.00000000000E+00 0.  1.
</event>
<event>
 7    1  0.2950722E-010  0.4778727E+02  0.7816164E-02  0.1312668E+00
        -11   -1    0    0    0    0  0.00000000000E+00  0.00000000000E+00  0.45593999997E+02  0.45594000000E+02  0.51100000000E-03 0.  1.
         11   -1    0    0    0    0 -0.00000000000E+00 -0.00000000000E+00 -0.45593999997E+02  0.45594000000E+02  0.51100000000E-03 0. -1.
    9900012    2    1    2    0    0 -0.15709428904E+02  0.30024834465E+02 -0.27117274785E+02  0.47787269212E+02  0.19999991645E+02 0.  0.
        -12    1    1    2    0    0  0.15709428904E+02 -0.30024834465E+02  0.27117274785E+02  0.43400730788E+02  0.00000000000E+00 0.  1.
         11    1    3    3    0    0 -0.17520099976E+02  0.20845364869E+02 -0.14330476185E+02  0.30770857765E+02  0.51100000000E-03 0. -1.
        -11    1    3    3    0    0  0.28335690834E+01  0.94441281401E+01 -0.12501594084E+02  0.15922013848E+02  0.51100000000E-03 0.  1.
         12    1    3    3    0    0 -0.10228980116E+01 -0.26465854348E+00 -0.28520451642E+00  0.10943975982E+01  0.00000000000E+00 0. -1.
</event>
<event>
 7    1  0.2950722E-010  0.4778728E+02  0.7816164E-02  0.1312668E+00
        -11   -1    0    0    0    0  0.00000000000E+00  0.00000000000E+00  0.45593999997E+02  0.45594000000E+02  0.51100000000E-03 0.  1.
         11   -1    0    0    0    0 -0.00000000000E+00 -0.00000000000E+00 -0.45593999997E+02  0.45594000000E+02  0.51100000000E-03 0. -1.
    9900012    2    1    2    0    0 -0.20925961148E+02  0.28455704109E+02 -0.25219038122E+02  0.47787276157E+02  0.20000023311E+02 0.  0.
        -12    1    1    2    0    0  0.20925961148E+02 -0.28455704109E+02  0.25219038122E+02  0.43400723843E+02  0.00000000000E+00 0.  1.
         11    1    3    3    0    0 -0.81449032322E+01  0.26193232094E+02 -0.16128264523E+02  0.31820524398E+02  0.51100000000E-03 0. -1.
        -11    1    3    3    0    0 -0.10719425571E+02  0.24775351297E+01 -0.81421312178E+01  0.13687167929E+02  0.51100000000E-03 0.  1.
         12    1    3    3    0    0 -0.20616323445E+01 -0.21506311537E+00 -0.94864238146E+00  0.22795838294E+01  0.00000000000E+00 0. -1.
</event>
<event>
 7    1  0.2950722E-010  0.4778727E+02  0.7816164E-02  0.1312668E+00
        -11   -1    0    0    0    0  0.00000000000E+00  0.00000000000E+00  0.45593999997E+02  0.45594000000E+02  0.51100000000E-03 0.  1.
         11   -1    0    0    0    0 -0.00000000000E+00 -0.00000000000E+00 -0.45593999997E+02  0.45594000000E+02  0.51100000000E-03 0. -1.
    9900012    2    1    2    0    0  0.13699576941E+02 -0.93498243758E+01 -0.40106427394E+02  0.47787272557E+02  0.20000006898E+02 0.  0.
        -12    1    1    2    0    0 -0.13699576941E+02  0.93498243758E+01  0.40106427394E+02  0.43400727443E+02  0.00000000000E+00 0.  1.
         11    1    3    3    0    0  0.12884319619E+02 -0.49798941705E+01 -0.37091811949E+02  0.39580393529E+02  0.51100000000E-03 0. -1.
        -11    1    3    3    0    0  0.14334120270E+01 -0.61070966283E+00  0.15929733993E+01  0.22282730630E+01  0.51100000000E-03 0.  1.
        -12    1    3    3    0    0 -0.61815470501E+00 -0.37592205425E+01 -0.46075888448E+01  0.59786059653E+01  0.00000000000E+00 0.  1.
</event>
<event>
 7    1  0.2950722E-010  0.4778727E+02  0.7816164E-02  0.1312668E+00
        -11   -1    0    0    0    0  0.00000000000E+00  0.00000000000E+00  0.45593999997E+02  0.45594000000E+02  0.51100000000E-03 0. -1.
         11   -1    0    0    0    0 -0.00000000000E+00 -0.00000000000E+00 -0.45593999997E+02  0.45594000000E+02  0.51100000000E-03 0.  1.
    9900012    2    1    2    0    0 -0.57757088819E+01  0.35620638866E+02  0.24112953924E+02  0.47787271051E+02  0.20000000031E+02 0.  0.
        -12    1    1    2    0    0  0.57757088819E+01 -0.35620638866E+02 -0.24112953924E+02  0.43400728949E+02  0.00000000000E+00 0.  1.
         11    1    3    3    0    0 -0.50948712964E+00 -0.19144313540E+01 -0.36305026526E-01  0.19813992179E+01  0.51100000000E-03 0.  1.
        -11    1    3    3    0    0 -0.92183477875E+00  0.26141380677E+02  0.12693132994E+02  0.29074682948E+02  0.51100000000E-03 0. -1.
        -12    1    3    3    0    0 -0.43443869735E+01  0.11393689544E+02  0.11456125956E+02  0.16731188885E+02  0.00000000000E+00 0.  1.
</event>
<event>
 7    1  0.2950722E-010  0.4778727E+02  0.7816164E-02  0.1312668E+00
        -11   -1    0    0    0    0  0.00000000000E+00  0.00000000000E+00  0.45593999997E+02  0.45594000000E+02  0.51100000000E-03 0. -1.
         11   -1    0    0    0    0 -0.00000000000E+00 -0.00000000000E+00 -0.45593999997E+02  0.45594000000E+02  0.51100000000E-03 0.  1.
    9900012    2    1    2    0    0  0.21699314431E+02 -0.36950320015E+02  0.68874189065E+01  0.47787274946E+02  0.20000017789E+02 0.  0.
        -12    1    1    2    0    0 -0.21699314431E+02  0.36950320015E+02 -0.68874189065E+01  0.43400725054E+02  0.00000000000E+00 0.  1.
         11    1    3    3    0    0  0.41528815089E+01 -0.32702184701E+01  0.11936197607E+01  0.54189927167E+01  0.51100000000E-03 0.  1.
        -11    1    3    3    0    0  0.16545831793E+02 -0.20143958711E+02  0.10308352994E+02  0.28032227239E+02  0.51100000000E-03 0. -1.
        -12    1    3    3    0    0  0.10006011287E+01 -0.13536142835E+02 -0.46145538486E+01  0.14336054990E+02  0.00000000000E+00 0.  1.
</event>
<event>
 7    1  0.2950722E-010  0.4778727E+02  0.7816164E-02  0.1312668E+00
        -11   -1    0    0    0    0  0.00000000000E+00  0.00000000000E+00  0.45593999997E+02  0.45594000000E+02  0.51100000000E-03 0. -1.
         11   -1    0    0    0    0 -0.00000000000E+00 -0.00000000000E+00 -0.45593999997E+02  0.45594000000E+02  0.51100000000E-03 0.  1.
    9900012    2    1    2    0    0 -0.74589283056E+00 -0.43291236035E+02 -0.29892905969E+01  0.47787270377E+02  0.19999996956E+02 0.  0.
        -12    1    1    2    0    0  0.74589283056E+00  0.43291236035E+02  0.29892905969E+01  0.43400729623E+02  0.00000000000E+00 0.  1.
         11    1    3    3    0    0 -0.14120977102E+01  0.51584360913E+00 -0.18651089899E+00  0.15148931146E+01  0.51100000000E-03 0. -1.
        -11    1    3    3    0    0  0.30840788535E+01 -0.42869060992E+02 -0.78599034483E+00  0.42987041231E+02  0.51100000000E-03 0.  1.
        -12    1    3    3    0    0 -0.24178739739E+01 -0.93801865259E+00 -0.20167893530E+01  0.32853360316E+01  0.00000000000E+00 0.  1.
</event>
<event>
 7    1  0.2950722E-010  0.4778727E+02  0.7816164E-02  0.1312668E+00
        -11   -1    0    0    0    0  0.00000000000E+00  0.00000000000E+00  0.45593999997E+02  0.45594000000E+02  0.51100000000E-03 0. -1.
         11   -1    0    0    0    0 -0.00000000000E+00 -0.00000000000E+00 -0.45593999997E+02  0.45594000000E+02  0.51100000000E-03 0.  1.
    9900012    2    1    2    0    0 -0.13074936710E+02 -0.41367950433E+02  0.11669350982E+01  0.47787273848E+02  0.20000012783E+02 0.  0.
        -12    1    1    2    0    0  0.13074936710E+02  0.41367950433E+02 -0.11669350982E+01  0.43400726152E+02  0.00000000000E+00 0.  1.
         11    1    3    3    0    0 -0.10353823591E+02 -0.31669724063E+02 -0.75392363263E+01  0.34161574463E+02  0.51100000000E-03 0. -1.
        -11    1    3    3    0    0 -0.29061935655E+01 -0.90442382300E+01  0.70331067112E+01  0.11819847566E+02  0.51100000000E-03 0.  1.
        -12    1    3    3    0    0  0.18508044650E+00 -0.65398814030E+00  0.16730647133E+01  0.18058518195E+01  0.00000000000E+00 0.  1.
</event>
<event>
 7    1  0.2950722E-010  0.4778727E+02  0.7816164E-02  0.1312668E+00
        -11   -1    0    0    0    0  0.00000000000E+00  0.00000000000E+00  0.45593999997E+02  0.45594000000E+02  0.51100000000E-03 0.  1.
         11   -1    0    0    0    0 -0.00000000000E+00 -0.00000000000E+00 -0.45593999997E+02  0.45594000000E+02  0.51100000000E-03 0. -1.
    9900012    2    1    2    0    0 -0.22613678919E+02  0.22225626079E+02 -0.29635561123E+02  0.47787269453E+02  0.19999992746E+02 0.  0.
        -12    1    1    2    0    0  0.22613678919E+02 -0.22225626079E+02  0.29635561123E+02  0.43400730547E+02  0.00000000000E+00 0.  1.
         11    1    3    3    0    0 -0.64167637012E+01  0.68953601065E+01 -0.51853284709E+01  0.10752138346E+02  0.51100000000E-03 0. -1.
        -11    1    3    3    0    0 -0.15577554756E+02  0.15054127498E+02 -0.12390187575E+02  0.24956035649E+02  0.51100000000E-03 0.  1.
        -12    1    3    3    0    0 -0.61936046253E+00  0.27613847484E+00 -0.12060045077E+02  0.12079095459E+02  0.00000000000E+00 0.  1.
</event>
<event>
 7    1  0.2950722E-010  0.4778729E+02  0.7816164E-02  0.1312668E+00
        -11   -1    0    0    0    0  0.00000000000E+00  0.00000000000E+00  0.45593999997E+02  0.45594000000E+02  0.51100000000E-03 0.  1.
         11   -1    0    0    0    0 -0.00000000000E+00 -0.00000000000E+00 -0.45593999997E+02  0.45594000000E+02  0.51100000000E-03 0. -1.
    9900012    2    1    2    0    0  0.13103035280E+01 -0.12281782021E+02 -0.41606041436E+02  0.47787288612E+02  0.20000080099E+02 0.  0.
        -12    1    1    2    0    0 -0.13103035280E+01  0.12281782021E+02  0.41606041436E+02  0.43400711388E+02  0.00000000000E+00 0.  1.
         11    1    3    3    0    0 -0.10716188237E+01 -0.12365475670E+02 -0.34548864979E+02  0.36710726322E+02  0.51100000000E-03 0. -1.
        -11    1    3    3    0    0  0.21871824114E+01  0.36883902459E+01 -0.58840056672E+01  0.72807631784E+01  0.51100000000E-03 0.  1.
         12    1    3    3    0    0  0.19473994024E+00 -0.36046965966E+01 -0.11731707902E+01  0.37957991123E+01  0.00000000000E+00 0. -1.
</event>
<event>
 7    1  0.2950722E-010  0.4778727E+02  0.7816164E-02  0.1312668E+00
        -11   -1    0    0    0    0  0.00000000000E+00  0.00000000000E+00  0.45593999997E+02  0.45594000000E+02  0.51100000000E-03 0.  1.
         11   -1    0    0    0    0 -0.00000000000E+00 -0.00000000000E+00 -0.45593999997E+02  0.45594000000E+02  0.51100000000E-03 0. -1.
    9900012    2    1    2    0    0  0.18421534805E+02  0.24198267257E+02 -0.30963113586E+02  0.47787268604E+02  0.19999988871E+02 0.  0.
        -12    1    1    2    0    0 -0.18421534805E+02 -0.24198267257E+02  0.30963113586E+02  0.43400731396E+02  0.00000000000E+00 0.  1.
         11    1    3    3    0    0  0.15330147481E+02  0.19557331122E+02 -0.28479310183E+02  0.37796477761E+02  0.51100000000E-03 0. -1.
        -11    1    3    3    0    0  0.52299773373E+01  0.82087334329E+00 -0.11969803541E+01  0.54276383652E+01  0.51100000000E-03 0.  1.
         12    1    3    3    0    0 -0.21385900128E+01  0.38200627908E+01 -0.12868230492E+01  0.45631524770E+01  0.00000000000E+00 0. -1.
</event>
<event>
 7    1  0.2950722E-010  0.4778727E+02  0.7816164E-02  0.1312668E+00
        -11   -1    0    0    0    0  0.00000000000E+00  0.00000000000E+00  0.45593999997E+02  0.45594000000E+02  0.51100000000E-03 0.  1.
         11   -1    0    0    0    0 -0.00000000000E+00 -0.00000000000E+00 -0.45593999997E+02  0.45594000000E+02  0.51100000000E-03 0. -1.
    9900012    2    1    2    0    0 -0.64736449241E+01 -0.10721625304E+02 -0.41554326669E+02  0.47787269676E+02  0.19999993760E+02 0.  0.
        -12    1    1    2    0    0  0.64736449241E+01  0.10721625304E+02  0.41554326669E+02  0.43400730324E+02  0.00000000000E+00 0.  1.
         11    1    3    3    0    0 -0.23948567872E+01 -0.15277521770E+01 -0.10765132373E+02  0.11133617607E+02  0.51100000000E-03 0.  1.
        -11    1    3    3    0    0 -0.77680757358E+01 -0.96324872697E+00 -0.24334221219E+02  0.25562182445E+02  0.51100000000E-03 0. -1.
        -12    1    3    3    0    0  0.36892875989E+01 -0.82306243996E+01 -0.64549730768E+01  0.11091469624E+02  0.00000000000E+00 0.  1.
</event>
<event>
 7    1  0.2950722E-010  0.4778723E+02  0.7816164E-02  0.1312668E+00
        -11   -1    0    0    0    0  0.00000000000E+00  0.00000000000E+00  0.45593999997E+02  0.45594000000E+02  0.51100000000E-03 0.  1.
         11   -1    0    0    0    0 -0.00000000000E+00 -0.00000000000E+00 -0.45593999997E+02  0.45594000000E+02  0.51100000000E-03 0. -1.
    9900012    2    1    2    0    0 -0.14153098927E+02  0.29122888530E+01 -0.40924752823E+02  0.47787227781E+02  0.19999802742E+02 0.  0.
        -12    1    1    2    0    0  0.14153098927E+02 -0.29122888530E+01  0.40924752823E+02  0.43400772219E+02  0.00000000000E+00 0.  1.
         11    1    3    3    0    0 -0.74717373037E+01 -0.73429729976E+01 -0.23462180318E+02  0.25694746862E+02  0.51100000000E-03 0. -1.
        -11    1    3    3    0    0 -0.68537901221E+01  0.74353563731E+01 -0.15956416915E+02  0.18890902690E+02  0.51100000000E-03 0.  1.
         12    1    3    3    0    0  0.17242849834E+00  0.28199054775E+01 -0.15061555900E+01  0.32015782281E+01  0.00000000000E+00 0. -1.
</event>
<event>
 7    1  0.2950722E-010  0.4778727E+02  0.7816164E-02  0.1312668E+00
        -11   -1    0    0    0    0  0.00000000000E+00  0.00000000000E+00  0.45593999997E+02  0.45594000000E+02  0.51100000000E-03 0.  1.
         11   -1    0    0    0    0 -0.00000000000E+00 -0.00000000000E+00 -0.45593999997E+02  0.45594000000E+02  0.51100000000E-03 0. -1.
    9900012    2    1    2    0    0  0.18637741780E+02  0.47524114845E+00 -0.39192243754E+02  0.47787271397E+02  0.20000001607E+02 0.  0.
        -12    1    1    2    0    0 -0.18637741780E+02 -0.47524114845E+00  0.39192243754E+02  0.43400728603E+02  0.00000000000E+00 0.  1.
         11    1    3    3    0    0 -0.26916202624E+01  0.64229702721E+00 -0.27557498142E+01  0.39053197574E+01  0.51100000000E-03 0. -1.
        -11    1    3    3    0    0  0.14139050364E+02 -0.56261787070E+01 -0.20020684484E+02  0.25147453937E+02  0.51100000000E-03 0.  1.
         12    1    3    3    0    0  0.71903116785E+01  0.54591228283E+01 -0.16415809456E+02  0.18734497703E+02  0.00000000000E+00 0. -1.
</event>
<event>
 7    1  0.2950722E-010  0.4778727E+02  0.7816164E-02  0.1312668E+00
        -11   -1    0    0    0    0  0.00000000000E+00  0.00000000000E+00  0.45593999997E+02  0.45594000000E+02  0.51100000000E-03 0. -1.
         11   -1    0    0    0    0 -0.00000000000E+00 -0.00000000000E+00 -0.45593999997E+02  0.45594000000E+02  0.51100000000E-03 0.  1.
    9900012    2    1    2    0    0  0.30892709643E+01 -0.85203582085E+01  0.42443881439E+02  0.47787272233E+02  0.20000005417E+02 0.  0.
        -12    1    1    2    0    0 -0.30892709643E+01  0.85203582085E+01 -0.42443881439E+02  0.43400727767E+02  0.00000000000E+00 0.  1.
         11    1    3    3    0    0 -0.16121198553E+01 -0.55649501152E+01  0.34239146254E+02  0.34725879927E+02  0.51100000000E-03 0. -1.
        -11    1    3    3    0    0  0.43821493533E+00 -0.15088454684E+00  0.79379631911E+01  0.79514815199E+01  0.51100000000E-03 0.  1.
         12    1    3    3    0    0  0.42631758843E+01 -0.28045235464E+01  0.26677199410E+00  0.51099107859E+01  0.00000000000E+00 0. -1.
</event>
<event>
 7    1  0.2950722E-010  0.4778727E+02  0.7816164E-02  0.1312668E+00
        -11   -1    0    0    0    0  0.00000000000E+00  0.00000000000E+00  0.45593999997E+02  0.45594000000E+02  0.51100000000E-03 0.  1.
         11   -1    0    0    0    0 -0.00000000000E+00 -0.00000000000E+00 -0.45593999997E+02  0.45594000000E+02  0.51100000000E-03 0. -1.
    9900012    2    1    2    0    0  0.27128587343E+02  0.32261451096E+02 -0.10337391413E+02  0.47787272595E+02  0.20000007071E+02 0.  0.
        -12    1    1    2    0    0 -0.27128587343E+02 -0.32261451096E+02  0.10337391413E+02  0.43400727405E+02  0.00000000000E+00 0.  1.
         11    1    3    3    0    0  0.12914302850E+02  0.17170132107E+02 -0.57613728445E+01  0.22243787267E+02  0.51100000000E-03 0. -1.
        -11    1    3    3    0    0  0.96782278480E+01  0.25663121097E+01 -0.67091687822E+01  0.12052675974E+02  0.51100000000E-03 0.  1.
        -12    1    3    3    0    0  0.45360566453E+01  0.12525006879E+02  0.21331502133E+01  0.13490809354E+02  0.00000000000E+00 0.  1.
</event>
<event>
 7    1  0.2950722E-010  0.4778729E+02  0.7816164E-02  0.1312668E+00
        -11   -1    0    0    0    0  0.00000000000E+00  0.00000000000E+00  0.45593999997E+02  0.45594000000E+02  0.51100000000E-03 0.  1.
         11   -1    0    0    0    0 -0.00000000000E+00 -0.00000000000E+00 -0.45593999997E+02  0.45594000000E+02  0.51100000000E-03 0. -1.
    9900012    2    1    2    0    0  0.24784516791E+02  0.28022031277E+02 -0.22002612136E+02  0.47787292053E+02  0.20000095787E+02 0.  0.
        -12    1    1    2    0    0 -0.24784516791E+02 -0.28022031277E+02  0.22002612136E+02  0.43400707947E+02  0.00000000000E+00 0.  1.
         11    1    3    3    0    0  0.88142158274E+01  0.98607970323E+01 -0.18212005525E+02  0.22507840062E+02  0.51100000000E-03 0. -1.
        -11    1    3    3    0    0  0.14126765237E+02  0.11916070360E+02 -0.27162338841E+01  0.18679832860E+02  0.51100000000E-03 0.  1.
         12    1    3    3    0    0  0.18435357263E+01  0.62451638847E+01 -0.10743727275E+01  0.65996191313E+01  0.00000000000E+00 0. -1.
</event>
<event>
 7    1  0.2950722E-010  0.4778728E+02  0.7816164E-02  0.1312668E+00
        -11   -1    0    0    0    0  0.00000000000E+00  0.00000000000E+00  0.45593999997E+02  0.45594000000E+02  0.51100000000E-03 0. -1.
         11   -1    0    0    0    0 -0.00000000000E+00 -0.00000000000E+00 -0.45593999997E+02  0.45594000000E+02  0.51100000000E-03 0.  1.
    9900012    2    1    2    0    0 -0.69737582410E+01  0.42737286669E+02 -0.29178438921E+01  0.47787276633E+02  0.20000025479E+02 0.  0.
        -12    1    1    2    0    0  0.69737582410E+01 -0.42737286669E+02  0.29178438921E+01  0.43400723367E+02  0.00000000000E+00 0.  1.
         11    1    3    3    0    0 -0.25947618740E+01  0.19688365581E+02  0.16697399538E+01  0.19928686866E+02  0.51100000000E-03 0. -1.
        -11    1    3    3    0    0 -0.82503771061E+01  0.16399066492E+02 -0.72196911012E+01  0.19726176620E+02  0.51100000000E-03 0.  1.
        -12    1    3    3    0    0  0.38713807391E+01  0.66498545966E+01  0.26321072553E+01  0.81324131465E+01  0.00000000000E+00 0.  1.
</event>
<event>
 7    1  0.2950722E-010  0.4778727E+02  0.7816164E-02  0.1312668E+00
        -11   -1    0    0    0    0  0.00000000000E+00  0.00000000000E+00  0.45593999997E+02  0.45594000000E+02  0.51100000000E-03 0.  1.
         11   -1    0    0    0    0 -0.00000000000E+00 -0.00000000000E+00 -0.45593999997E+02  0.45594000000E+02  0.51100000000E-03 0. -1.
    9900012    2    1    2    0    0  0.42776515628E+02 -0.71083374082E+01  0.18068536688E+01  0.47787268783E+02  0.19999989689E+02 0.  0.
        -12    1    1    2    0    0 -0.42776515628E+02  0.71083374082E+01 -0.18068536688E+01  0.43400731217E+02  0.00000000000E+00 0.  1.
         11    1    3    3    0    0  0.24075770039E+02 -0.42359010407E+01 -0.41194264983E+01  0.24790224596E+02  0.51100000000E-03 0. -1.
        -11    1    3    3    0    0 -0.13988445338E+01 -0.15342868125E+01  0.55113161211E+00  0.21481499873E+01  0.51100000000E-03 0.  1.
         12    1    3    3    0    0  0.20099590123E+02 -0.13381495549E+01  0.53751485550E+01  0.20848894200E+02  0.00000000000E+00 0. -1.
</event>
<event>
 7    1  0.2950722E-010  0.4778727E+02  0.7816164E-02  0.1312668E+00
        -11   -1    0    0    0    0  0.00000000000E+00  0.00000000000E+00  0.45593999997E+02  0.45594000000E+02  0.51100000000E-03 0.  1.
         11   -1    0    0    0    0 -0.00000000000E+00 -0.00000000000E+00 -0.45593999997E+02  0.45594000000E+02  0.51100000000E-03 0. -1.
    9900012    2    1    2    0    0  0.40120191280E+02  0.30100547801E+01 -0.16276755176E+02  0.47787274924E+02  0.20000017687E+02 0.  0.
        -12    1    1    2    0    0 -0.40120191280E+02 -0.30100547801E+01  0.16276755176E+02  0.43400725076E+02  0.00000000000E+00 0.  1.
         11    1    3    3    0    0  0.17184605093E+02 -0.52197839292E+01 -0.87493982906E+01  0.19977706755E+02  0.51100000000E-03 0. -1.
        -11    1    3    3    0    0  0.22090155286E+02  0.10087122457E+02 -0.54313012422E+01  0.24884212534E+02  0.51100000000E-03 0.  1.
        -12    1    3    3    0    0  0.84543090084E+00 -0.18572837480E+01 -0.20960556429E+01  0.29253556342E+01  0.00000000000E+00 0.  1.
</event>
<event>
 7    1  0.2950722E-010  0.4778726E+02  0.7816164E-02  0.1312668E+00
        -11   -1    0    0    0    0  0.00000000000E+00  0.00000000000E+00  0.45593999997E+02  0.45594000000E+02  0.51100000000E-03 0. -1.
         11   -1    0    0    0    0 -0.00000000000E+00 -0.00000000000E+00 -0.45593999997E+02  0.45594000000E+02  0.51100000000E-03 0.  1.
    9900012    2    1    2    0    0  0.73198848815E+01  0.32939212979E+02  0.27295630136E+02  0.47787263936E+02  0.19999967591E+02 0.  0.
        -12    1    1    2    0    0 -0.73198848815E+01 -0.32939212979E+02 -0.27295630136E+02  0.43400736064E+02  0.00000000000E+00 0.  1.
         11    1    3    3    0    0 -0.43550901194E+01  0.12664612765E+02  0.87278996734E+01  0.15985476514E+02  0.51100000000E-03 0. -1.
        -11    1    3    3    0    0  0.11749392295E+02  0.18945233258E+02  0.19925769811E+02  0.29899939554E+02  0.51100000000E-03 0.  1.
        -12    1    3    3    0    0 -0.74417294278E-01  0.13293669566E+01 -0.13580393488E+01  0.19018478677E+01  0.00000000000E+00 0.  1.
</event>
<event>
 7    1  0.2950722E-010  0.4778727E+02  0.7816164E-02  0.1312668E+00
        -11   -1    0    0    0    0  0.00000000000E+00  0.00000000000E+00  0.45593999997E+02  0.45594000000E+02  0.51100000000E-03 0.  1.
         11   -1    0    0    0    0 -0.00000000000E+00 -0.00000000000E+00 -0.45593999997E+02  0.45594000000E+02  0.51100000000E-03 0. -1.
    9900012    2    1    2    0    0 -0.22143305944E+02  0.48989142672E+01 -0.37004023336E+02  0.47787273023E+02  0.20000009021E+02 0.  0.
        -12    1    1    2    0    0  0.22143305944E+02 -0.48989142672E+01  0.37004023336E+02  0.43400726977E+02  0.00000000000E+00 0.  1.
         11    1    3    3    0    0 -0.84024051382E+01  0.53675023001E+01 -0.80980979311E+01  0.12844831000E+02  0.51100000000E-03 0. -1.
        -11    1    3    3    0    0  0.79925158985E-01 -0.25454316543E+00 -0.16091839450E+02  0.16094050994E+02  0.51100000000E-03 0.  1.
        -12    1    3    3    0    0 -0.13820825965E+02 -0.21404486739E+00 -0.12814085955E+02  0.18848391029E+02  0.00000000000E+00 0.  1.
</event>
<event>
 7    1  0.2950722E-010  0.4778729E+02  0.7816164E-02  0.1312668E+00
        -11   -1    0    0    0    0  0.00000000000E+00  0.00000000000E+00  0.45593999997E+02  0.45594000000E+02  0.51100000000E-03 0.  1.
         11   -1    0    0    0    0 -0.00000000000E+00 -0.00000000000E+00 -0.45593999997E+02  0.45594000000E+02  0.51100000000E-03 0. -1.
    9900012    2    1    2    0    0 -0.37736090148E+02  0.16961623988E+02 -0.13111552447E+02  0.47787285772E+02  0.20000067147E+02 0.  0.
        -12    1    1    2    0    0  0.37736090148E+02 -0.16961623988E+02  0.13111552447E+02  0.43400714228E+02  0.00000000000E+00 0.  1.
         11    1    3    3    0    0 -0.28876686986E+02  0.89382901329E+01 -0.90494251434E+01  0.31553893223E+02  0.51100000000E-03 0. -1.
        -11    1    3    3    0    0 -0.10804495965E+02  0.46517496858E+01 -0.24249269078E+01  0.12010669380E+02  0.51100000000E-03 0.  1.
         12    1    3    3    0    0  0.19450928035E+01  0.33715841691E+01 -0.16372003956E+01  0.42227231687E+01  0.00000000000E+00 0. -1.
</event>
<event>
 7    1  0.2950722E-010  0.4778729E+02  0.7816164E-02  0.1312668E+00
        -11   -1    0    0    0    0  0.00000000000E+00  0.00000000000E+00  0.45593999997E+02  0.45594000000E+02  0.51100000000E-03 0. -1.
         11   -1    0    0    0    0 -0.00000000000E+00 -0.00000000000E+00 -0.45593999997E+02  0.45594000000E+02  0.51100000000E-03 0.  1.
    9900012    2    1    2    0    0  0.43017281959E+02  0.43678426377E+01  0.37493022353E+01  0.47787287290E+02  0.20000074072E+02 0.  0.
        -12    1    1    2    0    0 -0.43017281959E+02 -0.43678426377E+01 -0.37493022353E+01  0.43400712710E+02  0.00000000000E+00 0.  1.
         11    1    3    3    0    0  0.23905771926E+02 -0.20380272050E+01  0.95053272848E+01  0.25806796262E+02  0.51100000000E-03 0. -1.
        -11    1    3    3    0    0  0.92178232252E+01  0.69814828759E+00 -0.50571171201E+01  0.10537082607E+02  0.51100000000E-03 0.  1.
         12    1    3    3    0    0  0.98936868081E+01  0.57077215551E+01 -0.69890792942E+00  0.11443408422E+02  0.00000000000E+00 0. -1.
</event>
<event>
 7    1  0.2950722E-010  0.4778727E+02  0.7816164E-02  0.1312668E+00
        -11   -1    0    0    0    0  0.00000000000E+00  0.00000000000E+00  0.45593999997E+02  0.45594000000E+02  0.51100000000E-03 0.  1.
         11   -1    0    0    0    0 -0.00000000000E+00 -0.00000000000E+00 -0.45593999997E+02  0.45594000000E+02  0.51100000000E-03 0. -1.
    9900012    2    1    2    0    0  0.30475533941E+02  0.74928707119E+00 -0.30891805368E+02  0.47787271447E+02  0.20000001834E+02 0.  0.
        -12    1    1    2    0    0 -0.30475533941E+02 -0.74928707119E+00  0.30891805368E+02  0.43400728553E+02  0.00000000000E+00 0.  1.
         11    1    3    3    0    0  0.28918935562E+01 -0.13268356834E+01 -0.80301291623E+01  0.86375063471E+01  0.51100000000E-03 0. -1.
        -11    1    3    3    0    0  0.51758499547E+01  0.46006218970E+01 -0.12594600998E+02  0.14372860507E+02  0.51100000000E-03 0.  1.
        -12    1    3    3    0    0  0.22407790430E+02 -0.25244991424E+01 -0.10267075207E+02  0.24776904592E+02  0.00000000000E+00 0.  1.
</event>
<event>
 7    1  0.2950722E-010  0.4778728E+02  0.7816164E-02  0.1312668E+00
        -11   -1    0    0    0    0  0.00000000000E+00  0.00000000000E+00  0.45593999997E+02  0.45594000000E+02  0.51100000000E-03 0.  1.
         11   -1    0    0    0    0 -0.00000000000E+00 -0.00000000000E+00 -0.45593999997E+02  0.45594000000E+02  0.51100000000E-03 0. -1.
    9900012    2    1    2    0    0 -0.14482786046E+02  0.26957123965E+02 -0.30776372882E+02  0.47787277058E+02  0.20000027419E+02 0.  0.
        -12    1    1    2    0    0  0.14482786046E+02 -0.26957123965E+02  0.30776372882E+02  0.43400722942E+02  0.00000000000E+00 0.  1.
         11    1    3    3    0    0  0.16004553220E+01  0.36339861197E+01 -0.24766617690E+00  0.39785237403E+01  0.51100000000E-03 0.  1.
        -11    1    3    3    0    0 -0.14680315027E+02  0.94160629306E+01 -0.16728473744E+02  0.24166417286E+02  0.51100000000E-03 0. -1.
        -12    1    3    3    0    0 -0.14029263409E+01  0.13907074914E+02 -0.13800232961E+02  0.19642336032E+02  0.00000000000E+00 0.  1.
</event>
<event>
 7    1  0.2950722E-010  0.4778727E+02  0.7816164E-02  0.1312668E+00
        -11   -1    0    0    0    0  0.00000000000E+00  0.00000000000E+00  0.45593999997E+02  0.45594000000E+02  0.51100000000E-03 0.  1.
         11   -1    0    0    0    0 -0.00000000000E+00 -0.00000000000E+00 -0.45593999997E+02  0.45594000000E+02  0.51100000000E-03 0. -1.
    9900012    2    1    2    0    0  0.27785560999E+01 -0.17270978992E+02 -0.39719214848E+02  0.47787272846E+02  0.20000008214E+02 0.  0.
        -12    1    1    2    0    0 -0.27785560999E+01  0.17270978992E+02  0.39719214848E+02  0.43400727154E+02  0.00000000000E+00 0.  1.
         11    1    3    3    0    0 -0.99859846353E-01  0.35395950045E+01 -0.26072751338E+01  0.43973388168E+01  0.51100000000E-03 0. -1.
        -11    1    3    3    0    0  0.39994294985E+00 -0.11614952050E+01  0.10359629251E+00  0.12327846233E+01  0.51100000000E-03 0.  1.
         12    1    3    3    0    0  0.24784729964E+01 -0.19649078792E+02 -0.37215536007E+02  0.42157149406E+02  0.00000000000E+00 0. -1.
</event>
<event>
 7    1  0.2950722E-010  0.4778729E+02  0.7816164E-02  0.1312668E+00
        -11   -1    0    0    0    0  0.00000000000E+00  0.00000000000E+00  0.45593999997E+02  0.45594000000E+02  0.51100000000E-03 0.  1.
         11   -1    0    0    0    0 -0.00000000000E+00 -0.00000000000E+00 -0.45593999997E+02  0.45594000000E+02  0.51100000000E-03 0. -1.
    9900012    2    1    2    0    0 -0.21104113694E+02  0.73446059556E+01 -0.37206112658E+02  0.47787289516E+02  0.20000084218E+02 0.  0.
        -12    1    1    2    0    0  0.21104113694E+02 -0.73446059556E+01  0.37206112658E+02  0.43400710484E+02  0.00000000000E+00 0.  1.
         11    1    3    3    0    0 -0.14894627219E+02  0.80429606498E+01 -0.25308666025E+02  0.30447786656E+02  0.51100000000E-03 0. -1.
        -11    1    3    3    0    0  0.27520745530E+01 -0.18290170539E+01 -0.16972446458E+01  0.37148159278E+01  0.51100000000E-03 0.  1.
         12    1    3    3    0    0 -0.89615610282E+01  0.11306623597E+01 -0.10200201986E+02  0.13624686932E+02  0.00000000000E+00 0. -1.
</event>
<event>
 7    1  0.2950722E-010  0.4778727E+02  0.7816164E-02  0.1312668E+00
        -11   -1    0    0    0    0  0.00000000000E+00  0.00000000000E+00  0.45593999997E+02  0.45594000000E+02  0.51100000000E-03 0. -1.
         11   -1    0    0    0    0 -0.00000000000E+00 -0.00000000000E+00 -0.45593999997E+02  0.45594000000E+02  0.51100000000E-03 0.  1.
    9900012    2    1    2    0    0 -0.11469765134E+02  0.39680764922E+02  0.13323075381E+02  0.47787274722E+02  0.20000016768E+02 0.  0.
        -12    1    1    2    0    0  0.11469765134E+02 -0.39680764922E+02 -0.13323075381E+02  0.43400725278E+02  0.00000000000E+00 0.  1.
         11    1    3    3    0    0  0.65717571870E+00  0.12751376785E+02  0.15701774050E+01  0.12864483946E+02  0.51100000000E-03 0. -1.
        -11    1    3    3    0    0 -0.58671692342E+01  0.87408853152E+00  0.34835329385E+01  0.68791502076E+01  0.51100000000E-03 0.  1.
        -12    1    3    3    0    0 -0.62597716189E+01  0.26055299605E+02  0.82693650377E+01  0.28043640569E+02  0.00000000000E+00 0.  1.
</event>
<event>
 7    1  0.2950722E-010  0.4778727E+02  0.7816164E-02  0.1312668E+00
        -11   -1    0    0    0    0  0.00000000000E+00  0.00000000000E+00  0.45593999997E+02  0.45594000000E+02  0.51100000000E-03 0. -1.
         11   -1    0    0    0    0 -0.00000000000E+00 -0.00000000000E+00 -0.45593999997E+02  0.45594000000E+02  0.51100000000E-03 0.  1.
    9900012    2    1    2    0    0  0.21369950374E+02  0.34632676665E+01  0.37615876687E+02  0.47787272116E+02  0.20000004886E+02 0.  0.
        -12    1    1    2    0    0 -0.21369950374E+02 -0.34632676665E+01 -0.37615876687E+02  0.43400727884E+02  0.00000000000E+00 0.  1.
         11    1    3    3    0    0  0.61528476646E+01  0.35685227129E+01  0.24869349027E+02  0.25866511362E+02  0.51100000000E-03 0. -1.
        -11    1    3    3    0    0  0.64188293971E+01  0.41707744857E+01  0.33475193684E+01  0.83547960372E+01  0.51100000000E-03 0.  1.
         12    1    3    3    0    0  0.87982733125E+01 -0.42760295322E+01  0.93990082917E+01  0.13565964717E+02  0.00000000000E+00 0. -1.
</event>
<event>
 7    1  0.2950722E-010  0.4778727E+02  0.7816164E-02  0.1312668E+00
        -11   -1    0    0    0    0  0.00000000000E+00  0.00000000000E+00  0.45593999997E+02  0.45594000000E+02  0.51100000000E-03 0.  1.
         11   -1    0    0    0    0 -0.00000000000E+00 -0.00000000000E+00 -0.45593999997E+02  0.45594000000E+02  0.51100000000E-03 0. -1.
    9900012    2    1    2    0    0 -0.14718991081E+02  0.39675296074E+02 -0.96356245406E+01  0.47787273309E+02  0.20000010323E+02 0.  0.
        -12    1    1    2    0    0  0.14718991081E+02 -0.39675296074E+02  0.96356245406E+01  0.43400726691E+02  0.00000000000E+00 0.  1.
         11    1    3    3    0    0 -0.34875776921E+01  0.14715575060E+02 -0.17468956769E+01  0.15223764064E+02  0.51100000000E-03 0. -1.
        -11    1    3    3    0    0 -0.10435549605E+02  0.26248032410E+02 -0.41754942384E+01  0.28553365009E+02  0.51100000000E-03 0.  1.
        -12    1    3    3    0    0 -0.79586378461E+00 -0.12883113948E+01 -0.37132346252E+01  0.40101442363E+01  0.00000000000E+00 0.  1.
</event>
<event>
 7    1  0.2950722E-010  0.4778727E+02  0.7816164E-02  0.1312668E+00
        -11   -1    0    0    0    0  0.00000000000E+00  0.00000000000E+00  0.45593999997E+02  0.45594000000E+02  0.51100000000E-03 0.  1.
         11   -1    0    0    0    0 -0.00000000000E+00 -0.00000000000E+00 -0.45593999997E+02  0.45594000000E+02  0.51100000000E-03 0. -1.
    9900012    2    1    2    0    0  0.26936706205E+02 -0.14941915848E+02 -0.30574109736E+02  0.47787272166E+02  0.20000005113E+02 0.  0.
        -12    1    1    2    0    0 -0.26936706205E+02  0.14941915848E+02  0.30574109736E+02  0.43400727834E+02  0.00000000000E+00 0.  1.
         11    1    3    3    0    0  0.13482717089E+02 -0.12789274240E+02 -0.17703580379E+02  0.25666436336E+02  0.51100000000E-03 0. -1.
        -11    1    3    3    0    0  0.14834926456E+02  0.65877646535E+00 -0.10354065309E+02  0.18102919600E+02  0.51100000000E-03 0.  1.
         12    1    3    3    0    0 -0.13809373400E+01 -0.28114180732E+01 -0.25164640482E+01  0.40179162293E+01  0.00000000000E+00 0. -1.
</event>
<event>
 7    1  0.2950722E-010  0.4778726E+02  0.7816164E-02  0.1312668E+00
        -11   -1    0    0    0    0  0.00000000000E+00  0.00000000000E+00  0.45593999997E+02  0.45594000000E+02  0.51100000000E-03 0. -1.
         11   -1    0    0    0    0 -0.00000000000E+00 -0.00000000000E+00 -0.45593999997E+02  0.45594000000E+02  0.51100000000E-03 0.  1.
    9900012    2    1    2    0    0  0.38483948051E+02  0.14938692240E+02  0.13395710637E+02  0.47787264443E+02  0.19999969900E+02 0.  0.
        -12    1    1    2    0    0 -0.38483948051E+02 -0.14938692240E+02 -0.13395710637E+02  0.43400735557E+02  0.00000000000E+00 0.  1.
         11    1    3    3    0    0  0.12204238683E+02  0.86438046028E+01  0.12706010302E+02  0.19624003105E+02  0.51100000000E-03 0. -1.
        -11    1    3    3    0    0  0.14338093504E+02  0.73520081799E+01 -0.46200607066E+00  0.16119751843E+02  0.51100000000E-03 0.  1.
         12    1    3    3    0    0  0.11941615865E+02 -0.10571205428E+01  0.11517064057E+01  0.12043509494E+02  0.00000000000E+00 0. -1.
</event>
<event>
 7    1  0.2950722E-010  0.4778727E+02  0.7816164E-02  0.1312668E+00
        -11   -1    0    0    0    0  0.00000000000E+00  0.00000000000E+00  0.45593999997E+02  0.45594000000E+02  0.51100000000E-03 0. -1.
         11   -1    0    0    0    0 -0.00000000000E+00 -0.00000000000E+00 -0.45593999997E+02  0.45594000000E+02  0.51100000000E-03 0.  1.
    9900012    2    1    2    0    0  0.25488466893E+02  0.89110448606E+01  0.33978742041E+02  0.47787267567E+02  0.19999984144E+02 0.  0.
        -12    1    1    2    0    0 -0.25488466893E+02 -0.89110448606E+01 -0.33978742041E+02  0.43400732433E+02  0.00000000000E+00 0.  1.
         11    1    3    3    0    0  0.84113446923E+01  0.11907675789E+02  0.16054683952E+02  0.21686316868E+02  0.51100000000E-03 0. -1.
        -11    1    3    3    0    0  0.10118088099E+02 -0.54472472963E+01  0.95608806864E+01  0.14948533361E+02  0.51100000000E-03 0.  1.
        -12    1    3    3    0    0  0.69590341015E+01  0.24506163679E+01  0.83631774023E+01  0.11152417337E+02  0.00000000000E+00 0.  1.
</event>
<event>
 7    1  0.2950722E-010  0.4778727E+02  0.7816164E-02  0.1312668E+00
        -11   -1    0    0    0    0  0.00000000000E+00  0.00000000000E+00  0.45593999997E+02  0.45594000000E+02  0.51100000000E-03 0. -1.
         11   -1    0    0    0    0 -0.00000000000E+00 -0.00000000000E+00 -0.45593999997E+02  0.45594000000E+02  0.51100000000E-03 0.  1.
    9900012    2    1    2    0    0 -0.38277952574E+02  0.84225436815E+01  0.18640879359E+02  0.47787270990E+02  0.19999999751E+02 0.  0.
        -12    1    1    2    0    0  0.38277952574E+02 -0.84225436815E+01 -0.18640879359E+02  0.43400729010E+02  0.00000000000E+00 0.  1.
         11    1    3    3    0    0 -0.28171736485E+01  0.43697775907E+00 -0.30208308954E+01  0.41536533904E+01  0.51100000000E-03 0.  1.
        -11    1    3    3    0    0 -0.28589122994E+02  0.99050685333E+01  0.14598771267E+02  0.33594232526E+02  0.51100000000E-03 0. -1.
         12    1    3    3    0    0 -0.68716559318E+01 -0.19195026109E+01  0.70629389875E+01  0.10039385074E+02  0.00000000000E+00 0. -1.
</event>
<event>
 7    1  0.2950722E-010  0.4778727E+02  0.7816164E-02  0.1312668E+00
        -11   -1    0    0    0    0  0.00000000000E+00  0.00000000000E+00  0.45593999997E+02  0.45594000000E+02  0.51100000000E-03 0.  1.
         11   -1    0    0    0    0 -0.00000000000E+00 -0.00000000000E+00 -0.45593999997E+02  0.45594000000E+02  0.51100000000E-03 0. -1.
    9900012    2    1    2    0    0 -0.10077617858E+01  0.19109822948E+02 -0.38954105938E+02  0.47787270901E+02  0.19999999345E+02 0.  0.
        -12    1    1    2    0    0  0.10077617858E+01 -0.19109822948E+02  0.38954105938E+02  0.43400729099E+02  0.00000000000E+00 0.  1.
         11    1    3    3    0    0 -0.46556329671E+01  0.73003909089E+01 -0.27245441700E+01  0.90771012412E+01  0.51100000000E-03 0.  1.
        -11    1    3    3    0    0  0.26040875051E+01  0.91955731958E+01 -0.33313762650E+02  0.34657562239E+02  0.51100000000E-03 0. -1.
         12    1    3    3    0    0  0.10437836763E+01  0.26138588437E+01 -0.29157991172E+01  0.40526074210E+01  0.00000000000E+00 0. -1.
</event>
<event>
 7    1  0.2950722E-010  0.4778727E+02  0.7816164E-02  0.1312668E+00
        -11   -1    0    0    0    0  0.00000000000E+00  0.00000000000E+00  0.45593999997E+02  0.45594000000E+02  0.51100000000E-03 0.  1.
         11   -1    0    0    0    0 -0.00000000000E+00 -0.00000000000E+00 -0.45593999997E+02  0.45594000000E+02  0.51100000000E-03 0. -1.
    9900012    2    1    2    0    0  0.21022056866E+02  0.21987497646E+02 -0.30955554976E+02  0.47787270611E+02  0.19999998024E+02 0.  0.
        -12    1    1    2    0    0 -0.21022056866E+02 -0.21987497646E+02  0.30955554976E+02  0.43400729389E+02  0.00000000000E+00 0.  1.
         11    1    3    3    0    0  0.78024190688E+01  0.90079721719E+01 -0.16225252715E+02  0.20131570527E+02  0.51100000000E-03 0. -1.
        -11    1    3    3    0    0  0.35062712079E+01  0.12510562460E+02 -0.11660996874E+02  0.17458148791E+02  0.51100000000E-03 0.  1.
        -12    1    3    3    0    0  0.97133665890E+01  0.46896301394E+00 -0.30693053868E+01  0.10197551292E+02  0.00000000000E+00 0.  1.
</event>
<event>
 7    1  0.2950722E-010  0.4778727E+02  0.7816164E-02  0.1312668E+00
        -11   -1    0    0    0    0  0.00000000000E+00  0.00000000000E+00  0.45593999997E+02  0.45594000000E+02  0.51100000000E-03 0.  1.
         11   -1    0    0    0    0 -0.00000000000E+00 -0.00000000000E+00 -0.45593999997E+02  0.45594000000E+02  0.51100000000E-03 0. -1.
    9900012    2    1    2    0    0 -0.40971276671E+01  0.59769980775E+01 -0.42791500493E+02  0.47787268720E+02  0.19999989404E+02 0.  0.
        -12    1    1    2    0    0  0.40971276671E+01 -0.59769980775E+01  0.42791500493E+02  0.43400731280E+02  0.00000000000E+00 0.  1.
         11    1    3    3    0    0 -0.64834126692E+01  0.95315439693E+01 -0.16687422535E+02  0.20281889493E+02  0.51100000000E-03 0. -1.
        -11    1    3    3    0    0  0.35861051537E+01 -0.83497798984E-01 -0.20457038990E+02  0.20769149395E+02  0.51100000000E-03 0.  1.
         12    1    3    3    0    0 -0.11998201516E+01 -0.34710480928E+01 -0.56470389678E+01  0.67362298330E+01  0.00000000000E+00 0. -1.
</event>
<event>
 7    1  0.2950722E-010  0.4778727E+02  0.7816164E-02  0.1312668E+00
        -11   -1    0    0    0    0  0.00000000000E+00  0.00000000000E+00  0.45593999997E+02  0.45594000000E+02  0.51100000000E-03 0.  1.
         11   -1    0    0    0    0 -0.00000000000E+00 -0.00000000000E+00 -0.45593999997E+02  0.45594000000E+02  0.51100000000E-03 0. -1.
    9900012    2    1    2    0    0  0.58681684628E+01  0.40215661919E+02 -0.15227887006E+02  0.47787269507E+02  0.19999992991E+02 0.  0.
        -12    1    1    2    0    0 -0.58681684628E+01 -0.40215661919E+02  0.15227887006E+02  0.43400730493E+02  0.00000000000E+00 0.  1.
         11    1    3    3    0    0  0.68127109607E+01  0.36973417213E+02 -0.85292618642E+01  0.38551198675E+02  0.51100000000E-03 0. -1.
        -11    1    3    3    0    0  0.43237373720E+00  0.36295117393E+01 -0.68835597858E+01  0.77938243565E+01  0.51100000000E-03 0.  1.
         12    1    3    3    0    0 -0.13769162351E+01 -0.38726703401E+00  0.18493464444E+00  0.14422464758E+01  0.00000000000E+00 0. -1.
</event>
<event>
 7    1  0.2950722E-010  0.4778727E+02  0.7816164E-02  0.1312668E+00
        -11   -1    0    0    0    0  0.00000000000E+00  0.00000000000E+00  0.45593999997E+02  0.45594000000E+02  0.51100000000E-03 0.  1.
         11   -1    0    0    0    0 -0.00000000000E+00 -0.00000000000E+00 -0.45593999997E+02  0.45594000000E+02  0.51100000000E-03 0. -1.
    9900012    2    1    2    0    0 -0.33746963980E+02  0.24529164728E+02 -0.11961844418E+02  0.47787271642E+02  0.20000002725E+02 0.  0.
        -12    1    1    2    0    0  0.33746963980E+02 -0.24529164728E+02  0.11961844418E+02  0.43400728358E+02  0.00000000000E+00 0.  1.
         11    1    3    3    0    0 -0.32132930958E+01  0.35379067665E+00 -0.67496558055E+01  0.74838675908E+01  0.51100000000E-03 0. -1.
        -11    1    3    3    0    0 -0.16662315298E+02  0.10692532314E+02  0.14322533971E+01  0.19849794669E+02  0.51100000000E-03 0.  1.
        -12    1    3    3    0    0 -0.13871355587E+02  0.13482841737E+02 -0.66444420096E+01  0.20453609382E+02  0.00000000000E+00 0.  1.
</event>
<event>
 7    1  0.2950722E-010  0.4778724E+02  0.7816164E-02  0.1312668E+00
        -11   -1    0    0    0    0  0.00000000000E+00  0.00000000000E+00  0.45593999997E+02  0.45594000000E+02  0.51100000000E-03 0. -1.
         11   -1    0    0    0    0 -0.00000000000E+00 -0.00000000000E+00 -0.45593999997E+02  0.45594000000E+02  0.51100000000E-03 0.  1.
    9900012    2    1    2    0    0  0.34897290923E+02  0.25795330997E+02 -0.63704563513E+00  0.47787241456E+02  0.19999865096E+02 0.  0.
        -12    1    1    2    0    0 -0.34897290923E+02 -0.25795330997E+02  0.63704563513E+00  0.43400758544E+02  0.00000000000E+00 0.  1.
         11    1    3    3    0    0  0.10126045037E+02  0.11458790290E+02 -0.27535226312E+01  0.15537778160E+02  0.51100000000E-03 0. -1.
        -11    1    3    3    0    0  0.56325265808E+01 -0.70330118993E+00 -0.42483231851E+01  0.70900097598E+01  0.51100000000E-03 0.  1.
        -12    1    3    3    0    0  0.19138719305E+02  0.15039841897E+02  0.63648001812E+01  0.25159453536E+02  0.00000000000E+00 0.  1.
</event>
<event>
 7    1  0.2950722E-010  0.4778727E+02  0.7816164E-02  0.1312668E+00
        -11   -1    0    0    0    0  0.00000000000E+00  0.00000000000E+00  0.45593999997E+02  0.45594000000E+02  0.51100000000E-03 0. -1.
         11   -1    0    0    0    0 -0.00000000000E+00 -0.00000000000E+00 -0.45593999997E+02  0.45594000000E+02  0.51100000000E-03 0.  1.
    9900012    2    1    2    0    0 -0.13572390676E+02  0.27447420049E+02  0.30757965180E+02  0.47787273301E+02  0.20000010289E+02 0.  0.
        -12    1    1    2    0    0  0.13572390676E+02 -0.27447420049E+02 -0.30757965180E+02  0.43400726699E+02  0.00000000000E+00 0.  1.
         11    1    3    3    0    0 -0.97044372830E+01  0.24047638696E+02  0.31440553380E+02  0.40755041736E+02  0.51100000000E-03 0. -1.
        -11    1    3    3    0    0 -0.17231659925E+01 -0.41676863897E+00 -0.17869409719E+01  0.25171721106E+01  0.51100000000E-03 0.  1.
         12    1    3    3    0    0 -0.21447874003E+01  0.38165499916E+01  0.11043527718E+01  0.45150594543E+01  0.00000000000E+00 0. -1.
</event>
<event>
 7    1  0.2950722E-010  0.4778726E+02  0.7816164E-02  0.1312668E+00
        -11   -1    0    0    0    0  0.00000000000E+00  0.00000000000E+00  0.45593999997E+02  0.45594000000E+02  0.51100000000E-03 0. -1.
         11   -1    0    0    0    0 -0.00000000000E+00 -0.00000000000E+00 -0.45593999997E+02  0.45594000000E+02  0.51100000000E-03 0.  1.
    9900012    2    1    2    0    0  0.32208252583E+02  0.18874020178E+02  0.22136489133E+02  0.47787258955E+02  0.19999944879E+02 0.  0.
        -12    1    1    2    0    0 -0.32208252583E+02 -0.18874020178E+02 -0.22136489133E+02  0.43400741045E+02  0.00000000000E+00 0.  1.
         11    1    3    3    0    0  0.21244428618E+02  0.86124292967E+01  0.18939384540E+02  0.29735500209E+02  0.51100000000E-03 0. -1.
        -11    1    3    3    0    0  0.12063430180E+02  0.95136455533E+01  0.46794565015E+01  0.16060296163E+02  0.51100000000E-03 0.  1.
         12    1    3    3    0    0 -0.10996062143E+01  0.74794532752E+00 -0.14823519083E+01  0.19914625830E+01  0.00000000000E+00 0. -1.
</event>
<event>
 7    1  0.2950722E-010  0.4778727E+02  0.7816164E-02  0.1312668E+00
        -11   -1    0    0    0    0  0.00000000000E+00  0.00000000000E+00  0.45593999997E+02  0.45594000000E+02  0.51100000000E-03 0. -1.
         11   -1    0    0    0    0 -0.00000000000E+00 -0.00000000000E+00 -0.45593999997E+02  0.45594000000E+02  0.51100000000E-03 0.  1.
    9900012    2    1    2    0    0 -0.21105479209E+02  0.37367085118E+02  0.64717071567E+01  0.47787270785E+02  0.19999998818E+02 0.  0.
        -12    1    1    2    0    0  0.21105479209E+02 -0.37367085118E+02 -0.64717071567E+01  0.43400729215E+02  0.00000000000E+00 0.  1.
         11    1    3    3    0    0 -0.15400852474E+02  0.18401211769E+02  0.71221070444E+01  0.25030286864E+02  0.51100000000E-03 0. -1.
        -11    1    3    3    0    0 -0.36912525845E+01  0.88918182093E+01 -0.58265595452E+01  0.11253380519E+02  0.51100000000E-03 0.  1.
        -12    1    3    3    0    0 -0.20133741503E+01  0.10074055140E+02  0.51761596575E+01  0.11503603402E+02  0.00000000000E+00 0.  1.
</event>
<event>
 7    1  0.2950722E-010  0.4778727E+02  0.7816164E-02  0.1312668E+00
        -11   -1    0    0    0    0  0.00000000000E+00  0.00000000000E+00  0.45593999997E+02  0.45594000000E+02  0.51100000000E-03 0. -1.
         11   -1    0    0    0    0 -0.00000000000E+00 -0.00000000000E+00 -0.45593999997E+02  0.45594000000E+02  0.51100000000E-03 0.  1.
    9900012    2    1    2    0    0 -0.17733430903E+02  0.24535452436E+01  0.39536425776E+02  0.47787269372E+02  0.19999992376E+02 0.  0.
        -12    1    1    2    0    0  0.17733430903E+02 -0.24535452436E+01 -0.39536425776E+02  0.43400730628E+02  0.00000000000E+00 0.  1.
         11    1    3    3    0    0  0.29975534311E+01 -0.42256588994E+00  0.14045074394E+01  0.33371439753E+01  0.51100000000E-03 0. -1.
        -11    1    3    3    0    0 -0.53500894668E+01 -0.26878242382E+01  0.14715421798E+02  0.15886834026E+02  0.51100000000E-03 0.  1.
         12    1    3    3    0    0 -0.15380894867E+02  0.55639353717E+01  0.23416496539E+02  0.28563291371E+02  0.00000000000E+00 0. -1.
</event>
<event>
 7    1  0.2950722E-010  0.4778727E+02  0.7816164E-02  0.1312668E+00
        -11   -1    0    0    0    0  0.00000000000E+00  0.00000000000E+00  0.45593999997E+02  0.45594000000E+02  0.51100000000E-03 0.  1.
         11   -1    0    0    0    0 -0.00000000000E+00 -0.00000000000E+00 -0.45593999997E+02  0.45594000000E+02  0.51100000000E-03 0. -1.
    9900012    2    1    2    0    0 -0.22264214658E+02  0.24490173734E+02 -0.28074172930E+02  0.47787273628E+02  0.20000011781E+02 0.  0.
        -12    1    1    2    0    0  0.22264214658E+02 -0.24490173734E+02  0.28074172930E+02  0.43400726372E+02  0.00000000000E+00 0.  1.
         11    1    3    3    0    0  0.35326736941E+00  0.27390282487E+00  0.18575128007E+01  0.19105430269E+01  0.51100000000E-03 0. -1.
        -11    1    3    3    0    0  0.10495664762E+01  0.14932521806E+01 -0.25872938793E+01  0.31663041139E+01  0.51100000000E-03 0.  1.
         12    1    3    3    0    0 -0.23667048504E+02  0.22723018728E+02 -0.27344391852E+02  0.42710426488E+02  0.00000000000E+00 0. -1.
</event>
<event>
 7    1  0.2950722E-010  0.4778727E+02  0.7816164E-02  0.1312668E+00
        -11   -1    0    0    0    0  0.00000000000E+00  0.00000000000E+00  0.45593999997E+02  0.45594000000E+02  0.51100000000E-03 0.  1.
         11   -1    0    0    0    0 -0.00000000000E+00 -0.00000000000E+00 -0.45593999997E+02  0.45594000000E+02  0.51100000000E-03 0. -1.
    9900012    2    1    2    0    0  0.16093156941E+02  0.27493118127E+02 -0.29474768061E+02  0.47787271931E+02  0.20000004041E+02 0.  0.
        -12    1    1    2    0    0 -0.16093156941E+02 -0.27493118127E+02  0.29474768061E+02  0.43400728069E+02  0.00000000000E+00 0.  1.
         11    1    3    3    0    0  0.51500326968E+01  0.18795429861E+02 -0.15279605682E+02  0.24764033809E+02  0.51100000000E-03 0. -1.
        -11    1    3    3    0    0  0.35008510070E+01 -0.27491861175E+01 -0.39828240366E+01  0.59730117738E+01  0.51100000000E-03 0.  1.
        -12    1    3    3    0    0  0.74422732374E+01  0.11446874383E+02 -0.10212338343E+02  0.17050226348E+02  0.00000000000E+00 0.  1.
</event>
<event>
 7    1  0.2950722E-010  0.4778727E+02  0.7816164E-02  0.1312668E+00
        -11   -1    0    0    0    0  0.00000000000E+00  0.00000000000E+00  0.45593999997E+02  0.45594000000E+02  0.51100000000E-03 0.  1.
         11   -1    0    0    0    0 -0.00000000000E+00 -0.00000000000E+00 -0.45593999997E+02  0.45594000000E+02  0.51100000000E-03 0. -1.
    9900012    2    1    2    0    0  0.31630684099E+02  0.15219856897E+02 -0.25524091296E+02  0.47787268934E+02  0.19999990380E+02 0.  0.
        -12    1    1    2    0    0 -0.31630684099E+02 -0.15219856897E+02  0.25524091296E+02  0.43400731066E+02  0.00000000000E+00 0.  1.
         11    1    3    3    0    0  0.28354271504E+02  0.86744308370E+01 -0.16537711124E+02  0.33951529456E+02  0.51100000000E-03 0. -1.
        -11    1    3    3    0    0  0.34228628967E+01  0.79765408607E+01 -0.60946659147E+01  0.10605948679E+02  0.51100000000E-03 0.  1.
         12    1    3    3    0    0 -0.14645030228E+00 -0.14311148009E+01 -0.28917142570E+01  0.32297907995E+01  0.00000000000E+00 0. -1.
</event>
<event>
 7    1  0.2950722E-010  0.4778726E+02  0.7816164E-02  0.1312668E+00
        -11   -1    0    0    0    0  0.00000000000E+00  0.00000000000E+00  0.45593999997E+02  0.45594000000E+02  0.51100000000E-03 0.  1.
         11   -1    0    0    0    0 -0.00000000000E+00 -0.00000000000E+00 -0.45593999997E+02  0.45594000000E+02  0.51100000000E-03 0. -1.
    9900012    2    1    2    0    0 -0.37075954162E+02 -0.18186167492E+02 -0.13351440241E+02  0.47787262431E+02  0.19999960726E+02 0.  0.
        -12    1    1    2    0    0  0.37075954162E+02  0.18186167492E+02  0.13351440241E+02  0.43400737569E+02  0.00000000000E+00 0.  1.
         11    1    3    3    0    0 -0.22243536898E+02 -0.49891329933E+01 -0.69219351708E+01  0.23823928486E+02  0.51100000000E-03 0. -1.
        -11    1    3    3    0    0 -0.21342819300E+01 -0.34475566014E+01  0.33013621537E+01  0.52287472885E+01  0.51100000000E-03 0.  1.
        -12    1    3    3    0    0 -0.12698135334E+02 -0.97494778973E+01 -0.97308672237E+01  0.18734586656E+02  0.00000000000E+00 0.  1.
</event>
<event>
 7    1  0.2950722E-010  0.4778725E+02  0.7816164E-02  0.1312668E+00
        -11   -1    0    0    0    0  0.00000000000E+00  0.00000000000E+00  0.45593999997E+02  0.45594000000E+02  0.51100000000E-03 0. -1.
         11   -1    0    0    0    0 -0.00000000000E+00 -0.00000000000E+00 -0.45593999997E+02  0.45594000000E+02  0.51100000000E-03 0.  1.
    9900012    2    1    2    0    0 -0.10266417030E+02  0.32554927098E+02  0.26803037245E+02  0.47787246521E+02  0.19999888189E+02 0.  0.
        -12    1    1    2    0    0  0.10266417030E+02 -0.32554927098E+02 -0.26803037245E+02  0.43400753479E+02  0.00000000000E+00 0.  1.
         11    1    3    3    0    0 -0.71238874385E+01  0.94843040602E+01  0.19514175293E+02  0.22836480319E+02  0.51100000000E-03 0. -1.
        -11    1    3    3    0    0  0.10611913138E+01  0.75365896174E+01  0.10151589709E+01  0.76783369334E+01  0.51100000000E-03 0.  1.
         12    1    3    3    0    0 -0.42037209050E+01  0.15534033420E+02  0.62737029804E+01  0.17272429269E+02  0.00000000000E+00 0. -1.
</event>
<event>
 7    1  0.2950722E-010  0.4778729E+02  0.7816164E-02  0.1312668E+00
        -11   -1    0    0    0    0  0.00000000000E+00  0.00000000000E+00  0.45593999997E+02  0.45594000000E+02  0.51100000000E-03 0. -1.
         11   -1    0    0    0    0 -0.00000000000E+00 -0.00000000000E+00 -0.45593999997E+02  0.45594000000E+02  0.51100000000E-03 0.  1.
    9900012    2    1    2    0    0  0.38557413265E+02 -0.17228832156E+02  0.10005737713E+02  0.47787290763E+02  0.20000089903E+02 0.  0.
        -12    1    1    2    0    0 -0.38557413265E+02  0.17228832156E+02 -0.10005737713E+02  0.43400709237E+02  0.00000000000E+00 0.  1.
         11    1    3    3    0    0  0.68340993237E+01 -0.13402594242E+01  0.90597078900E+01  0.11427139458E+02  0.51100000000E-03 0. -1.
        -11    1    3    3    0    0  0.29330407809E+02 -0.14865227516E+02  0.30361601076E+01  0.33022205859E+02  0.51100000000E-03 0.  1.
        -12    1    3    3    0    0  0.23929061318E+01 -0.10233452158E+01 -0.20901302846E+01  0.33379454448E+01  0.00000000000E+00 0.  1.
</event>
<event>
 7    1  0.2950722E-010  0.4778727E+02  0.7816164E-02  0.1312668E+00
        -11   -1    0    0    0    0  0.00000000000E+00  0.00000000000E+00  0.45593999997E+02  0.45594000000E+02  0.51100000000E-03 0.  1.
         11   -1    0    0    0    0 -0.00000000000E+00 -0.00000000000E+00 -0.45593999997E+02  0.45594000000E+02  0.51100000000E-03 0. -1.
    9900012    2    1    2    0    0  0.33336130698E+02 -0.19477601562E+02 -0.19822930131E+02  0.47787272685E+02  0.20000007479E+02 0.  0.
        -12    1    1    2    0    0 -0.33336130698E+02  0.19477601562E+02  0.19822930131E+02  0.43400727315E+02  0.00000000000E+00 0.  1.
         11    1    3    3    0    0  0.25209904141E+02 -0.36993091391E+01 -0.11923177468E+02  0.28131589292E+02  0.51100000000E-03 0. -1.
        -11    1    3    3    0    0  0.26027876796E+01 -0.79774554850E+01 -0.29735948387E+01  0.89026156969E+01  0.51100000000E-03 0.  1.
         12    1    3    3    0    0  0.55234388772E+01 -0.78008369379E+01 -0.49261578239E+01  0.10753067696E+02  0.00000000000E+00 0. -1.
</event>
<event>
 7    1  0.2950722E-010  0.4778726E+02  0.7816164E-02  0.1312668E+00
        -11   -1    0    0    0    0  0.00000000000E+00  0.00000000000E+00  0.45593999997E+02  0.45594000000E+02  0.51100000000E-03 0.  1.
         11   -1    0    0    0    0 -0.00000000000E+00 -0.00000000000E+00 -0.45593999997E+02  0.45594000000E+02  0.51100000000E-03 0. -1.
    9900012    2    1    2    0    0 -0.34406225123E+02 -0.66810040066E+01  0.25596870770E+02  0.47787263428E+02  0.19999965275E+02 0.  0.
        -12    1    1    2    0    0  0.34406225123E+02  0.66810040066E+01 -0.25596870770E+02  0.43400736572E+02  0.00000000000E+00 0.  1.
         11    1    3    3    0    0 -0.10771213099E+02 -0.60959112793E+00  0.42980013678E+01  0.11613072332E+02  0.51100000000E-03 0. -1.
        -11    1    3    3    0    0 -0.11796838322E+02  0.51937470454E+01  0.89698619865E+01  0.15703465448E+02  0.51100000000E-03 0.  1.
        -12    1    3    3    0    0 -0.11838173702E+02 -0.11265159924E+02  0.12329007416E+02  0.20470725648E+02  0.00000000000E+00 0.  1.
</event>
<event>
 7    1  0.2950722E-010  0.4778727E+02  0.7816164E-02  0.1312668E+00
        -11   -1    0    0    0    0  0.00000000000E+00  0.00000000000E+00  0.45593999997E+02  0.45594000000E+02  0.51100000000E-03 0. -1.
         11   -1    0    0    0    0 -0.00000000000E+00 -0.00000000000E+00 -0.45593999997E+02  0.45594000000E+02  0.51100000000E-03 0.  1.
    9900012    2    1    2    0    0  0.10106074075E+02  0.25567636404E-01  0.42207700030E+02  0.47787270413E+02  0.19999997120E+02 0.  0.
        -12    1    1    2    0    0 -0.10106074075E+02 -0.25567636404E-01 -0.42207700030E+02  0.43400729587E+02  0.00000000000E+00 0.  1.
         11    1    3    3    0    0  0.59010677343E+00  0.26343576673E+01  0.67351451642E+01  0.72560489915E+01  0.51100000000E-03 0. -1.
        -11    1    3    3    0    0  0.46214124879E+01  0.66626041239E+01  0.93088070177E+01  0.12345105729E+02  0.51100000000E-03 0.  1.
        -12    1    3    3    0    0  0.48945548135E+01 -0.92713941548E+01  0.26163747848E+02  0.28186115693E+02  0.00000000000E+00 0.  1.
</event>
<event>
 7    1  0.2950722E-010  0.4778727E+02  0.7816164E-02  0.1312668E+00
        -11   -1    0    0    0    0  0.00000000000E+00  0.00000000000E+00  0.45593999997E+02  0.45594000000E+02  0.51100000000E-03 0.  1.
         11   -1    0    0    0    0 -0.00000000000E+00 -0.00000000000E+00 -0.45593999997E+02  0.45594000000E+02  0.51100000000E-03 0. -1.
    9900012    2    1    2    0    0 -0.13065059265E+02 -0.33838185923E+02 -0.23830755561E+02  0.47787268315E+02  0.19999987557E+02 0.  0.
        -12    1    1    2    0    0  0.13065059265E+02  0.33838185923E+02  0.23830755561E+02  0.43400731685E+02  0.00000000000E+00 0.  1.
         11    1    3    3    0    0 -0.17873418741E+01 -0.11035362848E+02  0.26731853455E+00  0.11182364849E+02  0.51100000000E-03 0. -1.
        -11    1    3    3    0    0 -0.11047671296E+02 -0.11812858648E+02 -0.11279443311E+02  0.19718532202E+02  0.51100000000E-03 0.  1.
         12    1    3    3    0    0 -0.23004609517E+00 -0.10989964426E+02 -0.12818630784E+02  0.16886371264E+02  0.00000000000E+00 0. -1.
</event>
<event>
 7    1  0.2950722E-010  0.4778725E+02  0.7816164E-02  0.1312668E+00
        -11   -1    0    0    0    0  0.00000000000E+00  0.00000000000E+00  0.45593999997E+02  0.45594000000E+02  0.51100000000E-03 0.  1.
         11   -1    0    0    0    0 -0.00000000000E+00 -0.00000000000E+00 -0.45593999997E+02  0.45594000000E+02  0.51100000000E-03 0. -1.
    9900012    2    1    2    0    0 -0.22553319339E+02  0.36994832799E+02 -0.25209153250E+01  0.47787252528E+02  0.19999915577E+02 0.  0.
        -12    1    1    2    0    0  0.22553319339E+02 -0.36994832799E+02  0.25209153250E+01  0.43400747472E+02  0.00000000000E+00 0.  1.
         11    1    3    3    0    0 -0.96270027406E+01  0.12730203062E+02 -0.56518166874E+01  0.16931635594E+02  0.51100000000E-03 0. -1.
        -11    1    3    3    0    0 -0.42593265913E+01  0.18700978158E+02  0.61181410968E+01  0.20132066407E+02  0.51100000000E-03 0.  1.
        -12    1    3    3    0    0 -0.86669900069E+01  0.55636515789E+01 -0.29872397344E+01  0.10723550527E+02  0.00000000000E+00 0.  1.
</event>
<event>
 7    1  0.2950722E-010  0.4778727E+02  0.7816164E-02  0.1312668E+00
        -11   -1    0    0    0    0  0.00000000000E+00  0.00000000000E+00  0.45593999997E+02  0.45594000000E+02  0.51100000000E-03 0.  1.
         11   -1    0    0    0    0 -0.00000000000E+00 -0.00000000000E+00 -0.45593999997E+02  0.45594000000E+02  0.51100000000E-03 0. -1.
    9900012    2    1    2    0    0 -0.24644146584E+02  0.25288227164E+01 -0.35635579540E+02  0.47787269196E+02  0.19999991571E+02 0.  0.
        -12    1    1    2    0    0  0.24644146584E+02 -0.25288227164E+01  0.35635579540E+02  0.43400730804E+02  0.00000000000E+00 0.  1.
         11    1    3    3    0    0 -0.70204115716E+00  0.50906732783E+01 -0.67142717681E+00  0.51825313244E+01  0.51100000000E-03 0. -1.
        -11    1    3    3    0    0 -0.21489274453E+02 -0.29747383687E+01 -0.32695652392E+02  0.39238293419E+02  0.51100000000E-03 0.  1.
         12    1    3    3    0    0 -0.24528309739E+01  0.41288780681E+00 -0.22684999713E+01  0.33664444519E+01  0.00000000000E+00 0. -1.
</event>
<event>
 7    1  0.2950722E-010  0.4778727E+02  0.7816164E-02  0.1312668E+00
        -11   -1    0    0    0    0  0.00000000000E+00  0.00000000000E+00  0.45593999997E+02  0.45594000000E+02  0.51100000000E-03 0.  1.
         11   -1    0    0    0    0 -0.00000000000E+00 -0.00000000000E+00 -0.45593999997E+02  0.45594000000E+02  0.51100000000E-03 0. -1.
    9900012    2    1    2    0    0  0.29613278113E+02  0.31697789220E+02  0.13882503781E+01  0.47787270500E+02  0.19999997519E+02 0.  0.
        -12    1    1    2    0    0 -0.29613278113E+02 -0.31697789220E+02 -0.13882503781E+01  0.43400729500E+02  0.00000000000E+00 0.  1.
         11    1    3    3    0    0  0.50771143631E+01  0.11866693865E+02  0.10248910177E+01  0.12947815082E+02  0.51100000000E-03 0. -1.
        -11    1    3    3    0    0  0.22875731293E+02  0.10795177538E+02  0.24654510841E+01  0.25414826176E+02  0.51100000000E-03 0.  1.
        -12    1    3    3    0    0  0.16604324566E+01  0.90359178170E+01 -0.21020917237E+01  0.94246292422E+01  0.00000000000E+00 0.  1.
</event>
<event>
 7    1  0.2950722E-010  0.4778727E+02  0.7816164E-02  0.1312668E+00
        -11   -1    0    0    0    0  0.00000000000E+00  0.00000000000E+00  0.45593999997E+02  0.45594000000E+02  0.51100000000E-03 0.  1.
         11   -1    0    0    0    0 -0.00000000000E+00 -0.00000000000E+00 -0.45593999997E+02  0.45594000000E+02  0.51100000000E-03 0. -1.
    9900012    2    1    2    0    0  0.23122195650E+02 -0.79372542024E+01 -0.35860664199E+02  0.47787272210E+02  0.20000005313E+02 0.  0.
        -12    1    1    2    0    0 -0.23122195650E+02  0.79372542024E+01  0.35860664199E+02  0.43400727790E+02  0.00000000000E+00 0.  1.
         11    1    3    3    0    0 -0.24773803650E+01 -0.21444413573E+01 -0.90296838138E+01  0.96057915991E+01  0.51100000000E-03 0. -1.
        -11    1    3    3    0    0  0.14821932737E+02 -0.45219065782E+01 -0.11064232579E+02  0.19040865841E+02  0.51100000000E-03 0.  1.
        -12    1    3    3    0    0  0.10777643278E+02 -0.12709062669E+01 -0.15766747806E+02  0.19140614769E+02  0.00000000000E+00 0.  1.
</event>
<event>
 7    1  0.3068886E-010  0.4778727E+02  0.7816164E-02  0.1312668E+00
        -11   -1    0    0    0    0  0.00000000000E+00  0.00000000000E+00  0.45593999997E+02  0.45594000000E+02  0.51100000000E-03 0. -1.
         11   -1    0    0    0    0 -0.00000000000E+00 -0.00000000000E+00 -0.45593999997E+02  0.45594000000E+02  0.51100000000E-03 0.  1.
    9900012    2    1    2    0    0  0.23497092301E+01 -0.20444203302E+02  0.38211737926E+02  0.47787268468E+02  0.19999988255E+02 0.  0.
        -12    1    1    2    0    0 -0.23497092301E+01  0.20444203302E+02 -0.38211737926E+02  0.43400731532E+02  0.00000000000E+00 0.  1.
         11    1    3    3    0    0  0.48615442955E+01 -0.11392618410E+02  0.28737203442E+02  0.31293022052E+02  0.51100000000E-03 0. -1.
        -11    1    3    3    0    0 -0.44374883977E+01 -0.34594003013E+00  0.42823851780E+01  0.61765525059E+01  0.51100000000E-03 0.  1.
         12    1    3    3    0    0  0.19256533323E+01 -0.87056448621E+01  0.51921493058E+01  0.10317693911E+02  0.00000000000E+00 0. -1.
</event>
<event>
 7    1  0.2950722E-010  0.4778727E+02  0.7816164E-02  0.1312668E+00
        -11   -1    0    0    0    0  0.00000000000E+00  0.00000000000E+00  0.45593999997E+02  0.45594000000E+02  0.51100000000E-03 0.  1.
         11   -1    0    0    0    0 -0.00000000000E+00 -0.00000000000E+00 -0.45593999997E+02  0.45594000000E+02  0.51100000000E-03 0. -1.
    9900012    2    1    2    0    0 -0.18435207952E+02 -0.20244383144E+02 -0.33673898599E+02  0.47787269729E+02  0.19999994004E+02 0.  0.
        -12    1    1    2    0    0  0.18435207952E+02  0.20244383144E+02  0.33673898599E+02  0.43400730271E+02  0.00000000000E+00 0.  1.
         11    1    3    3    0    0 -0.51862986893E+01 -0.12576366515E+01 -0.16138037001E+02  0.16997516953E+02  0.51100000000E-03 0. -1.
        -11    1    3    3    0    0 -0.10097264901E+02 -0.66079447593E+01 -0.55846237610E+01  0.13296906228E+02  0.51100000000E-03 0.  1.
         12    1    3    3    0    0 -0.31516443621E+01 -0.12378801734E+02 -0.11951237837E+02  0.17492846549E+02  0.00000000000E+00 0. -1.
</event>
<event>
 7    1  0.2950722E-010  0.4778727E+02  0.7816164E-02  0.1312668E+00
        -11   -1    0    0    0    0  0.00000000000E+00  0.00000000000E+00  0.45593999997E+02  0.45594000000E+02  0.51100000000E-03 0.  1.
         11   -1    0    0    0    0 -0.00000000000E+00 -0.00000000000E+00 -0.45593999997E+02  0.45594000000E+02  0.51100000000E-03 0. -1.
    9900012    2    1    2    0    0 -0.32406158681E+02 -0.12303889013E+02  0.26116631643E+02  0.47787271277E+02  0.20000001061E+02 0.  0.
        -12    1    1    2    0    0  0.32406158681E+02  0.12303889013E+02 -0.26116631643E+02  0.43400728723E+02  0.00000000000E+00 0.  1.
         11    1    3    3    0    0 -0.17994689529E+01 -0.77459436363E+01  0.64148560338E+01  0.10217049942E+02  0.51100000000E-03 0.  1.
        -11    1    3    3    0    0 -0.18908353169E+02 -0.17275523697E+01  0.74523216184E+01  0.20397238894E+02  0.51100000000E-03 0. -1.
        -12    1    3    3    0    0 -0.11698336559E+02 -0.28303930074E+01  0.12249453990E+02  0.17172982440E+02  0.00000000000E+00 0.  1.
</event>
<event>
 7    1  0.2950722E-010  0.4778728E+02  0.7816164E-02  0.1312668E+00
        -11   -1    0    0    0    0  0.00000000000E+00  0.00000000000E+00  0.45593999997E+02  0.45594000000E+02  0.51100000000E-03 0.  1.
         11   -1    0    0    0    0 -0.00000000000E+00 -0.00000000000E+00 -0.45593999997E+02  0.45594000000E+02  0.51100000000E-03 0. -1.
    9900012    2    1    2    0    0 -0.31034958931E+02  0.36441394200E+01 -0.30119337437E+02  0.47787275172E+02  0.20000018818E+02 0.  0.
        -12    1    1    2    0    0  0.31034958931E+02 -0.36441394200E+01  0.30119337437E+02  0.43400724828E+02  0.00000000000E+00 0.  1.
         11    1    3    3    0    0 -0.21747217345E+02  0.56034657705E+01 -0.99205620731E+01  0.24551127122E+02  0.51100000000E-03 0. -1.
        -11    1    3    3    0    0 -0.73623593852E+01  0.10195955125E+01 -0.16575837994E+02  0.18165965875E+02  0.51100000000E-03 0.  1.
        -12    1    3    3    0    0 -0.19253822011E+01 -0.29789218630E+01 -0.36229373709E+01  0.50701821742E+01  0.00000000000E+00 0.  1.
</event>
<event>
 7    1  0.2950722E-010  0.4778727E+02  0.7816164E-02  0.1312668E+00
        -11   -1    0    0    0    0  0.00000000000E+00  0.00000000000E+00  0.45593999997E+02  0.45594000000E+02  0.51100000000E-03 0. -1.
         11   -1    0    0    0    0 -0.00000000000E+00 -0.00000000000E+00 -0.45593999997E+02  0.45594000000E+02  0.51100000000E-03 0.  1.
    9900012    2    1    2    0    0  0.30819600755E+02  0.97380677363E+01  0.28964558048E+02  0.47787269859E+02  0.19999994593E+02 0.  0.
        -12    1    1    2    0    0 -0.30819600755E+02 -0.97380677363E+01 -0.28964558048E+02  0.43400730141E+02  0.00000000000E+00 0.  1.
         11    1    3    3    0    0  0.51419956394E+01  0.56376665491E+01  0.76190015686E+00  0.76683697997E+01  0.51100000000E-03 0. -1.
        -11    1    3    3    0    0  0.12464064437E+02 -0.68511364720E+00  0.20740355286E+02  0.24207119214E+02  0.51100000000E-03 0.  1.
         12    1    3    3    0    0  0.13213540678E+02  0.47855148344E+01  0.74623026045E+01  0.15911780845E+02  0.00000000000E+00 0. -1.
</event>
<event>
 7    1  0.2950722E-010  0.4778727E+02  0.7816164E-02  0.1312668E+00
        -11   -1    0    0    0    0  0.00000000000E+00  0.00000000000E+00  0.45593999997E+02  0.45594000000E+02  0.51100000000E-03 0.  1.
         11   -1    0    0    0    0 -0.00000000000E+00 -0.00000000000E+00 -0.45593999997E+02  0.45594000000E+02  0.51100000000E-03 0. -1.
    9900012    2    1    2    0    0 -0.28234700321E+02  0.32644449012E+02 -0.45568270456E+01  0.47787273897E+02  0.20000013007E+02 0.  0.
        -12    1    1    2    0    0  0.28234700321E+02 -0.32644449012E+02  0.45568270456E+01  0.43400726103E+02  0.00000000000E+00 0.  1.
         11    1    3    3    0    0 -0.23384796329E+02  0.31805587699E+02  0.62243517213E+00  0.39482040652E+02  0.51100000000E-03 0. -1.
        -11    1    3    3    0    0 -0.12725461352E+01  0.77626253412E+00 -0.43970177361E+01  0.46428140627E+01  0.51100000000E-03 0.  1.
         12    1    3    3    0    0 -0.35773578569E+01  0.62598779242E-01 -0.78224448163E+00  0.36624191831E+01  0.00000000000E+00 0. -1.
</event>
<event>
 7    1  0.2950722E-010  0.4778727E+02  0.7816164E-02  0.1312668E+00
        -11   -1    0    0    0    0  0.00000000000E+00  0.00000000000E+00  0.45593999997E+02  0.45594000000E+02  0.51100000000E-03 0.  1.
         11   -1    0    0    0    0 -0.00000000000E+00 -0.00000000000E+00 -0.45593999997E+02  0.45594000000E+02  0.51100000000E-03 0. -1.
    9900012    2    1    2    0    0  0.19594966880E+02  0.28323457935E+02 -0.26409129961E+02  0.47787272567E+02  0.20000006941E+02 0.  0.
        -12    1    1    2    0    0 -0.19594966880E+02 -0.28323457935E+02  0.26409129961E+02  0.43400727433E+02  0.00000000000E+00 0.  1.
         11    1    3    3    0    0  0.26026303520E+01  0.15925636326E+02 -0.83141157672E+01  0.18152798638E+02  0.51100000000E-03 0. -1.
        -11    1    3    3    0    0  0.70819385600E+01 -0.59730918672E-01 -0.29822516983E+01  0.76844809196E+01  0.51100000000E-03 0.  1.
        -12    1    3    3    0    0  0.99103979682E+01  0.12457552528E+02 -0.15112762495E+02  0.21949993010E+02  0.00000000000E+00 0.  1.
</event>
<event>
 7    1  0.2950722E-010  0.4778730E+02  0.7816164E-02  0.1312668E+00
        -11   -1    0    0    0    0  0.00000000000E+00  0.00000000000E+00  0.45593999997E+02  0.45594000000E+02  0.51100000000E-03 0. -1.
         11   -1    0    0    0    0 -0.00000000000E+00 -0.00000000000E+00 -0.45593999997E+02  0.45594000000E+02  0.51100000000E-03 0.  1.
    9900012    2    1    2    0    0 -0.16998232762E+02 -0.24880038351E+02  0.31235630999E+02  0.47787298747E+02  0.20000126306E+02 0.  0.
        -12    1    1    2    0    0  0.16998232762E+02  0.24880038351E+02 -0.31235630999E+02  0.43400701253E+02  0.00000000000E+00 0.  1.
         11    1    3    3    0    0 -0.75549027778E+01 -0.28227949578E+01  0.47193700613E+01  0.93443662917E+01  0.51100000000E-03 0. -1.
        -11    1    3    3    0    0 -0.22810894269E+00 -0.17161883378E+02  0.14011849111E+02  0.22156583459E+02  0.51100000000E-03 0.  1.
        -12    1    3    3    0    0 -0.92152210411E+01 -0.48953600149E+01  0.12504411826E+02  0.16286348996E+02  0.00000000000E+00 0.  1.
</event>
<event>
 7    1  0.2950722E-010  0.4778727E+02  0.7816164E-02  0.1312668E+00
        -11   -1    0    0    0    0  0.00000000000E+00  0.00000000000E+00  0.45593999997E+02  0.45594000000E+02  0.51100000000E-03 0.  1.
         11   -1    0    0    0    0 -0.00000000000E+00 -0.00000000000E+00 -0.45593999997E+02  0.45594000000E+02  0.51100000000E-03 0. -1.
    9900012    2    1    2    0    0 -0.21925456380E+02 -0.33251922199E+02 -0.17239701128E+02  0.47787271177E+02  0.20000000606E+02 0.  0.
        -12    1    1    2    0    0  0.21925456380E+02  0.33251922199E+02  0.17239701128E+02  0.43400728823E+02  0.00000000000E+00 0.  1.
         11    1    3    3    0    0 -0.18344380755E+02 -0.31003432745E+02 -0.16860694020E+02  0.39774516344E+02  0.51100000000E-03 0. -1.
        -11    1    3    3    0    0 -0.55681469790E+01 -0.10072970914E+01 -0.17874755578E+00  0.56613478219E+01  0.51100000000E-03 0.  1.
        -12    1    3    3    0    0  0.19870713546E+01 -0.12411923620E+01 -0.20025955203E+00  0.23514070119E+01  0.00000000000E+00 0.  1.
</event>
<event>
 7    1  0.2950722E-010  0.4778727E+02  0.7816164E-02  0.1312668E+00
        -11   -1    0    0    0    0  0.00000000000E+00  0.00000000000E+00  0.45593999997E+02  0.45594000000E+02  0.51100000000E-03 0. -1.
         11   -1    0    0    0    0 -0.00000000000E+00 -0.00000000000E+00 -0.45593999997E+02  0.45594000000E+02  0.51100000000E-03 0.  1.
    9900012    2    1    2    0    0 -0.20501795099E+02 -0.37421387735E+02  0.79334303915E+01  0.47787272125E+02  0.20000004927E+02 0.  0.
        -12    1    1    2    0    0  0.20501795099E+02  0.37421387735E+02 -0.79334303915E+01  0.43400727875E+02  0.00000000000E+00 0.  1.
         11    1    3    3    0    0 -0.11924688657E+02 -0.93183806965E+01  0.58085874645E+01  0.16210185285E+02  0.51100000000E-03 0. -1.
        -11    1    3    3    0    0 -0.11897418943E+01 -0.20615526484E+02 -0.78146580653E+00  0.20664610015E+02  0.51100000000E-03 0.  1.
        -12    1    3    3    0    0 -0.73873645470E+01 -0.74874805544E+01  0.29063087335E+01  0.10912476825E+02  0.00000000000E+00 0.  1.
</event>
<event>
 7    1  0.2950722E-010  0.4778727E+02  0.7816164E-02  0.1312668E+00
        -11   -1    0    0    0    0  0.00000000000E+00  0.00000000000E+00  0.45593999997E+02  0.45594000000E+02  0.51100000000E-03 0.  1.
         11   -1    0    0    0    0 -0.00000000000E+00 -0.00000000000E+00 -0.45593999997E+02  0.45594000000E+02  0.51100000000E-03 0. -1.
    9900012    2    1    2    0    0  0.33928725304E+01  0.30815801755E+02 -0.30372651077E+02  0.47787272411E+02  0.20000006230E+02 0.  0.
        -12    1    1    2    0    0 -0.33928725304E+01 -0.30815801755E+02  0.30372651077E+02  0.43400727589E+02  0.00000000000E+00 0.  1.
         11    1    3    3    0    0 -0.45712113270E+01  0.16582316567E+02 -0.24061740244E+02  0.29577635801E+02  0.51100000000E-03 0. -1.
        -11    1    3    3    0    0  0.50216952466E+01  0.39656003476E+01 -0.22591069515E+01  0.67857920500E+01  0.51100000000E-03 0.  1.
         12    1    3    3    0    0  0.29423886108E+01  0.10267884840E+02 -0.40518038810E+01  0.11423844560E+02  0.00000000000E+00 0. -1.
</event>
<event>
 7    1  0.3627670E-010  0.4778727E+02  0.7816164E-02  0.1312668E+00
        -11   -1    0    0    0    0  0.00000000000E+00  0.00000000000E+00  0.45593999997E+02  0.45594000000E+02  0.51100000000E-03 0. -1.
         11   -1    0    0    0    0 -0.00000000000E+00 -0.00000000000E+00 -0.45593999997E+02  0.45594000000E+02  0.51100000000E-03 0.  1.
    9900012    2    1    2    0    0 -0.33123755078E+02 -0.16681677335E+01  0.27993881982E+02  0.47787270024E+02  0.19999995345E+02 0.  0.
        -12    1    1    2    0    0  0.33123755078E+02  0.16681677335E+01 -0.27993881982E+02  0.43400729976E+02  0.00000000000E+00 0.  1.
         11    1    3    3    0    0 -0.21758712198E+02  0.59745107829E+01  0.19447961465E+02  0.29788580715E+02  0.51100000000E-03 0.  1.
        -11    1    3    3    0    0  0.30591500246E+00 -0.28558155218E+01  0.31950707164E+01  0.42962475984E+01  0.51100000000E-03 0. -1.
         12    1    3    3    0    0 -0.11670957883E+02 -0.47868629946E+01  0.53508498004E+01  0.13702441710E+02  0.00000000000E+00 0. -1.
</event>
<event>
 7    1  0.2950722E-010  0.4778727E+02  0.7816164E-02  0.1312668E+00
        -11   -1    0    0    0    0  0.00000000000E+00  0.00000000000E+00  0.45593999997E+02  0.45594000000E+02  0.51100000000E-03 0. -1.
         11   -1    0    0    0    0 -0.00000000000E+00 -0.00000000000E+00 -0.45593999997E+02  0.45594000000E+02  0.51100000000E-03 0.  1.
    9900012    2    1    2    0    0  0.24983077206E+01 -0.41855963057E+02 -0.11200886074E+02  0.47787273811E+02  0.20000012615E+02 0.  0.
        -12    1    1    2    0    0 -0.24983077206E+01  0.41855963057E+02  0.11200886074E+02  0.43400726189E+02  0.00000000000E+00 0.  1.
         11    1    3    3    0    0 -0.28238248228E-01 -0.31170813057E+02 -0.12742877675E+02  0.33674936016E+02  0.51100000000E-03 0. -1.
        -11    1    3    3    0    0  0.28835846012E+01 -0.14466293726E+01 -0.24409375702E+01  0.40454880023E+01  0.51100000000E-03 0.  1.
         12    1    3    3    0    0 -0.35703863242E+00 -0.92385206275E+01  0.39829291709E+01  0.10066849793E+02  0.00000000000E+00 0. -1.
</event>
<event>
 7    1  0.2950722E-010  0.4778727E+02  0.7816164E-02  0.1312668E+00
        -11   -1    0    0    0    0  0.00000000000E+00  0.00000000000E+00  0.45593999997E+02  0.45594000000E+02  0.51100000000E-03 0. -1.
         11   -1    0    0    0    0 -0.00000000000E+00 -0.00000000000E+00 -0.45593999997E+02  0.45594000000E+02  0.51100000000E-03 0.  1.
    9900012    2    1    2    0    0 -0.39571130087E+02  0.40727734104E+01  0.17354007872E+02  0.47787269490E+02  0.19999992911E+02 0.  0.
        -12    1    1    2    0    0  0.39571130087E+02 -0.40727734104E+01 -0.17354007872E+02  0.43400730510E+02  0.00000000000E+00 0.  1.
         11    1    3    3    0    0 -0.26978426151E+02  0.30482270624E+01  0.11176047310E+02  0.29360367837E+02  0.51100000000E-03 0. -1.
        -11    1    3    3    0    0 -0.37220489006E+00  0.45718329256E+01  0.22530065986E+01  0.51104042672E+01  0.51100000000E-03 0.  1.
         12    1    3    3    0    0 -0.12220499046E+02 -0.35472865776E+01  0.39249539640E+01  0.13316497385E+02  0.00000000000E+00 0. -1.
</event>
<event>
 7    1  0.2950722E-010  0.4778727E+02  0.7816164E-02  0.1312668E+00
        -11   -1    0    0    0    0  0.00000000000E+00  0.00000000000E+00  0.45593999997E+02  0.45594000000E+02  0.51100000000E-03 0.  1.
         11   -1    0    0    0    0 -0.00000000000E+00 -0.00000000000E+00 -0.45593999997E+02  0.45594000000E+02  0.51100000000E-03 0. -1.
    9900012    2    1    2    0    0  0.85629386091E+01 -0.17537998970E+01 -0.42511449275E+02  0.47787273610E+02  0.20000011696E+02 0.  0.
        -12    1    1    2    0    0 -0.85629386091E+01  0.17537998970E+01  0.42511449275E+02  0.43400726390E+02  0.00000000000E+00 0.  1.
         11    1    3    3    0    0  0.54625763169E+01 -0.21458525414E+01 -0.37623261570E+01  0.69713357056E+01  0.51100000000E-03 0. -1.
        -11    1    3    3    0    0  0.45171936922E+01 -0.49926745155E+01 -0.15319111128E+02  0.16733409804E+02  0.51100000000E-03 0.  1.
         12    1    3    3    0    0 -0.14168314001E+01  0.53847271599E+01 -0.23430011991E+02  0.24082528100E+02  0.00000000000E+00 0. -1.
</event>
<event>
 7    1  0.2950722E-010  0.4778727E+02  0.7816164E-02  0.1312668E+00
        -11   -1    0    0    0    0  0.00000000000E+00  0.00000000000E+00  0.45593999997E+02  0.45594000000E+02  0.51100000000E-03 0. -1.
         11   -1    0    0    0    0 -0.00000000000E+00 -0.00000000000E+00 -0.45593999997E+02  0.45594000000E+02  0.51100000000E-03 0.  1.
    9900012    2    1    2    0    0 -0.30174652183E+02 -0.16110894389E+01  0.31153138114E+02  0.47787271229E+02  0.20000000840E+02 0.  0.
        -12    1    1    2    0    0  0.30174652183E+02  0.16110894389E+01 -0.31153138114E+02  0.43400728771E+02  0.00000000000E+00 0.  1.
         11    1    3    3    0    0 -0.64812959532E+01 -0.78143157761E+01  0.95271743574E+01  0.13922563693E+02  0.51100000000E-03 0. -1.
        -11    1    3    3    0    0 -0.14903473919E+02  0.45474063178E+01  0.18939621594E+02  0.24525531705E+02  0.51100000000E-03 0.  1.
         12    1    3    3    0    0 -0.87898823110E+01  0.16558200194E+01  0.26863421630E+01  0.93391758305E+01  0.00000000000E+00 0. -1.
</event>
<event>
 7    1  0.2950722E-010  0.4778728E+02  0.7816164E-02  0.1312668E+00
        -11   -1    0    0    0    0  0.00000000000E+00  0.00000000000E+00  0.45593999997E+02  0.45594000000E+02  0.51100000000E-03 0. -1.
         11   -1    0    0    0    0 -0.00000000000E+00 -0.00000000000E+00 -0.45593999997E+02  0.45594000000E+02  0.51100000000E-03 0.  1.
    9900012    2    1    2    0    0 -0.23900235490E+02  0.34369014517E+02  0.11453055395E+02  0.47787275429E+02  0.20000019993E+02 0.  0.
        -12    1    1    2    0    0  0.23900235490E+02 -0.34369014517E+02 -0.11453055395E+02  0.43400724571E+02  0.00000000000E+00 0.  1.
         11    1    3    3    0    0 -0.84028754470E+01  0.17297644937E+02  0.58423325233E+01  0.20098499589E+02  0.51100000000E-03 0. -1.
        -11    1    3    3    0    0 -0.55594241410E+01 -0.11854041826E+01  0.37702980044E+01  0.68211089391E+01  0.51100000000E-03 0.  1.
        -12    1    3    3    0    0 -0.99379359022E+01  0.18256773763E+02  0.18404248674E+01  0.20867666901E+02  0.00000000000E+00 0.  1.
</event>
<event>
 7    1  0.2950722E-010  0.4778727E+02  0.7816164E-02  0.1312668E+00
        -11   -1    0    0    0    0  0.00000000000E+00  0.00000000000E+00  0.45593999997E+02  0.45594000000E+02  0.51100000000E-03 0.  1.
         11   -1    0    0    0    0 -0.00000000000E+00 -0.00000000000E+00 -0.45593999997E+02  0.45594000000E+02  0.51100000000E-03 0. -1.
    9900012    2    1    2    0    0  0.56521229621E+01  0.20067365715E+02 -0.38065438196E+02  0.47787271369E+02  0.20000001478E+02 0.  0.
        -12    1    1    2    0    0 -0.56521229621E+01 -0.20067365715E+02  0.38065438196E+02  0.43400728631E+02  0.00000000000E+00 0.  1.
         11    1    3    3    0    0  0.19793890673E+01  0.17793479263E+02 -0.29579021962E+02  0.34575199578E+02  0.51100000000E-03 0. -1.
        -11    1    3    3    0    0  0.23416707098E+00 -0.42605162312E+00  0.18903868522E+01  0.19519008466E+01  0.51100000000E-03 0.  1.
        -12    1    3    3    0    0  0.34385668238E+01  0.26999380754E+01 -0.10376803086E+02  0.11260170944E+02  0.00000000000E+00 0.  1.
</event>
<event>
 7    1  0.2950722E-010  0.4778727E+02  0.7816164E-02  0.1312668E+00
        -11   -1    0    0    0    0  0.00000000000E+00  0.00000000000E+00  0.45593999997E+02  0.45594000000E+02  0.51100000000E-03 0.  1.
         11   -1    0    0    0    0 -0.00000000000E+00 -0.00000000000E+00 -0.45593999997E+02  0.45594000000E+02  0.51100000000E-03 0. -1.
    9900012    2    1    2    0    0 -0.42851962675E+02 -0.54873104361E+00 -0.68579640554E+01  0.47787268649E+02  0.19999989076E+02 0.  0.
        -12    1    1    2    0    0  0.42851962675E+02  0.54873104361E+00  0.68579640554E+01  0.43400731351E+02  0.00000000000E+00 0.  1.
         11    1    3    3    0    0 -0.12689607394E+02  0.21491944635E+01 -0.93960514933E+01  0.15935211218E+02  0.51100000000E-03 0. -1.
        -11    1    3    3    0    0 -0.20721746325E+01  0.17602110801E+01 -0.15316531657E+01  0.31206109074E+01  0.51100000000E-03 0.  1.
         12    1    3    3    0    0 -0.28090180649E+02 -0.44581365872E+01  0.40697406036E+01  0.28731446523E+02  0.00000000000E+00 0. -1.
</event>
<event>
 7    1  0.2950722E-010  0.4778723E+02  0.7816164E-02  0.1312668E+00
        -11   -1    0    0    0    0  0.00000000000E+00  0.00000000000E+00  0.45593999997E+02  0.45594000000E+02  0.51100000000E-03 0. -1.
         11   -1    0    0    0    0 -0.00000000000E+00 -0.00000000000E+00 -0.45593999997E+02  0.45594000000E+02  0.51100000000E-03 0.  1.
    9900012    2    1    2    0    0 -0.43100534309E+02 -0.17314273884E+00  0.50932056053E+01  0.47787230658E+02  0.19999815861E+02 0.  0.
        -12    1    1    2    0    0  0.43100534309E+02  0.17314273884E+00 -0.50932056053E+01  0.43400769342E+02  0.00000000000E+00 0.  1.
         11    1    3    3    0    0 -0.31291239222E+02 -0.55625633632E-01 -0.23197106043E+01  0.31377154170E+02  0.51100000000E-03 0. -1.
        -11    1    3    3    0    0  0.97675777988E-01 -0.17774685180E+01  0.32171520419E+01  0.36768196056E+01  0.51100000000E-03 0.  1.
        -12    1    3    3    0    0 -0.11906970865E+02  0.16599514128E+01  0.41957641676E+01  0.12733256882E+02  0.00000000000E+00 0.  1.
</event>
<event>
 7    1  0.2950722E-010  0.4778727E+02  0.7816164E-02  0.1312668E+00
        -11   -1    0    0    0    0  0.00000000000E+00  0.00000000000E+00  0.45593999997E+02  0.45594000000E+02  0.51100000000E-03 0.  1.
         11   -1    0    0    0    0 -0.00000000000E+00 -0.00000000000E+00 -0.45593999997E+02  0.45594000000E+02  0.51100000000E-03 0. -1.
    9900012    2    1    2    0    0 -0.56319040284E+01  0.42822611352E+02  0.42578011379E+01  0.47787271244E+02  0.20000000911E+02 0.  0.
        -12    1    1    2    0    0  0.56319040284E+01 -0.42822611352E+02 -0.42578011379E+01  0.43400728756E+02  0.00000000000E+00 0.  1.
         11    1    3    3    0    0 -0.69496449262E+01  0.31043336664E+01  0.15440743502E+01  0.77665061625E+01  0.51100000000E-03 0. -1.
        -11    1    3    3    0    0 -0.82251965751E+00  0.28205947648E+02  0.20547114444E+01  0.28292646760E+02  0.51100000000E-03 0.  1.
         12    1    3    3    0    0  0.21402605553E+01  0.11512330037E+02  0.65901534341E+00  0.11728118321E+02  0.00000000000E+00 0. -1.
</event>
<event>
 7    1 -0.2950722E-010  0.4778727E+02  0.7816164E-02  0.1312668E+00
        -11   -1    0    0    0    0  0.00000000000E+00  0.00000000000E+00  0.45593999997E+02  0.45594000000E+02  0.51100000000E-03 0.  1.
         11   -1    0    0    0    0 -0.00000000000E+00 -0.00000000000E+00 -0.45593999997E+02  0.45594000000E+02  0.51100000000E-03 0. -1.
    9900012    2    1    2    0    0 -0.64494686971E+01 -0.13522951347E+02 -0.40732760115E+02  0.47787267216E+02  0.19999982544E+02 0.  0.
        -12    1    1    2    0    0  0.64494686971E+01  0.13522951347E+02  0.40732760115E+02  0.43400732784E+02  0.00000000000E+00 0.  1.
         11    1    3    3    0    0  0.61441413774E+01 -0.19110014363E+01 -0.13534047315E+02  0.14985754460E+02  0.51100000000E-03 0. -1.
        -11    1    3    3    0    0 -0.20945014295E+01 -0.59415271158E+01 -0.77968026468E+01  0.10023912035E+02  0.51100000000E-03 0.  1.
         12    1    3    3    0    0 -0.10499108645E+02 -0.56704227948E+01 -0.19401910153E+02  0.22777600721E+02  0.00000000000E+00 0. -1.
</event>
<event>
 7    1  0.2950722E-010  0.4778727E+02  0.7816164E-02  0.1312668E+00
        -11   -1    0    0    0    0  0.00000000000E+00  0.00000000000E+00  0.45593999997E+02  0.45594000000E+02  0.51100000000E-03 0.  1.
         11   -1    0    0    0    0 -0.00000000000E+00 -0.00000000000E+00 -0.45593999997E+02  0.45594000000E+02  0.51100000000E-03 0. -1.
    9900012    2    1    2    0    0 -0.37280233841E+02 -0.69178667616E+01 -0.21117533725E+02  0.47787274817E+02  0.20000017202E+02 0.  0.
        -12    1    1    2    0    0  0.37280233841E+02  0.69178667616E+01  0.21117533725E+02  0.43400725183E+02  0.00000000000E+00 0.  1.
         11    1    3    3    0    0 -0.20841973668E+02 -0.26143252441E+01 -0.18574404902E+02  0.28039812421E+02  0.51100000000E-03 0. -1.
        -11    1    3    3    0    0 -0.82901546522E+01  0.93270620134E+00  0.26555444280E+01  0.87549141336E+01  0.51100000000E-03 0.  1.
        -12    1    3    3    0    0 -0.81481055208E+01 -0.52362477189E+01 -0.51986732506E+01  0.10992548263E+02  0.00000000000E+00 0.  1.
</event>
<event>
 7    1  0.2950722E-010  0.4778728E+02  0.7816164E-02  0.1312668E+00
        -11   -1    0    0    0    0  0.00000000000E+00  0.00000000000E+00  0.45593999997E+02  0.45594000000E+02  0.51100000000E-03 0. -1.
         11   -1    0    0    0    0 -0.00000000000E+00 -0.00000000000E+00 -0.45593999997E+02  0.45594000000E+02  0.51100000000E-03 0.  1.
    9900012    2    1    2    0    0  0.35325136237E+02  0.24631372325E+02  0.53900442242E+01  0.47787281925E+02  0.20000049607E+02 0.  0.
        -12    1    1    2    0    0 -0.35325136237E+02 -0.24631372325E+02 -0.53900442242E+01  0.43400718075E+02  0.00000000000E+00 0.  1.
         11    1    3    3    0    0  0.14860952140E+02  0.81481490829E+01  0.90306465916E+01  0.19203979017E+02  0.51100000000E-03 0. -1.
        -11    1    3    3    0    0  0.21646927793E+02  0.15875611315E+02 -0.27544703452E+01  0.26985396507E+02  0.51100000000E-03 0.  1.
        -12    1    3    3    0    0 -0.11827436958E+01  0.60761192628E+00 -0.88613202225E+00  0.15979064002E+01  0.00000000000E+00 0.  1.
</event>
<event>
 7    1  0.2950722E-010  0.4778727E+02  0.7816164E-02  0.1312668E+00
        -11   -1    0    0    0    0  0.00000000000E+00  0.00000000000E+00  0.45593999997E+02  0.45594000000E+02  0.51100000000E-03 0. -1.
         11   -1    0    0    0    0 -0.00000000000E+00 -0.00000000000E+00 -0.45593999997E+02  0.45594000000E+02  0.51100000000E-03 0.  1.
    9900012    2    1    2    0    0 -0.27696360257E+02 -0.29480643204E+02  0.15729791621E+02  0.47787273743E+02  0.20000012302E+02 0.  0.
        -12    1    1    2    0    0  0.27696360257E+02  0.29480643204E+02 -0.15729791621E+02  0.43400726257E+02  0.00000000000E+00 0.  1.
         11    1    3    3    0    0 -0.12236502947E+02 -0.19277351138E+02  0.12782350274E+02  0.26167475042E+02  0.51100000000E-03 0. -1.
        -11    1    3    3    0    0 -0.53273350348E+01 -0.52408889897E+01 -0.38923349918E+01  0.84260125756E+01  0.51100000000E-03 0.  1.
        -12    1    3    3    0    0 -0.10132522275E+02 -0.49624030764E+01  0.68397763387E+01  0.13193786125E+02  0.00000000000E+00 0.  1.
</event>
<event>
 7    1  0.2950722E-010  0.4778727E+02  0.7816164E-02  0.1312668E+00
        -11   -1    0    0    0    0  0.00000000000E+00  0.00000000000E+00  0.45593999997E+02  0.45594000000E+02  0.51100000000E-03 0. -1.
         11   -1    0    0    0    0 -0.00000000000E+00 -0.00000000000E+00 -0.45593999997E+02  0.45594000000E+02  0.51100000000E-03 0.  1.
    9900012    2    1    2    0    0 -0.37790761171E+02 -0.20655863709E+02  0.53681433343E+01  0.47787270763E+02  0.19999998718E+02 0.  0.
        -12    1    1    2    0    0  0.37790761171E+02  0.20655863709E+02 -0.53681433343E+01  0.43400729237E+02  0.00000000000E+00 0.  1.
         11    1    3    3    0    0 -0.21863761275E+02 -0.10253255078E+02 -0.16698945006E+01  0.24206235657E+02  0.51100000000E-03 0. -1.
        -11    1    3    3    0    0 -0.10731518046E+02 -0.48506282160E+01  0.99712276916E+01  0.15431119713E+02  0.51100000000E-03 0.  1.
         12    1    3    3    0    0 -0.51954818493E+01 -0.55519804149E+01 -0.29331898566E+01  0.81499153928E+01  0.00000000000E+00 0. -1.
</event>
<event>
 7    1  0.2950722E-010  0.4778727E+02  0.7816164E-02  0.1312668E+00
        -11   -1    0    0    0    0  0.00000000000E+00  0.00000000000E+00  0.45593999997E+02  0.45594000000E+02  0.51100000000E-03 0.  1.
         11   -1    0    0    0    0 -0.00000000000E+00 -0.00000000000E+00 -0.45593999997E+02  0.45594000000E+02  0.51100000000E-03 0. -1.
    9900012    2    1    2    0    0  0.15264289802E+02 -0.39662077515E+02  0.88059131384E+01  0.47787273714E+02  0.20000012172E+02 0.  0.
        -12    1    1    2    0    0 -0.15264289802E+02  0.39662077515E+02 -0.88059131384E+01  0.43400726286E+02  0.00000000000E+00 0.  1.
         11    1    3    3    0    0  0.67288743739E+01 -0.47441725807E+01  0.46179167293E+01  0.94398135043E+01  0.51100000000E-03 0. -1.
        -11    1    3    3    0    0 -0.26637337101E+01 -0.13024282821E+02 -0.54232872772E+00  0.13304944231E+02  0.51100000000E-03 0.  1.
        -12    1    3    3    0    0  0.11199149138E+02 -0.21893622113E+02  0.47303251368E+01  0.25042515979E+02  0.00000000000E+00 0.  1.
</event>
<event>
 7    1  0.2950722E-010  0.4778725E+02  0.7816164E-02  0.1312668E+00
        -11   -1    0    0    0    0  0.00000000000E+00  0.00000000000E+00  0.45593999997E+02  0.45594000000E+02  0.51100000000E-03 0.  1.
         11   -1    0    0    0    0 -0.00000000000E+00 -0.00000000000E+00 -0.45593999997E+02  0.45594000000E+02  0.51100000000E-03 0. -1.
    9900012    2    1    2    0    0 -0.99569661542E+01 -0.17773457906E+02 -0.38322160441E+02  0.47787251599E+02  0.19999911338E+02 0.  0.
        -12    1    1    2    0    0  0.99569661542E+01  0.17773457906E+02  0.38322160441E+02  0.43400748401E+02  0.00000000000E+00 0.  1.
         11    1    3    3    0    0 -0.85834255267E+01 -0.24790204368E+01 -0.12614901890E+02  0.15458217428E+02  0.51100000000E-03 0. -1.
        -11    1    3    3    0    0  0.30014816498E+01 -0.14761325941E+02 -0.18216044827E+02  0.23637468667E+02  0.51100000000E-03 0.  1.
        -12    1    3    3    0    0 -0.43750222772E+01 -0.53311152880E+00 -0.74912137243E+01  0.86915655029E+01  0.00000000000E+00 0.  1.
</event>
<event>
 7    1  0.2950722E-010  0.4778727E+02  0.7816164E-02  0.1312668E+00
        -11   -1    0    0    0    0  0.00000000000E+00  0.00000000000E+00  0.45593999997E+02  0.45594000000E+02  0.51100000000E-03 0. -1.
         11   -1    0    0    0    0 -0.00000000000E+00 -0.00000000000E+00 -0.45593999997E+02  0.45594000000E+02  0.51100000000E-03 0.  1.
    9900012    2    1    2    0    0 -0.30998133247E+02  0.23973819035E+02  0.18654629068E+02  0.47787269020E+02  0.19999990769E+02 0.  0.
        -12    1    1    2    0    0  0.30998133247E+02 -0.23973819035E+02 -0.18654629068E+02  0.43400730980E+02  0.00000000000E+00 0.  1.
         11    1    3    3    0    0  0.17238119194E+01  0.27499009409E+01  0.46612291639E+00  0.32788341759E+01  0.51100000000E-03 0. -1.
        -11    1    3    3    0    0 -0.18266281335E+02  0.56847463172E+01  0.11180233011E+02  0.22157865081E+02  0.51100000000E-03 0.  1.
        -12    1    3    3    0    0 -0.14455663831E+02  0.15539171777E+02  0.70082731411E+01  0.22350569763E+02  0.00000000000E+00 0.  1.
</event>
<event>
 7    1  0.2950722E-010  0.4778727E+02  0.7816164E-02  0.1312668E+00
        -11   -1    0    0    0    0  0.00000000000E+00  0.00000000000E+00  0.45593999997E+02  0.45594000000E+02  0.51100000000E-03 0.  1.
         11   -1    0    0    0    0 -0.00000000000E+00 -0.00000000000E+00 -0.45593999997E+02  0.45594000000E+02  0.51100000000E-03 0. -1.
    9900012    2    1    2    0    0 -0.17933638896E+02 -0.24417594027E+02 -0.31077150444E+02  0.47787267496E+02  0.19999983822E+02 0.  0.
        -12    1    1    2    0    0  0.17933638896E+02  0.24417594027E+02  0.31077150444E+02  0.43400732504E+02  0.00000000000E+00 0.  1.
         11    1    3    3    0    0 -0.50083845577E+01 -0.10003470928E+02 -0.24572299874E+02  0.26999097538E+02  0.51100000000E-03 0. -1.
        -11    1    3    3    0    0 -0.97535357461E+01 -0.12868963827E+02 -0.46578579206E+01  0.16805871897E+02  0.51100000000E-03 0.  1.
         12    1    3    3    0    0 -0.31717185925E+01 -0.15451592720E+01 -0.18469926492E+01  0.39822980617E+01  0.00000000000E+00 0. -1.
</event>
<event>
 7    1  0.2950722E-010  0.4778727E+02  0.7816164E-02  0.1312668E+00
        -11   -1    0    0    0    0  0.00000000000E+00  0.00000000000E+00  0.45593999997E+02  0.45594000000E+02  0.51100000000E-03 0.  1.
         11   -1    0    0    0    0 -0.00000000000E+00 -0.00000000000E+00 -0.45593999997E+02  0.45594000000E+02  0.51100000000E-03 0. -1.
    9900012    2    1    2    0    0  0.26691625798E+01  0.39425853835E+02 -0.17947174882E+02  0.47787268834E+02  0.19999989921E+02 0.  0.
        -12    1    1    2    0    0 -0.26691625798E+01 -0.39425853835E+02  0.17947174882E+02  0.43400731166E+02  0.00000000000E+00 0.  1.
         11    1    3    3    0    0 -0.58817597580E+01  0.83010089232E+01 -0.73025775340E+01  0.12523157984E+02  0.51100000000E-03 0. -1.
        -11    1    3    3    0    0  0.88531705957E+01  0.15647069946E+02 -0.39999888364E+01  0.18417636614E+02  0.51100000000E-03 0.  1.
        -12    1    3    3    0    0 -0.30224825798E+00  0.15477774966E+02 -0.66446085115E+01  0.16846474236E+02  0.00000000000E+00 0.  1.
</event>
<event>
 7    1  0.2950722E-010  0.4778727E+02  0.7816164E-02  0.1312668E+00
        -11   -1    0    0    0    0  0.00000000000E+00  0.00000000000E+00  0.45593999997E+02  0.45594000000E+02  0.51100000000E-03 0.  1.
         11   -1    0    0    0    0 -0.00000000000E+00 -0.00000000000E+00 -0.45593999997E+02  0.45594000000E+02  0.51100000000E-03 0. -1.
    9900012    2    1    2    0    0 -0.28826542326E+02 -0.27062415122E+02 -0.17896350374E+02  0.47787271764E+02  0.20000003281E+02 0.  0.
        -12    1    1    2    0    0  0.28826542326E+02  0.27062415122E+02  0.17896350374E+02  0.43400728236E+02  0.00000000000E+00 0.  1.
         11    1    3    3    0    0 -0.11357696772E+02 -0.17442080149E+02 -0.12376543307E+02  0.24215744060E+02  0.51100000000E-03 0. -1.
        -11    1    3    3    0    0 -0.86805976286E+01 -0.47103389363E+01  0.30653650586E+01  0.10341012102E+02  0.51100000000E-03 0.  1.
        -12    1    3    3    0    0 -0.87882479259E+01 -0.49099960367E+01 -0.85851721252E+01  0.13230515602E+02  0.00000000000E+00 0.  1.
</event>
<event>
 7    1  0.2950722E-010  0.4778727E+02  0.7816164E-02  0.1312668E+00
        -11   -1    0    0    0    0  0.00000000000E+00  0.00000000000E+00  0.45593999997E+02  0.45594000000E+02  0.51100000000E-03 0.  1.
         11   -1    0    0    0    0 -0.00000000000E+00 -0.00000000000E+00 -0.45593999997E+02  0.45594000000E+02  0.51100000000E-03 0. -1.
    9900012    2    1    2    0    0  0.23953826111E+02  0.26248033988E+02 -0.24917426532E+02  0.47787271681E+02  0.20000002904E+02 0.  0.
        -12    1    1    2    0    0 -0.23953826111E+02 -0.26248033988E+02  0.24917426532E+02  0.43400728319E+02  0.00000000000E+00 0.  1.
         11    1    3    3    0    0  0.53795473146E+01 -0.14603034040E+01 -0.27113857321E+01  0.61986795522E+01  0.51100000000E-03 0. -1.
        -11    1    3    3    0    0  0.53457461572E-01 -0.99690776442E+00 -0.52806845817E+00  0.11293977814E+01  0.51100000000E-03 0.  1.
         12    1    3    3    0    0  0.18520821335E+02  0.28705245157E+02 -0.21677972342E+02  0.40459194348E+02  0.00000000000E+00 0. -1.
</event>
<event>
 7    1  0.2950722E-010  0.4778727E+02  0.7816164E-02  0.1312668E+00
        -11   -1    0    0    0    0  0.00000000000E+00  0.00000000000E+00  0.45593999997E+02  0.45594000000E+02  0.51100000000E-03 0.  1.
         11   -1    0    0    0    0 -0.00000000000E+00 -0.00000000000E+00 -0.45593999997E+02  0.45594000000E+02  0.51100000000E-03 0. -1.
    9900012    2    1    2    0    0  0.15669777344E+02  0.37214275050E+02 -0.15911613910E+02  0.47787266749E+02  0.19999980415E+02 0.  0.
        -12    1    1    2    0    0 -0.15669777344E+02 -0.37214275050E+02  0.15911613910E+02  0.43400733251E+02  0.00000000000E+00 0.  1.
         11    1    3    3    0    0  0.91626072633E+01  0.59010834529E+01 -0.94122258772E+01  0.14400213679E+02  0.51100000000E-03 0. -1.
        -11    1    3    3    0    0  0.79097842478E+01  0.28784457632E+02 -0.57558335888E+01  0.30401304390E+02  0.51100000000E-03 0.  1.
        -12    1    3    3    0    0 -0.14026141675E+01  0.25287339650E+01 -0.74355444420E+00  0.29857486800E+01  0.00000000000E+00 0.  1.
</event>
<event>
 7    1  0.2950722E-010  0.4778728E+02  0.7816164E-02  0.1312668E+00
        -11   -1    0    0    0    0  0.00000000000E+00  0.00000000000E+00  0.45593999997E+02  0.45594000000E+02  0.51100000000E-03 0.  1.
         11   -1    0    0    0    0 -0.00000000000E+00 -0.00000000000E+00 -0.45593999997E+02  0.45594000000E+02  0.51100000000E-03 0. -1.
    9900012    2    1    2    0    0  0.41145588786E+02  0.10995477732E+02  0.83523997864E+01  0.47787278931E+02  0.20000035959E+02 0.  0.
        -12    1    1    2    0    0 -0.41145588786E+02 -0.10995477732E+02 -0.83523997864E+01  0.43400721069E+02  0.00000000000E+00 0.  1.
         11    1    3    3    0    0  0.41991106725E+02  0.12369440770E+02  0.71941372388E+01  0.44362278118E+02  0.51100000000E-03 0. -1.
        -11    1    3    3    0    0  0.83343581713E+00 -0.30367393560E+00 -0.32230281830E+00  0.94377565568E+00  0.51100000000E-03 0.  1.
         12    1    3    3    0    0 -0.16789537564E+01 -0.10702891024E+01  0.14805653659E+01  0.24812251573E+01  0.00000000000E+00 0. -1.
</event>
<event>
 7    1  0.2950722E-010  0.4778727E+02  0.7816164E-02  0.1312668E+00
        -11   -1    0    0    0    0  0.00000000000E+00  0.00000000000E+00  0.45593999997E+02  0.45594000000E+02  0.51100000000E-03 0.  1.
         11   -1    0    0    0    0 -0.00000000000E+00 -0.00000000000E+00 -0.45593999997E+02  0.45594000000E+02  0.51100000000E-03 0. -1.
    9900012    2    1    2    0    0  0.80233094906E+01  0.15245662118E+02 -0.39834903709E+02  0.47787271180E+02  0.20000000620E+02 0.  0.
        -12    1    1    2    0    0 -0.80233094906E+01 -0.15245662118E+02  0.39834903709E+02  0.43400728820E+02  0.00000000000E+00 0.  1.
         11    1    3    3    0    0  0.25355398476E+01  0.90285324437E+01 -0.30103532671E+02  0.31530398664E+02  0.51100000000E-03 0. -1.
        -11    1    3    3    0    0  0.11109050792E+01 -0.19623905406E+01  0.63785028224E+00  0.23434888462E+01  0.51100000000E-03 0.  1.
         12    1    3    3    0    0  0.43768645638E+01  0.81795202153E+01 -0.10369221320E+02  0.13913383670E+02  0.00000000000E+00 0. -1.
</event>
<event>
 7    1  0.2950722E-010  0.4778727E+02  0.7816164E-02  0.1312668E+00
        -11   -1    0    0    0    0  0.00000000000E+00  0.00000000000E+00  0.45593999997E+02  0.45594000000E+02  0.51100000000E-03 0.  1.
         11   -1    0    0    0    0 -0.00000000000E+00 -0.00000000000E+00 -0.45593999997E+02  0.45594000000E+02  0.51100000000E-03 0. -1.
    9900012    2    1    2    0    0  0.19851230325E+02 -0.31788700361E+02 -0.21886769491E+02  0.47787268499E+02  0.19999988396E+02 0.  0.
        -12    1    1    2    0    0 -0.19851230325E+02  0.31788700361E+02  0.21886769491E+02  0.43400731501E+02  0.00000000000E+00 0.  1.
         11    1    3    3    0    0  0.81019621481E+01 -0.21597263230E+02 -0.15778752059E+02  0.27947318055E+02  0.51100000000E-03 0. -1.
        -11    1    3    3    0    0  0.29301049158E+01  0.22015780502E+01 -0.11221689486E+01  0.38329784945E+01  0.51100000000E-03 0.  1.
        -12    1    3    3    0    0  0.88191632612E+01 -0.12393015180E+02 -0.49858484837E+01  0.16006971950E+02  0.00000000000E+00 0.  1.
</event>
<event>
 7    1  0.2950722E-010  0.4778726E+02  0.7816164E-02  0.1312668E+00
        -11   -1    0    0    0    0  0.00000000000E+00  0.00000000000E+00  0.45593999997E+02  0.45594000000E+02  0.51100000000E-03 0.  1.
         11   -1    0    0    0    0 -0.00000000000E+00 -0.00000000000E+00 -0.45593999997E+02  0.45594000000E+02  0.51100000000E-03 0. -1.
    9900012    2    1    2    0    0 -0.34404192008E+01  0.23815049947E+01 -0.43198562335E+02  0.47787264544E+02  0.19999970363E+02 0.  0.
        -12    1    1    2    0    0  0.34404192008E+01 -0.23815049947E+01  0.43198562335E+02  0.43400735456E+02  0.00000000000E+00 0.  1.
         11    1    3    3    0    0 -0.54752653230E+01  0.90486948038E+01 -0.32456852347E+02  0.34136559178E+02  0.51100000000E-03 0. -1.
        -11    1    3    3    0    0  0.28130023831E+01 -0.25594277392E+01 -0.29684669611E+01  0.48244636095E+01  0.51100000000E-03 0.  1.
         12    1    3    3    0    0 -0.77815626093E+00 -0.41077620699E+01 -0.77732430269E+01  0.88262417565E+01  0.00000000000E+00 0. -1.
</event>
<event>
 7    1  0.2950722E-010  0.4778727E+02  0.7816164E-02  0.1312668E+00
        -11   -1    0    0    0    0  0.00000000000E+00  0.00000000000E+00  0.45593999997E+02  0.45594000000E+02  0.51100000000E-03 0.  1.
         11   -1    0    0    0    0 -0.00000000000E+00 -0.00000000000E+00 -0.45593999997E+02  0.45594000000E+02  0.51100000000E-03 0. -1.
    9900012    2    1    2    0    0  0.20647107612E+02 -0.37831212489E+02  0.51107314010E+01  0.47787271128E+02  0.20000000382E+02 0.  0.
        -12    1    1    2    0    0 -0.20647107612E+02  0.37831212489E+02 -0.51107314010E+01  0.43400728872E+02  0.00000000000E+00 0.  1.
         11    1    3    3    0    0  0.52957603427E+01 -0.32821316697E+01 -0.14169231625E+01  0.63894551735E+01  0.51100000000E-03 0. -1.
        -11    1    3    3    0    0  0.15516930265E+02 -0.23445151302E+02 -0.74213711964E+00  0.28124740216E+02  0.51100000000E-03 0.  1.
        -12    1    3    3    0    0 -0.16558299586E+00 -0.11103929517E+02  0.72697916832E+01  0.13273075739E+02  0.00000000000E+00 0.  1.
</event>
<event>
 7    1  0.2950722E-010  0.4778727E+02  0.7816164E-02  0.1312668E+00
        -11   -1    0    0    0    0  0.00000000000E+00  0.00000000000E+00  0.45593999997E+02  0.45594000000E+02  0.51100000000E-03 0.  1.
         11   -1    0    0    0    0 -0.00000000000E+00 -0.00000000000E+00 -0.45593999997E+02  0.45594000000E+02  0.51100000000E-03 0. -1.
    9900012    2    1    2    0    0 -0.42840814480E+02  0.67264414210E+01 -0.17444201044E+01  0.47787269580E+02  0.19999993323E+02 0.  0.
        -12    1    1    2    0    0  0.42840814480E+02 -0.67264414210E+01  0.17444201044E+01  0.43400730420E+02  0.00000000000E+00 0.  1.
         11    1    3    3    0    0 -0.20052664751E+02 -0.32016793682E+01 -0.10661850389E+01  0.20334622327E+02  0.51100000000E-03 0.  1.
        -11    1    3    3    0    0 -0.14503304658E+02  0.10553423771E+02  0.33053813173E+01  0.18238589452E+02  0.51100000000E-03 0. -1.
         12    1    3    3    0    0 -0.82848450711E+01 -0.62530298159E+00 -0.39836163829E+01  0.92140578008E+01  0.00000000000E+00 0. -1.
</event>
<event>
 7    1  0.2950722E-010  0.4778730E+02  0.7816164E-02  0.1312668E+00
        -11   -1    0    0    0    0  0.00000000000E+00  0.00000000000E+00  0.45593999997E+02  0.45594000000E+02  0.51100000000E-03 0. -1.
         11   -1    0    0    0    0 -0.00000000000E+00 -0.00000000000E+00 -0.45593999997E+02  0.45594000000E+02  0.51100000000E-03 0.  1.
    9900012    2    1    2    0    0 -0.14031409559E+02  0.27913383184E+02 -0.30126124569E+02  0.47787299585E+02  0.20000130129E+02 0.  0.
        -12    1    1    2    0    0  0.14031409559E+02 -0.27913383184E+02  0.30126124569E+02  0.43400700415E+02  0.00000000000E+00 0.  1.
         11    1    3    3    0    0  0.15851348620E+01  0.70559432555E+01 -0.11041517750E+02  0.13199018988E+02  0.51100000000E-03 0. -1.
        -11    1    3    3    0    0 -0.15593952845E+02  0.11371361499E+02 -0.13836928310E+02  0.23747416975E+02  0.51100000000E-03 0.  1.
         12    1    3    3    0    0 -0.22591575780E-01  0.94860784296E+01 -0.52476785083E+01  0.10840863622E+02  0.00000000000E+00 0. -1.
</event>
<event>
 7    1  0.2950722E-010  0.4778727E+02  0.7816164E-02  0.1312668E+00
        -11   -1    0    0    0    0  0.00000000000E+00  0.00000000000E+00  0.45593999997E+02  0.45594000000E+02  0.51100000000E-03 0. -1.
         11   -1    0    0    0    0 -0.00000000000E+00 -0.00000000000E+00 -0.45593999997E+02  0.45594000000E+02  0.51100000000E-03 0.  1.
    9900012    2    1    2    0    0 -0.14414234389E+01  0.20965189780E+01  0.43326093323E+02  0.47787268946E+02  0.19999990434E+02 0.  0.
        -12    1    1    2    0    0  0.14414234389E+01 -0.20965189780E+01 -0.43326093323E+02  0.43400731054E+02  0.00000000000E+00 0.  1.
         11    1    3    3    0    0 -0.70323453602E+01  0.22516079802E+01  0.36870841188E+02  0.37602959324E+02  0.51100000000E-03 0. -1.
        -11    1    3    3    0    0  0.45536109303E+01 -0.25260074603E+01  0.49806882621E+01  0.72057853159E+01  0.51100000000E-03 0.  1.
         12    1    3    3    0    0  0.10373109910E+01  0.23709184582E+01  0.14745638729E+01  0.29785243062E+01  0.00000000000E+00 0. -1.
</event>
<event>
 7    1  0.2950722E-010  0.4778727E+02  0.7816164E-02  0.1312668E+00
        -11   -1    0    0    0    0  0.00000000000E+00  0.00000000000E+00  0.45593999997E+02  0.45594000000E+02  0.51100000000E-03 0.  1.
         11   -1    0    0    0    0 -0.00000000000E+00 -0.00000000000E+00 -0.45593999997E+02  0.45594000000E+02  0.51100000000E-03 0. -1.
    9900012    2    1    2    0    0 -0.27983751364E+02  0.28818900945E+02 -0.16431793700E+02  0.47787271478E+02  0.20000001976E+02 0.  0.
        -12    1    1    2    0    0  0.27983751364E+02 -0.28818900945E+02  0.16431793700E+02  0.43400728522E+02  0.00000000000E+00 0.  1.
         11    1    3    3    0    0 -0.24201496418E+02  0.24038748249E+02 -0.12888852154E+02  0.36465001801E+02  0.51100000000E-03 0. -1.
        -11    1    3    3    0    0  0.28478815001E+01  0.22166218148E+01 -0.75723675064E+00  0.36874447882E+01  0.51100000000E-03 0.  1.
         12    1    3    3    0    0 -0.66301364459E+01  0.25635308811E+01 -0.27857047954E+01  0.76348248884E+01  0.00000000000E+00 0. -1.
</event>
<event>
 7    1  0.2950722E-010  0.4778727E+02  0.7816164E-02  0.1312668E+00
        -11   -1    0    0    0    0  0.00000000000E+00  0.00000000000E+00  0.45593999997E+02  0.45594000000E+02  0.51100000000E-03 0.  1.
         11   -1    0    0    0    0 -0.00000000000E+00 -0.00000000000E+00 -0.45593999997E+02  0.45594000000E+02  0.51100000000E-03 0. -1.
    9900012    2    1    2    0    0  0.10696122386E+02  0.37817345865E+02 -0.18413714761E+02  0.47787267591E+02  0.19999984254E+02 0.  0.
        -12    1    1    2    0    0 -0.10696122386E+02 -0.37817345865E+02  0.18413714761E+02  0.43400732409E+02  0.00000000000E+00 0.  1.
         11    1    3    3    0    0  0.76295222734E+01  0.26633066359E+02 -0.13365478801E+02  0.30759809128E+02  0.51100000000E-03 0. -1.
        -11    1    3    3    0    0  0.40140323490E+00  0.30668892471E+01  0.36843376019E+01  0.48105382273E+01  0.51100000000E-03 0.  1.
        -12    1    3    3    0    0  0.26651968777E+01  0.81173902590E+01 -0.87325735623E+01  0.12216920235E+02  0.00000000000E+00 0.  1.
</event>
<event>
 7    1  0.2950722E-010  0.4778727E+02  0.7816164E-02  0.1312668E+00
        -11   -1    0    0    0    0  0.00000000000E+00  0.00000000000E+00  0.45593999997E+02  0.45594000000E+02  0.51100000000E-03 0. -1.
         11   -1    0    0    0    0 -0.00000000000E+00 -0.00000000000E+00 -0.45593999997E+02  0.45594000000E+02  0.51100000000E-03 0.  1.
    9900012    2    1    2    0    0 -0.25358577965E+02  0.25919178618E+02 -0.23848727538E+02  0.47787273027E+02  0.20000009038E+02 0.  0.
        -12    1    1    2    0    0  0.25358577965E+02 -0.25919178618E+02  0.23848727538E+02  0.43400726973E+02  0.00000000000E+00 0.  1.
         11    1    3    3    0    0 -0.17031438831E+02  0.22840734543E+02 -0.17859441216E+02  0.33626309699E+02  0.51100000000E-03 0. -1.
        -11    1    3    3    0    0 -0.90827580662E+01  0.50754020264E+01 -0.37315797029E+01  0.11053546361E+02  0.51100000000E-03 0.  1.
         12    1    3    3    0    0  0.75561893298E+00 -0.19969579509E+01 -0.22577066188E+01  0.31074169669E+01  0.00000000000E+00 0. -1.
</event>
<event>
 7    1  0.2950722E-010  0.4778728E+02  0.7816164E-02  0.1312668E+00
        -11   -1    0    0    0    0  0.00000000000E+00  0.00000000000E+00  0.45593999997E+02  0.45594000000E+02  0.51100000000E-03 0.  1.
         11   -1    0    0    0    0 -0.00000000000E+00 -0.00000000000E+00 -0.45593999997E+02  0.45594000000E+02  0.51100000000E-03 0. -1.
    9900012    2    1    2    0    0  0.87075348725E+01 -0.26685822432E+02 -0.33100883519E+02  0.47787276824E+02  0.20000026353E+02 0.  0.
        -12    1    1    2    0    0 -0.87075348725E+01  0.26685822432E+02  0.33100883519E+02  0.43400723176E+02  0.00000000000E+00 0.  1.
         11    1    3    3    0    0  0.74090725933E+01 -0.17986199139E+02 -0.10087724994E+02  0.21912551471E+02  0.51100000000E-03 0. -1.
        -11    1    3    3    0    0  0.23169400869E+01  0.47188564883E+00 -0.70539642618E+01  0.74397109823E+01  0.51100000000E-03 0.  1.
         12    1    3    3    0    0 -0.10184778077E+01 -0.91715089419E+01 -0.15959194263E+02  0.18435014371E+02  0.00000000000E+00 0. -1.
</event>
<event>
 7    1  0.2950722E-010  0.4778728E+02  0.7816164E-02  0.1312668E+00
        -11   -1    0    0    0    0  0.00000000000E+00  0.00000000000E+00  0.45593999997E+02  0.45594000000E+02  0.51100000000E-03 0. -1.
         11   -1    0    0    0    0 -0.00000000000E+00 -0.00000000000E+00 -0.45593999997E+02  0.45594000000E+02  0.51100000000E-03 0.  1.
    9900012    2    1    2    0    0  0.20426199442E+02  0.25107543600E+02  0.28913739603E+02  0.47787277574E+02  0.20000029772E+02 0.  0.
        -12    1    1    2    0    0 -0.20426199442E+02 -0.25107543600E+02 -0.28913739603E+02  0.43400722426E+02  0.00000000000E+00 0.  1.
         11    1    3    3    0    0  0.87974373940E+01  0.17670468585E+02  0.10595427409E+02  0.22403201712E+02  0.51100000000E-03 0. -1.
        -11    1    3    3    0    0  0.18049749695E+01  0.41041901508E+01  0.12948769902E+02  0.13703027171E+02  0.51100000000E-03 0.  1.
        -12    1    3    3    0    0  0.98237870788E+01  0.33328848641E+01  0.53695422924E+01  0.11681048691E+02  0.00000000000E+00 0.  1.
</event>
<event>
 7    1  0.2950722E-010  0.4778727E+02  0.7816164E-02  0.1312668E+00
        -11   -1    0    0    0    0  0.00000000000E+00  0.00000000000E+00  0.45593999997E+02  0.45594000000E+02  0.51100000000E-03 0.  1.
         11   -1    0    0    0    0 -0.00000000000E+00 -0.00000000000E+00 -0.45593999997E+02  0.45594000000E+02  0.51100000000E-03 0. -1.
    9900012    2    1    2    0    0 -0.11688706867E+02  0.20582561749E+02 -0.36377955241E+02  0.47787270238E+02  0.19999996322E+02 0.  0.
        -12    1    1    2    0    0  0.11688706867E+02 -0.20582561749E+02  0.36377955241E+02  0.43400729762E+02  0.00000000000E+00 0.  1.
         11    1    3    3    0    0 -0.97867166640E+01  0.20258706997E+02 -0.21507333830E+02  0.31124916722E+02  0.51100000000E-03 0. -1.
        -11    1    3    3    0    0 -0.28084057153E+01  0.22837300896E+01 -0.13771729370E+02  0.14239490717E+02  0.51100000000E-03 0.  1.
         12    1    3    3    0    0  0.90641551199E+00 -0.19598753379E+01 -0.10988920416E+01  0.24228627983E+01  0.00000000000E+00 0. -1.
</event>
<event>
 7    1  0.2950722E-010  0.4778727E+02  0.7816164E-02  0.1312668E+00
        -11   -1    0    0    0    0  0.00000000000E+00  0.00000000000E+00  0.45593999997E+02  0.45594000000E+02  0.51100000000E-03 0.  1.
         11   -1    0    0    0    0 -0.00000000000E+00 -0.00000000000E+00 -0.45593999997E+02  0.45594000000E+02  0.51100000000E-03 0. -1.
    9900012    2    1    2    0    0 -0.33379545960E+02 -0.27439924330E+02  0.40594940391E+01  0.47787273882E+02  0.20000012936E+02 0.  0.
        -12    1    1    2    0    0  0.33379545960E+02  0.27439924330E+02 -0.40594940391E+01  0.43400726118E+02  0.00000000000E+00 0.  1.
         11    1    3    3    0    0 -0.13827088777E+02 -0.19527452912E+01 -0.24351103917E+01  0.14175025965E+02  0.51100000000E-03 0. -1.
        -11    1    3    3    0    0 -0.59905396841E+01 -0.12603802227E+02  0.47999805440E+00  0.13963265903E+02  0.51100000000E-03 0.  1.
         12    1    3    3    0    0 -0.13561917499E+02 -0.12883376813E+02  0.60146063764E+01  0.19648982014E+02  0.00000000000E+00 0. -1.
</event>
<event>
 7    1  0.2950722E-010  0.4778727E+02  0.7816164E-02  0.1312668E+00
        -11   -1    0    0    0    0  0.00000000000E+00  0.00000000000E+00  0.45593999997E+02  0.45594000000E+02  0.51100000000E-03 0. -1.
         11   -1    0    0    0    0 -0.00000000000E+00 -0.00000000000E+00 -0.45593999997E+02  0.45594000000E+02  0.51100000000E-03 0.  1.
    9900012    2    1    2    0    0  0.23093623567E+01 -0.23650959907E+01  0.43274667123E+02  0.47787266732E+02  0.19999980340E+02 0.  0.
        -12    1    1    2    0    0 -0.23093623567E+01  0.23650959907E+01 -0.43274667123E+02  0.43400733268E+02  0.00000000000E+00 0.  1.
         11    1    3    3    0    0  0.31116060605E+01  0.70795214633E+01  0.23830359680E+02  0.25053697515E+02  0.51100000000E-03 0. -1.
        -11    1    3    3    0    0  0.12805522029E+01 -0.29333602667E+01  0.15070458806E+01  0.35377399489E+01  0.51100000000E-03 0.  1.
         12    1    3    3    0    0 -0.20827959066E+01 -0.65112571873E+01  0.17937261562E+02  0.19195829268E+02  0.00000000000E+00 0. -1.
</event>
<event>
 7    1  0.2950722E-010  0.4778729E+02  0.7816164E-02  0.1312668E+00
        -11   -1    0    0    0    0  0.00000000000E+00  0.00000000000E+00  0.45593999997E+02  0.45594000000E+02  0.51100000000E-03 0. -1.
         11   -1    0    0    0    0 -0.00000000000E+00 -0.00000000000E+00 -0.45593999997E+02  0.45594000000E+02  0.51100000000E-03 0.  1.
    9900012    2    1    2    0    0  0.21002472590E+02 -0.15190555415E+02  0.34810408354E+02  0.47787293111E+02  0.20000100608E+02 0.  0.
        -12    1    1    2    0    0 -0.21002472590E+02  0.15190555415E+02 -0.34810408354E+02  0.43400706889E+02  0.00000000000E+00 0.  1.
         11    1    3    3    0    0  0.17995436581E+02 -0.11150323159E+02  0.14742606002E+02  0.25797478099E+02  0.51100000000E-03 0. -1.
        -11    1    3    3    0    0  0.27412014797E+00  0.21707044438E+01  0.43270942498E+01  0.48487982579E+01  0.51100000000E-03 0.  1.
         12    1    3    3    0    0  0.27329158617E+01 -0.62109366999E+01  0.15740708102E+02  0.17141016754E+02  0.00000000000E+00 0. -1.
</event>
<event>
 7    1  0.2950722E-010  0.4778727E+02  0.7816164E-02  0.1312668E+00
        -11   -1    0    0    0    0  0.00000000000E+00  0.00000000000E+00  0.45593999997E+02  0.45594000000E+02  0.51100000000E-03 0.  1.
         11   -1    0    0    0    0 -0.00000000000E+00 -0.00000000000E+00 -0.45593999997E+02  0.45594000000E+02  0.51100000000E-03 0. -1.
    9900012    2    1    2    0    0  0.20344809830E+00 -0.41818151993E+02  0.11611372351E+02  0.47787271952E+02  0.20000004136E+02 0.  0.
        -12    1    1    2    0    0 -0.20344809830E+00  0.41818151993E+02 -0.11611372351E+02  0.43400728048E+02  0.00000000000E+00 0.  1.
         11    1    3    3    0    0 -0.34051811874E+01 -0.20128304065E+02  0.15021149379E+02  0.25345193083E+02  0.51100000000E-03 0. -1.
        -11    1    3    3    0    0  0.28239049728E+00 -0.33096757911E+00  0.27392815852E+00  0.51412141419E+00  0.51100000000E-03 0.  1.
         12    1    3    3    0    0  0.33262387884E+01 -0.21358880349E+02 -0.36837051871E+01  0.21927957455E+02  0.00000000000E+00 0. -1.
</event>
<event>
 7    1  0.2950722E-010  0.4778727E+02  0.7816164E-02  0.1312668E+00
        -11   -1    0    0    0    0  0.00000000000E+00  0.00000000000E+00  0.45593999997E+02  0.45594000000E+02  0.51100000000E-03 0. -1.
         11   -1    0    0    0    0 -0.00000000000E+00 -0.00000000000E+00 -0.45593999997E+02  0.45594000000E+02  0.51100000000E-03 0.  1.
    9900012    2    1    2    0    0 -0.13137077069E+02  0.38598371648E+02  0.14872999732E+02  0.47787271794E+02  0.20000003418E+02 0.  0.
        -12    1    1    2    0    0  0.13137077069E+02 -0.38598371648E+02 -0.14872999732E+02  0.43400728206E+02  0.00000000000E+00 0.  1.
         11    1    3    3    0    0 -0.49084497456E+01  0.11661013831E+02  0.50363234566E+01  0.13617513602E+02  0.51100000000E-03 0. -1.
        -11    1    3    3    0    0 -0.96383502618E+01  0.26359788861E+02  0.42592121105E+01  0.28387975493E+02  0.51100000000E-03 0.  1.
        -12    1    3    3    0    0  0.14097229387E+01  0.57756895623E+00  0.55774641654E+01  0.57817826991E+01  0.00000000000E+00 0.  1.
</event>
<event>
 7    1  0.2950722E-010  0.4778724E+02  0.7816164E-02  0.1312668E+00
        -11   -1    0    0    0    0  0.00000000000E+00  0.00000000000E+00  0.45593999997E+02  0.45594000000E+02  0.51100000000E-03 0.  1.
         11   -1    0    0    0    0 -0.00000000000E+00 -0.00000000000E+00 -0.45593999997E+02  0.45594000000E+02  0.51100000000E-03 0. -1.
    9900012    2    1    2    0    0  0.30789327246E+00  0.19054765952E+02 -0.38992907661E+02  0.47787242500E+02  0.19999869854E+02 0.  0.
        -12    1    1    2    0    0 -0.30789327246E+00 -0.19054765952E+02  0.38992907661E+02  0.43400757500E+02  0.00000000000E+00 0.  1.
         11    1    3    3    0    0 -0.39422268819E+01  0.96702372475E+01 -0.21999638323E+02  0.24352386491E+02  0.51100000000E-03 0. -1.
        -11    1    3    3    0    0  0.27016103017E+00  0.11143610038E+01  0.20197414975E+01  0.23225295276E+01  0.51100000000E-03 0.  1.
        -12    1    3    3    0    0  0.39799591242E+01  0.82701677009E+01 -0.19013010835E+02  0.21112326481E+02  0.00000000000E+00 0.  1.
</event>
<event>
 7    1  0.2950722E-010  0.4778727E+02  0.7816164E-02  0.1312668E+00
        -11   -1    0    0    0    0  0.00000000000E+00  0.00000000000E+00  0.45593999997E+02  0.45594000000E+02  0.51100000000E-03 0.  1.
         11   -1    0    0    0    0 -0.00000000000E+00 -0.00000000000E+00 -0.45593999997E+02  0.45594000000E+02  0.51100000000E-03 0. -1.
    9900012    2    1    2    0    0  0.48116705521E+01  0.11714350898E+02 -0.41511984965E+02  0.47787273207E+02  0.20000009859E+02 0.  0.
        -12    1    1    2    0    0 -0.48116705521E+01 -0.11714350898E+02  0.41511984965E+02  0.43400726793E+02  0.00000000000E+00 0.  1.
         11    1    3    3    0    0  0.50232970356E+01  0.90497345136E+00 -0.91133362866E+01  0.10445352488E+02  0.51100000000E-03 0. -1.
        -11    1    3    3    0    0  0.12056763555E+00 -0.30805576193E+01 -0.13722143242E+02  0.14064195221E+02  0.51100000000E-03 0.  1.
        -12    1    3    3    0    0 -0.33219411904E+00  0.13889935066E+02 -0.18676505437E+02  0.23277725499E+02  0.00000000000E+00 0.  1.
</event>
<event>
 7    1  0.2950722E-010  0.4778727E+02  0.7816164E-02  0.1312668E+00
        -11   -1    0    0    0    0  0.00000000000E+00  0.00000000000E+00  0.45593999997E+02  0.45594000000E+02  0.51100000000E-03 0.  1.
         11   -1    0    0    0    0 -0.00000000000E+00 -0.00000000000E+00 -0.45593999997E+02  0.45594000000E+02  0.51100000000E-03 0. -1.
    9900012    2    1    2    0    0 -0.32611321729E+02  0.11531013954E+02 -0.26213744037E+02  0.47787274613E+02  0.20000016269E+02 0.  0.
        -12    1    1    2    0    0  0.32611321729E+02 -0.11531013954E+02  0.26213744037E+02  0.43400725387E+02  0.00000000000E+00 0.  1.
         11    1    3    3    0    0 -0.23648783567E+02  0.42837507431E+01 -0.16215824272E+02  0.28992558385E+02  0.51100000000E-03 0. -1.
        -11    1    3    3    0    0  0.14830803154E+01  0.44933638107E+01 -0.12494467799E+01  0.48939721162E+01  0.51100000000E-03 0.  1.
        -12    1    3    3    0    0 -0.10445618478E+02  0.27538994006E+01 -0.87484729853E+01  0.13900744112E+02  0.00000000000E+00 0.  1.
</event>
<event>
 7    1  0.2950722E-010  0.4778727E+02  0.7816164E-02  0.1312668E+00
        -11   -1    0    0    0    0  0.00000000000E+00  0.00000000000E+00  0.45593999997E+02  0.45594000000E+02  0.51100000000E-03 0.  1.
         11   -1    0    0    0    0 -0.00000000000E+00 -0.00000000000E+00 -0.45593999997E+02  0.45594000000E+02  0.51100000000E-03 0. -1.
    9900012    2    1    2    0    0 -0.40570535952E+02  0.10835112534E+02 -0.10966096935E+02  0.47787270362E+02  0.19999996890E+02 0.  0.
        -12    1    1    2    0    0  0.40570535952E+02 -0.10835112534E+02  0.10966096935E+02  0.43400729638E+02  0.00000000000E+00 0.  1.
         11    1    3    3    0    0 -0.26073768810E+02  0.93696696816E+01 -0.80595695681E+01  0.28854614740E+02  0.51100000000E-03 0. -1.
        -11    1    3    3    0    0  0.15059754285E+01  0.22222214176E+01 -0.53934489297E+00  0.27380875068E+01  0.51100000000E-03 0.  1.
        -12    1    3    3    0    0 -0.16002742571E+02 -0.75677856542E+00 -0.23671824742E+01  0.16194568116E+02  0.00000000000E+00 0.  1.
</event>
<event>
 7    1  0.2950722E-010  0.4778727E+02  0.7816164E-02  0.1312668E+00
        -11   -1    0    0    0    0  0.00000000000E+00  0.00000000000E+00  0.45593999997E+02  0.45594000000E+02  0.51100000000E-03 0. -1.
         11   -1    0    0    0    0 -0.00000000000E+00 -0.00000000000E+00 -0.45593999997E+02  0.45594000000E+02  0.51100000000E-03 0.  1.
    9900012    2    1    2    0    0  0.29020779933E+02  0.25463833777E+02 -0.19824510494E+02  0.47787265964E+02  0.19999976837E+02 0.  0.
        -12    1    1    2    0    0 -0.29020779933E+02 -0.25463833777E+02  0.19824510494E+02  0.43400734036E+02  0.00000000000E+00 0.  1.
         11    1    3    3    0    0  0.17009072272E+02  0.63990942334E+01 -0.13862731912E+02  0.22856777614E+02  0.51100000000E-03 0.  1.
        -11    1    3    3    0    0  0.57833392611E+01  0.15709424973E+02 -0.21025581305E+01  0.16871686251E+02  0.51100000000E-03 0. -1.
         12    1    3    3    0    0  0.62283683994E+01  0.33553145706E+01 -0.38592204513E+01  0.80588020995E+01  0.00000000000E+00 0. -1.
</event>
<event>
 7    1  0.2950722E-010  0.4778727E+02  0.7816164E-02  0.1312668E+00
        -11   -1    0    0    0    0  0.00000000000E+00  0.00000000000E+00  0.45593999997E+02  0.45594000000E+02  0.51100000000E-03 0.  1.
         11   -1    0    0    0    0 -0.00000000000E+00 -0.00000000000E+00 -0.45593999997E+02  0.45594000000E+02  0.51100000000E-03 0. -1.
    9900012    2    1    2    0    0  0.33560259717E+02 -0.26061338381E+02 -0.88396146002E+01  0.47787272163E+02  0.20000005100E+02 0.  0.
        -12    1    1    2    0    0 -0.33560259717E+02  0.26061338381E+02  0.88396146002E+01  0.43400727837E+02  0.00000000000E+00 0.  1.
         11    1    3    3    0    0 -0.23419853227E+00 -0.41111257629E+01  0.37212563725E+01  0.55501309212E+01  0.51100000000E-03 0.  1.
        -11    1    3    3    0    0  0.27276625985E+02 -0.17858055340E+02 -0.10772135945E+02  0.34336036153E+02  0.51100000000E-03 0. -1.
        -12    1    3    3    0    0  0.65178322648E+01 -0.40921572784E+01 -0.17887350276E+01  0.79011050886E+01  0.00000000000E+00 0.  1.
</event>
<event>
 7    1  0.2950722E-010  0.4778727E+02  0.7816164E-02  0.1312668E+00
        -11   -1    0    0    0    0  0.00000000000E+00  0.00000000000E+00  0.45593999997E+02  0.45594000000E+02  0.51100000000E-03 0. -1.
         11   -1    0    0    0    0 -0.00000000000E+00 -0.00000000000E+00 -0.45593999997E+02  0.45594000000E+02  0.51100000000E-03 0.  1.
    9900012    2    1    2    0    0  0.24484745888E+02  0.34522737796E+02  0.96073584539E+01  0.47787267949E+02  0.19999985885E+02 0.  0.
        -12    1    1    2    0    0 -0.24484745888E+02 -0.34522737796E+02 -0.96073584539E+01  0.43400732051E+02  0.00000000000E+00 0.  1.
         11    1    3    3    0    0  0.14254499536E+02  0.32424224391E+02  0.81970155869E+01  0.36355359291E+02  0.51100000000E-03 0. -1.
        -11    1    3    3    0    0  0.81075353156E+01  0.30643307347E+01  0.22477268861E+01  0.89540230154E+01  0.51100000000E-03 0.  1.
         12    1    3    3    0    0  0.21227110363E+01 -0.96581732997E+00 -0.83738401900E+00  0.24778856418E+01  0.00000000000E+00 0. -1.
</event>
<event>
 7    1  0.2950722E-010  0.4778727E+02  0.7816164E-02  0.1312668E+00
        -11   -1    0    0    0    0  0.00000000000E+00  0.00000000000E+00  0.45593999997E+02  0.45594000000E+02  0.51100000000E-03 0.  1.
         11   -1    0    0    0    0 -0.00000000000E+00 -0.00000000000E+00 -0.45593999997E+02  0.45594000000E+02  0.51100000000E-03 0. -1.
    9900012    2    1    2    0    0 -0.26792697343E+02  0.93119068837E+01 -0.32849094783E+02  0.47787271103E+02  0.20000000269E+02 0.  0.
        -12    1    1    2    0    0  0.26792697343E+02 -0.93119068837E+01  0.32849094783E+02  0.43400728897E+02  0.00000000000E+00 0.  1.
         11    1    3    3    0    0 -0.22851636382E+02  0.12193826683E+02 -0.20778658152E+02  0.33206013452E+02  0.51100000000E-03 0. -1.
        -11    1    3    3    0    0  0.35654552350E+00 -0.27349364604E+01 -0.14342624658E+01  0.31087153673E+01  0.51100000000E-03 0.  1.
         12    1    3    3    0    0 -0.42976064846E+01 -0.14698333883E+00 -0.10636174165E+02  0.11472542285E+02  0.00000000000E+00 0. -1.
</event>
<event>
 7    1  0.2950722E-010  0.4778727E+02  0.7816164E-02  0.1312668E+00
        -11   -1    0    0    0    0  0.00000000000E+00  0.00000000000E+00  0.45593999997E+02  0.45594000000E+02  0.51100000000E-03 0.  1.
         11   -1    0    0    0    0 -0.00000000000E+00 -0.00000000000E+00 -0.45593999997E+02  0.45594000000E+02  0.51100000000E-03 0. -1.
    9900012    2    1    2    0    0  0.55786251148E+01  0.27777078968E+02 -0.32877592499E+02  0.47787271173E+02  0.20000000586E+02 0.  0.
        -12    1    1    2    0    0 -0.55786251148E+01 -0.27777078968E+02  0.32877592499E+02  0.43400728827E+02  0.00000000000E+00 0.  1.
         11    1    3    3    0    0  0.42283534791E+00  0.16405288106E+02 -0.80498789323E+01  0.18278753203E+02  0.51100000000E-03 0. -1.
        -11    1    3    3    0    0  0.31964892272E+01  0.10812224650E+02 -0.11793122915E+02  0.16315621154E+02  0.51100000000E-03 0.  1.
         12    1    3    3    0    0  0.19593005397E+01  0.55956621173E+00 -0.13034590651E+02  0.13192896816E+02  0.00000000000E+00 0. -1.
</event>
<event>
 7    1  0.2950722E-010  0.4778726E+02  0.7816164E-02  0.1312668E+00
        -11   -1    0    0    0    0  0.00000000000E+00  0.00000000000E+00  0.45593999997E+02  0.45594000000E+02  0.51100000000E-03 0.  1.
         11   -1    0    0    0    0 -0.00000000000E+00 -0.00000000000E+00 -0.45593999997E+02  0.45594000000E+02  0.51100000000E-03 0. -1.
    9900012    2    1    2    0    0  0.10829127287E+02  0.22657961249E+02 -0.35397324845E+02  0.47787264846E+02  0.19999971737E+02 0.  0.
        -12    1    1    2    0    0 -0.10829127287E+02 -0.22657961249E+02  0.35397324845E+02  0.43400735154E+02  0.00000000000E+00 0.  1.
         11    1    3    3    0    0 -0.23180732575E-01  0.17355527666E+02 -0.20203171770E+02  0.26634245394E+02  0.51100000000E-03 0. -1.
        -11    1    3    3    0    0  0.98084773938E+01  0.74559985025E+01 -0.12880525167E+02  0.17824311243E+02  0.51100000000E-03 0.  1.
         12    1    3    3    0    0  0.10438306253E+01 -0.21535649193E+01 -0.23136279086E+01  0.33287082082E+01  0.00000000000E+00 0. -1.
</event>
<event>
 7    1  0.2950722E-010  0.4778728E+02  0.7816164E-02  0.1312668E+00
        -11   -1    0    0    0    0  0.00000000000E+00  0.00000000000E+00  0.45593999997E+02  0.45594000000E+02  0.51100000000E-03 0. -1.
         11   -1    0    0    0    0 -0.00000000000E+00 -0.00000000000E+00 -0.45593999997E+02  0.45594000000E+02  0.51100000000E-03 0.  1.
    9900012    2    1    2    0    0 -0.25399722965E+02 -0.11824496139E+02  0.33146009196E+02  0.47787279254E+02  0.20000037430E+02 0.  0.
        -12    1    1    2    0    0  0.25399722965E+02  0.11824496139E+02 -0.33146009196E+02  0.43400720746E+02  0.00000000000E+00 0.  1.
         11    1    3    3    0    0 -0.15926237994E+02 -0.13204002448E+02  0.28739723721E+02  0.35411332326E+02  0.51100000000E-03 0. -1.
        -11    1    3    3    0    0 -0.10049824827E+02  0.61137318030E+00  0.27100686970E+01  0.10426755431E+02  0.51100000000E-03 0.  1.
        -12    1    3    3    0    0  0.57633985564E+00  0.76813312813E+00  0.16962167787E+01  0.19491914970E+01  0.00000000000E+00 0.  1.
</event>
<event>
 7    1  0.2950722E-010  0.4778727E+02  0.7816164E-02  0.1312668E+00
        -11   -1    0    0    0    0  0.00000000000E+00  0.00000000000E+00  0.45593999997E+02  0.45594000000E+02  0.51100000000E-03 0.  1.
         11   -1    0    0    0    0 -0.00000000000E+00 -0.00000000000E+00 -0.45593999997E+02  0.45594000000E+02  0.51100000000E-03 0. -1.
    9900012    2    1    2    0    0 -0.58757037821E+01 -0.26506669903E+02 -0.33859947478E+02  0.47787268583E+02  0.19999988778E+02 0.  0.
        -12    1    1    2    0    0  0.58757037821E+01  0.26506669903E+02  0.33859947478E+02  0.43400731417E+02  0.00000000000E+00 0.  1.
         11    1    3    3    0    0  0.38166060528E+01 -0.85536930836E+01 -0.28779893029E+01  0.97987228668E+01  0.51100000000E-03 0. -1.
        -11    1    3    3    0    0 -0.44401391772E+00  0.87838580970E+00 -0.10854728982E+01  0.14652513995E+01  0.51100000000E-03 0.  1.
         12    1    3    3    0    0 -0.92482959172E+01 -0.18831362629E+02 -0.29896485277E+02  0.36523294317E+02  0.00000000000E+00 0. -1.
</event>
<event>
 7    1  0.2950722E-010  0.4778727E+02  0.7816164E-02  0.1312668E+00
        -11   -1    0    0    0    0  0.00000000000E+00  0.00000000000E+00  0.45593999997E+02  0.45594000000E+02  0.51100000000E-03 0.  1.
         11   -1    0    0    0    0 -0.00000000000E+00 -0.00000000000E+00 -0.45593999997E+02  0.45594000000E+02  0.51100000000E-03 0. -1.
    9900012    2    1    2    0    0  0.80527133370E+01  0.11322156818E+02 -0.41116732324E+02  0.47787273000E+02  0.20000008916E+02 0.  0.
        -12    1    1    2    0    0 -0.80527133370E+01 -0.11322156818E+02  0.41116732324E+02  0.43400727000E+02  0.00000000000E+00 0.  1.
         11    1    3    3    0    0 -0.38710769918E+01  0.57717361181E+01 -0.15701013138E+02  0.17170322907E+02  0.51100000000E-03 0. -1.
        -11    1    3    3    0    0  0.10874953718E+02  0.25293062340E+01 -0.25015368969E+02  0.27393990095E+02  0.51100000000E-03 0.  1.
         12    1    3    3    0    0  0.10488366107E+01  0.30211144661E+01 -0.40035021663E+00  0.32229599981E+01  0.00000000000E+00 0. -1.
</event>
<event>
 7    1  0.2950722E-010  0.4778727E+02  0.7816164E-02  0.1312668E+00
        -11   -1    0    0    0    0  0.00000000000E+00  0.00000000000E+00  0.45593999997E+02  0.45594000000E+02  0.51100000000E-03 0.  1.
         11   -1    0    0    0    0 -0.00000000000E+00 -0.00000000000E+00 -0.45593999997E+02  0.45594000000E+02  0.51100000000E-03 0. -1.
    9900012    2    1    2    0    0  0.15533075545E+02 -0.98986869369E+01 -0.39298378737E+02  0.47787274081E+02  0.20000013846E+02 0.  0.
        -12    1    1    2    0    0 -0.15533075545E+02  0.98986869369E+01  0.39298378737E+02  0.43400725919E+02  0.00000000000E+00 0.  1.
         11    1    3    3    0    0  0.37650395942E+01 -0.95135650817E+01 -0.26468317447E+02  0.28377020147E+02  0.51100000000E-03 0. -1.
        -11    1    3    3    0    0  0.26459561720E+01  0.30260666316E+01 -0.11066122623E+01  0.41692630384E+01  0.51100000000E-03 0.  1.
         12    1    3    3    0    0  0.91220797786E+01 -0.34111884867E+01 -0.11723449028E+02  0.15240990896E+02  0.00000000000E+00 0. -1.
</event>
<event>
 7    1  0.2950722E-010  0.4778727E+02  0.7816164E-02  0.1312668E+00
        -11   -1    0    0    0    0  0.00000000000E+00  0.00000000000E+00  0.45593999997E+02  0.45594000000E+02  0.51100000000E-03 0.  1.
         11   -1    0    0    0    0 -0.00000000000E+00 -0.00000000000E+00 -0.45593999997E+02  0.45594000000E+02  0.51100000000E-03 0. -1.
    9900012    2    1    2    0    0 -0.21472173291E+02 -0.28250148042E+01 -0.37611015135E+02  0.47787269660E+02  0.19999993690E+02 0.  0.
        -12    1    1    2    0    0  0.21472173291E+02  0.28250148042E+01  0.37611015135E+02  0.43400730340E+02  0.00000000000E+00 0.  1.
         11    1    3    3    0    0 -0.65305767480E+01 -0.21043723143E+01 -0.24573024289E+02  0.25512944528E+02  0.51100000000E-03 0.  1.
        -11    1    3    3    0    0 -0.13746817015E+02  0.30518418468E+01 -0.10615313254E+02  0.17634443355E+02  0.51100000000E-03 0. -1.
        -12    1    3    3    0    0 -0.11947795280E+01 -0.37724843367E+01 -0.24226775925E+01  0.46398817774E+01  0.00000000000E+00 0.  1.
</event>
<event>
 7    1  0.2950722E-010  0.4778727E+02  0.7816164E-02  0.1312668E+00
        -11   -1    0    0    0    0  0.00000000000E+00  0.00000000000E+00  0.45593999997E+02  0.45594000000E+02  0.51100000000E-03 0.  1.
         11   -1    0    0    0    0 -0.00000000000E+00 -0.00000000000E+00 -0.45593999997E+02  0.45594000000E+02  0.51100000000E-03 0. -1.
    9900012    2    1    2    0    0 -0.39332235017E+02 -0.86314669204E+01 -0.16189398058E+02  0.47787267954E+02  0.19999985911E+02 0.  0.
        -12    1    1    2    0    0  0.39332235017E+02  0.86314669204E+01  0.16189398058E+02  0.43400732046E+02  0.00000000000E+00 0.  1.
         11    1    3    3    0    0 -0.36930098929E+01  0.28461859520E+01  0.24411581405E+01  0.52629221798E+01  0.51100000000E-03 0.  1.
        -11    1    3    3    0    0 -0.28681416709E+02 -0.12242212587E+02 -0.14436556755E+02  0.34364365332E+02  0.51100000000E-03 0. -1.
         12    1    3    3    0    0 -0.69578084147E+01  0.76455971481E+00 -0.41939994434E+01  0.81599804426E+01  0.00000000000E+00 0. -1.
</event>
<event>
 7    1  0.2950722E-010  0.4778727E+02  0.7816164E-02  0.1312668E+00
        -11   -1    0    0    0    0  0.00000000000E+00  0.00000000000E+00  0.45593999997E+02  0.45594000000E+02  0.51100000000E-03 0. -1.
         11   -1    0    0    0    0 -0.00000000000E+00 -0.00000000000E+00 -0.45593999997E+02  0.45594000000E+02  0.51100000000E-03 0.  1.
    9900012    2    1    2    0    0  0.37640587609E+02  0.21544228456E+02 -0.16296519422E+01  0.47787269813E+02  0.19999994386E+02 0.  0.
        -12    1    1    2    0    0 -0.37640587609E+02 -0.21544228456E+02  0.16296519422E+01  0.43400730187E+02  0.00000000000E+00 0.  1.
         11    1    3    3    0    0  0.17062731964E+02  0.17862303353E+02 -0.91800981996E+00  0.24719252526E+02  0.51100000000E-03 0.  1.
        -11    1    3    3    0    0  0.12211396185E+02  0.69606292660E+01 -0.84203940059E+00  0.14081107456E+02  0.51100000000E-03 0. -1.
         12    1    3    3    0    0  0.83664594594E+01 -0.32787041625E+01  0.13039727833E+00  0.89869098316E+01  0.00000000000E+00 0. -1.
</event>
<event>
 7    1  0.2950722E-010  0.4778727E+02  0.7816164E-02  0.1312668E+00
        -11   -1    0    0    0    0  0.00000000000E+00  0.00000000000E+00  0.45593999997E+02  0.45594000000E+02  0.51100000000E-03 0.  1.
         11   -1    0    0    0    0 -0.00000000000E+00 -0.00000000000E+00 -0.45593999997E+02  0.45594000000E+02  0.51100000000E-03 0. -1.
    9900012    2    1    2    0    0  0.95683076868E+01 -0.26116105321E+02 -0.33316958470E+02  0.47787272001E+02  0.20000004361E+02 0.  0.
        -12    1    1    2    0    0 -0.95683076868E+01  0.26116105321E+02  0.33316958470E+02  0.43400727999E+02  0.00000000000E+00 0.  1.
         11    1    3    3    0    0  0.11792612162E+02 -0.14383239612E+02 -0.26534686442E+02  0.32404210655E+02  0.51100000000E-03 0. -1.
        -11    1    3    3    0    0 -0.38951981109E+01 -0.51373504610E+01 -0.54675133722E+01  0.84533212892E+01  0.51100000000E-03 0.  1.
        -12    1    3    3    0    0  0.16708936360E+01 -0.65955152478E+01 -0.13147586563E+01  0.69297400566E+01  0.00000000000E+00 0.  1.
</event>
<event>
 7    1  0.3226723E-010  0.4778727E+02  0.7816164E-02  0.1312668E+00
        -11   -1    0    0    0    0  0.00000000000E+00  0.00000000000E+00  0.45593999997E+02  0.45594000000E+02  0.51100000000E-03 0.  1.
         11   -1    0    0    0    0 -0.00000000000E+00 -0.00000000000E+00 -0.45593999997E+02  0.45594000000E+02  0.51100000000E-03 0. -1.
    9900012    2    1    2    0    0 -0.40761078195E+02 -0.10629202086E+02  0.10448837691E+02  0.47787266807E+02  0.19999980681E+02 0.  0.
        -12    1    1    2    0    0  0.40761078195E+02  0.10629202086E+02 -0.10448837691E+02  0.43400733193E+02  0.00000000000E+00 0.  1.
         11    1    3    3    0    0 -0.35087859980E+02 -0.61565595366E+01  0.59396823540E+01  0.36115661008E+02  0.51100000000E-03 0. -1.
        -11    1    3    3    0    0 -0.13723772244E+01  0.21615356388E+01  0.23510154211E+01  0.34760508246E+01  0.51100000000E-03 0.  1.
         12    1    3    3    0    0 -0.43008409900E+01 -0.66341781876E+01  0.21581399161E+01  0.81955549748E+01  0.00000000000E+00 0. -1.
</event>
<event>
 7    1  0.2950722E-010  0.4778727E+02  0.7816164E-02  0.1312668E+00
        -11   -1    0    0    0    0  0.00000000000E+00  0.00000000000E+00  0.45593999997E+02  0.45594000000E+02  0.51100000000E-03 0.  1.
         11   -1    0    0    0    0 -0.00000000000E+00 -0.00000000000E+00 -0.45593999997E+02  0.45594000000E+02  0.51100000000E-03 0. -1.
    9900012    2    1    2    0    0 -0.29503135061E+02  0.19342221824E+02 -0.25279770418E+02  0.47787270560E+02  0.19999997790E+02 0.  0.
        -12    1    1    2    0    0  0.29503135061E+02 -0.19342221824E+02  0.25279770418E+02  0.43400729440E+02  0.00000000000E+00 0.  1.
         11    1    3    3    0    0 -0.17007387190E+02  0.19632349311E+02 -0.19024880619E+02  0.32196683701E+02  0.51100000000E-03 0. -1.
        -11    1    3    3    0    0 -0.12800960935E+02 -0.19662190993E+00 -0.41451032009E+01  0.13456787947E+02  0.51100000000E-03 0.  1.
         12    1    3    3    0    0  0.30521306355E+00 -0.93505577231E-01 -0.21097865985E+01  0.21337989124E+01  0.00000000000E+00 0. -1.
</event>
<event>
 7    1  0.2950722E-010  0.4778728E+02  0.7816164E-02  0.1312668E+00
        -11   -1    0    0    0    0  0.00000000000E+00  0.00000000000E+00  0.45593999997E+02  0.45594000000E+02  0.51100000000E-03 0.  1.
         11   -1    0    0    0    0 -0.00000000000E+00 -0.00000000000E+00 -0.45593999997E+02  0.45594000000E+02  0.51100000000E-03 0. -1.
    9900012    2    1    2    0    0  0.17477090835E+02  0.10519908409E+02 -0.38308037353E+02  0.47787275319E+02  0.20000019490E+02 0.  0.
        -12    1    1    2    0    0 -0.17477090835E+02 -0.10519908409E+02  0.38308037353E+02  0.43400724681E+02  0.00000000000E+00 0.  1.
         11    1    3    3    0    0  0.61183035096E+01  0.76417730658E+01 -0.29046454256E+02  0.30651702049E+02  0.51100000000E-03 0. -1.
        -11    1    3    3    0    0  0.91390304686E+00  0.30741724771E+01 -0.49829977779E-01  0.32075284076E+01  0.51100000000E-03 0.  1.
         12    1    3    3    0    0  0.10444884278E+02 -0.19603713354E+00 -0.92117531195E+01  0.13928044862E+02  0.00000000000E+00 0. -1.
</event>
<event>
 7    1  0.2950722E-010  0.4778727E+02  0.7816164E-02  0.1312668E+00
        -11   -1    0    0    0    0  0.00000000000E+00  0.00000000000E+00  0.45593999997E+02  0.45594000000E+02  0.51100000000E-03 0. -1.
         11   -1    0    0    0    0 -0.00000000000E+00 -0.00000000000E+00 -0.45593999997E+02  0.45594000000E+02  0.51100000000E-03 0.  1.
    9900012    2    1    2    0    0  0.12280645803E+02  0.52681380900E+01  0.41292322659E+02  0.47787269005E+02  0.19999990702E+02 0.  0.
        -12    1    1    2    0    0 -0.12280645803E+02 -0.52681380900E+01 -0.41292322659E+02  0.43400730995E+02  0.00000000000E+00 0.  1.
         11    1    3    3    0    0  0.40063529910E+01  0.11390963600E+02  0.24799612829E+02  0.27583069313E+02  0.51100000000E-03 0. -1.
        -11    1    3    3    0    0  0.83497688293E+01 -0.68390825105E+01  0.16102389579E+02  0.19385010692E+02  0.51100000000E-03 0.  1.
        -12    1    3    3    0    0 -0.75476016812E-01  0.71625700011E+00  0.39032025133E+00  0.81918900012E+00  0.00000000000E+00 0.  1.
</event>
<event>
 7    1  0.2950722E-010  0.4778726E+02  0.7816164E-02  0.1312668E+00
        -11   -1    0    0    0    0  0.00000000000E+00  0.00000000000E+00  0.45593999997E+02  0.45594000000E+02  0.51100000000E-03 0.  1.
         11   -1    0    0    0    0 -0.00000000000E+00 -0.00000000000E+00 -0.45593999997E+02  0.45594000000E+02  0.51100000000E-03 0. -1.
    9900012    2    1    2    0    0 -0.25423349034E+00 -0.15142531038E+02 -0.40672641507E+02  0.47787255213E+02  0.19999927819E+02 0.  0.
        -12    1    1    2    0    0  0.25423349034E+00  0.15142531038E+02  0.40672641507E+02  0.43400744787E+02  0.00000000000E+00 0.  1.
         11    1    3    3    0    0 -0.89736696723E+01 -0.43222446671E+01 -0.12229373065E+02  0.15772321078E+02  0.51100000000E-03 0. -1.
        -11    1    3    3    0    0  0.15245723083E+01 -0.12940525417E+01 -0.13629622145E+01  0.24200328435E+01  0.51100000000E-03 0.  1.
         12    1    3    3    0    0  0.71948638736E+01 -0.95262338288E+01 -0.27080306227E+02  0.29594901292E+02  0.00000000000E+00 0. -1.
</event>
<event>
 7    1  0.2950722E-010  0.4778727E+02  0.7816164E-02  0.1312668E+00
        -11   -1    0    0    0    0  0.00000000000E+00  0.00000000000E+00  0.45593999997E+02  0.45594000000E+02  0.51100000000E-03 0.  1.
         11   -1    0    0    0    0 -0.00000000000E+00 -0.00000000000E+00 -0.45593999997E+02  0.45594000000E+02  0.51100000000E-03 0. -1.
    9900012    2    1    2    0    0 -0.34473475319E+02  0.25658449774E+02  0.60701649446E+01  0.47787269040E+02  0.19999990862E+02 0.  0.
        -12    1    1    2    0    0  0.34473475319E+02 -0.25658449774E+02 -0.60701649446E+01  0.43400730960E+02  0.00000000000E+00 0.  1.
         11    1    3    3    0    0 -0.23293446827E+02  0.20175927544E+02  0.24328623289E+01  0.30912320144E+02  0.51100000000E-03 0. -1.
        -11    1    3    3    0    0  0.65414803316E-01  0.18242139821E+01  0.46605063500E+01  0.50052328066E+01  0.51100000000E-03 0.  1.
         12    1    3    3    0    0 -0.11245443296E+02  0.36583082478E+01 -0.10232037344E+01  0.11869716089E+02  0.00000000000E+00 0. -1.
</event>
<event>
 7    1  0.2950722E-010  0.4778727E+02  0.7816164E-02  0.1312668E+00
        -11   -1    0    0    0    0  0.00000000000E+00  0.00000000000E+00  0.45593999997E+02  0.45594000000E+02  0.51100000000E-03 0. -1.
         11   -1    0    0    0    0 -0.00000000000E+00 -0.00000000000E+00 -0.45593999997E+02  0.45594000000E+02  0.51100000000E-03 0.  1.
    9900012    2    1    2    0    0  0.89717555381E+01 -0.17745538562E+02  0.38577544111E+02  0.47787269062E+02  0.19999990962E+02 0.  0.
        -12    1    1    2    0    0 -0.89717555381E+01  0.17745538562E+02 -0.38577544111E+02  0.43400730938E+02  0.00000000000E+00 0.  1.
         11    1    3    3    0    0  0.57625161252E+01 -0.11016813066E+02  0.31911689123E+02  0.34248104549E+02  0.51100000000E-03 0. -1.
        -11    1    3    3    0    0  0.47744109709E+01 -0.18896149473E+00  0.42473408923E+01  0.63930127078E+01  0.51100000000E-03 0.  1.
         12    1    3    3    0    0 -0.15651715580E+01 -0.65397640010E+01  0.24185140956E+01  0.71461518054E+01  0.00000000000E+00 0. -1.
</event>
<event>
 7    1  0.2950722E-010  0.4778727E+02  0.7816164E-02  0.1312668E+00
        -11   -1    0    0    0    0  0.00000000000E+00  0.00000000000E+00  0.45593999997E+02  0.45594000000E+02  0.51100000000E-03 0. -1.
         11   -1    0    0    0    0 -0.00000000000E+00 -0.00000000000E+00 -0.45593999997E+02  0.45594000000E+02  0.51100000000E-03 0.  1.
    9900012    2    1    2    0    0  0.80515547442E+01 -0.21803709637E+02  0.36652339172E+02  0.47787271268E+02  0.20000001019E+02 0.  0.
        -12    1    1    2    0    0 -0.80515547442E+01  0.21803709637E+02 -0.36652339172E+02  0.43400728732E+02  0.00000000000E+00 0.  1.
         11    1    3    3    0    0  0.22235716479E+01 -0.19756790832E+02  0.36299206224E+02  0.41387285821E+02  0.51100000000E-03 0. -1.
        -11    1    3    3    0    0  0.45931091364E+01 -0.89895626782E+00  0.50347164372E+00  0.47072558744E+01  0.51100000000E-03 0.  1.
         12    1    3    3    0    0  0.12348739599E+01 -0.11479625366E+01 -0.15033869608E+00  0.16927295725E+01  0.00000000000E+00 0. -1.
</event>
<event>
 7    1  0.2950722E-010  0.4778727E+02  0.7816164E-02  0.1312668E+00
        -11   -1    0    0    0    0  0.00000000000E+00  0.00000000000E+00  0.45593999997E+02  0.45594000000E+02  0.51100000000E-03 0. -1.
         11   -1    0    0    0    0 -0.00000000000E+00 -0.00000000000E+00 -0.45593999997E+02  0.45594000000E+02  0.51100000000E-03 0.  1.
    9900012    2    1    2    0    0 -0.39620478810E+02 -0.16488169497E+02 -0.64792834873E+01  0.47787272022E+02  0.20000004458E+02 0.  0.
        -12    1    1    2    0    0  0.39620478810E+02  0.16488169497E+02  0.64792834873E+01  0.43400727978E+02  0.00000000000E+00 0.  1.
         11    1    3    3    0    0 -0.40709569076E+02 -0.14567965092E+02 -0.81347847075E+01  0.43996242383E+02  0.51100000000E-03 0. -1.
        -11    1    3    3    0    0  0.84785888065E+00 -0.25680530769E+01  0.11720476827E+01  0.29474492903E+01  0.51100000000E-03 0.  1.
         12    1    3    3    0    0  0.24123138572E+00  0.64784867177E+00  0.48345353738E+00  0.84358034933E+00  0.00000000000E+00 0. -1.
</event>
<event>
 7    1  0.2950722E-010  0.4778728E+02  0.7816164E-02  0.1312668E+00
        -11   -1    0    0    0    0  0.00000000000E+00  0.00000000000E+00  0.45593999997E+02  0.45594000000E+02  0.51100000000E-03 0.  1.
         11   -1    0    0    0    0 -0.00000000000E+00 -0.00000000000E+00 -0.45593999997E+02  0.45594000000E+02  0.51100000000E-03 0. -1.
    9900012    2    1    2    0    0  0.30317391824E+02 -0.28828627362E+02  0.11549402792E+02  0.47787277570E+02  0.20000029753E+02 0.  0.
        -12    1    1    2    0    0 -0.30317391824E+02  0.28828627362E+02 -0.11549402792E+02  0.43400722430E+02  0.00000000000E+00 0.  1.
         11    1    3    3    0    0  0.30179303280E+02 -0.27445590932E+02  0.10271770114E+02  0.42066139229E+02  0.51100000000E-03 0. -1.
        -11    1    3    3    0    0 -0.10647795553E+01 -0.12606854256E+01 -0.17835434385E+01  0.24298375875E+01  0.51100000000E-03 0.  1.
         12    1    3    3    0    0  0.12028680999E+01 -0.12235100392E+00  0.30611761169E+01  0.32913007539E+01  0.00000000000E+00 0. -1.
</event>
<event>
 7    1  0.2950722E-010  0.4778726E+02  0.7816164E-02  0.1312668E+00
        -11   -1    0    0    0    0  0.00000000000E+00  0.00000000000E+00  0.45593999997E+02  0.45594000000E+02  0.51100000000E-03 0.  1.
         11   -1    0    0    0    0 -0.00000000000E+00 -0.00000000000E+00 -0.45593999997E+02  0.45594000000E+02  0.51100000000E-03 0. -1.
    9900012    2    1    2    0    0  0.20415628713E+00 -0.37233394729E+02 -0.22299252299E+02  0.47787262495E+02  0.19999961022E+02 0.  0.
        -12    1    1    2    0    0 -0.20415628713E+00  0.37233394729E+02  0.22299252299E+02  0.43400737505E+02  0.00000000000E+00 0.  1.
         11    1    3    3    0    0  0.10946653147E+01 -0.81413977605E+01 -0.16099314176E+01  0.83709335845E+01  0.51100000000E-03 0. -1.
        -11    1    3    3    0    0 -0.14688991499E+01  0.10229285949E+01  0.12236126963E+01  0.21682425866E+01  0.51100000000E-03 0.  1.
        -12    1    3    3    0    0  0.57839012231E+00 -0.30114925563E+02 -0.21912933578E+02  0.37248086324E+02  0.00000000000E+00 0.  1.
</event>
<event>
 7    1  0.2950722E-010  0.4778727E+02  0.7816164E-02  0.1312668E+00
        -11   -1    0    0    0    0  0.00000000000E+00  0.00000000000E+00  0.45593999997E+02  0.45594000000E+02  0.51100000000E-03 0.  1.
         11   -1    0    0    0    0 -0.00000000000E+00 -0.00000000000E+00 -0.45593999997E+02  0.45594000000E+02  0.51100000000E-03 0. -1.
    9900012    2    1    2    0    0  0.30088314637E+02 -0.19816177834E+02 -0.24199907357E+02  0.47787273073E+02  0.20000009251E+02 0.  0.
        -12    1    1    2    0    0 -0.30088314637E+02  0.19816177834E+02  0.24199907357E+02  0.43400726927E+02  0.00000000000E+00 0.  1.
         11    1    3    3    0    0  0.17403434877E+02 -0.16985535145E+02 -0.16346975544E+02  0.29302074319E+02  0.51100000000E-03 0. -1.
        -11    1    3    3    0    0 -0.17476217181E+01 -0.16959392099E+00  0.16225412374E+00  0.17633123459E+01  0.51100000000E-03 0.  1.
        -12    1    3    3    0    0  0.14432501478E+02 -0.26610487682E+01 -0.80151859366E+01  0.16721886409E+02  0.00000000000E+00 0.  1.
</event>
<event>
 7    1  0.2950722E-010  0.4778727E+02  0.7816164E-02  0.1312668E+00
        -11   -1    0    0    0    0  0.00000000000E+00  0.00000000000E+00  0.45593999997E+02  0.45594000000E+02  0.51100000000E-03 0. -1.
         11   -1    0    0    0    0 -0.00000000000E+00 -0.00000000000E+00 -0.45593999997E+02  0.45594000000E+02  0.51100000000E-03 0.  1.
    9900012    2    1    2    0    0 -0.84777653408E+01 -0.26146228371E+02  0.33587579786E+02  0.47787270984E+02  0.19999999726E+02 0.  0.
        -12    1    1    2    0    0  0.84777653408E+01  0.26146228371E+02 -0.33587579786E+02  0.43400729016E+02  0.00000000000E+00 0.  1.
         11    1    3    3    0    0 -0.45571343454E+01 -0.75046635868E+01  0.64171053312E+01  0.10875048969E+02  0.51100000000E-03 0. -1.
        -11    1    3    3    0    0 -0.56305970947E+01 -0.16607399946E+02  0.11391720003E+02  0.20911256335E+02  0.51100000000E-03 0.  1.
        -12    1    3    3    0    0  0.17099660993E+01 -0.20341648382E+01  0.15778754452E+02  0.16000965680E+02  0.00000000000E+00 0.  1.
</event>
<event>
 7    1  0.2950722E-010  0.4778727E+02  0.7816164E-02  0.1312668E+00
        -11   -1    0    0    0    0  0.00000000000E+00  0.00000000000E+00  0.45593999997E+02  0.45594000000E+02  0.51100000000E-03 0.  1.
         11   -1    0    0    0    0 -0.00000000000E+00 -0.00000000000E+00 -0.45593999997E+02  0.45594000000E+02  0.51100000000E-03 0. -1.
    9900012    2    1    2    0    0 -0.20221697767E+02  0.36417095842E+02 -0.12186120963E+02  0.47787268736E+02  0.19999989473E+02 0.  0.
        -12    1    1    2    0    0  0.20221697767E+02 -0.36417095842E+02  0.12186120963E+02  0.43400731264E+02  0.00000000000E+00 0.  1.
         11    1    3    3    0    0 -0.10725034050E+02  0.18008204176E+02  0.18053848669E+01  0.21037613644E+02  0.51100000000E-03 0. -1.
        -11    1    3    3    0    0 -0.63481771662E+01  0.73405570423E+01 -0.11367803756E+02  0.14946909163E+02  0.51100000000E-03 0.  1.
         12    1    3    3    0    0 -0.31484865505E+01  0.11068334624E+02 -0.26237020737E+01  0.11802745929E+02  0.00000000000E+00 0. -1.
</event>
<event>
 7    1  0.2950722E-010  0.4778727E+02  0.7816164E-02  0.1312668E+00
        -11   -1    0    0    0    0  0.00000000000E+00  0.00000000000E+00  0.45593999997E+02  0.45594000000E+02  0.51100000000E-03 0. -1.
         11   -1    0    0    0    0 -0.00000000000E+00 -0.00000000000E+00 -0.45593999997E+02  0.45594000000E+02  0.51100000000E-03 0.  1.
    9900012    2    1    2    0    0 -0.41061699122E+02  0.13539917104E+02  0.37723784911E+01  0.47787270404E+02  0.19999997079E+02 0.  0.
        -12    1    1    2    0    0  0.41061699122E+02 -0.13539917104E+02 -0.37723784911E+01  0.43400729596E+02  0.00000000000E+00 0.  1.
         11    1    3    3    0    0 -0.15518525559E+02 -0.76185053429E+00 -0.61439491131E+01  0.16707877265E+02  0.51100000000E-03 0.  1.
        -11    1    3    3    0    0 -0.19582815353E+02  0.11890841219E+02  0.65833456716E+01  0.23837348899E+02  0.51100000000E-03 0. -1.
        -12    1    3    3    0    0 -0.59603582104E+01  0.24109264199E+01  0.33329819326E+01  0.72420442391E+01  0.00000000000E+00 0.  1.
</event>
<event>
 7    1  0.2950722E-010  0.4778727E+02  0.7816164E-02  0.1312668E+00
        -11   -1    0    0    0    0  0.00000000000E+00  0.00000000000E+00  0.45593999997E+02  0.45594000000E+02  0.51100000000E-03 0. -1.
         11   -1    0    0    0    0 -0.00000000000E+00 -0.00000000000E+00 -0.45593999997E+02  0.45594000000E+02  0.51100000000E-03 0.  1.
    9900012    2    1    2    0    0  0.37492451888E+02 -0.13798586882E+02  0.16956960342E+02  0.47787268986E+02  0.19999990614E+02 0.  0.
        -12    1    1    2    0    0 -0.37492451888E+02  0.13798586882E+02 -0.16956960342E+02  0.43400731014E+02  0.00000000000E+00 0.  1.
         11    1    3    3    0    0  0.11651750665E+02 -0.11351654143E+02  0.21879708660E+01  0.16413730902E+02  0.51100000000E-03 0. -1.
        -11    1    3    3    0    0  0.12032246087E+02  0.36664877017E+01  0.66569992397E+01  0.14231434120E+02  0.51100000000E-03 0.  1.
         12    1    3    3    0    0  0.13808455136E+02 -0.61134204403E+01  0.81119902364E+01  0.17142103964E+02  0.00000000000E+00 0. -1.
</event>
<event>
 7    1  0.2950722E-010  0.4778727E+02  0.7816164E-02  0.1312668E+00
        -11   -1    0    0    0    0  0.00000000000E+00  0.00000000000E+00  0.45593999997E+02  0.45594000000E+02  0.51100000000E-03 0.  1.
         11   -1    0    0    0    0 -0.00000000000E+00 -0.00000000000E+00 -0.45593999997E+02  0.45594000000E+02  0.51100000000E-03 0. -1.
    9900012    2    1    2    0    0 -0.28382564999E+02  0.28746032710E+02 -0.15865656139E+02  0.47787269163E+02  0.19999991420E+02 0.  0.
        -12    1    1    2    0    0  0.28382564999E+02 -0.28746032710E+02  0.15865656139E+02  0.43400730837E+02  0.00000000000E+00 0.  1.
         11    1    3    3    0    0 -0.10991457372E+02  0.46315076667E+01  0.18648516713E+01  0.12072310071E+02  0.51100000000E-03 0. -1.
        -11    1    3    3    0    0  0.80552204341E+00  0.28324103877E+01 -0.10736904685E+01  0.31343621122E+01  0.51100000000E-03 0.  1.
         12    1    3    3    0    0 -0.18196629670E+02  0.21282114655E+02 -0.16656817342E+02  0.32580596979E+02  0.00000000000E+00 0. -1.
</event>
<event>
 7    1  0.2950722E-010  0.4778727E+02  0.7816164E-02  0.1312668E+00
        -11   -1    0    0    0    0  0.00000000000E+00  0.00000000000E+00  0.45593999997E+02  0.45594000000E+02  0.51100000000E-03 0. -1.
         11   -1    0    0    0    0 -0.00000000000E+00 -0.00000000000E+00 -0.45593999997E+02  0.45594000000E+02  0.51100000000E-03 0.  1.
    9900012    2    1    2    0    0  0.12092383252E+02 -0.26259566787E+02  0.32370249533E+02  0.47787266880E+02  0.19999981013E+02 0.  0.
        -12    1    1    2    0    0 -0.12092383252E+02  0.26259566787E+02 -0.32370249533E+02  0.43400733120E+02  0.00000000000E+00 0.  1.
         11    1    3    3    0    0  0.57177113388E+01  0.15502074474E+01  0.69674347634E+01  0.91455187675E+01  0.51100000000E-03 0. -1.
        -11    1    3    3    0    0  0.36739790767E+00 -0.12405939844E+02  0.88305568849E+01  0.15232237518E+02  0.51100000000E-03 0.  1.
         12    1    3    3    0    0  0.60072740052E+01 -0.15403834390E+02  0.16572257885E+02  0.23409510595E+02  0.00000000000E+00 0. -1.
</event>
<event>
 7    1  0.2950722E-010  0.4778727E+02  0.7816164E-02  0.1312668E+00
        -11   -1    0    0    0    0  0.00000000000E+00  0.00000000000E+00  0.45593999997E+02  0.45594000000E+02  0.51100000000E-03 0.  1.
         11   -1    0    0    0    0 -0.00000000000E+00 -0.00000000000E+00 -0.45593999997E+02  0.45594000000E+02  0.51100000000E-03 0. -1.
    9900012    2    1    2    0    0  0.94349421916E+01 -0.21010787292E+02 -0.36785212547E+02  0.47787272139E+02  0.20000004990E+02 0.  0.
        -12    1    1    2    0    0 -0.94349421916E+01  0.21010787292E+02  0.36785212547E+02  0.43400727861E+02  0.00000000000E+00 0.  1.
         11    1    3    3    0    0  0.14508436473E+02 -0.13516542600E+02 -0.18752449256E+02  0.27291867032E+02  0.51100000000E-03 0. -1.
        -11    1    3    3    0    0 -0.12866031531E+01 -0.37521178653E+01 -0.10867447497E+02  0.11568714341E+02  0.51100000000E-03 0.  1.
         12    1    3    3    0    0 -0.37868911279E+01 -0.37421268261E+01 -0.71653157935E+01  0.89266907652E+01  0.00000000000E+00 0. -1.
</event>
<event>
 7    1  0.2950722E-010  0.4778728E+02  0.7816164E-02  0.1312668E+00
        -11   -1    0    0    0    0  0.00000000000E+00  0.00000000000E+00  0.45593999997E+02  0.45594000000E+02  0.51100000000E-03 0. -1.
         11   -1    0    0    0    0 -0.00000000000E+00 -0.00000000000E+00 -0.45593999997E+02  0.45594000000E+02  0.51100000000E-03 0.  1.
    9900012    2    1    2    0    0 -0.36971726850E+02 -0.22389876711E+02 -0.39252702536E+01  0.47787275214E+02  0.20000019011E+02 0.  0.
        -12    1    1    2    0    0  0.36971726850E+02  0.22389876711E+02  0.39252702536E+01  0.43400724786E+02  0.00000000000E+00 0.  1.
         11    1    3    3    0    0 -0.35964165180E+02 -0.22112958365E+02 -0.19665199856E+01  0.42264302974E+02  0.51100000000E-03 0. -1.
        -11    1    3    3    0    0 -0.23248062037E+01  0.13297495452E+01 -0.21529420971E+01  0.34362941772E+01  0.51100000000E-03 0.  1.
         12    1    3    3    0    0  0.13172445336E+01 -0.16066678911E+01  0.19419182910E+00  0.20866780633E+01  0.00000000000E+00 0. -1.
</event>
<event>
 7    1  0.2950722E-010  0.4778727E+02  0.7816164E-02  0.1312668E+00
        -11   -1    0    0    0    0  0.00000000000E+00  0.00000000000E+00  0.45593999997E+02  0.45594000000E+02  0.51100000000E-03 0.  1.
         11   -1    0    0    0    0 -0.00000000000E+00 -0.00000000000E+00 -0.45593999997E+02  0.45594000000E+02  0.51100000000E-03 0. -1.
    9900012    2    1    2    0    0 -0.27556274229E+02  0.32400821500E+02 -0.86291307432E+01  0.47787269815E+02  0.19999994395E+02 0.  0.
        -12    1    1    2    0    0  0.27556274229E+02 -0.32400821500E+02  0.86291307432E+01  0.43400730185E+02  0.00000000000E+00 0.  1.
         11    1    3    3    0    0 -0.97596440173E+01  0.21536043980E+02 -0.92253994754E+01  0.25380304124E+02  0.51100000000E-03 0. -1.
        -11    1    3    3    0    0 -0.17712336278E+02  0.11897877799E+02  0.34416971448E+00  0.21340215688E+02  0.51100000000E-03 0.  1.
         12    1    3    3    0    0 -0.84293933622E-01 -0.10331002800E+01  0.25209901774E+00  0.10667500038E+01  0.00000000000E+00 0. -1.
</event>
<event>
 7    1  0.2950722E-010  0.4778727E+02  0.7816164E-02  0.1312668E+00
        -11   -1    0    0    0    0  0.00000000000E+00  0.00000000000E+00  0.45593999997E+02  0.45594000000E+02  0.51100000000E-03 0. -1.
         11   -1    0    0    0    0 -0.00000000000E+00 -0.00000000000E+00 -0.45593999997E+02  0.45594000000E+02  0.51100000000E-03 0.  1.
    9900012    2    1    2    0    0  0.10437084913E+02  0.28603863681E+02 -0.30927489217E+02  0.47787270188E+02  0.19999996094E+02 0.  0.
        -12    1    1    2    0    0 -0.10437084913E+02 -0.28603863681E+02  0.30927489217E+02  0.43400729812E+02  0.00000000000E+00 0.  1.
         11    1    3    3    0    0  0.11750130419E+02  0.10465526632E+02 -0.22160694600E+02  0.27178837319E+02  0.51100000000E-03 0. -1.
        -11    1    3    3    0    0  0.74012695463E-01  0.12609996234E+02 -0.77992639782E+01  0.14827204786E+02  0.51100000000E-03 0.  1.
         12    1    3    3    0    0 -0.13870582017E+01  0.55283408142E+01 -0.96753063856E+00  0.57812280832E+01  0.00000000000E+00 0. -1.
</event>
<event>
 7    1  0.2950722E-010  0.4778727E+02  0.7816164E-02  0.1312668E+00
        -11   -1    0    0    0    0  0.00000000000E+00  0.00000000000E+00  0.45593999997E+02  0.45594000000E+02  0.51100000000E-03 0.  1.
         11   -1    0    0    0    0 -0.00000000000E+00 -0.00000000000E+00 -0.45593999997E+02  0.45594000000E+02  0.51100000000E-03 0. -1.
    9900012    2    1    2    0    0 -0.66847360810E+01 -0.26477006520E+02 -0.33732858080E+02  0.47787270917E+02  0.19999999417E+02 0.  0.
        -12    1    1    2    0    0  0.66847360810E+01  0.26477006520E+02  0.33732858080E+02  0.43400729083E+02  0.00000000000E+00 0.  1.
         11    1    3    3    0    0 -0.26994566454E+01 -0.22646958790E+02 -0.19428156686E+02  0.29960391872E+02  0.51100000000E-03 0. -1.
        -11    1    3    3    0    0 -0.65545491712E+01 -0.70517372219E+00 -0.87873785472E+01  0.10985326887E+02  0.51100000000E-03 0.  1.
        -12    1    3    3    0    0  0.25692697356E+01 -0.31248740072E+01 -0.55173228463E+01  0.68415521576E+01  0.00000000000E+00 0.  1.
</event>
<event>
 7    1  0.2950722E-010  0.4778727E+02  0.7816164E-02  0.1312668E+00
        -11   -1    0    0    0    0  0.00000000000E+00  0.00000000000E+00  0.45593999997E+02  0.45594000000E+02  0.51100000000E-03 0.  1.
         11   -1    0    0    0    0 -0.00000000000E+00 -0.00000000000E+00 -0.45593999997E+02  0.45594000000E+02  0.51100000000E-03 0. -1.
    9900012    2    1    2    0    0 -0.37277848376E+02  0.13185756128E+02 -0.17891934601E+02  0.47787268808E+02  0.19999989805E+02 0.  0.
        -12    1    1    2    0    0  0.37277848376E+02 -0.13185756128E+02  0.17891934601E+02  0.43400731192E+02  0.00000000000E+00 0.  1.
         11    1    3    3    0    0 -0.10493617977E+02  0.10496794732E+01 -0.10655380522E+02  0.14991830428E+02  0.51100000000E-03 0. -1.
        -11    1    3    3    0    0 -0.18321388600E+02  0.14122590710E+02 -0.37748107972E+01  0.23438644274E+02  0.51100000000E-03 0.  1.
        -12    1    3    3    0    0 -0.84628417984E+01 -0.19865140551E+01 -0.34617432818E+01  0.93567941062E+01  0.00000000000E+00 0.  1.
</event>
<event>
 7    1  0.2950722E-010  0.4778727E+02  0.7816164E-02  0.1312668E+00
        -11   -1    0    0    0    0  0.00000000000E+00  0.00000000000E+00  0.45593999997E+02  0.45594000000E+02  0.51100000000E-03 0.  1.
         11   -1    0    0    0    0 -0.00000000000E+00 -0.00000000000E+00 -0.45593999997E+02  0.45594000000E+02  0.51100000000E-03 0. -1.
    9900012    2    1    2    0    0 -0.20193178746E+02  0.12127772709E+02 -0.36452385368E+02  0.47787265700E+02  0.19999975632E+02 0.  0.
        -12    1    1    2    0    0  0.20193178746E+02 -0.12127772709E+02  0.36452385368E+02  0.43400734300E+02  0.00000000000E+00 0.  1.
         11    1    3    3    0    0 -0.11608640757E+02  0.20136196613E+01 -0.39951132645E+01  0.12440905699E+02  0.51100000000E-03 0. -1.
        -11    1    3    3    0    0 -0.61853906084E+01  0.74674500563E+01 -0.17904423091E+02  0.20361488988E+02  0.51100000000E-03 0.  1.
         12    1    3    3    0    0 -0.23991473805E+01  0.26467029913E+01 -0.14552849013E+02  0.14984871013E+02  0.00000000000E+00 0. -1.
</event>
<event>
 7    1  0.2950722E-010  0.4778727E+02  0.7816164E-02  0.1312668E+00
        -11   -1    0    0    0    0  0.00000000000E+00  0.00000000000E+00  0.45593999997E+02  0.45594000000E+02  0.51100000000E-03 0.  1.
         11   -1    0    0    0    0 -0.00000000000E+00 -0.00000000000E+00 -0.45593999997E+02  0.45594000000E+02  0.51100000000E-03 0. -1.
    9900012    2    1    2    0    0  0.13391850122E+02 -0.35841745875E+02 -0.20485380277E+02  0.47787271871E+02  0.20000003768E+02 0.  0.
        -12    1    1    2    0    0 -0.13391850122E+02  0.35841745875E+02  0.20485380277E+02  0.43400728129E+02  0.00000000000E+00 0.  1.
         11    1    3    3    0    0  0.22539013476E+01 -0.23067838773E+02 -0.71806115773E+01  0.24264509883E+02  0.51100000000E-03 0. -1.
        -11    1    3    3    0    0  0.93651553272E+01 -0.40211679854E+01 -0.90520167752E+01  0.13631395168E+02  0.51100000000E-03 0.  1.
        -12    1    3    3    0    0  0.17727934471E+01 -0.87527391161E+01 -0.42527519247E+01  0.98913668203E+01  0.00000000000E+00 0.  1.
</event>
<event>
 7    1  0.2950722E-010  0.4778730E+02  0.7816164E-02  0.1312668E+00
        -11   -1    0    0    0    0  0.00000000000E+00  0.00000000000E+00  0.45593999997E+02  0.45594000000E+02  0.51100000000E-03 0.  1.
         11   -1    0    0    0    0 -0.00000000000E+00 -0.00000000000E+00 -0.45593999997E+02  0.45594000000E+02  0.51100000000E-03 0. -1.
    9900012    2    1    2    0    0  0.73717713751E+01 -0.37966735189E+02 -0.19692765761E+02  0.47787297039E+02  0.20000118521E+02 0.  0.
        -12    1    1    2    0    0 -0.73717713751E+01  0.37966735189E+02  0.19692765761E+02  0.43400702961E+02  0.00000000000E+00 0.  1.
         11    1    3    3    0    0  0.99436195450E+01 -0.21367989023E+02 -0.18541013499E+02  0.29987259068E+02  0.51100000000E-03 0.  1.
        -11    1    3    3    0    0 -0.37391709503E+01 -0.13965499444E+02 -0.24098612485E+01  0.14656875711E+02  0.51100000000E-03 0. -1.
         12    1    3    3    0    0  0.11673227805E+01 -0.26332467220E+01  0.12581089866E+01  0.31431622603E+01  0.00000000000E+00 0. -1.
</event>
<event>
 7    1  0.2950722E-010  0.4778728E+02  0.7816164E-02  0.1312668E+00
        -11   -1    0    0    0    0  0.00000000000E+00  0.00000000000E+00  0.45593999997E+02  0.45594000000E+02  0.51100000000E-03 0.  1.
         11   -1    0    0    0    0 -0.00000000000E+00 -0.00000000000E+00 -0.45593999997E+02  0.45594000000E+02  0.51100000000E-03 0. -1.
    9900012    2    1    2    0    0  0.73258198918E+00 -0.32327711448E+02  0.28948314950E+02  0.47787279472E+02  0.20000038426E+02 0.  0.
        -12    1    1    2    0    0 -0.73258198918E+00  0.32327711448E+02 -0.28948314950E+02  0.43400720528E+02  0.00000000000E+00 0.  1.
         11    1    3    3    0    0  0.49485298572E+01 -0.37145580005E+01  0.17346555421E+01  0.64261122771E+01  0.51100000000E-03 0.  1.
        -11    1    3    3    0    0 -0.75296885044E+01 -0.25475277303E+02  0.22700794566E+02  0.34942982655E+02  0.51100000000E-03 0. -1.
         12    1    3    3    0    0  0.33137406364E+01 -0.31378761449E+01  0.45128648424E+01  0.64181845402E+01  0.00000000000E+00 0. -1.
</event>
<event>
 7    1  0.2950722E-010  0.4778726E+02  0.7816164E-02  0.1312668E+00
        -11   -1    0    0    0    0  0.00000000000E+00  0.00000000000E+00  0.45593999997E+02  0.45594000000E+02  0.51100000000E-03 0.  1.
         11   -1    0    0    0    0 -0.00000000000E+00 -0.00000000000E+00 -0.45593999997E+02  0.45594000000E+02  0.51100000000E-03 0. -1.
    9900012    2    1    2    0    0  0.19218917486E+02  0.29101089619E+02 -0.25833779992E+02  0.47787258128E+02  0.19999941108E+02 0.  0.
        -12    1    1    2    0    0 -0.19218917486E+02 -0.29101089619E+02  0.25833779992E+02  0.43400741872E+02  0.00000000000E+00 0.  1.
         11    1    3    3    0    0  0.11184940070E+02  0.21989824431E+02 -0.17849722619E+02  0.30451073227E+02  0.51100000000E-03 0. -1.
        -11    1    3    3    0    0  0.36887329082E+00 -0.28490749466E+00  0.24093252900E+01  0.24539943764E+01  0.51100000000E-03 0.  1.
         12    1    3    3    0    0  0.76651041252E+01  0.73961726834E+01 -0.10393382664E+02  0.14882190525E+02  0.00000000000E+00 0. -1.
</event>
<event>
 7    1  0.2950722E-010  0.4778729E+02  0.7816164E-02  0.1312668E+00
        -11   -1    0    0    0    0  0.00000000000E+00  0.00000000000E+00  0.45593999997E+02  0.45594000000E+02  0.51100000000E-03 0. -1.
         11   -1    0    0    0    0 -0.00000000000E+00 -0.00000000000E+00 -0.45593999997E+02  0.45594000000E+02  0.51100000000E-03 0.  1.
    9900012    2    1    2    0    0  0.49289558506E+01  0.15772715005E+02  0.40131638310E+02  0.47787291044E+02  0.20000091188E+02 0.  0.
        -12    1    1    2    0    0 -0.49289558506E+01 -0.15772715005E+02 -0.40131638310E+02  0.43400708956E+02  0.00000000000E+00 0.  1.
         11    1    3    3    0    0 -0.49931024457E+01  0.14122001142E+02  0.29505924802E+02  0.33090203792E+02  0.51100000000E-03 0. -1.
        -11    1    3    3    0    0  0.87208289997E+01  0.16519544975E+01  0.87083568886E+01  0.12434520178E+02  0.51100000000E-03 0.  1.
         12    1    3    3    0    0  0.12012292965E+01 -0.12406337435E-02  0.19173566189E+01  0.22625670743E+01  0.00000000000E+00 0. -1.
</event>
<event>
 7    1  0.2950722E-010  0.4778727E+02  0.7816164E-02  0.1312668E+00
        -11   -1    0    0    0    0  0.00000000000E+00  0.00000000000E+00  0.45593999997E+02  0.45594000000E+02  0.51100000000E-03 0. -1.
         11   -1    0    0    0    0 -0.00000000000E+00 -0.00000000000E+00 -0.45593999997E+02  0.45594000000E+02  0.51100000000E-03 0.  1.
    9900012    2    1    2    0    0  0.23922681077E+02  0.34393221680E+02 -0.11332907486E+02  0.47787272362E+02  0.20000006005E+02 0.  0.
        -12    1    1    2    0    0 -0.23922681077E+02 -0.34393221680E+02  0.11332907486E+02  0.43400727638E+02  0.00000000000E+00 0.  1.
         11    1    3    3    0    0 -0.10873022820E+00  0.60130965992E+01 -0.33591357844E+01  0.68886099071E+01  0.51100000000E-03 0. -1.
        -11    1    3    3    0    0  0.47090816904E+01  0.11694443063E+02  0.32370746194E+01  0.13015917227E+02  0.51100000000E-03 0.  1.
        -12    1    3    3    0    0  0.19322329615E+02  0.16685682018E+02 -0.11210846321E+02  0.27882745227E+02  0.00000000000E+00 0.  1.
</event>
<event>
 7    1  0.2950722E-010  0.4778727E+02  0.7816164E-02  0.1312668E+00
        -11   -1    0    0    0    0  0.00000000000E+00  0.00000000000E+00  0.45593999997E+02  0.45594000000E+02  0.51100000000E-03 0. -1.
         11   -1    0    0    0    0 -0.00000000000E+00 -0.00000000000E+00 -0.45593999997E+02  0.45594000000E+02  0.51100000000E-03 0.  1.
    9900012    2    1    2    0    0  0.24512088592E+02 -0.34307919619E+02  0.10283352892E+02  0.47787272098E+02  0.20000004802E+02 0.  0.
        -12    1    1    2    0    0 -0.24512088592E+02  0.34307919619E+02 -0.10283352892E+02  0.43400727902E+02  0.00000000000E+00 0.  1.
         11    1    3    3    0    0  0.58912911929E+01 -0.14852126323E+02 -0.25882860055E+01  0.16186172893E+02  0.51100000000E-03 0. -1.
        -11    1    3    3    0    0  0.16980789477E+02 -0.20370967755E+02  0.13309504835E+02  0.29672655051E+02  0.51100000000E-03 0.  1.
         12    1    3    3    0    0  0.16400079223E+01  0.91517445858E+00 -0.43786593744E+00  0.19284441537E+01  0.00000000000E+00 0. -1.
</event>
<event>
 7    1  0.2950722E-010  0.4778727E+02  0.7816164E-02  0.1312668E+00
        -11   -1    0    0    0    0  0.00000000000E+00  0.00000000000E+00  0.45593999997E+02  0.45594000000E+02  0.51100000000E-03 0. -1.
         11   -1    0    0    0    0 -0.00000000000E+00 -0.00000000000E+00 -0.45593999997E+02  0.45594000000E+02  0.51100000000E-03 0.  1.
    9900012    2    1    2    0    0 -0.17275544905E+02  0.38568552134E+02  0.98815894532E+01  0.47787268721E+02  0.19999989405E+02 0.  0.
        -12    1    1    2    0    0  0.17275544905E+02 -0.38568552134E+02 -0.98815894532E+01  0.43400731279E+02  0.00000000000E+00 0.  1.
         11    1    3    3    0    0 -0.88925399431E+01  0.13260572257E+02  0.56608708313E+01  0.16940056141E+02  0.51100000000E-03 0. -1.
        -11    1    3    3    0    0 -0.55015782332E+01  0.24481828785E+02 -0.68099040212E+00  0.25101614528E+02  0.51100000000E-03 0.  1.
        -12    1    3    3    0    0 -0.28814267282E+01  0.82615109153E+00  0.49017090240E+01  0.57455980517E+01  0.00000000000E+00 0.  1.
</event>
<event>
 7    1  0.2950722E-010  0.4778728E+02  0.7816164E-02  0.1312668E+00
        -11   -1    0    0    0    0  0.00000000000E+00  0.00000000000E+00  0.45593999997E+02  0.45594000000E+02  0.51100000000E-03 0.  1.
         11   -1    0    0    0    0 -0.00000000000E+00 -0.00000000000E+00 -0.45593999997E+02  0.45594000000E+02  0.51100000000E-03 0. -1.
    9900012    2    1    2    0    0 -0.49488807386E+01  0.15802193346E+02 -0.40117599576E+02  0.47787279604E+02  0.20000039027E+02 0.  0.
        -12    1    1    2    0    0  0.49488807386E+01 -0.15802193346E+02  0.40117599576E+02  0.43400720396E+02  0.00000000000E+00 0.  1.
         11    1    3    3    0    0 -0.63629486212E+00  0.14764455416E+02 -0.24818848612E+02  0.28885450690E+02  0.51100000000E-03 0. -1.
        -11    1    3    3    0    0  0.20008505628E+01  0.26503521136E+01 -0.98924153548E+01  0.10434924586E+02  0.51100000000E-03 0.  1.
         12    1    3    3    0    0 -0.63134364393E+01 -0.16126141839E+01 -0.54063356096E+01  0.84669043282E+01  0.00000000000E+00 0. -1.
</event>
<event>
 7    1  0.2950722E-010  0.4778728E+02  0.7816164E-02  0.1312668E+00
        -11   -1    0    0    0    0  0.00000000000E+00  0.00000000000E+00  0.45593999997E+02  0.45594000000E+02  0.51100000000E-03 0.  1.
         11   -1    0    0    0    0 -0.00000000000E+00 -0.00000000000E+00 -0.45593999997E+02  0.45594000000E+02  0.51100000000E-03 0. -1.
    9900012    2    1    2    0    0  0.15194532820E+02  0.38219264914E+02 -0.13857734678E+02  0.47787275944E+02  0.20000022339E+02 0.  0.
        -12    1    1    2    0    0 -0.15194532820E+02 -0.38219264914E+02  0.13857734678E+02  0.43400724056E+02  0.00000000000E+00 0.  1.
         11    1    3    3    0    0 -0.19606775201E+01 -0.28191644299E+00  0.64075966303E+00  0.20818997155E+01  0.51100000000E-03 0. -1.
        -11    1    3    3    0    0 -0.11612818194E+01  0.20038880853E+01  0.15248470462E+00  0.23210762092E+01  0.51100000000E-03 0.  1.
         12    1    3    3    0    0  0.18316492159E+02  0.36497293272E+02 -0.14650979046E+02  0.43384300019E+02  0.00000000000E+00 0. -1.
</event>
<event>
 7    1  0.2950722E-010  0.4778726E+02  0.7816164E-02  0.1312668E+00
        -11   -1    0    0    0    0  0.00000000000E+00  0.00000000000E+00  0.45593999997E+02  0.45594000000E+02  0.51100000000E-03 0. -1.
         11   -1    0    0    0    0 -0.00000000000E+00 -0.00000000000E+00 -0.45593999997E+02  0.45594000000E+02  0.51100000000E-03 0.  1.
    9900012    2    1    2    0    0 -0.36119609700E+02  0.14797900496E+02  0.18974190474E+02  0.47787263046E+02  0.19999963531E+02 0.  0.
        -12    1    1    2    0    0  0.36119609700E+02 -0.14797900496E+02 -0.18974190474E+02  0.43400736954E+02  0.00000000000E+00 0.  1.
         11    1    3    3    0    0 -0.15061945052E+02  0.36837921902E+01  0.16400923447E+00  0.15506753785E+02  0.51100000000E-03 0. -1.
        -11    1    3    3    0    0 -0.79413885599E+01  0.52236327425E+01  0.12537097148E+01  0.95876889602E+01  0.51100000000E-03 0.  1.
         12    1    3    3    0    0 -0.13116276088E+02  0.58904755637E+01  0.17556471525E+02  0.22692820300E+02  0.00000000000E+00 0. -1.
</event>
<event>
 7    1  0.2950722E-010  0.4778727E+02  0.7816164E-02  0.1312668E+00
        -11   -1    0    0    0    0  0.00000000000E+00  0.00000000000E+00  0.45593999997E+02  0.45594000000E+02  0.51100000000E-03 0.  1.
         11   -1    0    0    0    0 -0.00000000000E+00 -0.00000000000E+00 -0.45593999997E+02  0.45594000000E+02  0.51100000000E-03 0. -1.
    9900012    2    1    2    0    0  0.21222374426E+02  0.34497491971E+02 -0.15593495586E+02  0.47787271513E+02  0.20000002137E+02 0.  0.
        -12    1    1    2    0    0 -0.21222374426E+02 -0.34497491971E+02  0.15593495586E+02  0.43400728487E+02  0.00000000000E+00 0.  1.
         11    1    3    3    0    0  0.20437402692E+01  0.15422804813E+02 -0.29205821393E+01  0.15829389846E+02  0.51100000000E-03 0. -1.
        -11    1    3    3    0    0  0.75278453620E+01  0.21321598653E+01 -0.73115067090E+01  0.10708533611E+02  0.51100000000E-03 0.  1.
        -12    1    3    3    0    0  0.11650788795E+02  0.16942527293E+02 -0.53614067375E+01  0.21249348056E+02  0.00000000000E+00 0.  1.
</event>
<event>
 7    1  0.2950722E-010  0.4778727E+02  0.7816164E-02  0.1312668E+00
        -11   -1    0    0    0    0  0.00000000000E+00  0.00000000000E+00  0.45593999997E+02  0.45594000000E+02  0.51100000000E-03 0. -1.
         11   -1    0    0    0    0 -0.00000000000E+00 -0.00000000000E+00 -0.45593999997E+02  0.45594000000E+02  0.51100000000E-03 0.  1.
    9900012    2    1    2    0    0 -0.11406956028E+02  0.38804654072E+02  0.15738592489E+02  0.47787272852E+02  0.20000008239E+02 0.  0.
        -12    1    1    2    0    0  0.11406956028E+02 -0.38804654072E+02 -0.15738592489E+02  0.43400727148E+02  0.00000000000E+00 0.  1.
         11    1    3    3    0    0 -0.95706341150E+01  0.38408267773E+02  0.17477385245E+02  0.43269516590E+02  0.51100000000E-03 0. -1.
        -11    1    3    3    0    0  0.21432707802E+00 -0.13176361545E+01 -0.10517860507E-01  0.13349951380E+01  0.51100000000E-03 0.  1.
         12    1    3    3    0    0 -0.20506489909E+01  0.17140224536E+01 -0.17282748951E+01  0.31827611233E+01  0.00000000000E+00 0. -1.
</event>
<event>
 7    1  0.2950722E-010  0.4778727E+02  0.7816164E-02  0.1312668E+00
        -11   -1    0    0    0    0  0.00000000000E+00  0.00000000000E+00  0.45593999997E+02  0.45594000000E+02  0.51100000000E-03 0. -1.
         11   -1    0    0    0    0 -0.00000000000E+00 -0.00000000000E+00 -0.45593999997E+02  0.45594000000E+02  0.51100000000E-03 0.  1.
    9900012    2    1    2    0    0  0.82208766436E+00  0.15712874483E+02  0.40448151881E+02  0.47787271397E+02  0.20000001609E+02 0.  0.
        -12    1    1    2    0    0 -0.82208766436E+00 -0.15712874483E+02 -0.40448151881E+02  0.43400728603E+02  0.00000000000E+00 0.  1.
         11    1    3    3    0    0  0.10790865910E+01  0.10207847285E+02  0.15278789420E+02  0.18406683037E+02  0.51100000000E-03 0. -1.
        -11    1    3    3    0    0 -0.50854244115E+01  0.26588020467E+01  0.22410414489E+02  0.23133470289E+02  0.51100000000E-03 0.  1.
        -12    1    3    3    0    0  0.48284254848E+01  0.28462251516E+01  0.27589479722E+01  0.62471180707E+01  0.00000000000E+00 0.  1.
</event>
<event>
 7    1  0.2950722E-010  0.4778726E+02  0.7816164E-02  0.1312668E+00
        -11   -1    0    0    0    0  0.00000000000E+00  0.00000000000E+00  0.45593999997E+02  0.45594000000E+02  0.51100000000E-03 0. -1.
         11   -1    0    0    0    0 -0.00000000000E+00 -0.00000000000E+00 -0.45593999997E+02  0.45594000000E+02  0.51100000000E-03 0.  1.
    9900012    2    1    2    0    0 -0.21298105227E+02 -0.14239260282E+02  0.35032250583E+02  0.47787258064E+02  0.19999940817E+02 0.  0.
        -12    1    1    2    0    0  0.21298105227E+02  0.14239260282E+02 -0.35032250583E+02  0.43400741936E+02  0.00000000000E+00 0.  1.
         11    1    3    3    0    0 -0.11614243972E+02 -0.40027492653E+01  0.15642817304E+02  0.19889957220E+02  0.51100000000E-03 0. -1.
        -11    1    3    3    0    0 -0.24837561600E+01 -0.63479887654E+01 -0.38109758958E-01  0.68167043828E+01  0.51100000000E-03 0.  1.
        -12    1    3    3    0    0 -0.72001050950E+01 -0.38885222517E+01  0.19427543038E+02  0.21080596461E+02  0.00000000000E+00 0.  1.
</event>
<event>
 7    1  0.2950722E-010  0.4778728E+02  0.7816164E-02  0.1312668E+00
        -11   -1    0    0    0    0  0.00000000000E+00  0.00000000000E+00  0.45593999997E+02  0.45594000000E+02  0.51100000000E-03 0. -1.
         11   -1    0    0    0    0 -0.00000000000E+00 -0.00000000000E+00 -0.45593999997E+02  0.45594000000E+02  0.51100000000E-03 0.  1.
    9900012    2    1    2    0    0 -0.16031916347E+02  0.97290869580E+01  0.39140073186E+02  0.47787276460E+02  0.20000024691E+02 0.  0.
        -12    1    1    2    0    0  0.16031916347E+02 -0.97290869580E+01 -0.39140073186E+02  0.43400723540E+02  0.00000000000E+00 0.  1.
         11    1    3    3    0    0 -0.15606106272E+02 -0.12734513615E+01  0.22811122715E+02  0.27668023983E+02  0.51100000000E-03 0. -1.
        -11    1    3    3    0    0  0.18475050738E+01  0.53968176267E+01  0.78551586430E+01  0.97078541945E+01  0.51100000000E-03 0.  1.
         12    1    3    3    0    0 -0.22733151490E+01  0.56057206928E+01  0.84737918278E+01  0.10411398282E+02  0.00000000000E+00 0. -1.
</event>
<event>
 7    1  0.2950722E-010  0.4778727E+02  0.7816164E-02  0.1312668E+00
        -11   -1    0    0    0    0  0.00000000000E+00  0.00000000000E+00  0.45593999997E+02  0.45594000000E+02  0.51100000000E-03 0.  1.
         11   -1    0    0    0    0 -0.00000000000E+00 -0.00000000000E+00 -0.45593999997E+02  0.45594000000E+02  0.51100000000E-03 0. -1.
    9900012    2    1    2    0    0 -0.12032492682E+02 -0.39342430610E+02 -0.13820844825E+02  0.47787268691E+02  0.19999989272E+02 0.  0.
        -12    1    1    2    0    0  0.12032492682E+02  0.39342430610E+02  0.13820844825E+02  0.43400731309E+02  0.00000000000E+00 0.  1.
         11    1    3    3    0    0 -0.14180311161E+01 -0.25160375045E+01  0.29269703806E+00  0.29029172891E+01  0.51100000000E-03 0. -1.
        -11    1    3    3    0    0 -0.91934935949E+01 -0.18711412608E+02  0.15347136318E+01  0.20904368741E+02  0.51100000000E-03 0.  1.
        -12    1    3    3    0    0 -0.14209679706E+01 -0.18114980497E+02 -0.15648255495E+02  0.23979982661E+02  0.00000000000E+00 0.  1.
</event>
<event>
 7    1  0.2950722E-010  0.4778727E+02  0.7816164E-02  0.1312668E+00
        -11   -1    0    0    0    0  0.00000000000E+00  0.00000000000E+00  0.45593999997E+02  0.45594000000E+02  0.51100000000E-03 0.  1.
         11   -1    0    0    0    0 -0.00000000000E+00 -0.00000000000E+00 -0.45593999997E+02  0.45594000000E+02  0.51100000000E-03 0. -1.
    9900012    2    1    2    0    0  0.34438376327E+02  0.25944487150E+02 -0.49502460174E+01  0.47787272896E+02  0.20000008441E+02 0.  0.
        -12    1    1    2    0    0 -0.34438376327E+02 -0.25944487150E+02  0.49502460174E+01  0.43400727104E+02  0.00000000000E+00 0.  1.
         11    1    3    3    0    0  0.47081853377E+01  0.33745957962E+01 -0.36755373539E+01  0.68603557534E+01  0.51100000000E-03 0. -1.
        -11    1    3    3    0    0  0.31651267182E+02  0.21261238682E+02 -0.26582927085E+01  0.38221845912E+02  0.51100000000E-03 0.  1.
        -12    1    3    3    0    0 -0.19210761926E+01  0.13086526720E+01  0.13835840450E+01  0.27050712307E+01  0.00000000000E+00 0.  1.
</event>
<event>
 7    1  0.2950722E-010  0.4778727E+02  0.7816164E-02  0.1312668E+00
        -11   -1    0    0    0    0  0.00000000000E+00  0.00000000000E+00  0.45593999997E+02  0.45594000000E+02  0.51100000000E-03 0. -1.
         11   -1    0    0    0    0 -0.00000000000E+00 -0.00000000000E+00 -0.45593999997E+02  0.45594000000E+02  0.51100000000E-03 0.  1.
    9900012    2    1    2    0    0  0.34463550064E+02  0.89115504924E+01  0.24828832450E+02  0.47787274937E+02  0.20000017747E+02 0.  0.
        -12    1    1    2    0    0 -0.34463550064E+02 -0.89115504924E+01 -0.24828832450E+02  0.43400725063E+02  0.00000000000E+00 0.  1.
         11    1    3    3    0    0  0.23090608989E+02  0.13068727643E+02  0.18072760992E+02  0.32102843423E+02  0.51100000000E-03 0. -1.
        -11    1    3    3    0    0  0.10836183256E+02 -0.50111547078E+01  0.77777115467E+01  0.14248766130E+02  0.51100000000E-03 0.  1.
        -12    1    3    3    0    0  0.53675781876E+00  0.85397755705E+00 -0.10216400888E+01  0.14356653840E+01  0.00000000000E+00 0.  1.
</event>
<event>
 7    1  0.2950722E-010  0.4778727E+02  0.7816164E-02  0.1312668E+00
        -11   -1    0    0    0    0  0.00000000000E+00  0.00000000000E+00  0.45593999997E+02  0.45594000000E+02  0.51100000000E-03 0. -1.
         11   -1    0    0    0    0 -0.00000000000E+00 -0.00000000000E+00 -0.45593999997E+02  0.45594000000E+02  0.51100000000E-03 0.  1.
    9900012    2    1    2    0    0  0.39086568731E+02  0.58034419645E+01  0.17949473676E+02  0.47787269603E+02  0.19999993427E+02 0.  0.
        -12    1    1    2    0    0 -0.39086568731E+02 -0.58034419645E+01 -0.17949473676E+02  0.43400730397E+02  0.00000000000E+00 0.  1.
         11    1    3    3    0    0  0.16371177340E+02 -0.56877970790E+01  0.79264872053E+01  0.19057693533E+02  0.51100000000E-03 0. -1.
        -11    1    3    3    0    0  0.41675661223E+01  0.40165156046E+01  0.59901645538E+01  0.83296504506E+01  0.51100000000E-03 0.  1.
         12    1    3    3    0    0  0.18547825268E+02  0.74747234388E+01  0.40328219164E+01  0.20399925619E+02  0.00000000000E+00 0. -1.
</event>
<event>
 7    1  0.2950722E-010  0.4778727E+02  0.7816164E-02  0.1312668E+00
        -11   -1    0    0    0    0  0.00000000000E+00  0.00000000000E+00  0.45593999997E+02  0.45594000000E+02  0.51100000000E-03 0. -1.
         11   -1    0    0    0    0 -0.00000000000E+00 -0.00000000000E+00 -0.45593999997E+02  0.45594000000E+02  0.51100000000E-03 0.  1.
    9900012    2    1    2    0    0  0.16409559193E+02  0.18951392290E+02  0.35428719217E+02  0.47787273647E+02  0.20000011865E+02 0.  0.
        -12    1    1    2    0    0 -0.16409559193E+02 -0.18951392290E+02 -0.35428719217E+02  0.43400726353E+02  0.00000000000E+00 0.  1.
         11    1    3    3    0    0  0.47908918935E+01  0.18598509618E+00  0.42382813907E+01  0.63992394079E+01  0.51100000000E-03 0. -1.
        -11    1    3    3    0    0  0.22176054996E+01  0.72795359482E+01  0.90814254461E+00  0.76638202559E+01  0.51100000000E-03 0.  1.
        -12    1    3    3    0    0  0.94010617996E+01  0.11485871246E+02  0.30282295282E+02  0.33724213983E+02  0.00000000000E+00 0.  1.
</event>
<event>
 7    1  0.2950722E-010  0.4778727E+02  0.7816164E-02  0.1312668E+00
        -11   -1    0    0    0    0  0.00000000000E+00  0.00000000000E+00  0.45593999997E+02  0.45594000000E+02  0.51100000000E-03 0.  1.
         11   -1    0    0    0    0 -0.00000000000E+00 -0.00000000000E+00 -0.45593999997E+02  0.45594000000E+02  0.51100000000E-03 0. -1.
    9900012    2    1    2    0    0  0.39591049269E+02  0.17775030694E+02 -0.46947358335E+00  0.47787270700E+02  0.19999998428E+02 0.  0.
        -12    1    1    2    0    0 -0.39591049269E+02 -0.17775030694E+02  0.46947358335E+00  0.43400729300E+02  0.00000000000E+00 0.  1.
         11    1    3    3    0    0  0.76711331634E+01 -0.63775286804E+00 -0.62514365675E+01  0.99163235198E+01  0.51100000000E-03 0. -1.
        -11    1    3    3    0    0  0.30964382659E+02  0.16114888588E+02  0.50045129409E+01  0.35263689224E+02  0.51100000000E-03 0.  1.
         12    1    3    3    0    0  0.95553344619E+00  0.22978949741E+01  0.77745004326E+00  0.26072579559E+01  0.00000000000E+00 0. -1.
</event>
<event>
 7    1  0.2950722E-010  0.4778727E+02  0.7816164E-02  0.1312668E+00
        -11   -1    0    0    0    0  0.00000000000E+00  0.00000000000E+00  0.45593999997E+02  0.45594000000E+02  0.51100000000E-03 0.  1.
         11   -1    0    0    0    0 -0.00000000000E+00 -0.00000000000E+00 -0.45593999997E+02  0.45594000000E+02  0.51100000000E-03 0. -1.
    9900012    2    1    2    0    0 -0.20659846084E+00 -0.31874871749E+02 -0.29454596926E+02  0.47787269453E+02  0.19999992744E+02 0.  0.
        -12    1    1    2    0    0  0.20659846084E+00  0.31874871749E+02  0.29454596926E+02  0.43400730547E+02  0.00000000000E+00 0.  1.
         11    1    3    3    0    0 -0.32435541995E+01 -0.70715948347E+01 -0.17138140212E+02  0.18821369439E+02  0.51100000000E-03 0. -1.
        -11    1    3    3    0    0  0.18364099825E+01 -0.24311262045E+02 -0.10083690928E+02  0.26383530598E+02  0.51100000000E-03 0.  1.
        -12    1    3    3    0    0  0.12005457561E+01 -0.49201486894E+00 -0.22327657864E+01  0.25823694160E+01  0.00000000000E+00 0.  1.
</event>
<event>
 7    1  0.2950722E-010  0.4778725E+02  0.7816164E-02  0.1312668E+00
        -11   -1    0    0    0    0  0.00000000000E+00  0.00000000000E+00  0.45593999997E+02  0.45594000000E+02  0.51100000000E-03 0.  1.
         11   -1    0    0    0    0 -0.00000000000E+00 -0.00000000000E+00 -0.45593999997E+02  0.45594000000E+02  0.51100000000E-03 0. -1.
    9900012    2    1    2    0    0 -0.30069510232E+02  0.11658403890E+02 -0.29043609150E+02  0.47787250475E+02  0.19999906217E+02 0.  0.
        -12    1    1    2    0    0  0.30069510232E+02 -0.11658403890E+02  0.29043609150E+02  0.43400749525E+02  0.00000000000E+00 0.  1.
         11    1    3    3    0    0  0.51121290284E+00 -0.25117319328E+01 -0.45743943546E+00  0.26037256062E+01  0.51100000000E-03 0.  1.
        -11    1    3    3    0    0 -0.16150894787E+01  0.12536816612E-01  0.57205051427E+00  0.17134506844E+01  0.51100000000E-03 0. -1.
         12    1    3    3    0    0 -0.28965633656E+02  0.14157599006E+02 -0.29158220229E+02  0.43470074185E+02  0.00000000000E+00 0. -1.
</event>
<event>
 7    1  0.2950722E-010  0.4778727E+02  0.7816164E-02  0.1312668E+00
        -11   -1    0    0    0    0  0.00000000000E+00  0.00000000000E+00  0.45593999997E+02  0.45594000000E+02  0.51100000000E-03 0.  1.
         11   -1    0    0    0    0 -0.00000000000E+00 -0.00000000000E+00 -0.45593999997E+02  0.45594000000E+02  0.51100000000E-03 0. -1.
    9900012    2    1    2    0    0 -0.53858112010E+01  0.41758743774E+02 -0.10527274345E+02  0.47787272483E+02  0.20000006559E+02 0.  0.
        -12    1    1    2    0    0  0.53858112010E+01 -0.41758743774E+02  0.10527274345E+02  0.43400727517E+02  0.00000000000E+00 0.  1.
         11    1    3    3    0    0  0.12375129797E+01  0.10272060271E+02 -0.26854998172E+01  0.10689180049E+02  0.51100000000E-03 0. -1.
        -11    1    3    3    0    0  0.32764494792E+01  0.22214134573E+02 -0.69467098605E+01  0.23504460729E+02  0.51100000000E-03 0.  1.
        -12    1    3    3    0    0 -0.98997736599E+01  0.92725489301E+01 -0.89506466742E+00  0.13593631705E+02  0.00000000000E+00 0.  1.
</event>
<event>
 7    1  0.2950722E-010  0.4778730E+02  0.7816164E-02  0.1312668E+00
        -11   -1    0    0    0    0  0.00000000000E+00  0.00000000000E+00  0.45593999997E+02  0.45594000000E+02  0.51100000000E-03 0. -1.
         11   -1    0    0    0    0 -0.00000000000E+00 -0.00000000000E+00 -0.45593999997E+02  0.45594000000E+02  0.51100000000E-03 0.  1.
    9900012    2    1    2    0    0 -0.11203179167E+02  0.38495632842E+02  0.16619131378E+02  0.47787303011E+02  0.20000145750E+02 0.  0.
        -12    1    1    2    0    0  0.11203179167E+02 -0.38495632842E+02 -0.16619131378E+02  0.43400696989E+02  0.00000000000E+00 0.  1.
         11    1    3    3    0    0 -0.10323909130E+02  0.23887844367E+02  0.60008885252E+01  0.26706232822E+02  0.51100000000E-03 0. -1.
        -11    1    3    3    0    0 -0.51080334770E+01  0.69440559746E+01  0.84331572793E+01  0.12059438683E+02  0.51100000000E-03 0.  1.
         12    1    3    3    0    0  0.42287634402E+01  0.76637325003E+01  0.21850855737E+01  0.90216315063E+01  0.00000000000E+00 0. -1.
</event>
<event>
 7    1  0.2950722E-010  0.4778727E+02  0.7816164E-02  0.1312668E+00
        -11   -1    0    0    0    0  0.00000000000E+00  0.00000000000E+00  0.45593999997E+02  0.45594000000E+02  0.51100000000E-03 0. -1.
         11   -1    0    0    0    0 -0.00000000000E+00 -0.00000000000E+00 -0.45593999997E+02  0.45594000000E+02  0.51100000000E-03 0.  1.
    9900012    2    1    2    0    0  0.18086130131E+02  0.35586500606E+02  0.17032795335E+02  0.47787271372E+02  0.20000001492E+02 0.  0.
        -12    1    1    2    0    0 -0.18086130131E+02 -0.35586500606E+02 -0.17032795335E+02  0.43400728628E+02  0.00000000000E+00 0.  1.
         11    1    3    3    0    0 -0.86170935695E-01  0.51448079627E+00  0.51469012777E+01  0.51732686904E+01  0.51100000000E-03 0.  1.
        -11    1    3    3    0    0  0.19611981970E+02  0.32029207824E+02  0.10912481809E+02  0.39109874074E+02  0.51100000000E-03 0. -1.
        -12    1    3    3    0    0 -0.14396809031E+01  0.30428119865E+01  0.97341224879E+00  0.35041286070E+01  0.00000000000E+00 0.  1.
</event>
<event>
 7    1  0.3211374E-010  0.4778729E+02  0.7816164E-02  0.1312668E+00
        -11   -1    0    0    0    0  0.00000000000E+00  0.00000000000E+00  0.45593999997E+02  0.45594000000E+02  0.51100000000E-03 0.  1.
         11   -1    0    0    0    0 -0.00000000000E+00 -0.00000000000E+00 -0.45593999997E+02  0.45594000000E+02  0.51100000000E-03 0. -1.
    9900012    2    1    2    0    0 -0.35685026083E+01 -0.38266414651E+02  0.20163552569E+02  0.47787290867E+02  0.20000090377E+02 0.  0.
        -12    1    1    2    0    0  0.35685026083E+01  0.38266414651E+02 -0.20163552569E+02  0.43400709133E+02  0.00000000000E+00 0.  1.
         11    1    3    3    0    0 -0.37411416114E+01 -0.13059441926E+00  0.16512145878E+01  0.40914184991E+01  0.51100000000E-03 0. -1.
        -11    1    3    3    0    0  0.18373862254E+01 -0.10188543342E+01 -0.17215043482E+00  0.21080057706E+01  0.51100000000E-03 0.  1.
         12    1    3    3    0    0 -0.16647472224E+01 -0.37116965897E+02  0.18684488416E+02  0.41587866597E+02  0.00000000000E+00 0. -1.
</event>
<event>
 7    1  0.2950722E-010  0.4778728E+02  0.7816164E-02  0.1312668E+00
        -11   -1    0    0    0    0  0.00000000000E+00  0.00000000000E+00  0.45593999997E+02  0.45594000000E+02  0.51100000000E-03 0. -1.
         11   -1    0    0    0    0 -0.00000000000E+00 -0.00000000000E+00 -0.45593999997E+02  0.45594000000E+02  0.51100000000E-03 0.  1.
    9900012    2    1    2    0    0  0.33162079488E+02 -0.12554809647E+01  0.27970035832E+02  0.47787278199E+02  0.20000032618E+02 0.  0.
        -12    1    1    2    0    0 -0.33162079488E+02  0.12554809647E+01 -0.27970035832E+02  0.43400721801E+02  0.00000000000E+00 0.  1.
         11    1    3    3    0    0  0.15882452621E+02 -0.82699834010E+01  0.19539315912E+02  0.26503392109E+02  0.51100000000E-03 0. -1.
        -11    1    3    3    0    0  0.86595445217E+01  0.65963313269E+01  0.52565553083E+01  0.12088452021E+02  0.51100000000E-03 0.  1.
         12    1    3    3    0    0  0.86200823460E+01  0.41817110933E+00  0.31741646118E+01  0.91954340687E+01  0.00000000000E+00 0. -1.
</event>
<event>
 7    1  0.2950722E-010  0.4778727E+02  0.7816164E-02  0.1312668E+00
        -11   -1    0    0    0    0  0.00000000000E+00  0.00000000000E+00  0.45593999997E+02  0.45594000000E+02  0.51100000000E-03 0.  1.
         11   -1    0    0    0    0 -0.00000000000E+00 -0.00000000000E+00 -0.45593999997E+02  0.45594000000E+02  0.51100000000E-03 0. -1.
    9900012    2    1    2    0    0 -0.31984240419E+00  0.38886185006E+02 -0.19271365316E+02  0.47787271842E+02  0.20000003635E+02 0.  0.
        -12    1    1    2    0    0  0.31984240419E+00 -0.38886185006E+02  0.19271365316E+02  0.43400728158E+02  0.00000000000E+00 0.  1.
         11    1    3    3    0    0 -0.16435195202E+00  0.81502209522E+01  0.31558884061E+01  0.87414383843E+01  0.51100000000E-03 0.  1.
        -11    1    3    3    0    0  0.73643737632E+00  0.18587013514E+02 -0.18529743295E+02  0.26255871690E+02  0.51100000000E-03 0. -1.
         12    1    3    3    0    0 -0.89192782849E+00  0.12148950540E+02 -0.38975104274E+01  0.12789961768E+02  0.00000000000E+00 0. -1.
</event>
<event>
 7    1  0.2950722E-010  0.4778727E+02  0.7816164E-02  0.1312668E+00
        -11   -1    0    0    0    0  0.00000000000E+00  0.00000000000E+00  0.45593999997E+02  0.45594000000E+02  0.51100000000E-03 0. -1.
         11   -1    0    0    0    0 -0.00000000000E+00 -0.00000000000E+00 -0.45593999997E+02  0.45594000000E+02  0.51100000000E-03 0.  1.
    9900012    2    1    2    0    0 -0.37507432049E+02 -0.99190618159E+01 -0.19453238537E+02  0.47787265723E+02  0.19999975737E+02 0.  0.
        -12    1    1    2    0    0  0.37507432049E+02  0.99190618159E+01  0.19453238537E+02  0.43400734277E+02  0.00000000000E+00 0.  1.
         11    1    3    3    0    0 -0.15876240533E+02 -0.15132332251E+01 -0.44648223008E+01  0.16561386618E+02  0.51100000000E-03 0. -1.
        -11    1    3    3    0    0  0.14947730322E+01  0.12136569919E+01 -0.27285875073E+01  0.33395358597E+01  0.51100000000E-03 0.  1.
        -12    1    3    3    0    0 -0.23125964548E+02 -0.96194855827E+01 -0.12259828728E+02  0.27886343245E+02  0.00000000000E+00 0.  1.
</event>
<event>
 7    1  0.2950722E-010  0.4778727E+02  0.7816164E-02  0.1312668E+00
        -11   -1    0    0    0    0  0.00000000000E+00  0.00000000000E+00  0.45593999997E+02  0.45594000000E+02  0.51100000000E-03 0.  1.
         11   -1    0    0    0    0 -0.00000000000E+00 -0.00000000000E+00 -0.45593999997E+02  0.45594000000E+02  0.51100000000E-03 0. -1.
    9900012    2    1    2    0    0 -0.54245481588E+01  0.39940192094E+02 -0.16092814371E+02  0.47787270264E+02  0.19999996442E+02 0.  0.
        -12    1    1    2    0    0  0.54245481588E+01 -0.39940192094E+02  0.16092814371E+02  0.43400729736E+02  0.00000000000E+00 0.  1.
         11    1    3    3    0    0 -0.41578580146E+01  0.34536392743E+02 -0.72809999623E+01  0.35539599993E+02  0.51100000000E-03 0. -1.
        -11    1    3    3    0    0  0.20024216200E+01 -0.16866515898E+00 -0.25911208513E+01  0.32790315349E+01  0.51100000000E-03 0.  1.
         12    1    3    3    0    0 -0.32691117641E+01  0.55724645106E+01 -0.62206935571E+01  0.89686387361E+01  0.00000000000E+00 0. -1.
</event>
<event>
 7    1  0.2950722E-010  0.4778727E+02  0.7816164E-02  0.1312668E+00
        -11   -1    0    0    0    0  0.00000000000E+00  0.00000000000E+00  0.45593999997E+02  0.45594000000E+02  0.51100000000E-03 0. -1.
         11   -1    0    0    0    0 -0.00000000000E+00 -0.00000000000E+00 -0.45593999997E+02  0.45594000000E+02  0.51100000000E-03 0.  1.
    9900012    2    1    2    0    0 -0.22994044200E+01  0.26760340081E+02  0.34091350513E+02  0.47787271414E+02  0.20000001686E+02 0.  0.
        -12    1    1    2    0    0  0.22994044200E+01 -0.26760340081E+02 -0.34091350513E+02  0.43400728586E+02  0.00000000000E+00 0.  1.
         11    1    3    3    0    0  0.63141175775E+00  0.14857608085E+02  0.23721793457E+02  0.27997690688E+02  0.51100000000E-03 0. -1.
        -11    1    3    3    0    0 -0.10888297516E+01 -0.16241498456E+01 -0.83731967137E+00  0.21270913103E+01  0.51100000000E-03 0.  1.
        -12    1    3    3    0    0 -0.18419864262E+01  0.13526881842E+02  0.11206876728E+02  0.17662489415E+02  0.00000000000E+00 0.  1.
</event>
<event>
 7    1  0.2950722E-010  0.4778728E+02  0.7816164E-02  0.1312668E+00
        -11   -1    0    0    0    0  0.00000000000E+00  0.00000000000E+00  0.45593999997E+02  0.45594000000E+02  0.51100000000E-03 0.  1.
         11   -1    0    0    0    0 -0.00000000000E+00 -0.00000000000E+00 -0.45593999997E+02  0.45594000000E+02  0.51100000000E-03 0. -1.
    9900012    2    1    2    0    0  0.15595708749E+02  0.23138933558E+02 -0.33241337794E+02  0.47787275168E+02  0.20000018799E+02 0.  0.
        -12    1    1    2    0    0 -0.15595708749E+02 -0.23138933558E+02  0.33241337794E+02  0.43400724832E+02  0.00000000000E+00 0.  1.
         11    1    3    3    0    0  0.13962942813E+02  0.40408344769E+01 -0.15477858095E+02  0.21233374832E+02  0.51100000000E-03 0.  1.
        -11    1    3    3    0    0 -0.31229449900E+00  0.97111978486E+01 -0.61669931103E+01  0.11508114346E+02  0.51100000000E-03 0. -1.
        -12    1    3    3    0    0  0.19450604354E+01  0.93869012329E+01 -0.11596486589E+02  0.15045785990E+02  0.00000000000E+00 0.  1.
</event>
<event>
 7    1  0.2950722E-010  0.4778727E+02  0.7816164E-02  0.1312668E+00
        -11   -1    0    0    0    0  0.00000000000E+00  0.00000000000E+00  0.45593999997E+02  0.45594000000E+02  0.51100000000E-03 0.  1.
         11   -1    0    0    0    0 -0.00000000000E+00 -0.00000000000E+00 -0.45593999997E+02  0.45594000000E+02  0.51100000000E-03 0. -1.
    9900012    2    1    2    0    0  0.26129065522E+02 -0.17894803761E+01 -0.34607700975E+02  0.47787271068E+02  0.20000000107E+02 0.  0.
        -12    1    1    2    0    0 -0.26129065522E+02  0.17894803761E+01  0.34607700975E+02  0.43400728932E+02  0.00000000000E+00 0.  1.
         11    1    3    3    0    0  0.12346196783E+02 -0.26316817327E+01 -0.25246167005E+02  0.28226286905E+02  0.51100000000E-03 0. -1.
        -11    1    3    3    0    0  0.60678802154E+01 -0.36152126514E+01 -0.63886903104E+00  0.70920439031E+01  0.51100000000E-03 0.  1.
        -12    1    3    3    0    0  0.77149885245E+01  0.44574140080E+01 -0.87226649390E+01  0.12468940260E+02  0.00000000000E+00 0.  1.
</event>
<event>
 7    1  0.2950722E-010  0.4778727E+02  0.7816164E-02  0.1312668E+00
        -11   -1    0    0    0    0  0.00000000000E+00  0.00000000000E+00  0.45593999997E+02  0.45594000000E+02  0.51100000000E-03 0.  1.
         11   -1    0    0    0    0 -0.00000000000E+00 -0.00000000000E+00 -0.45593999997E+02  0.45594000000E+02  0.51100000000E-03 0. -1.
    9900012    2    1    2    0    0  0.11820455597E+02 -0.39095597520E+02 -0.14677679484E+02  0.47787271999E+02  0.20000004353E+02 0.  0.
        -12    1    1    2    0    0 -0.11820455597E+02  0.39095597520E+02  0.14677679484E+02  0.43400728001E+02  0.00000000000E+00 0.  1.
         11    1    3    3    0    0 -0.39411867037E+01 -0.40644460123E+01 -0.41988419315E+01  0.70486131861E+01  0.51100000000E-03 0. -1.
        -11    1    3    3    0    0  0.12763324102E+02 -0.19417004553E+02 -0.83807494075E+01  0.24701406212E+02  0.51100000000E-03 0.  1.
         12    1    3    3    0    0  0.29983181983E+01 -0.15614146954E+02 -0.20980881453E+01  0.16037252601E+02  0.00000000000E+00 0. -1.
</event>
<event>
 7    1  0.2950722E-010  0.4778726E+02  0.7816164E-02  0.1312668E+00
        -11   -1    0    0    0    0  0.00000000000E+00  0.00000000000E+00  0.45593999997E+02  0.45594000000E+02  0.51100000000E-03 0.  1.
         11   -1    0    0    0    0 -0.00000000000E+00 -0.00000000000E+00 -0.45593999997E+02  0.45594000000E+02  0.51100000000E-03 0. -1.
    9900012    2    1    2    0    0 -0.30171189595E+02 -0.30757202916E+02  0.52266253862E+01  0.47787264687E+02  0.19999971014E+02 0.  0.
        -12    1    1    2    0    0  0.30171189595E+02  0.30757202916E+02 -0.52266253862E+01  0.43400735313E+02  0.00000000000E+00 0.  1.
         11    1    3    3    0    0 -0.15674085916E+02 -0.20154071332E+02 -0.24196888665E+01  0.25646022207E+02  0.51100000000E-03 0. -1.
        -11    1    3    3    0    0 -0.83157995784E+01 -0.29583839779E+01  0.85247870613E+01  0.12270963821E+02  0.51100000000E-03 0.  1.
        -12    1    3    3    0    0 -0.61813040998E+01 -0.76447476061E+01 -0.87847280869E+00  0.98702786593E+01  0.00000000000E+00 0.  1.
</event>
<event>
 7    1  0.2950722E-010  0.4778727E+02  0.7816164E-02  0.1312668E+00
        -11   -1    0    0    0    0  0.00000000000E+00  0.00000000000E+00  0.45593999997E+02  0.45594000000E+02  0.51100000000E-03 0.  1.
         11   -1    0    0    0    0 -0.00000000000E+00 -0.00000000000E+00 -0.45593999997E+02  0.45594000000E+02  0.51100000000E-03 0. -1.
    9900012    2    1    2    0    0 -0.11481672547E+02 -0.15716693985E+02 -0.38791492705E+02  0.47787272120E+02  0.20000004902E+02 0.  0.
        -12    1    1    2    0    0  0.11481672547E+02  0.15716693985E+02  0.38791492705E+02  0.43400727880E+02  0.00000000000E+00 0.  1.
         11    1    3    3    0    0 -0.52848767574E+01 -0.17393411842E+02 -0.18926985639E+02  0.26242932068E+02  0.51100000000E-03 0. -1.
        -11    1    3    3    0    0 -0.68252905649E+01  0.82147114390E+00 -0.18895442363E+02  0.20107141728E+02  0.51100000000E-03 0.  1.
        -12    1    3    3    0    0  0.62849477489E+00  0.85524671365E+00 -0.96906470301E+00  0.14371983238E+01  0.00000000000E+00 0.  1.
</event>
<event>
 7    1  0.2950722E-010  0.4778727E+02  0.7816164E-02  0.1312668E+00
        -11   -1    0    0    0    0  0.00000000000E+00  0.00000000000E+00  0.45593999997E+02  0.45594000000E+02  0.51100000000E-03 0.  1.
         11   -1    0    0    0    0 -0.00000000000E+00 -0.00000000000E+00 -0.45593999997E+02  0.45594000000E+02  0.51100000000E-03 0. -1.
    9900012    2    1    2    0    0 -0.59431840517E+01  0.12122156759E+02 -0.41247486121E+02  0.47787271522E+02  0.20000002176E+02 0.  0.
        -12    1    1    2    0    0  0.59431840517E+01 -0.12122156759E+02  0.41247486121E+02  0.43400728478E+02  0.00000000000E+00 0.  1.
         11    1    3    3    0    0 -0.10301095948E+02  0.97713476218E+01 -0.27577238239E+02  0.31017670467E+02  0.51100000000E-03 0. -1.
        -11    1    3    3    0    0  0.60556708221E+01  0.34886579794E+00 -0.12503357689E+02  0.13897007239E+02  0.51100000000E-03 0.  1.
        -12    1    3    3    0    0 -0.16977589261E+01  0.20019433393E+01 -0.11668901937E+01  0.28725938155E+01  0.00000000000E+00 0.  1.
</event>
<event>
 7    1  0.2950722E-010  0.4778727E+02  0.7816164E-02  0.1312668E+00
        -11   -1    0    0    0    0  0.00000000000E+00  0.00000000000E+00  0.45593999997E+02  0.45594000000E+02  0.51100000000E-03 0.  1.
         11   -1    0    0    0    0 -0.00000000000E+00 -0.00000000000E+00 -0.45593999997E+02  0.45594000000E+02  0.51100000000E-03 0. -1.
    9900012    2    1    2    0    0 -0.21573877211E+02 -0.34703954331E+02 -0.14622816107E+02  0.47787269879E+02  0.19999994687E+02 0.  0.
        -12    1    1    2    0    0  0.21573877211E+02  0.34703954331E+02  0.14622816107E+02  0.43400730121E+02  0.00000000000E+00 0.  1.
         11    1    3    3    0    0 -0.13937769810E+02 -0.15486184708E+02 -0.92094049172E+00  0.20855010807E+02  0.51100000000E-03 0. -1.
        -11    1    3    3    0    0 -0.12646684662E+01 -0.15997315409E+02 -0.94868277019E+01  0.18641710939E+02  0.51100000000E-03 0.  1.
         12    1    3    3    0    0 -0.63714389345E+01 -0.32204542136E+01 -0.42150479138E+01  0.82905481335E+01  0.00000000000E+00 0. -1.
</event>
<event>
 7    1  0.2950722E-010  0.4778730E+02  0.7816164E-02  0.1312668E+00
        -11   -1    0    0    0    0  0.00000000000E+00  0.00000000000E+00  0.45593999997E+02  0.45594000000E+02  0.51100000000E-03 0. -1.
         11   -1    0    0    0    0 -0.00000000000E+00 -0.00000000000E+00 -0.45593999997E+02  0.45594000000E+02  0.51100000000E-03 0.  1.
    9900012    2    1    2    0    0  0.28099589572E+02  0.29781910389E+02 -0.14389984061E+02  0.47787299985E+02  0.20000131951E+02 0.  0.
        -12    1    1    2    0    0 -0.28099589572E+02 -0.29781910389E+02  0.14389984061E+02  0.43400700015E+02  0.00000000000E+00 0.  1.
         11    1    3    3    0    0  0.14007005603E+02  0.14500305202E+02 -0.10461977413E+01  0.20187857413E+02  0.51100000000E-03 0. -1.
        -11    1    3    3    0    0  0.23161984761E+00  0.10448585364E+01 -0.64946839005E+01  0.65822713666E+01  0.51100000000E-03 0.  1.
        -12    1    3    3    0    0  0.13860964121E+02  0.14236746650E+02 -0.68491024187E+01  0.21017171206E+02  0.00000000000E+00 0.  1.
</event>
<event>
 7    1  0.2950722E-010  0.4778727E+02  0.7816164E-02  0.1312668E+00
        -11   -1    0    0    0    0  0.00000000000E+00  0.00000000000E+00  0.45593999997E+02  0.45594000000E+02  0.51100000000E-03 0. -1.
         11   -1    0    0    0    0 -0.00000000000E+00 -0.00000000000E+00 -0.45593999997E+02  0.45594000000E+02  0.51100000000E-03 0.  1.
    9900012    2    1    2    0    0 -0.27280301662E+02 -0.32649681240E+02  0.85677728305E+01  0.47787271030E+02  0.19999999933E+02 0.  0.
        -12    1    1    2    0    0  0.27280301662E+02  0.32649681240E+02 -0.85677728305E+01  0.43400728970E+02  0.00000000000E+00 0.  1.
         11    1    3    3    0    0 -0.14414816532E+02 -0.68549843962E+01  0.12532575580E+01  0.16010883845E+02  0.51100000000E-03 0. -1.
        -11    1    3    3    0    0 -0.75554097902E+01 -0.44667273160E+01  0.35954746421E+01  0.94848989545E+01  0.51100000000E-03 0.  1.
         12    1    3    3    0    0 -0.53100753397E+01 -0.21327969528E+02  0.37190406304E+01  0.22291488230E+02  0.00000000000E+00 0. -1.
</event>
<event>
 7    1  0.2950722E-010  0.4778727E+02  0.7816164E-02  0.1312668E+00
        -11   -1    0    0    0    0  0.00000000000E+00  0.00000000000E+00  0.45593999997E+02  0.45594000000E+02  0.51100000000E-03 0.  1.
         11   -1    0    0    0    0 -0.00000000000E+00 -0.00000000000E+00 -0.45593999997E+02  0.45594000000E+02  0.51100000000E-03 0. -1.
    9900012    2    1    2    0    0  0.39542284153E+02  0.11225430174E+02 -0.13929126869E+02  0.47787273117E+02  0.20000009450E+02 0.  0.
        -12    1    1    2    0    0 -0.39542284153E+02 -0.11225430174E+02  0.13929126869E+02  0.43400726883E+02  0.00000000000E+00 0.  1.
         11    1    3    3    0    0  0.35659091003E+02  0.83882816598E+01 -0.92676623027E+01  0.37786553233E+02  0.51100000000E-03 0. -1.
        -11    1    3    3    0    0 -0.90425899542E-01  0.27424301799E+01 -0.53065247895E+01  0.59739690104E+01  0.51100000000E-03 0.  1.
         12    1    3    3    0    0  0.39736190490E+01  0.94718334484E-01  0.64506022270E+00  0.40267508739E+01  0.00000000000E+00 0. -1.
</event>
<event>
 7    1  0.2950722E-010  0.4778727E+02  0.7816164E-02  0.1312668E+00
        -11   -1    0    0    0    0  0.00000000000E+00  0.00000000000E+00  0.45593999997E+02  0.45594000000E+02  0.51100000000E-03 0.  1.
         11   -1    0    0    0    0 -0.00000000000E+00 -0.00000000000E+00 -0.45593999997E+02  0.45594000000E+02  0.51100000000E-03 0. -1.
    9900012    2    1    2    0    0 -0.47598550768E+01 -0.57639871009E+01 -0.42752118089E+02  0.47787269952E+02  0.19999995018E+02 0.  0.
        -12    1    1    2    0    0  0.47598550768E+01  0.57639871009E+01  0.42752118089E+02  0.43400730048E+02  0.00000000000E+00 0.  1.
         11    1    3    3    0    0 -0.13295255057E+01  0.13939077912E+01  0.66342549472E+00  0.20373391099E+01  0.51100000000E-03 0.  1.
        -11    1    3    3    0    0 -0.48407529274E+01  0.22733864107E+00 -0.66790933743E+01  0.82519609988E+01  0.51100000000E-03 0. -1.
         12    1    3    3    0    0  0.14104233564E+01 -0.73852335332E+01 -0.36736450209E+02  0.37497969843E+02  0.00000000000E+00 0. -1.
</event>
<event>
 7    1  0.2950722E-010  0.4778727E+02  0.7816164E-02  0.1312668E+00
        -11   -1    0    0    0    0  0.00000000000E+00  0.00000000000E+00  0.45593999997E+02  0.45594000000E+02  0.51100000000E-03 0. -1.
         11   -1    0    0    0    0 -0.00000000000E+00 -0.00000000000E+00 -0.45593999997E+02  0.45594000000E+02  0.51100000000E-03 0.  1.
    9900012    2    1    2    0    0 -0.15761968210E+02  0.24413366537E+02  0.32236174724E+02  0.47787273412E+02  0.20000010797E+02 0.  0.
        -12    1    1    2    0    0  0.15761968210E+02 -0.24413366537E+02 -0.32236174724E+02  0.43400726588E+02  0.00000000000E+00 0.  1.
         11    1    3    3    0    0 -0.98000916416E+00  0.83541652005E+01  0.20114677901E+02  0.21802586119E+02  0.51100000000E-03 0. -1.
        -11    1    3    3    0    0 -0.12112549784E+02  0.16194995281E+02  0.99385175132E+01  0.22533660711E+02  0.51100000000E-03 0.  1.
         12    1    3    3    0    0 -0.26694092627E+01 -0.13579394495E+00  0.21829793091E+01  0.34510265822E+01  0.00000000000E+00 0. -1.
</event>
<event>
 7    1  0.2950722E-010  0.4778727E+02  0.7816164E-02  0.1312668E+00
        -11   -1    0    0    0    0  0.00000000000E+00  0.00000000000E+00  0.45593999997E+02  0.45594000000E+02  0.51100000000E-03 0.  1.
         11   -1    0    0    0    0 -0.00000000000E+00 -0.00000000000E+00 -0.45593999997E+02  0.45594000000E+02  0.51100000000E-03 0. -1.
    9900012    2    1    2    0    0  0.15059819160E+02  0.13562300792E+02 -0.38378236996E+02  0.47787271540E+02  0.20000002261E+02 0.  0.
        -12    1    1    2    0    0 -0.15059819160E+02 -0.13562300792E+02  0.38378236996E+02  0.43400728460E+02  0.00000000000E+00 0.  1.
         11    1    3    3    0    0 -0.10998006652E+01 -0.16844455887E+01 -0.65594140845E+01  0.68609643518E+01  0.51100000000E-03 0. -1.
        -11    1    3    3    0    0  0.83921096704E+01  0.15759285376E+02 -0.20445290219E+02  0.27143921468E+02  0.51100000000E-03 0.  1.
        -12    1    3    3    0    0  0.77675101552E+01 -0.51253899525E+00 -0.11373532693E+02  0.13782385720E+02  0.00000000000E+00 0.  1.
</event>
<event>
 7    1  0.2950722E-010  0.4778726E+02  0.7816164E-02  0.1312668E+00
        -11   -1    0    0    0    0  0.00000000000E+00  0.00000000000E+00  0.45593999997E+02  0.45594000000E+02  0.51100000000E-03 0.  1.
         11   -1    0    0    0    0 -0.00000000000E+00 -0.00000000000E+00 -0.45593999997E+02  0.45594000000E+02  0.51100000000E-03 0. -1.
    9900012    2    1    2    0    0 -0.22344770949E+02 -0.29678475629E+02 -0.22439328934E+02  0.47787260519E+02  0.19999952012E+02 0.  0.
        -12    1    1    2    0    0  0.22344770949E+02  0.29678475629E+02  0.22439328934E+02  0.43400739481E+02  0.00000000000E+00 0.  1.
         11    1    3    3    0    0 -0.67715132063E+01  0.65166334259E+00 -0.39251464110E+01  0.78539691127E+01  0.51100000000E-03 0. -1.
        -11    1    3    3    0    0 -0.11915694168E+02 -0.13138739981E+02 -0.80558403222E+01  0.19480934766E+02  0.51100000000E-03 0.  1.
         12    1    3    3    0    0 -0.36575635748E+01 -0.17191398990E+02 -0.10458342201E+02  0.20452356640E+02  0.00000000000E+00 0. -1.
</event>
<event>
 7    1  0.2950722E-010  0.4778727E+02  0.7816164E-02  0.1312668E+00
        -11   -1    0    0    0    0  0.00000000000E+00  0.00000000000E+00  0.45593999997E+02  0.45594000000E+02  0.51100000000E-03 0. -1.
         11   -1    0    0    0    0 -0.00000000000E+00 -0.00000000000E+00 -0.45593999997E+02  0.45594000000E+02  0.51100000000E-03 0.  1.
    9900012    2    1    2    0    0 -0.15940838580E+02 -0.20256322299E+02  0.34916960384E+02  0.47787273622E+02  0.20000011750E+02 0.  0.
        -12    1    1    2    0    0  0.15940838580E+02  0.20256322299E+02 -0.34916960384E+02  0.43400726378E+02  0.00000000000E+00 0.  1.
         11    1    3    3    0    0 -0.93524829552E+01  0.18686602584E+00  0.78423464168E+01  0.12206811784E+02  0.51100000000E-03 0. -1.
        -11    1    3    3    0    0 -0.21108589140E+01 -0.89339263094E+01  0.54440649911E+01  0.10672797597E+02  0.51100000000E-03 0.  1.
         12    1    3    3    0    0 -0.44774967105E+01 -0.11509262015E+02  0.21630548976E+02  0.24907664241E+02  0.00000000000E+00 0. -1.
</event>
<event>
 7    1  0.2950722E-010  0.4778727E+02  0.7816164E-02  0.1312668E+00
        -11   -1    0    0    0    0  0.00000000000E+00  0.00000000000E+00  0.45593999997E+02  0.45594000000E+02  0.51100000000E-03 0. -1.
         11   -1    0    0    0    0 -0.00000000000E+00 -0.00000000000E+00 -0.45593999997E+02  0.45594000000E+02  0.51100000000E-03 0.  1.
    9900012    2    1    2    0    0  0.34866816178E+01  0.10989251070E+02  0.41841398825E+02  0.47787271395E+02  0.20000001599E+02 0.  0.
        -12    1    1    2    0    0 -0.34866816178E+01 -0.10989251070E+02 -0.41841398825E+02  0.43400728605E+02  0.00000000000E+00 0.  1.
         11    1    3    3    0    0 -0.87226180677E+00  0.46740726657E+01  0.17636579210E+02  0.18266272811E+02  0.51100000000E-03 0. -1.
        -11    1    3    3    0    0  0.92131931449E+01  0.29794401888E+01  0.90176387956E+01  0.13231696848E+02  0.51100000000E-03 0.  1.
        -12    1    3    3    0    0 -0.48542497203E+01  0.33357382156E+01  0.15187180820E+02  0.16289301736E+02  0.00000000000E+00 0.  1.
</event>
<event>
 7    1  0.2950722E-010  0.4778728E+02  0.7816164E-02  0.1312668E+00
        -11   -1    0    0    0    0  0.00000000000E+00  0.00000000000E+00  0.45593999997E+02  0.45594000000E+02  0.51100000000E-03 0. -1.
         11   -1    0    0    0    0 -0.00000000000E+00 -0.00000000000E+00 -0.45593999997E+02  0.45594000000E+02  0.51100000000E-03 0.  1.
    9900012    2    1    2    0    0 -0.96765932936E+01 -0.31649825932E+02  0.28076228212E+02  0.47787279616E+02  0.20000039080E+02 0.  0.
        -12    1    1    2    0    0  0.96765932936E+01  0.31649825932E+02 -0.28076228212E+02  0.43400720384E+02  0.00000000000E+00 0.  1.
         11    1    3    3    0    0 -0.14696978570E+01 -0.20186709349E+02  0.23647156644E+02  0.31126375693E+02  0.51100000000E-03 0. -1.
        -11    1    3    3    0    0  0.12155073592E+01 -0.83157926930E+00  0.16023901684E+01  0.21763815691E+01  0.51100000000E-03 0.  1.
         12    1    3    3    0    0 -0.94224027959E+01 -0.10631537313E+02  0.28266813990E+01  0.14484522354E+02  0.00000000000E+00 0. -1.
</event>
<event>
 7    1  0.2950722E-010  0.4778727E+02  0.7816164E-02  0.1312668E+00
        -11   -1    0    0    0    0  0.00000000000E+00  0.00000000000E+00  0.45593999997E+02  0.45594000000E+02  0.51100000000E-03 0.  1.
         11   -1    0    0    0    0 -0.00000000000E+00 -0.00000000000E+00 -0.45593999997E+02  0.45594000000E+02  0.51100000000E-03 0. -1.
    9900012    2    1    2    0    0  0.14442744908E+02 -0.38254455649E+02  0.14547419261E+02  0.47787266542E+02  0.19999979473E+02 0.  0.
        -12    1    1    2    0    0 -0.14442744908E+02  0.38254455649E+02 -0.14547419261E+02  0.43400733458E+02  0.00000000000E+00 0.  1.
         11    1    3    3    0    0  0.12050448758E+01 -0.27010824574E+02  0.12631083596E+02  0.29842604618E+02  0.51100000000E-03 0. -1.
        -11    1    3    3    0    0  0.67077678673E+01 -0.31687784323E+01  0.21676932361E+00  0.74217447892E+01  0.51100000000E-03 0.  1.
         12    1    3    3    0    0  0.65299321649E+01 -0.80748526429E+01  0.16995663412E+01  0.10522917135E+02  0.00000000000E+00 0. -1.
</event>
<event>
 7    1  0.2950722E-010  0.4778727E+02  0.7816164E-02  0.1312668E+00
        -11   -1    0    0    0    0  0.00000000000E+00  0.00000000000E+00  0.45593999997E+02  0.45594000000E+02  0.51100000000E-03 0.  1.
         11   -1    0    0    0    0 -0.00000000000E+00 -0.00000000000E+00 -0.45593999997E+02  0.45594000000E+02  0.51100000000E-03 0. -1.
    9900012    2    1    2    0    0 -0.18122532808E+02  0.69132582135E+01 -0.38825302295E+02  0.47787269214E+02  0.19999991653E+02 0.  0.
        -12    1    1    2    0    0  0.18122532808E+02 -0.69132582135E+01  0.38825302295E+02  0.43400730786E+02  0.00000000000E+00 0.  1.
         11    1    3    3    0    0 -0.10578296643E+02  0.11551393000E+02 -0.16659686063E+02  0.22866573422E+02  0.51100000000E-03 0. -1.
        -11    1    3    3    0    0 -0.41511381216E+01 -0.58027676425E+01 -0.10337848867E+02  0.12560859026E+02  0.51100000000E-03 0.  1.
        -12    1    3    3    0    0 -0.33930980437E+01  0.11646328558E+01 -0.11827767365E+02  0.12359836765E+02  0.00000000000E+00 0.  1.
</event>
<event>
 7    1  0.2950722E-010  0.4778726E+02  0.7816164E-02  0.1312668E+00
        -11   -1    0    0    0    0  0.00000000000E+00  0.00000000000E+00  0.45593999997E+02  0.45594000000E+02  0.51100000000E-03 0.  1.
         11   -1    0    0    0    0 -0.00000000000E+00 -0.00000000000E+00 -0.45593999997E+02  0.45594000000E+02  0.51100000000E-03 0. -1.
    9900012    2    1    2    0    0  0.72707165724E+01  0.36140532041E+02 -0.22904644469E+02  0.47787261366E+02  0.19999955873E+02 0.  0.
        -12    1    1    2    0    0 -0.72707165724E+01 -0.36140532041E+02  0.22904644469E+02  0.43400738634E+02  0.00000000000E+00 0.  1.
         11    1    3    3    0    0  0.12132634756E+02  0.17720439769E+02 -0.97555570802E+01  0.23587829614E+02  0.51100000000E-03 0. -1.
        -11    1    3    3    0    0  0.87478361979E+00  0.17092067370E+01  0.36628389571E+00  0.19546862165E+01  0.51100000000E-03 0.  1.
         12    1    3    3    0    0 -0.57367018032E+01  0.16710885536E+02 -0.13515371285E+02  0.22244745535E+02  0.00000000000E+00 0. -1.
</event>
<event>
 7    1  0.2950722E-010  0.4778728E+02  0.7816164E-02  0.1312668E+00
        -11   -1    0    0    0    0  0.00000000000E+00  0.00000000000E+00  0.45593999997E+02  0.45594000000E+02  0.51100000000E-03 0.  1.
         11   -1    0    0    0    0 -0.00000000000E+00 -0.00000000000E+00 -0.45593999997E+02  0.45594000000E+02  0.51100000000E-03 0. -1.
    9900012    2    1    2    0    0 -0.13367956231E+02  0.28507804054E+02 -0.29870143513E+02  0.47787278586E+02  0.20000034384E+02 0.  0.
        -12    1    1    2    0    0  0.13367956231E+02 -0.28507804054E+02  0.29870143513E+02  0.43400721414E+02  0.00000000000E+00 0.  1.
         11    1    3    3    0    0 -0.68248012612E+01  0.15817691542E+02 -0.61728766623E+01  0.18299772800E+02  0.51100000000E-03 0. -1.
        -11    1    3    3    0    0 -0.69207574266E+01  0.56905015685E+01 -0.19121070576E+02  0.21116203061E+02  0.51100000000E-03 0.  1.
         12    1    3    3    0    0  0.37760245691E+00  0.69996109435E+01 -0.45761962746E+01  0.83713027254E+01  0.00000000000E+00 0. -1.
</event>
<event>
 7    1  0.2950722E-010  0.4778728E+02  0.7816164E-02  0.1312668E+00
        -11   -1    0    0    0    0  0.00000000000E+00  0.00000000000E+00  0.45593999997E+02  0.45594000000E+02  0.51100000000E-03 0. -1.
         11   -1    0    0    0    0 -0.00000000000E+00 -0.00000000000E+00 -0.45593999997E+02  0.45594000000E+02  0.51100000000E-03 0.  1.
    9900012    2    1    2    0    0 -0.44968882718E+01  0.27492429207E+02  0.33280133117E+02  0.47787275028E+02  0.20000018163E+02 0.  0.
        -12    1    1    2    0    0  0.44968882718E+01 -0.27492429207E+02 -0.33280133117E+02  0.43400724972E+02  0.00000000000E+00 0.  1.
         11    1    3    3    0    0 -0.31359336867E+00  0.45282693973E+01  0.93482421585E+01  0.10391977495E+02  0.51100000000E-03 0. -1.
        -11    1    3    3    0    0  0.17789107524E+01  0.12182899139E+00  0.96294140821E+01  0.97931088830E+01  0.51100000000E-03 0.  1.
        -12    1    3    3    0    0 -0.59622056555E+01  0.22842330819E+02  0.14302476876E+02  0.27602188650E+02  0.00000000000E+00 0.  1.
</event>
<event>
 7    1  0.2950722E-010  0.4778727E+02  0.7816164E-02  0.1312668E+00
        -11   -1    0    0    0    0  0.00000000000E+00  0.00000000000E+00  0.45593999997E+02  0.45594000000E+02  0.51100000000E-03 0.  1.
         11   -1    0    0    0    0 -0.00000000000E+00 -0.00000000000E+00 -0.45593999997E+02  0.45594000000E+02  0.51100000000E-03 0. -1.
    9900012    2    1    2    0    0 -0.38334019331E+02 -0.19651392531E+02 -0.52866649770E+01  0.47787273127E+02  0.20000009497E+02 0.  0.
        -12    1    1    2    0    0  0.38334019331E+02  0.19651392531E+02  0.52866649770E+01  0.43400726873E+02  0.00000000000E+00 0.  1.
         11    1    3    3    0    0 -0.19685888421E+02 -0.78076287672E+01 -0.49316411271E+01  0.21744294754E+02  0.51100000000E-03 0. -1.
        -11    1    3    3    0    0 -0.62055471815E+01 -0.11601501029E+02  0.21970217844E+01  0.13339060946E+02  0.51100000000E-03 0.  1.
        -12    1    3    3    0    0 -0.12442583729E+02 -0.24226273579E+00 -0.25520456343E+01  0.12703917427E+02  0.00000000000E+00 0.  1.
</event>
<event>
 7    1  0.2950722E-010  0.4778727E+02  0.7816164E-02  0.1312668E+00
        -11   -1    0    0    0    0  0.00000000000E+00  0.00000000000E+00  0.45593999997E+02  0.45594000000E+02  0.51100000000E-03 0.  1.
         11   -1    0    0    0    0 -0.00000000000E+00 -0.00000000000E+00 -0.45593999997E+02  0.45594000000E+02  0.51100000000E-03 0. -1.
    9900012    2    1    2    0    0  0.78872852703E+01  0.30292954107E+02 -0.30062447628E+02  0.47787273107E+02  0.20000009403E+02 0.  0.
        -12    1    1    2    0    0 -0.78872852703E+01 -0.30292954107E+02  0.30062447628E+02  0.43400726893E+02  0.00000000000E+00 0.  1.
         11    1    3    3    0    0  0.73424833054E+01  0.29969906103E+02 -0.18880938456E+02  0.36174537594E+02  0.51100000000E-03 0. -1.
        -11    1    3    3    0    0  0.12576021835E+01  0.11834946041E+01 -0.89730012649E+01  0.91376679022E+01  0.51100000000E-03 0.  1.
         12    1    3    3    0    0 -0.71280021864E+00 -0.86044659951E+00 -0.22085079068E+01  0.24750676105E+01  0.00000000000E+00 0. -1.
</event>
<event>
 7    1  0.2950722E-010  0.4778726E+02  0.7816164E-02  0.1312668E+00
        -11   -1    0    0    0    0  0.00000000000E+00  0.00000000000E+00  0.45593999997E+02  0.45594000000E+02  0.51100000000E-03 0. -1.
         11   -1    0    0    0    0 -0.00000000000E+00 -0.00000000000E+00 -0.45593999997E+02  0.45594000000E+02  0.51100000000E-03 0.  1.
    9900012    2    1    2    0    0 -0.22312727323E+02  0.37224016553E+02  0.37228869986E+00  0.47787264893E+02  0.19999971953E+02 0.  0.
        -12    1    1    2    0    0  0.22312727323E+02 -0.37224016553E+02 -0.37228869986E+00  0.43400735107E+02  0.00000000000E+00 0.  1.
         11    1    3    3    0    0 -0.12295066877E+01  0.13065946296E+02  0.24959101209E+01  0.13358899914E+02  0.51100000000E-03 0. -1.
        -11    1    3    3    0    0 -0.19268089910E+02  0.21798733898E+02 -0.58325560166E+01  0.29672593387E+02  0.51100000000E-03 0.  1.
        -12    1    3    3    0    0 -0.18151307254E+01  0.23593363587E+01  0.37089345955E+01  0.47557715923E+01  0.00000000000E+00 0.  1.
</event>
<event>
 7    1  0.2950722E-010  0.4778729E+02  0.7816164E-02  0.1312668E+00
        -11   -1    0    0    0    0  0.00000000000E+00  0.00000000000E+00  0.45593999997E+02  0.45594000000E+02  0.51100000000E-03 0.  1.
         11   -1    0    0    0    0 -0.00000000000E+00 -0.00000000000E+00 -0.45593999997E+02  0.45594000000E+02  0.51100000000E-03 0. -1.
    9900012    2    1    2    0    0  0.24379071864E+02 -0.28708332480E+02 -0.21566506028E+02  0.47787289396E+02  0.20000083671E+02 0.  0.
        -12    1    1    2    0    0 -0.24379071864E+02  0.28708332480E+02  0.21566506028E+02  0.43400710604E+02  0.00000000000E+00 0.  1.
         11    1    3    3    0    0  0.18041953434E+02 -0.20523010291E+02 -0.19285890552E+02  0.33446249562E+02  0.51100000000E-03 0. -1.
        -11    1    3    3    0    0  0.11253064088E+00 -0.51822141649E+01  0.26786587978E+01  0.58346568033E+01  0.51100000000E-03 0.  1.
        -12    1    3    3    0    0  0.62245877890E+01 -0.30031080241E+01 -0.49592742731E+01  0.85063830306E+01  0.00000000000E+00 0.  1.
</event>
<event>
 7    1  0.2950722E-010  0.4778729E+02  0.7816164E-02  0.1312668E+00
        -11   -1    0    0    0    0  0.00000000000E+00  0.00000000000E+00  0.45593999997E+02  0.45594000000E+02  0.51100000000E-03 0.  1.
         11   -1    0    0    0    0 -0.00000000000E+00 -0.00000000000E+00 -0.45593999997E+02  0.45594000000E+02  0.51100000000E-03 0. -1.
    9900012    2    1    2    0    0 -0.14138520117E+02 -0.32617937532E+02 -0.24895663380E+02  0.47787289694E+02  0.20000085029E+02 0.  0.
        -12    1    1    2    0    0  0.14138520117E+02  0.32617937532E+02  0.24895663380E+02  0.43400710306E+02  0.00000000000E+00 0.  1.
         11    1    3    3    0    0 -0.90331428776E+01 -0.51288623029E+01 -0.11600646882E+02  0.15571702126E+02  0.51100000000E-03 0. -1.
        -11    1    3    3    0    0 -0.51710195691E+01 -0.14124185964E+02 -0.29810756954E+01  0.15333586830E+02  0.51100000000E-03 0.  1.
         12    1    3    3    0    0  0.65642329753E-01 -0.13364889266E+02 -0.10313940803E+02  0.16882000737E+02  0.00000000000E+00 0. -1.
</event>
<event>
 7    1  0.2950722E-010  0.4778727E+02  0.7816164E-02  0.1312668E+00
        -11   -1    0    0    0    0  0.00000000000E+00  0.00000000000E+00  0.45593999997E+02  0.45594000000E+02  0.51100000000E-03 0.  1.
         11   -1    0    0    0    0 -0.00000000000E+00 -0.00000000000E+00 -0.45593999997E+02  0.45594000000E+02  0.51100000000E-03 0. -1.
    9900012    2    1    2    0    0  0.65152389452E+01  0.33945445353E+02 -0.26246563687E+02  0.47787266088E+02  0.19999977399E+02 0.  0.
        -12    1    1    2    0    0 -0.65152389452E+01 -0.33945445353E+02  0.26246563687E+02  0.43400733912E+02  0.00000000000E+00 0.  1.
         11    1    3    3    0    0 -0.11081654179E+01 -0.22333676686E+00  0.14297627213E+01  0.18226715571E+01  0.51100000000E-03 0.  1.
        -11    1    3    3    0    0  0.53717935626E+01  0.32461550326E+02 -0.27886957035E+02  0.43131088423E+02  0.51100000000E-03 0. -1.
         12    1    3    3    0    0  0.22516108005E+01  0.17072317945E+01  0.21063062692E+00  0.28335061070E+01  0.00000000000E+00 0. -1.
</event>
<event>
 7    1  0.2950722E-010  0.4778727E+02  0.7816164E-02  0.1312668E+00
        -11   -1    0    0    0    0  0.00000000000E+00  0.00000000000E+00  0.45593999997E+02  0.45594000000E+02  0.51100000000E-03 0. -1.
         11   -1    0    0    0    0 -0.00000000000E+00 -0.00000000000E+00 -0.45593999997E+02  0.45594000000E+02  0.51100000000E-03 0.  1.
    9900012    2    1    2    0    0  0.12314435772E+02  0.11907303398E+02  0.39877235861E+02  0.47787272558E+02  0.20000006899E+02 0.  0.
        -12    1    1    2    0    0 -0.12314435772E+02 -0.11907303398E+02 -0.39877235861E+02  0.43400727442E+02  0.00000000000E+00 0.  1.
         11    1    3    3    0    0  0.33164827809E+01  0.52316769914E+00  0.21760576859E+02  0.22018071395E+02  0.51100000000E-03 0. -1.
        -11    1    3    3    0    0 -0.12757194525E+01 -0.61941571140E+00  0.51139548545E+01  0.53069454925E+01  0.51100000000E-03 0.  1.
         12    1    3    3    0    0  0.10273672443E+02  0.12003551411E+02  0.13002704148E+02  0.20462255670E+02  0.00000000000E+00 0. -1.
</event>
<event>
 7    1  0.2950722E-010  0.4778728E+02  0.7816164E-02  0.1312668E+00
        -11   -1    0    0    0    0  0.00000000000E+00  0.00000000000E+00  0.45593999997E+02  0.45594000000E+02  0.51100000000E-03 0.  1.
         11   -1    0    0    0    0 -0.00000000000E+00 -0.00000000000E+00 -0.45593999997E+02  0.45594000000E+02  0.51100000000E-03 0. -1.
    9900012    2    1    2    0    0  0.34607394852E+02 -0.10142634668E+02 -0.24147005429E+02  0.47787277798E+02  0.20000030793E+02 0.  0.
        -12    1    1    2    0    0 -0.34607394852E+02  0.10142634668E+02  0.24147005429E+02  0.43400722202E+02  0.00000000000E+00 0.  1.
         11    1    3    3    0    0  0.98725157512E+01 -0.80067018841E+01 -0.16101853068E+02  0.20514470864E+02  0.51100000000E-03 0. -1.
        -11    1    3    3    0    0  0.76002024949E+01  0.30000423275E+01 -0.25973261675E+01  0.85737643665E+01  0.51100000000E-03 0.  1.
         12    1    3    3    0    0  0.17134676606E+02 -0.51359751110E+01 -0.54478261936E+01  0.18699042568E+02  0.00000000000E+00 0. -1.
</event>
<event>
 7    1  0.2950722E-010  0.4778727E+02  0.7816164E-02  0.1312668E+00
        -11   -1    0    0    0    0  0.00000000000E+00  0.00000000000E+00  0.45593999997E+02  0.45594000000E+02  0.51100000000E-03 0.  1.
         11   -1    0    0    0    0 -0.00000000000E+00 -0.00000000000E+00 -0.45593999997E+02  0.45594000000E+02  0.51100000000E-03 0. -1.
    9900012    2    1    2    0    0 -0.21581125746E+02 -0.20486719625E+02 -0.31593866034E+02  0.47787273734E+02  0.20000012263E+02 0.  0.
        -12    1    1    2    0    0  0.21581125746E+02  0.20486719625E+02  0.31593866034E+02  0.43400726266E+02  0.00000000000E+00 0.  1.
         11    1    3    3    0    0 -0.67255246897E+01 -0.24860124580E+01 -0.95629864043E+01  0.11952558284E+02  0.51100000000E-03 0. -1.
        -11    1    3    3    0    0 -0.55619985744E+01  0.16631244030E+01 -0.16668107734E+01  0.60398732882E+01  0.51100000000E-03 0.  1.
        -12    1    3    3    0    0 -0.92936024815E+01 -0.19663831570E+02 -0.20364068856E+02  0.29794842162E+02  0.00000000000E+00 0.  1.
</event>
<event>
 7    1  0.2950722E-010  0.4778724E+02  0.7816164E-02  0.1312668E+00
        -11   -1    0    0    0    0  0.00000000000E+00  0.00000000000E+00  0.45593999997E+02  0.45594000000E+02  0.51100000000E-03 0.  1.
         11   -1    0    0    0    0 -0.00000000000E+00 -0.00000000000E+00 -0.45593999997E+02  0.45594000000E+02  0.51100000000E-03 0. -1.
    9900012    2    1    2    0    0 -0.10090876084E+02  0.42178065721E+02 -0.16764632445E+01  0.47787244971E+02  0.19999881120E+02 0.  0.
        -12    1    1    2    0    0  0.10090876084E+02 -0.42178065721E+02  0.16764632445E+01  0.43400755029E+02  0.00000000000E+00 0.  1.
         11    1    3    3    0    0  0.99200661331E+00  0.15600195952E+02  0.50013135911E+01  0.16412292002E+02  0.51100000000E-03 0. -1.
        -11    1    3    3    0    0 -0.50568217550E+01  0.41435219943E+01 -0.47192153008E+01  0.80629531870E+01  0.51100000000E-03 0.  1.
        -12    1    3    3    0    0 -0.60260609421E+01  0.22434347775E+02 -0.19585615348E+01  0.23311999782E+02  0.00000000000E+00 0.  1.
</event>
<event>
 7    1  0.2950722E-010  0.4778726E+02  0.7816164E-02  0.1312668E+00
        -11   -1    0    0    0    0  0.00000000000E+00  0.00000000000E+00  0.45593999997E+02  0.45594000000E+02  0.51100000000E-03 0.  1.
         11   -1    0    0    0    0 -0.00000000000E+00 -0.00000000000E+00 -0.45593999997E+02  0.45594000000E+02  0.51100000000E-03 0. -1.
    9900012    2    1    2    0    0  0.25132740101E+02  0.21783080218E+02 -0.27883093984E+02  0.47787261079E+02  0.19999954563E+02 0.  0.
        -12    1    1    2    0    0 -0.25132740101E+02 -0.21783080218E+02  0.27883093984E+02  0.43400738921E+02  0.00000000000E+00 0.  1.
         11    1    3    3    0    0  0.20150386257E+02  0.95035955717E+01 -0.15362734115E+02  0.27062335355E+02  0.51100000000E-03 0. -1.
        -11    1    3    3    0    0  0.42417168991E+00  0.99599058255E+01 -0.11975130318E+02  0.15581508017E+02  0.51100000000E-03 0.  1.
         12    1    3    3    0    0  0.45581821537E+01  0.23195788210E+01 -0.54522955158E+00  0.51434177078E+01  0.00000000000E+00 0. -1.
</event>
<event>
 7    1  0.2950722E-010  0.4778727E+02  0.7816164E-02  0.1312668E+00
        -11   -1    0    0    0    0  0.00000000000E+00  0.00000000000E+00  0.45593999997E+02  0.45594000000E+02  0.51100000000E-03 0. -1.
         11   -1    0    0    0    0 -0.00000000000E+00 -0.00000000000E+00 -0.45593999997E+02  0.45594000000E+02  0.51100000000E-03 0.  1.
    9900012    2    1    2    0    0 -0.12241662504E+02  0.39111612449E+02  0.14284485471E+02  0.47787273573E+02  0.20000011531E+02 0.  0.
        -12    1    1    2    0    0  0.12241662504E+02 -0.39111612449E+02 -0.14284485471E+02  0.43400726427E+02  0.00000000000E+00 0.  1.
         11    1    3    3    0    0 -0.47566814696E+01  0.13441231850E+02 -0.14014039931E+01  0.14326781413E+02  0.51100000000E-03 0. -1.
        -11    1    3    3    0    0 -0.71216311914E+01  0.11079907294E+02  0.13214796373E+02  0.18657781752E+02  0.51100000000E-03 0.  1.
         12    1    3    3    0    0 -0.36334984257E+00  0.14590473305E+02  0.24710930913E+01  0.14802710408E+02  0.00000000000E+00 0. -1.
</event>
<event>
 7    1  0.2950722E-010  0.4778727E+02  0.7816164E-02  0.1312668E+00
        -11   -1    0    0    0    0  0.00000000000E+00  0.00000000000E+00  0.45593999997E+02  0.45594000000E+02  0.51100000000E-03 0.  1.
         11   -1    0    0    0    0 -0.00000000000E+00 -0.00000000000E+00 -0.45593999997E+02  0.45594000000E+02  0.51100000000E-03 0. -1.
    9900012    2    1    2    0    0  0.24641453485E+02  0.20050196276E+02 -0.29570452830E+02  0.47787270960E+02  0.19999999617E+02 0.  0.
        -12    1    1    2    0    0 -0.24641453485E+02 -0.20050196276E+02  0.29570452830E+02  0.43400729040E+02  0.00000000000E+00 0.  1.
         11    1    3    3    0    0  0.18372890826E+02  0.13432275240E+02 -0.23913153267E+02  0.33012543598E+02  0.51100000000E-03 0. -1.
        -11    1    3    3    0    0 -0.25884272965E+01  0.60841822980E-01 -0.15282298709E+01  0.30065169875E+01  0.51100000000E-03 0.  1.
         12    1    3    3    0    0  0.88569899561E+01  0.65570792136E+01 -0.41290696926E+01  0.11768210375E+02  0.00000000000E+00 0. -1.
</event>
<event>
 7    1  0.2950722E-010  0.4778727E+02  0.7816164E-02  0.1312668E+00
        -11   -1    0    0    0    0  0.00000000000E+00  0.00000000000E+00  0.45593999997E+02  0.45594000000E+02  0.51100000000E-03 0. -1.
         11   -1    0    0    0    0 -0.00000000000E+00 -0.00000000000E+00 -0.45593999997E+02  0.45594000000E+02  0.51100000000E-03 0.  1.
    9900012    2    1    2    0    0  0.32700716549E+02 -0.28175041356E+02 -0.45225776786E+01  0.47787268127E+02  0.19999986699E+02 0.  0.
        -12    1    1    2    0    0 -0.32700716549E+02  0.28175041356E+02  0.45225776786E+01  0.43400731873E+02  0.00000000000E+00 0.  1.
         11    1    3    3    0    0  0.36081196718E+00 -0.22883213447E-01  0.29645161346E+01  0.29864803851E+01  0.51100000000E-03 0. -1.
        -11    1    3    3    0    0  0.25116382473E+02 -0.25836164491E+02 -0.34222883710E+01  0.36194642174E+02  0.51100000000E-03 0.  1.
        -12    1    3    3    0    0  0.72235221096E+01 -0.23159936511E+01 -0.40648054422E+01  0.86061455683E+01  0.00000000000E+00 0.  1.
</event>
<event>
 7    1  0.2950722E-010  0.4778727E+02  0.7816164E-02  0.1312668E+00
        -11   -1    0    0    0    0  0.00000000000E+00  0.00000000000E+00  0.45593999997E+02  0.45594000000E+02  0.51100000000E-03 0.  1.
         11   -1    0    0    0    0 -0.00000000000E+00 -0.00000000000E+00 -0.45593999997E+02  0.45594000000E+02  0.51100000000E-03 0. -1.
    9900012    2    1    2    0    0  0.11660552963E+02  0.18777527535E+02 -0.37350492861E+02  0.47787270136E+02  0.19999995860E+02 0.  0.
        -12    1    1    2    0    0 -0.11660552963E+02 -0.18777527535E+02  0.37350492861E+02  0.43400729864E+02  0.00000000000E+00 0.  1.
         11    1    3    3    0    0  0.16130240505E+02  0.11134752334E+02 -0.26494266715E+02  0.32956236699E+02  0.51100000000E-03 0. -1.
        -11    1    3    3    0    0 -0.42844724090E+01  0.47990079151E+01 -0.99350381719E+01  0.11836053588E+02  0.51100000000E-03 0.  1.
         12    1    3    3    0    0 -0.18521513287E+00  0.28437672857E+01 -0.92118797367E+00  0.29949798503E+01  0.00000000000E+00 0. -1.
</event>
<event>
 7    1  0.2950722E-010  0.4778727E+02  0.7816164E-02  0.1312668E+00
        -11   -1    0    0    0    0  0.00000000000E+00  0.00000000000E+00  0.45593999997E+02  0.45594000000E+02  0.51100000000E-03 0.  1.
         11   -1    0    0    0    0 -0.00000000000E+00 -0.00000000000E+00 -0.45593999997E+02  0.45594000000E+02  0.51100000000E-03 0. -1.
    9900012    2    1    2    0    0  0.24697586432E+02  0.29399455751E+02 -0.20231771407E+02  0.47787270188E+02  0.19999996093E+02 0.  0.
        -12    1    1    2    0    0 -0.24697586432E+02 -0.29399455751E+02  0.20231771407E+02  0.43400729812E+02  0.00000000000E+00 0.  1.
         11    1    3    3    0    0  0.55365314104E+01 -0.14428524793E+01 -0.33681578115E+01  0.66392387093E+01  0.51100000000E-03 0. -1.
        -11    1    3    3    0    0  0.59510164149E+01  0.29336595669E+01 -0.35234876037E+01  0.75123844404E+01  0.51100000000E-03 0.  1.
         12    1    3    3    0    0  0.13210038606E+02  0.27908648663E+02 -0.13340125992E+02  0.33635647038E+02  0.00000000000E+00 0. -1.
</event>
<event>
 7    1  0.2950722E-010  0.4778727E+02  0.7816164E-02  0.1312668E+00
        -11   -1    0    0    0    0  0.00000000000E+00  0.00000000000E+00  0.45593999997E+02  0.45594000000E+02  0.51100000000E-03 0.  1.
         11   -1    0    0    0    0 -0.00000000000E+00 -0.00000000000E+00 -0.45593999997E+02  0.45594000000E+02  0.51100000000E-03 0. -1.
    9900012    2    1    2    0    0 -0.23685980774E+02 -0.35760730813E+02  0.66157273943E+01  0.47787269563E+02  0.19999993244E+02 0.  0.
        -12    1    1    2    0    0  0.23685980774E+02  0.35760730813E+02 -0.66157273943E+01  0.43400730437E+02  0.00000000000E+00 0.  1.
         11    1    3    3    0    0 -0.14320414529E+02 -0.20952351544E+02 -0.58909432136E+01  0.26053378279E+02  0.51100000000E-03 0. -1.
        -11    1    3    3    0    0 -0.29133170107E+01 -0.42372482376E+01  0.53929372653E+01  0.74515408634E+01  0.51100000000E-03 0.  1.
         12    1    3    3    0    0 -0.64522492343E+01 -0.10571131032E+02  0.71137333427E+01  0.14282350421E+02  0.00000000000E+00 0. -1.
</event>
<event>
 7    1  0.2950722E-010  0.4778727E+02  0.7816164E-02  0.1312668E+00
        -11   -1    0    0    0    0  0.00000000000E+00  0.00000000000E+00  0.45593999997E+02  0.45594000000E+02  0.51100000000E-03 0.  1.
         11   -1    0    0    0    0 -0.00000000000E+00 -0.00000000000E+00 -0.45593999997E+02  0.45594000000E+02  0.51100000000E-03 0. -1.
    9900012    2    1    2    0    0 -0.35480665893E+02 -0.10994199789E+02 -0.22447124067E+02  0.47787268899E+02  0.19999990216E+02 0.  0.
        -12    1    1    2    0    0  0.35480665893E+02  0.10994199789E+02  0.22447124067E+02  0.43400731101E+02  0.00000000000E+00 0.  1.
         11    1    3    3    0    0 -0.22150464997E+02 -0.51828176654E+01 -0.23542763012E+02  0.32737843378E+02  0.51100000000E-03 0. -1.
        -11    1    3    3    0    0 -0.11655853937E+02 -0.36180642679E+01  0.13472483124E+01  0.12278615489E+02  0.51100000000E-03 0.  1.
         12    1    3    3    0    0 -0.16743469587E+01 -0.21933178561E+01 -0.25160936785E+00  0.27708100313E+01  0.00000000000E+00 0. -1.
</event>
<event>
 7    1  0.2950722E-010  0.4778727E+02  0.7816164E-02  0.1312668E+00
        -11   -1    0    0    0    0  0.00000000000E+00  0.00000000000E+00  0.45593999997E+02  0.45594000000E+02  0.51100000000E-03 0.  1.
         11   -1    0    0    0    0 -0.00000000000E+00 -0.00000000000E+00 -0.45593999997E+02  0.45594000000E+02  0.51100000000E-03 0. -1.
    9900012    2    1    2    0    0 -0.14098380977E+02  0.58738659794E+01 -0.40624584135E+02  0.47787268625E+02  0.19999988969E+02 0.  0.
        -12    1    1    2    0    0  0.14098380977E+02 -0.58738659794E+01  0.40624584135E+02  0.43400731375E+02  0.00000000000E+00 0.  1.
         11    1    3    3    0    0 -0.92507041393E+01 -0.40391219108E+01 -0.32040368599E+02  0.33592785730E+02  0.51100000000E-03 0. -1.
        -11    1    3    3    0    0 -0.28793889182E+01  0.62357544164E+01 -0.67766981090E+01  0.96487901421E+01  0.51100000000E-03 0.  1.
         12    1    3    3    0    0 -0.19682879196E+01  0.36772334737E+01 -0.18075174277E+01  0.45456927532E+01  0.00000000000E+00 0. -1.
</event>
<event>
 7    1  0.2950722E-010  0.4778727E+02  0.7816164E-02  0.1312668E+00
        -11   -1    0    0    0    0  0.00000000000E+00  0.00000000000E+00  0.45593999997E+02  0.45594000000E+02  0.51100000000E-03 0.  1.
         11   -1    0    0    0    0 -0.00000000000E+00 -0.00000000000E+00 -0.45593999997E+02  0.45594000000E+02  0.51100000000E-03 0. -1.
    9900012    2    1    2    0    0  0.40239986804E+01 -0.16341273035E+02 -0.40004917259E+02  0.47787272188E+02  0.20000005213E+02 0.  0.
        -12    1    1    2    0    0 -0.40239986804E+01  0.16341273035E+02  0.40004917259E+02  0.43400727812E+02  0.00000000000E+00 0.  1.
         11    1    3    3    0    0 -0.76718462741E+01 -0.58170593342E+01 -0.16104470345E+02  0.18762978706E+02  0.51100000000E-03 0. -1.
        -11    1    3    3    0    0  0.86241441947E+01 -0.85997734359E+01 -0.14423188671E+02  0.18877508785E+02  0.51100000000E-03 0.  1.
         12    1    3    3    0    0  0.30717007598E+01 -0.19244402645E+01 -0.94772582420E+01  0.10146784696E+02  0.00000000000E+00 0. -1.
</event>
<event>
 7    1  0.2950722E-010  0.4778727E+02  0.7816164E-02  0.1312668E+00
        -11   -1    0    0    0    0  0.00000000000E+00  0.00000000000E+00  0.45593999997E+02  0.45594000000E+02  0.51100000000E-03 0.  1.
         11   -1    0    0    0    0 -0.00000000000E+00 -0.00000000000E+00 -0.45593999997E+02  0.45594000000E+02  0.51100000000E-03 0. -1.
    9900012    2    1    2    0    0 -0.19294631209E+02  0.35576554582E+02 -0.15673198618E+02  0.47787272076E+02  0.20000004704E+02 0.  0.
        -12    1    1    2    0    0  0.19294631209E+02 -0.35576554582E+02  0.15673198618E+02  0.43400727924E+02  0.00000000000E+00 0.  1.
         11    1    3    3    0    0 -0.20116607600E+02  0.18462466438E+02 -0.62390960656E+01  0.28008336050E+02  0.51100000000E-03 0. -1.
        -11    1    3    3    0    0  0.71524011156E+00  0.83569324590E+01 -0.62508782504E+01  0.10460562495E+02  0.51100000000E-03 0.  1.
         12    1    3    3    0    0  0.10673627955E+00  0.87571556848E+01 -0.31832243017E+01  0.93183735317E+01  0.00000000000E+00 0. -1.
</event>
<event>
 7    1  0.2950722E-010  0.4778727E+02  0.7816164E-02  0.1312668E+00
        -11   -1    0    0    0    0  0.00000000000E+00  0.00000000000E+00  0.45593999997E+02  0.45594000000E+02  0.51100000000E-03 0.  1.
         11   -1    0    0    0    0 -0.00000000000E+00 -0.00000000000E+00 -0.45593999997E+02  0.45594000000E+02  0.51100000000E-03 0. -1.
    9900012    2    1    2    0    0 -0.24231625913E+02 -0.26673776559E+02 -0.24185979729E+02  0.47787266530E+02  0.19999979415E+02 0.  0.
        -12    1    1    2    0    0  0.24231625913E+02  0.26673776559E+02  0.24185979729E+02  0.43400733470E+02  0.00000000000E+00 0.  1.
         11    1    3    3    0    0 -0.13990263830E+02 -0.18822627742E+02 -0.14024284244E+02  0.27325800006E+02  0.51100000000E-03 0. -1.
        -11    1    3    3    0    0 -0.20075009339E+01  0.15961357871E+01  0.18030735327E+01  0.31350891337E+01  0.51100000000E-03 0.  1.
        -12    1    3    3    0    0 -0.82338611485E+01 -0.94472846051E+01 -0.11964769017E+02  0.17326377390E+02  0.00000000000E+00 0.  1.
</event>
<event>
 7    1  0.2950722E-010  0.4778727E+02  0.7816164E-02  0.1312668E+00
        -11   -1    0    0    0    0  0.00000000000E+00  0.00000000000E+00  0.45593999997E+02  0.45594000000E+02  0.51100000000E-03 0.  1.
         11   -1    0    0    0    0 -0.00000000000E+00 -0.00000000000E+00 -0.45593999997E+02  0.45594000000E+02  0.51100000000E-03 0. -1.
    9900012    2    1    2    0    0 -0.42763533652E+02 -0.57965903674E+01 -0.46154969443E+01  0.47787273251E+02  0.20000010059E+02 0.  0.
        -12    1    1    2    0    0  0.42763533652E+02  0.57965903674E+01  0.46154969443E+01  0.43400726749E+02  0.00000000000E+00 0.  1.
         11    1    3    3    0    0 -0.11676106399E+02 -0.39569646679E+01 -0.36677344060E+01  0.12862398919E+02  0.51100000000E-03 0. -1.
        -11    1    3    3    0    0 -0.15778110992E+02  0.59812549742E+01  0.33531691792E+01  0.17203718823E+02  0.51100000000E-03 0.  1.
        -12    1    3    3    0    0 -0.15309316262E+02 -0.78208806737E+01 -0.43009317175E+01  0.17721155509E+02  0.00000000000E+00 0.  1.
</event>
<event>
 7    1  0.2950722E-010  0.4778727E+02  0.7816164E-02  0.1312668E+00
        -11   -1    0    0    0    0  0.00000000000E+00  0.00000000000E+00  0.45593999997E+02  0.45594000000E+02  0.51100000000E-03 0. -1.
         11   -1    0    0    0    0 -0.00000000000E+00 -0.00000000000E+00 -0.45593999997E+02  0.45594000000E+02  0.51100000000E-03 0.  1.
    9900012    2    1    2    0    0 -0.10887306302E+02 -0.41815977762E+02 -0.40637352246E+01  0.47787269837E+02  0.19999994497E+02 0.  0.
        -12    1    1    2    0    0  0.10887306302E+02  0.41815977762E+02  0.40637352246E+01  0.43400730163E+02  0.00000000000E+00 0.  1.
         11    1    3    3    0    0 -0.10241417115E+02 -0.21815076672E+02 -0.15361727354E+00  0.24099954217E+02  0.51100000000E-03 0. -1.
        -11    1    3    3    0    0  0.34327831528E+01 -0.40461339473E+01 -0.48553870107E+01  0.71923558991E+01  0.51100000000E-03 0.  1.
        -12    1    3    3    0    0 -0.40786723398E+01 -0.15954767143E+02  0.94526905970E+00  0.16494959722E+02  0.00000000000E+00 0.  1.
</event>
<event>
 7    1  0.2950722E-010  0.4778728E+02  0.7816164E-02  0.1312668E+00
        -11   -1    0    0    0    0  0.00000000000E+00  0.00000000000E+00  0.45593999997E+02  0.45594000000E+02  0.51100000000E-03 0. -1.
         11   -1    0    0    0    0 -0.00000000000E+00 -0.00000000000E+00 -0.45593999997E+02  0.45594000000E+02  0.51100000000E-03 0.  1.
    9900012    2    1    2    0    0  0.11240629333E+02  0.30429578190E+02  0.28832470172E+02  0.47787282116E+02  0.20000050480E+02 0.  0.
        -12    1    1    2    0    0 -0.11240629333E+02 -0.30429578190E+02 -0.28832470172E+02  0.43400717884E+02  0.00000000000E+00 0.  1.
         11    1    3    3    0    0 -0.27498465551E+01  0.55076125547E+01  0.74531241131E+01  0.96666701317E+01  0.51100000000E-03 0. -1.
        -11    1    3    3    0    0  0.14145163633E+02  0.26435216237E+02  0.20811619119E+02  0.36496983468E+02  0.51100000000E-03 0.  1.
        -12    1    3    3    0    0 -0.15468774425E+00 -0.15132506013E+01  0.56772693955E+00  0.16236285161E+01  0.00000000000E+00 0.  1.
</event>
<event>
 7    1  0.2950722E-010  0.4778727E+02  0.7816164E-02  0.1312668E+00
        -11   -1    0    0    0    0  0.00000000000E+00  0.00000000000E+00  0.45593999997E+02  0.45594000000E+02  0.51100000000E-03 0.  1.
         11   -1    0    0    0    0 -0.00000000000E+00 -0.00000000000E+00 -0.45593999997E+02  0.45594000000E+02  0.51100000000E-03 0. -1.
    9900012    2    1    2    0    0  0.21690915468E+01  0.39805076987E+01 -0.43163340732E+02  0.47787269790E+02  0.19999994279E+02 0.  0.
        -12    1    1    2    0    0 -0.21690915468E+01 -0.39805076987E+01  0.43163340732E+02  0.43400730210E+02  0.00000000000E+00 0.  1.
         11    1    3    3    0    0  0.65992690698E+01  0.13394877041E+01 -0.95190795862E+01  0.11660079588E+02  0.51100000000E-03 0. -1.
        -11    1    3    3    0    0 -0.17779044330E+01 -0.29133534779E+01 -0.26406266273E+02  0.26625917287E+02  0.51100000000E-03 0.  1.
        -12    1    3    3    0    0 -0.26522730901E+01  0.55543734726E+01 -0.72379948727E+01  0.95012729144E+01  0.00000000000E+00 0.  1.
</event>
<event>
 7    1  0.2950722E-010  0.4778729E+02  0.7816164E-02  0.1312668E+00
        -11   -1    0    0    0    0  0.00000000000E+00  0.00000000000E+00  0.45593999997E+02  0.45594000000E+02  0.51100000000E-03 0. -1.
         11   -1    0    0    0    0 -0.00000000000E+00 -0.00000000000E+00 -0.45593999997E+02  0.45594000000E+02  0.51100000000E-03 0.  1.
    9900012    2    1    2    0    0  0.17207315887E+02  0.39738211136E+02  0.28990363948E+01  0.47787290832E+02  0.20000090217E+02 0.  0.
        -12    1    1    2    0    0 -0.17207315887E+02 -0.39738211136E+02 -0.28990363948E+01  0.43400709168E+02  0.00000000000E+00 0.  1.
         11    1    3    3    0    0 -0.19745862892E+01  0.17419124092E+02 -0.44996994734E+00  0.17536457692E+02  0.51100000000E-03 0.  1.
        -11    1    3    3    0    0  0.51383228395E+00  0.60118021123E-01  0.97410229853E+00  0.11029566363E+01  0.51100000000E-03 0. -1.
         12    1    3    3    0    0  0.18668069893E+02  0.22258969022E+02  0.23749040436E+01  0.29147876504E+02  0.00000000000E+00 0. -1.
</event>
<event>
 7    1  0.2950722E-010  0.4778727E+02  0.7816164E-02  0.1312668E+00
        -11   -1    0    0    0    0  0.00000000000E+00  0.00000000000E+00  0.45593999997E+02  0.45594000000E+02  0.51100000000E-03 0.  1.
         11   -1    0    0    0    0 -0.00000000000E+00 -0.00000000000E+00 -0.45593999997E+02  0.45594000000E+02  0.51100000000E-03 0. -1.
    9900012    2    1    2    0    0  0.39198328903E+01 -0.22037461367E+02 -0.37183444520E+02  0.47787270286E+02  0.19999996540E+02 0.  0.
        -12    1    1    2    0    0 -0.39198328903E+01  0.22037461367E+02  0.37183444520E+02  0.43400729714E+02  0.00000000000E+00 0.  1.
         11    1    3    3    0    0 -0.40463346363E+01 -0.14457585716E+02 -0.23177159329E+02  0.27614766404E+02  0.51100000000E-03 0. -1.
        -11    1    3    3    0    0  0.72812923422E+01 -0.95728448038E+01 -0.99826722514E+01  0.15630429340E+02  0.51100000000E-03 0.  1.
         12    1    3    3    0    0  0.68487518443E+00  0.19929691523E+01 -0.40236129388E+01  0.45420745416E+01  0.00000000000E+00 0. -1.
</event>
<event>
 7    1  0.2950722E-010  0.4778727E+02  0.7816164E-02  0.1312668E+00
        -11   -1    0    0    0    0  0.00000000000E+00  0.00000000000E+00  0.45593999997E+02  0.45594000000E+02  0.51100000000E-03 0.  1.
         11   -1    0    0    0    0 -0.00000000000E+00 -0.00000000000E+00 -0.45593999997E+02  0.45594000000E+02  0.51100000000E-03 0. -1.
    9900012    2    1    2    0    0 -0.36127631324E+02  0.66491654919E+01 -0.23112906925E+02  0.47787267133E+02  0.19999982167E+02 0.  0.
        -12    1    1    2    0    0  0.36127631324E+02 -0.66491654919E+01  0.23112906925E+02  0.43400732867E+02  0.00000000000E+00 0.  1.
         11    1    3    3    0    0 -0.27671575365E+02  0.80377335705E+01 -0.10694900197E+02  0.30736007135E+02  0.51100000000E-03 0. -1.
        -11    1    3    3    0    0 -0.74040498167E+01 -0.17336106305E+01 -0.13505624711E+02  0.15499266389E+02  0.51100000000E-03 0.  1.
        -12    1    3    3    0    0 -0.10520061424E+01  0.34504255200E+00  0.10876179826E+01  0.15519936090E+01  0.00000000000E+00 0.  1.
</event>
<event>
 7    1  0.2950722E-010  0.4778727E+02  0.7816164E-02  0.1312668E+00
        -11   -1    0    0    0    0  0.00000000000E+00  0.00000000000E+00  0.45593999997E+02  0.45594000000E+02  0.51100000000E-03 0. -1.
         11   -1    0    0    0    0 -0.00000000000E+00 -0.00000000000E+00 -0.45593999997E+02  0.45594000000E+02  0.51100000000E-03 0.  1.
    9900012    2    1    2    0    0 -0.22353165677E+02  0.37119206142E+02  0.24746270689E+01  0.47787271210E+02  0.20000000755E+02 0.  0.
        -12    1    1    2    0    0  0.22353165677E+02 -0.37119206142E+02 -0.24746270689E+01  0.43400728790E+02  0.00000000000E+00 0.  1.
         11    1    3    3    0    0 -0.10162922978E+01  0.43055474107E+01 -0.62334329183E+00  0.44675659660E+01  0.51100000000E-03 0. -1.
        -11    1    3    3    0    0 -0.87389367039E+01  0.28520507499E+02  0.32798837695E+01  0.30009098629E+02  0.51100000000E-03 0.  1.
        -12    1    3    3    0    0 -0.12597936675E+02  0.42931512319E+01 -0.18191340878E+00  0.13310606615E+02  0.00000000000E+00 0.  1.
</event>
<event>
 7    1  0.2950722E-010  0.4778727E+02  0.7816164E-02  0.1312668E+00
        -11   -1    0    0    0    0  0.00000000000E+00  0.00000000000E+00  0.45593999997E+02  0.45594000000E+02  0.51100000000E-03 0.  1.
         11   -1    0    0    0    0 -0.00000000000E+00 -0.00000000000E+00 -0.45593999997E+02  0.45594000000E+02  0.51100000000E-03 0. -1.
    9900012    2    1    2    0    0 -0.87694708587E+00 -0.39304337115E+01 -0.43213496987E+02  0.47787266513E+02  0.19999979339E+02 0.  0.
        -12    1    1    2    0    0  0.87694708587E+00  0.39304337115E+01  0.43213496987E+02  0.43400733487E+02  0.00000000000E+00 0.  1.
         11    1    3    3    0    0 -0.53804241822E+01 -0.39068287166E+01 -0.22598464914E+02  0.23556376880E+02  0.51100000000E-03 0. -1.
        -11    1    3    3    0    0  0.68520077550E+01 -0.41306512148E+01 -0.13170647743E+02  0.15410329392E+02  0.51100000000E-03 0.  1.
        -12    1    3    3    0    0 -0.23485306587E+01  0.41070462198E+01 -0.74443843304E+01  0.88205602410E+01  0.00000000000E+00 0.  1.
</event>
<event>
 7    1  0.2950722E-010  0.4778731E+02  0.7816164E-02  0.1312668E+00
        -11   -1    0    0    0    0  0.00000000000E+00  0.00000000000E+00  0.45593999997E+02  0.45594000000E+02  0.51100000000E-03 0.  1.
         11   -1    0    0    0    0 -0.00000000000E+00 -0.00000000000E+00 -0.45593999997E+02  0.45594000000E+02  0.51100000000E-03 0. -1.
    9900012    2    1    2    0    0  0.15449166127E+02 -0.23188003145E+02 -0.33275507450E+02  0.47787313140E+02  0.20000191929E+02 0.  0.
        -12    1    1    2    0    0 -0.15449166127E+02  0.23188003145E+02  0.33275507450E+02  0.43400686860E+02  0.00000000000E+00 0.  1.
         11    1    3    3    0    0  0.72347710508E+01 -0.10198433359E+02 -0.20215836568E+02  0.23770359769E+02  0.51100000000E-03 0. -1.
        -11    1    3    3    0    0  0.25012457708E+01 -0.12298869836E+02 -0.37974449332E+01  0.13112551923E+02  0.51100000000E-03 0.  1.
        -12    1    3    3    0    0  0.57131493055E+01 -0.69069994999E+00 -0.92622259487E+01  0.10904401448E+02  0.00000000000E+00 0.  1.
</event>
<event>
 7    1  0.2950722E-010  0.4778727E+02  0.7816164E-02  0.1312668E+00
        -11   -1    0    0    0    0  0.00000000000E+00  0.00000000000E+00  0.45593999997E+02  0.45594000000E+02  0.51100000000E-03 0. -1.
         11   -1    0    0    0    0 -0.00000000000E+00 -0.00000000000E+00 -0.45593999997E+02  0.45594000000E+02  0.51100000000E-03 0.  1.
    9900012    2    1    2    0    0 -0.40104364386E+02  0.10588736630E+02  0.12772701454E+02  0.47787270875E+02  0.19999999226E+02 0.  0.
        -12    1    1    2    0    0  0.40104364386E+02 -0.10588736630E+02 -0.12772701454E+02  0.43400729125E+02  0.00000000000E+00 0.  1.
         11    1    3    3    0    0 -0.10493412206E+02 -0.12527716888E+01 -0.42194521677E+01  0.11379143795E+02  0.51100000000E-03 0. -1.
        -11    1    3    3    0    0 -0.13983350262E+02  0.67778372714E+01  0.10447480324E+02  0.18724930120E+02  0.51100000000E-03 0.  1.
        -12    1    3    3    0    0 -0.15627601917E+02  0.50636710473E+01  0.65446732973E+01  0.17683196960E+02  0.00000000000E+00 0.  1.
</event>
<event>
 7    1  0.2950722E-010  0.4778727E+02  0.7816164E-02  0.1312668E+00
        -11   -1    0    0    0    0  0.00000000000E+00  0.00000000000E+00  0.45593999997E+02  0.45594000000E+02  0.51100000000E-03 0.  1.
         11   -1    0    0    0    0 -0.00000000000E+00 -0.00000000000E+00 -0.45593999997E+02  0.45594000000E+02  0.51100000000E-03 0. -1.
    9900012    2    1    2    0    0  0.46453592306E+01  0.19097988935E+02 -0.38695096166E+02  0.47787274073E+02  0.20000013807E+02 0.  0.
        -12    1    1    2    0    0 -0.46453592306E+01 -0.19097988935E+02  0.38695096166E+02  0.43400725927E+02  0.00000000000E+00 0.  1.
         11    1    3    3    0    0 -0.15359673918E+01  0.12045714865E+02 -0.27329695629E+02  0.29906031263E+02  0.51100000000E-03 0. -1.
        -11    1    3    3    0    0  0.90213988775E+01  0.55366817199E+01 -0.86504135180E+01  0.13670045225E+02  0.51100000000E-03 0.  1.
        -12    1    3    3    0    0 -0.28400722550E+01  0.15155923502E+01 -0.27149870187E+01  0.42111975847E+01  0.00000000000E+00 0.  1.
</event>
<event>
 7    1  0.2950722E-010  0.4778728E+02  0.7816164E-02  0.1312668E+00
        -11   -1    0    0    0    0  0.00000000000E+00  0.00000000000E+00  0.45593999997E+02  0.45594000000E+02  0.51100000000E-03 0.  1.
         11   -1    0    0    0    0 -0.00000000000E+00 -0.00000000000E+00 -0.45593999997E+02  0.45594000000E+02  0.51100000000E-03 0. -1.
    9900012    2    1    2    0    0  0.31336429580E+02  0.22508391033E+02 -0.19875192947E+02  0.47787276729E+02  0.20000025919E+02 0.  0.
        -12    1    1    2    0    0 -0.31336429580E+02 -0.22508391033E+02  0.19875192947E+02  0.43400723271E+02  0.00000000000E+00 0.  1.
         11    1    3    3    0    0  0.34554148852E+01  0.36474456841E+01 -0.15880518728E+00  0.50268251805E+01  0.51100000000E-03 0. -1.
        -11    1    3    3    0    0  0.43046214003E+01  0.12216753885E+02 -0.36163931756E+01  0.13448313677E+02  0.51100000000E-03 0.  1.
        -12    1    3    3    0    0  0.23576393295E+02  0.66441914643E+01 -0.16099994584E+02  0.29312137872E+02  0.00000000000E+00 0.  1.
</event>
<event>
 7    1  0.2950722E-010  0.4778727E+02  0.7816164E-02  0.1312668E+00
        -11   -1    0    0    0    0  0.00000000000E+00  0.00000000000E+00  0.45593999997E+02  0.45594000000E+02  0.51100000000E-03 0. -1.
         11   -1    0    0    0    0 -0.00000000000E+00 -0.00000000000E+00 -0.45593999997E+02  0.45594000000E+02  0.51100000000E-03 0.  1.
    9900012    2    1    2    0    0 -0.13798657641E+02  0.30563495307E+02  0.27551642837E+02  0.47787271652E+02  0.20000002771E+02 0.  0.
        -12    1    1    2    0    0  0.13798657641E+02 -0.30563495307E+02 -0.27551642837E+02  0.43400728348E+02  0.00000000000E+00 0.  1.
         11    1    3    3    0    0 -0.11257360943E+01  0.64189079282E+01  0.75771603041E+01  0.99941492524E+01  0.51100000000E-03 0. -1.
        -11    1    3    3    0    0 -0.89705005769E+01  0.16377034908E+02  0.22097230862E+02  0.28930343327E+02  0.51100000000E-03 0.  1.
        -12    1    3    3    0    0 -0.37024209701E+01  0.77675524712E+01 -0.21227483289E+01  0.88627790732E+01  0.00000000000E+00 0.  1.
</event>
<event>
 7    1  0.2950722E-010  0.4778727E+02  0.7816164E-02  0.1312668E+00
        -11   -1    0    0    0    0  0.00000000000E+00  0.00000000000E+00  0.45593999997E+02  0.45594000000E+02  0.51100000000E-03 0.  1.
         11   -1    0    0    0    0 -0.00000000000E+00 -0.00000000000E+00 -0.45593999997E+02  0.45594000000E+02  0.51100000000E-03 0. -1.
    9900012    2    1    2    0    0 -0.42842744900E+02 -0.66756395511E+01 -0.18862625016E+01  0.47787274888E+02  0.20000017526E+02 0.  0.
        -12    1    1    2    0    0  0.42842744900E+02  0.66756395511E+01  0.18862625016E+01  0.43400725112E+02  0.00000000000E+00 0.  1.
         11    1    3    3    0    0 -0.19458966384E+02 -0.68007717169E+01  0.12240197634E+01  0.20649457458E+02  0.51100000000E-03 0. -1.
        -11    1    3    3    0    0 -0.56628722371E+01  0.29521804863E+00 -0.69854843067E+01  0.89973477720E+01  0.51100000000E-03 0.  1.
        -12    1    3    3    0    0 -0.17720906279E+02 -0.17008588288E+00  0.38752020417E+01  0.18140469658E+02  0.00000000000E+00 0.  1.
</event>
<event>
 7    1  0.2950722E-010  0.4778726E+02  0.7816164E-02  0.1312668E+00
        -11   -1    0    0    0    0  0.00000000000E+00  0.00000000000E+00  0.45593999997E+02  0.45594000000E+02  0.51100000000E-03 0. -1.
         11   -1    0    0    0    0 -0.00000000000E+00 -0.00000000000E+00 -0.45593999997E+02  0.45594000000E+02  0.51100000000E-03 0.  1.
    9900012    2    1    2    0    0  0.43374573456E+02 -0.34707046003E+00 -0.14663662705E+01  0.47787259103E+02  0.19999945553E+02 0.  0.
        -12    1    1    2    0    0 -0.43374573456E+02  0.34707046003E+00  0.14663662705E+01  0.43400740897E+02  0.00000000000E+00 0.  1.
         11    1    3    3    0    0  0.23469294868E+02  0.80660881845E+01  0.16960082847E+01  0.24874606018E+02  0.51100000000E-03 0. -1.
        -11    1    3    3    0    0  0.63040386938E+01 -0.49697159100E+01 -0.37711770716E+01  0.88690899672E+01  0.51100000000E-03 0.  1.
         12    1    3    3    0    0  0.13601239895E+02 -0.34434427345E+01  0.60880251644E+00  0.14043563118E+02  0.00000000000E+00 0. -1.
</event>
<event>
 7    1  0.2950722E-010  0.4778727E+02  0.7816164E-02  0.1312668E+00
        -11   -1    0    0    0    0  0.00000000000E+00  0.00000000000E+00  0.45593999997E+02  0.45594000000E+02  0.51100000000E-03 0.  1.
         11   -1    0    0    0    0 -0.00000000000E+00 -0.00000000000E+00 -0.45593999997E+02  0.45594000000E+02  0.51100000000E-03 0. -1.
    9900012    2    1    2    0    0 -0.26104711347E+02  0.27555624005E+02 -0.21044120689E+02  0.47787269771E+02  0.19999994196E+02 0.  0.
        -12    1    1    2    0    0  0.26104711347E+02 -0.27555624005E+02  0.21044120689E+02  0.43400730229E+02  0.00000000000E+00 0.  1.
         11    1    3    3    0    0 -0.17885863874E+02  0.68917485433E+01 -0.12290902661E+02  0.22769861945E+02  0.51100000000E-03 0. -1.
        -11    1    3    3    0    0 -0.29684368786E+01  0.10726043292E+02 -0.62502469849E+00  0.11146760890E+02  0.51100000000E-03 0.  1.
         12    1    3    3    0    0 -0.52504105941E+01  0.99378321695E+01 -0.81281933298E+01  0.13870646937E+02  0.00000000000E+00 0. -1.
</event>
<event>
 7    1  0.2950722E-010  0.4778728E+02  0.7816164E-02  0.1312668E+00
        -11   -1    0    0    0    0  0.00000000000E+00  0.00000000000E+00  0.45593999997E+02  0.45594000000E+02  0.51100000000E-03 0.  1.
         11   -1    0    0    0    0 -0.00000000000E+00 -0.00000000000E+00 -0.45593999997E+02  0.45594000000E+02  0.51100000000E-03 0. -1.
    9900012    2    1    2    0    0 -0.20021525135E+02 -0.34714311530E+02 -0.16663655016E+02  0.47787282354E+02  0.20000051564E+02 0.  0.
        -12    1    1    2    0    0  0.20021525135E+02  0.34714311530E+02  0.16663655016E+02  0.43400717646E+02  0.00000000000E+00 0.  1.
         11    1    3    3    0    0 -0.17596270043E+02 -0.27084955646E+02 -0.13413763853E+02  0.34973598653E+02  0.51100000000E-03 0. -1.
        -11    1    3    3    0    0  0.32395359245E+01 -0.50863602485E+01 -0.59212176068E+00  0.60593945262E+01  0.51100000000E-03 0.  1.
         12    1    3    3    0    0 -0.56647910164E+01 -0.25429956353E+01 -0.26577694017E+01  0.67542891745E+01  0.00000000000E+00 0. -1.
</event>
<event>
 7    1  0.2950722E-010  0.4778727E+02  0.7816164E-02  0.1312668E+00
        -11   -1    0    0    0    0  0.00000000000E+00  0.00000000000E+00  0.45593999997E+02  0.45594000000E+02  0.51100000000E-03 0. -1.
         11   -1    0    0    0    0 -0.00000000000E+00 -0.00000000000E+00 -0.45593999997E+02  0.45594000000E+02  0.51100000000E-03 0.  1.
    9900012    2    1    2    0    0 -0.37822264549E+02 -0.18782414758E+02  0.10016005595E+02  0.47787272266E+02  0.20000005570E+02 0.  0.
        -12    1    1    2    0    0  0.37822264549E+02  0.18782414758E+02 -0.10016005595E+02  0.43400727734E+02  0.00000000000E+00 0.  1.
         11    1    3    3    0    0 -0.19126084678E+02 -0.95599092014E+01 -0.37237784199E+01  0.21704043518E+02  0.51100000000E-03 0. -1.
        -11    1    3    3    0    0 -0.10945212589E+00 -0.23441208994E+01  0.12757068802E+01  0.26710130783E+01  0.51100000000E-03 0.  1.
         12    1    3    3    0    0 -0.18586727745E+02 -0.68783846573E+01  0.12464077134E+02  0.23412215670E+02  0.00000000000E+00 0. -1.
</event>
<event>
 7    1  0.2950722E-010  0.4778727E+02  0.7816164E-02  0.1312668E+00
        -11   -1    0    0    0    0  0.00000000000E+00  0.00000000000E+00  0.45593999997E+02  0.45594000000E+02  0.51100000000E-03 0. -1.
         11   -1    0    0    0    0 -0.00000000000E+00 -0.00000000000E+00 -0.45593999997E+02  0.45594000000E+02  0.51100000000E-03 0.  1.
    9900012    2    1    2    0    0  0.62478448805E+01 -0.10514690326E+02  0.41641673435E+02  0.47787271380E+02  0.20000001530E+02 0.  0.
        -12    1    1    2    0    0 -0.62478448805E+01  0.10514690326E+02 -0.41641673435E+02  0.43400728620E+02  0.00000000000E+00 0.  1.
         11    1    3    3    0    0  0.38704487282E+01  0.37840545299E+01  0.14715378137E+02  0.15679342971E+02  0.51100000000E-03 0. -1.
        -11    1    3    3    0    0  0.48756463926E+01 -0.81109258026E+01  0.93325853382E+01  0.13291207412E+02  0.51100000000E-03 0.  1.
        -12    1    3    3    0    0 -0.24982502403E+01 -0.61878190538E+01  0.17593709960E+02  0.18816720996E+02  0.00000000000E+00 0.  1.
</event>
<event>
 7    1  0.2950722E-010  0.4778727E+02  0.7816164E-02  0.1312668E+00
        -11   -1    0    0    0    0  0.00000000000E+00  0.00000000000E+00  0.45593999997E+02  0.45594000000E+02  0.51100000000E-03 0.  1.
         11   -1    0    0    0    0 -0.00000000000E+00 -0.00000000000E+00 -0.45593999997E+02  0.45594000000E+02  0.51100000000E-03 0. -1.
    9900012    2    1    2    0    0  0.45734966868E+01  0.27733474471E+02 -0.33069034761E+02  0.47787267999E+02  0.19999986115E+02 0.  0.
        -12    1    1    2    0    0 -0.45734966868E+01 -0.27733474471E+02  0.33069034761E+02  0.43400732001E+02  0.00000000000E+00 0.  1.
         11    1    3    3    0    0  0.77858304777E+01  0.23325809183E+02 -0.26679715725E+02  0.36283877435E+02  0.51100000000E-03 0. -1.
        -11    1    3    3    0    0 -0.24953691416E+00  0.35201315829E+01  0.85101286781E+00  0.36301264709E+01  0.51100000000E-03 0.  1.
         12    1    3    3    0    0 -0.29627968767E+01  0.88753370550E+00 -0.72403319038E+01  0.78732640937E+01  0.00000000000E+00 0. -1.
</event>
<event>
 7    1  0.2950722E-010  0.4778727E+02  0.7816164E-02  0.1312668E+00
        -11   -1    0    0    0    0  0.00000000000E+00  0.00000000000E+00  0.45593999997E+02  0.45594000000E+02  0.51100000000E-03 0. -1.
         11   -1    0    0    0    0 -0.00000000000E+00 -0.00000000000E+00 -0.45593999997E+02  0.45594000000E+02  0.51100000000E-03 0.  1.
    9900012    2    1    2    0    0  0.25479225173E+02 -0.25397946681E+02  0.24277080544E+02  0.47787271311E+02  0.20000001215E+02 0.  0.
        -12    1    1    2    0    0 -0.25479225173E+02  0.25397946681E+02 -0.24277080544E+02  0.43400728689E+02  0.00000000000E+00 0.  1.
         11    1    3    3    0    0  0.97310347752E+01 -0.21993437103E+01  0.94127082712E+01  0.13716020845E+02  0.51100000000E-03 0. -1.
        -11    1    3    3    0    0  0.15150753717E+01 -0.10284196654E+02  0.95868035970E+01  0.14140967353E+02  0.51100000000E-03 0.  1.
        -12    1    3    3    0    0  0.14233115026E+02 -0.12914406316E+02  0.52775686754E+01  0.19930283113E+02  0.00000000000E+00 0.  1.
</event>
<event>
 7    1  0.2950722E-010  0.4778730E+02  0.7816164E-02  0.1312668E+00
        -11   -1    0    0    0    0  0.00000000000E+00  0.00000000000E+00  0.45593999997E+02  0.45594000000E+02  0.51100000000E-03 0. -1.
         11   -1    0    0    0    0 -0.00000000000E+00 -0.00000000000E+00 -0.45593999997E+02  0.45594000000E+02  0.51100000000E-03 0.  1.
    9900012    2    1    2    0    0 -0.11763838490E+02 -0.61977908750E+01  0.41313685226E+02  0.47787296149E+02  0.20000114463E+02 0.  0.
        -12    1    1    2    0    0  0.11763838490E+02  0.61977908750E+01 -0.41313685226E+02  0.43400703851E+02  0.00000000000E+00 0.  1.
         11    1    3    3    0    0 -0.16085857130E+01  0.49702979553E+01  0.38905348823E+01  0.65136527150E+01  0.51100000000E-03 0. -1.
        -11    1    3    3    0    0 -0.43821890209E+01 -0.17573630066E+01  0.43999456118E+01  0.64537916762E+01  0.51100000000E-03 0.  1.
         12    1    3    3    0    0 -0.57730637559E+01 -0.94107258237E+01  0.33023204732E+02  0.34819851758E+02  0.00000000000E+00 0. -1.
</event>
<event>
 7    1  0.2950722E-010  0.4778727E+02  0.7816164E-02  0.1312668E+00
        -11   -1    0    0    0    0  0.00000000000E+00  0.00000000000E+00  0.45593999997E+02  0.45594000000E+02  0.51100000000E-03 0.  1.
         11   -1    0    0    0    0 -0.00000000000E+00 -0.00000000000E+00 -0.45593999997E+02  0.45594000000E+02  0.51100000000E-03 0. -1.
    9900012    2    1    2    0    0 -0.41159861775E+02 -0.96199527707E+01  0.98460889753E+01  0.47787272118E+02  0.20000004893E+02 0.  0.
        -12    1    1    2    0    0  0.41159861775E+02  0.96199527707E+01 -0.98460889753E+01  0.43400727882E+02  0.00000000000E+00 0.  1.
         11    1    3    3    0    0 -0.17707698626E+02 -0.12058772908E+02  0.32668995223E+01  0.21671391913E+02  0.51100000000E-03 0. -1.
        -11    1    3    3    0    0 -0.17414498153E+02  0.48059438417E+01  0.75100124132E+01  0.19564307523E+02  0.51100000000E-03 0.  1.
        -12    1    3    3    0    0 -0.60376649953E+01 -0.23671237044E+01 -0.93082296027E+00  0.65515726822E+01  0.00000000000E+00 0.  1.
</event>
<event>
 7    1  0.2950722E-010  0.4778726E+02  0.7816164E-02  0.1312668E+00
        -11   -1    0    0    0    0  0.00000000000E+00  0.00000000000E+00  0.45593999997E+02  0.45594000000E+02  0.51100000000E-03 0.  1.
         11   -1    0    0    0    0 -0.00000000000E+00 -0.00000000000E+00 -0.45593999997E+02  0.45594000000E+02  0.51100000000E-03 0. -1.
    9900012    2    1    2    0    0  0.55499036230E+01 -0.41094550746E+02 -0.12808619774E+02  0.47787259548E+02  0.19999947584E+02 0.  0.
        -12    1    1    2    0    0 -0.55499036230E+01  0.41094550746E+02  0.12808619774E+02  0.43400740452E+02  0.00000000000E+00 0.  1.
         11    1    3    3    0    0 -0.51876316737E+01 -0.11225970895E+02  0.17155083225E+01  0.12485067640E+02  0.51100000000E-03 0. -1.
        -11    1    3    3    0    0  0.22953847301E+01 -0.35691016463E+01 -0.35391104510E+00  0.42582309602E+01  0.51100000000E-03 0.  1.
         12    1    3    3    0    0  0.84421505666E+01 -0.26299478205E+02 -0.14170217052E+02  0.31043960948E+02  0.00000000000E+00 0. -1.
</event>
<event>
 7    1  0.2950722E-010  0.4778727E+02  0.7816164E-02  0.1312668E+00
        -11   -1    0    0    0    0  0.00000000000E+00  0.00000000000E+00  0.45593999997E+02  0.45594000000E+02  0.51100000000E-03 0.  1.
         11   -1    0    0    0    0 -0.00000000000E+00 -0.00000000000E+00 -0.45593999997E+02  0.45594000000E+02  0.51100000000E-03 0. -1.
    9900012    2    1    2    0    0  0.81992920908E+01  0.18587510797E+02 -0.38352303375E+02  0.47787272788E+02  0.20000007948E+02 0.  0.
        -12    1    1    2    0    0 -0.81992920908E+01 -0.18587510797E+02  0.38352303375E+02  0.43400727212E+02  0.00000000000E+00 0.  1.
         11    1    3    3    0    0  0.59702934234E+01 -0.13744899603E+01 -0.37482184519E+01  0.71821144544E+01  0.51100000000E-03 0. -1.
        -11    1    3    3    0    0  0.73512688897E+00  0.46782104844E+01 -0.34088177067E+01  0.58349038807E+01  0.51100000000E-03 0.  1.
         12    1    3    3    0    0  0.14938717785E+01  0.15283790272E+02 -0.31195267216E+02  0.34770254452E+02  0.00000000000E+00 0. -1.
</event>
<event>
 7    1  0.2950722E-010  0.4778726E+02  0.7816164E-02  0.1312668E+00
        -11   -1    0    0    0    0  0.00000000000E+00  0.00000000000E+00  0.45593999997E+02  0.45594000000E+02  0.51100000000E-03 0.  1.
         11   -1    0    0    0    0 -0.00000000000E+00 -0.00000000000E+00 -0.45593999997E+02  0.45594000000E+02  0.51100000000E-03 0. -1.
    9900012    2    1    2    0    0 -0.55639045233E+01  0.12814970793E+02 -0.41090671933E+02  0.47787264639E+02  0.19999970795E+02 0.  0.
        -12    1    1    2    0    0  0.55639045233E+01 -0.12814970793E+02  0.41090671933E+02  0.43400735361E+02  0.00000000000E+00 0.  1.
         11    1    3    3    0    0 -0.71568304974E+00  0.14068410976E+02 -0.20893806571E+02  0.25198879795E+02  0.51100000000E-03 0. -1.
        -11    1    3    3    0    0  0.24557554530E+01 -0.10758896668E+01 -0.71337205840E+01  0.76209082826E+01  0.51100000000E-03 0.  1.
         12    1    3    3    0    0 -0.73039769266E+01 -0.17755051660E+00 -0.13063144778E+02  0.14967476562E+02  0.00000000000E+00 0. -1.
</event>
<event>
 7    1  0.2950722E-010  0.4778725E+02  0.7816164E-02  0.1312668E+00
        -11   -1    0    0    0    0  0.00000000000E+00  0.00000000000E+00  0.45593999997E+02  0.45594000000E+02  0.51100000000E-03 0.  1.
         11   -1    0    0    0    0 -0.00000000000E+00 -0.00000000000E+00 -0.45593999997E+02  0.45594000000E+02  0.51100000000E-03 0. -1.
    9900012    2    1    2    0    0  0.26505226847E+02  0.31061810560E+02 -0.14705850123E+02  0.47787249393E+02  0.19999901281E+02 0.  0.
        -12    1    1    2    0    0 -0.26505226847E+02 -0.31061810560E+02  0.14705850123E+02  0.43400750607E+02  0.00000000000E+00 0.  1.
         11    1    3    3    0    0  0.86154601040E+01  0.82554651220E+01  0.23809318296E+01  0.12167485107E+02  0.51100000000E-03 0.  1.
        -11    1    3    3    0    0  0.10746114098E+02  0.21412931340E+02 -0.13604692294E+02  0.27551411025E+02  0.51100000000E-03 0. -1.
         12    1    3    3    0    0  0.71436526445E+01  0.13934140973E+01 -0.34820896581E+01  0.80683532607E+01  0.00000000000E+00 0. -1.
</event>
<event>
 7    1  0.2950722E-010  0.4778728E+02  0.7816164E-02  0.1312668E+00
        -11   -1    0    0    0    0  0.00000000000E+00  0.00000000000E+00  0.45593999997E+02  0.45594000000E+02  0.51100000000E-03 0. -1.
         11   -1    0    0    0    0 -0.00000000000E+00 -0.00000000000E+00 -0.45593999997E+02  0.45594000000E+02  0.51100000000E-03 0.  1.
    9900012    2    1    2    0    0 -0.26688594590E+02  0.30445411494E+02 -0.15633871933E+02  0.47787284409E+02  0.20000060934E+02 0.  0.
        -12    1    1    2    0    0  0.26688594590E+02 -0.30445411494E+02  0.15633871933E+02  0.43400715591E+02  0.00000000000E+00 0.  1.
         11    1    3    3    0    0 -0.87364650652E+01  0.17301671722E+02 -0.13975278750E+01  0.19432620786E+02  0.51100000000E-03 0. -1.
        -11    1    3    3    0    0  0.50881213309E+00  0.37379942024E+01 -0.16958540966E+01  0.41361107120E+01  0.51100000000E-03 0.  1.
         12    1    3    3    0    0 -0.18460941658E+02  0.94057455697E+01 -0.12540489962E+02  0.24218552911E+02  0.00000000000E+00 0. -1.
</event>
<event>
 7    1  0.2950722E-010  0.4778722E+02  0.7816164E-02  0.1312668E+00
        -11   -1    0    0    0    0  0.00000000000E+00  0.00000000000E+00  0.45593999997E+02  0.45594000000E+02  0.51100000000E-03 0. -1.
         11   -1    0    0    0    0 -0.00000000000E+00 -0.00000000000E+00 -0.45593999997E+02  0.45594000000E+02  0.51100000000E-03 0.  1.
    9900012    2    1    2    0    0 -0.30587851485E+02  0.17272030708E+02  0.25488971136E+02  0.47787224053E+02  0.19999785747E+02 0.  0.
        -12    1    1    2    0    0  0.30587851485E+02 -0.17272030708E+02 -0.25488971136E+02  0.43400775947E+02  0.00000000000E+00 0.  1.
         11    1    3    3    0    0 -0.22339366881E+02  0.17089023720E+02  0.15784081492E+02  0.32252430500E+02  0.51100000000E-03 0. -1.
        -11    1    3    3    0    0 -0.92450183127E+01 -0.21924762795E+01  0.70160764093E+01  0.11811123752E+02  0.51100000000E-03 0.  1.
         12    1    3    3    0    0  0.99653370836E+00  0.23754832669E+01  0.26888132343E+01  0.37236698017E+01  0.00000000000E+00 0. -1.
</event>
<event>
 7    1  0.2950722E-010  0.4778728E+02  0.7816164E-02  0.1312668E+00
        -11   -1    0    0    0    0  0.00000000000E+00  0.00000000000E+00  0.45593999997E+02  0.45594000000E+02  0.51100000000E-03 0. -1.
         11   -1    0    0    0    0 -0.00000000000E+00 -0.00000000000E+00 -0.45593999997E+02  0.45594000000E+02  0.51100000000E-03 0.  1.
    9900012    2    1    2    0    0 -0.54910024772E+01  0.10124514292E+02  0.41844543744E+02  0.47787277207E+02  0.20000028096E+02 0.  0.
        -12    1    1    2    0    0  0.54910024772E+01 -0.10124514292E+02 -0.41844543744E+02  0.43400722793E+02  0.00000000000E+00 0.  1.
         11    1    3    3    0    0 -0.61791049951E+01  0.34518255501E+01  0.46237876946E+01  0.84543391861E+01  0.51100000000E-03 0. -1.
        -11    1    3    3    0    0 -0.44099303152E+01  0.33660260282E+01  0.99374812178E+01  0.11381175239E+02  0.51100000000E-03 0.  1.
         12    1    3    3    0    0  0.50980328331E+01  0.33066627137E+01  0.27283274831E+02  0.27951762781E+02  0.00000000000E+00 0. -1.
</event>
<event>
 7    1  0.2950722E-010  0.4778727E+02  0.7816164E-02  0.1312668E+00
        -11   -1    0    0    0    0  0.00000000000E+00  0.00000000000E+00  0.45593999997E+02  0.45594000000E+02  0.51100000000E-03 0.  1.
         11   -1    0    0    0    0 -0.00000000000E+00 -0.00000000000E+00 -0.45593999997E+02  0.45594000000E+02  0.51100000000E-03 0. -1.
    9900012    2    1    2    0    0 -0.34716941126E+02  0.21766321474E+02 -0.14303304365E+02  0.47787271119E+02  0.20000000339E+02 0.  0.
        -12    1    1    2    0    0  0.34716941126E+02 -0.21766321474E+02  0.14303304365E+02  0.43400728881E+02  0.00000000000E+00 0.  1.
         11    1    3    3    0    0 -0.29705132405E+02  0.12663222162E+02 -0.11884242219E+02  0.34409116526E+02  0.51100000000E-03 0. -1.
        -11    1    3    3    0    0  0.62990484026E+00  0.70203473172E+01 -0.21046460674E+01  0.73560581762E+01  0.51100000000E-03 0.  1.
        -12    1    3    3    0    0 -0.56417135617E+01  0.20827519949E+01 -0.31441607875E+00  0.60220964170E+01  0.00000000000E+00 0.  1.
</event>
<event>
 7    1  0.2950722E-010  0.4778727E+02  0.7816164E-02  0.1312668E+00
        -11   -1    0    0    0    0  0.00000000000E+00  0.00000000000E+00  0.45593999997E+02  0.45594000000E+02  0.51100000000E-03 0.  1.
         11   -1    0    0    0    0 -0.00000000000E+00 -0.00000000000E+00 -0.45593999997E+02  0.45594000000E+02  0.51100000000E-03 0. -1.
    9900012    2    1    2    0    0  0.10341185307E+02  0.63183116849E+01 -0.41674482772E+02  0.47787266245E+02  0.19999978119E+02 0.  0.
        -12    1    1    2    0    0 -0.10341185307E+02 -0.63183116849E+01  0.41674482772E+02  0.43400733755E+02  0.00000000000E+00 0.  1.
         11    1    3    3    0    0  0.98143575677E+01  0.50578594988E+01 -0.18504102378E+02  0.21547746106E+02  0.51100000000E-03 0. -1.
        -11    1    3    3    0    0  0.32373669945E+01  0.51597776288E+01 -0.65092654898E+01  0.89148408686E+01  0.51100000000E-03 0.  1.
         12    1    3    3    0    0 -0.27105392554E+01 -0.38993254427E+01 -0.16661114904E+02  0.17324679270E+02  0.00000000000E+00 0. -1.
</event>
<event>
 7    1  0.2950722E-010  0.4778727E+02  0.7816164E-02  0.1312668E+00
        -11   -1    0    0    0    0  0.00000000000E+00  0.00000000000E+00  0.45593999997E+02  0.45594000000E+02  0.51100000000E-03 0.  1.
         11   -1    0    0    0    0 -0.00000000000E+00 -0.00000000000E+00 -0.45593999997E+02  0.45594000000E+02  0.51100000000E-03 0. -1.
    9900012    2    1    2    0    0 -0.27119833393E+02  0.33638837820E+02 -0.40702062248E+01  0.47787270146E+02  0.19999995904E+02 0.  0.
        -12    1    1    2    0    0  0.27119833393E+02 -0.33638837820E+02  0.40702062248E+01  0.43400729854E+02  0.00000000000E+00 0.  1.
         11    1    3    3    0    0 -0.12337806640E+02  0.26390100059E+02 -0.47016366908E+01  0.29508714673E+02  0.51100000000E-03 0. -1.
        -11    1    3    3    0    0 -0.67165321400E+01  0.76649054342E+01  0.31904256484E+00  0.10196291861E+02  0.51100000000E-03 0.  1.
         12    1    3    3    0    0 -0.80654946130E+01 -0.41616767339E+00  0.31238790112E+00  0.80822636115E+01  0.00000000000E+00 0. -1.
</event>
<event>
 7    1  0.2950722E-010  0.4778727E+02  0.7816164E-02  0.1312668E+00
        -11   -1    0    0    0    0  0.00000000000E+00  0.00000000000E+00  0.45593999997E+02  0.45594000000E+02  0.51100000000E-03 0.  1.
         11   -1    0    0    0    0 -0.00000000000E+00 -0.00000000000E+00 -0.45593999997E+02  0.45594000000E+02  0.51100000000E-03 0. -1.
    9900012    2    1    2    0    0  0.17272730950E+02 -0.33629803756E+02 -0.21314601527E+02  0.47787272202E+02  0.20000005277E+02 0.  0.
        -12    1    1    2    0    0 -0.17272730950E+02  0.33629803756E+02  0.21314601527E+02  0.43400727798E+02  0.00000000000E+00 0.  1.
         11    1    3    3    0    0  0.25468530018E+01 -0.14542032515E+02 -0.12452567412E+02  0.19313819024E+02  0.51100000000E-03 0. -1.
        -11    1    3    3    0    0 -0.12488417777E+01 -0.66999722057E+01 -0.28094927626E+01  0.73717354257E+01  0.51100000000E-03 0.  1.
         12    1    3    3    0    0  0.15974719726E+02 -0.12387799035E+02 -0.60525413527E+01  0.21101717752E+02  0.00000000000E+00 0. -1.
</event>
<event>
 7    1  0.2950722E-010  0.4778727E+02  0.7816164E-02  0.1312668E+00
        -11   -1    0    0    0    0  0.00000000000E+00  0.00000000000E+00  0.45593999997E+02  0.45594000000E+02  0.51100000000E-03 0.  1.
         11   -1    0    0    0    0 -0.00000000000E+00 -0.00000000000E+00 -0.45593999997E+02  0.45594000000E+02  0.51100000000E-03 0. -1.
    9900012    2    1    2    0    0  0.39828899396E+02  0.93512534728E+01 -0.14485719029E+02  0.47787271615E+02  0.20000002600E+02 0.  0.
        -12    1    1    2    0    0 -0.39828899396E+02 -0.93512534728E+01  0.14485719029E+02  0.43400728385E+02  0.00000000000E+00 0.  1.
         11    1    3    3    0    0 -0.17540802285E+00  0.27862780606E+01 -0.17325598646E+01  0.32857080440E+01  0.51100000000E-03 0. -1.
        -11    1    3    3    0    0  0.25139403033E+02  0.31437774895E+01 -0.11945719446E+01  0.25363357904E+02  0.51100000000E-03 0.  1.
        -12    1    3    3    0    0  0.14864904385E+02  0.34211979228E+01 -0.11558587220E+02  0.19138205667E+02  0.00000000000E+00 0.  1.
</event>
<event>
 7    1  0.2950722E-010  0.4778727E+02  0.7816164E-02  0.1312668E+00
        -11   -1    0    0    0    0  0.00000000000E+00  0.00000000000E+00  0.45593999997E+02  0.45594000000E+02  0.51100000000E-03 0. -1.
         11   -1    0    0    0    0 -0.00000000000E+00 -0.00000000000E+00 -0.45593999997E+02  0.45594000000E+02  0.51100000000E-03 0.  1.
    9900012    2    1    2    0    0 -0.25487197238E+02 -0.20107998537E+02  0.28804422101E+02  0.47787267739E+02  0.19999984928E+02 0.  0.
        -12    1    1    2    0    0  0.25487197238E+02  0.20107998537E+02 -0.28804422101E+02  0.43400732261E+02  0.00000000000E+00 0.  1.
         11    1    3    3    0    0  0.12274784354E+01 -0.55811516032E+01  0.25924926175E+01  0.62751075497E+01  0.51100000000E-03 0. -1.
        -11    1    3    3    0    0 -0.23871044361E+02 -0.97647926265E+01  0.17440979951E+02  0.31134638521E+02  0.51100000000E-03 0.  1.
        -12    1    3    3    0    0 -0.28436313123E+01 -0.47620543075E+01  0.87709495322E+01  0.10377521668E+02  0.00000000000E+00 0.  1.
</event>
<event>
 7    1  0.2950722E-010  0.4778727E+02  0.7816164E-02  0.1312668E+00
        -11   -1    0    0    0    0  0.00000000000E+00  0.00000000000E+00  0.45593999997E+02  0.45594000000E+02  0.51100000000E-03 0.  1.
         11   -1    0    0    0    0 -0.00000000000E+00 -0.00000000000E+00 -0.45593999997E+02  0.45594000000E+02  0.51100000000E-03 0. -1.
    9900012    2    1    2    0    0 -0.35422653864E+02 -0.75115324268E+01 -0.23925632276E+02  0.47787269523E+02  0.19999993064E+02 0.  0.
        -12    1    1    2    0    0  0.35422653864E+02  0.75115324268E+01  0.23925632276E+02  0.43400730477E+02  0.00000000000E+00 0.  1.
         11    1    3    3    0    0 -0.24592052916E+02 -0.31779615994E+01 -0.51871710520E+01  0.25333283450E+02  0.51100000000E-03 0. -1.
        -11    1    3    3    0    0 -0.20942151985E+01 -0.17684135911E+01 -0.75294994916E+01  0.80128887914E+01  0.51100000000E-03 0.  1.
         12    1    3    3    0    0 -0.87363857487E+01 -0.25651572363E+01 -0.11208961732E+02  0.14441097282E+02  0.00000000000E+00 0. -1.
</event>
<event>
 7    1  0.2950722E-010  0.4778727E+02  0.7816164E-02  0.1312668E+00
        -11   -1    0    0    0    0  0.00000000000E+00  0.00000000000E+00  0.45593999997E+02  0.45594000000E+02  0.51100000000E-03 0.  1.
         11   -1    0    0    0    0 -0.00000000000E+00 -0.00000000000E+00 -0.45593999997E+02  0.45594000000E+02  0.51100000000E-03 0. -1.
    9900012    2    1    2    0    0 -0.20300691253E+02  0.37563267863E+02 -0.77785913322E+01  0.47787266815E+02  0.19999980715E+02 0.  0.
        -12    1    1    2    0    0  0.20300691253E+02 -0.37563267863E+02  0.77785913322E+01  0.43400733185E+02  0.00000000000E+00 0.  1.
         11    1    3    3    0    0 -0.86120852998E-01  0.90902108196E+01  0.52271170129E+00  0.91056343727E+01  0.51100000000E-03 0. -1.
        -11    1    3    3    0    0 -0.19477084583E+02  0.25949460979E+02 -0.27780360022E+01  0.32564533364E+02  0.51100000000E-03 0.  1.
        -12    1    3    3    0    0 -0.73748581664E+00  0.25235960649E+01 -0.55232670313E+01  0.61170990778E+01  0.00000000000E+00 0.  1.
</event>
<event>
 7    1  0.2950722E-010  0.4778728E+02  0.7816164E-02  0.1312668E+00
        -11   -1    0    0    0    0  0.00000000000E+00  0.00000000000E+00  0.45593999997E+02  0.45594000000E+02  0.51100000000E-03 0. -1.
         11   -1    0    0    0    0 -0.00000000000E+00 -0.00000000000E+00 -0.45593999997E+02  0.45594000000E+02  0.51100000000E-03 0.  1.
    9900012    2    1    2    0    0  0.23611715462E+02  0.25766698348E+02  0.25732988474E+02  0.47787279423E+02  0.20000038199E+02 0.  0.
        -12    1    1    2    0    0 -0.23611715462E+02 -0.25766698348E+02 -0.25732988474E+02  0.43400720577E+02  0.00000000000E+00 0.  1.
         11    1    3    3    0    0  0.15809218395E+02  0.58691826674E+01  0.14996171909E+02  0.22566875362E+02  0.51100000000E-03 0. -1.
        -11    1    3    3    0    0 -0.77211593957E+00  0.82701738383E+01  0.29942141986E+01  0.88293407041E+01  0.51100000000E-03 0.  1.
         12    1    3    3    0    0  0.85746130071E+01  0.11627341842E+02  0.77426023672E+01  0.16391063356E+02  0.00000000000E+00 0. -1.
</event>
<event>
 7    1  0.2950722E-010  0.4778727E+02  0.7816164E-02  0.1312668E+00
        -11   -1    0    0    0    0  0.00000000000E+00  0.00000000000E+00  0.45593999997E+02  0.45594000000E+02  0.51100000000E-03 0. -1.
         11   -1    0    0    0    0 -0.00000000000E+00 -0.00000000000E+00 -0.45593999997E+02  0.45594000000E+02  0.51100000000E-03 0.  1.
    9900012    2    1    2    0    0 -0.91408887074E+01  0.39082257608E+02  0.16511960695E+02  0.47787267839E+02  0.19999985386E+02 0.  0.
        -12    1    1    2    0    0  0.91408887074E+01 -0.39082257608E+02 -0.16511960695E+02  0.43400732161E+02  0.00000000000E+00 0.  1.
         11    1    3    3    0    0 -0.34938326935E+00  0.18656554632E+02 -0.65433078609E+00  0.18671294771E+02  0.51100000000E-03 0. -1.
        -11    1    3    3    0    0 -0.82447004547E+01  0.16159691624E+02  0.98860515625E+01  0.20660221072E+02  0.51100000000E-03 0.  1.
         12    1    3    3    0    0 -0.54680498331E+00  0.42660113523E+01  0.72802399188E+01  0.84557519963E+01  0.00000000000E+00 0. -1.
</event>
<event>
 7    1  0.2950722E-010  0.4778728E+02  0.7816164E-02  0.1312668E+00
        -11   -1    0    0    0    0  0.00000000000E+00  0.00000000000E+00  0.45593999997E+02  0.45594000000E+02  0.51100000000E-03 0.  1.
         11   -1    0    0    0    0 -0.00000000000E+00 -0.00000000000E+00 -0.45593999997E+02  0.45594000000E+02  0.51100000000E-03 0. -1.
    9900012    2    1    2    0    0 -0.41789302935E+02  0.73178143925E+01 -0.91501970879E+01  0.47787281642E+02  0.20000048316E+02 0.  0.
        -12    1    1    2    0    0  0.41789302935E+02 -0.73178143925E+01  0.91501970879E+01  0.43400718358E+02  0.00000000000E+00 0.  1.
         11    1    3    3    0    0 -0.13202828906E+02  0.60667397563E+01  0.78842588575E+00  0.14551344887E+02  0.51100000000E-03 0. -1.
        -11    1    3    3    0    0 -0.28549685226E+02 -0.15280597377E+01 -0.75486126477E+01  0.29570273016E+02  0.51100000000E-03 0.  1.
        -12    1    3    3    0    0 -0.36788803110E-01  0.27791343740E+01 -0.23900103260E+01  0.36656637384E+01  0.00000000000E+00 0.  1.
</event>
<event>
 7    1  0.2950722E-010  0.4778727E+02  0.7816164E-02  0.1312668E+00
        -11   -1    0    0    0    0  0.00000000000E+00  0.00000000000E+00  0.45593999997E+02  0.45594000000E+02  0.51100000000E-03 0.  1.
         11   -1    0    0    0    0 -0.00000000000E+00 -0.00000000000E+00 -0.45593999997E+02  0.45594000000E+02  0.51100000000E-03 0. -1.
    9900012    2    1    2    0    0 -0.20243240077E+02  0.23118712239E+02 -0.30648969491E+02  0.47787274715E+02  0.20000016736E+02 0.  0.
        -12    1    1    2    0    0  0.20243240077E+02 -0.23118712239E+02  0.30648969491E+02  0.43400725285E+02  0.00000000000E+00 0.  1.
         11    1    3    3    0    0 -0.88637311724E+01  0.13142981040E+02 -0.17059107461E+02  0.23287696935E+02  0.51100000000E-03 0. -1.
        -11    1    3    3    0    0 -0.83984144787E+01  0.75685992560E+01 -0.10117411219E+01  0.11350800889E+02  0.51100000000E-03 0.  1.
        -12    1    3    3    0    0 -0.29810944262E+01  0.24071319432E+01 -0.12578120908E+02  0.13148776892E+02  0.00000000000E+00 0.  1.
</event>
<event>
 7    1  0.2950722E-010  0.4778727E+02  0.7816164E-02  0.1312668E+00
        -11   -1    0    0    0    0  0.00000000000E+00  0.00000000000E+00  0.45593999997E+02  0.45594000000E+02  0.51100000000E-03 0.  1.
         11   -1    0    0    0    0 -0.00000000000E+00 -0.00000000000E+00 -0.45593999997E+02  0.45594000000E+02  0.51100000000E-03 0. -1.
    9900012    2    1    2    0    0  0.42706302108E+01 -0.25583617278E+02 -0.34797461548E+02  0.47787273213E+02  0.20000009887E+02 0.  0.
        -12    1    1    2    0    0 -0.42706302108E+01  0.25583617278E+02  0.34797461548E+02  0.43400726787E+02  0.00000000000E+00 0.  1.
         11    1    3    3    0    0  0.52920617467E+01 -0.59563406726E+01 -0.99377408329E+01  0.12737448915E+02  0.51100000000E-03 0. -1.
        -11    1    3    3    0    0 -0.42412765220E+00 -0.13788026585E+02 -0.55525439851E+01  0.14870114537E+02  0.51100000000E-03 0.  1.
        -12    1    3    3    0    0 -0.59730388373E+00 -0.58392500203E+01 -0.19307176730E+02  0.20179709761E+02  0.00000000000E+00 0.  1.
</event>
<event>
 7    1  0.2950722E-010  0.4778726E+02  0.7816164E-02  0.1312668E+00
        -11   -1    0    0    0    0  0.00000000000E+00  0.00000000000E+00  0.45593999997E+02  0.45594000000E+02  0.51100000000E-03 0.  1.
         11   -1    0    0    0    0 -0.00000000000E+00 -0.00000000000E+00 -0.45593999997E+02  0.45594000000E+02  0.51100000000E-03 0. -1.
    9900012    2    1    2    0    0 -0.10515104743E+02 -0.16528697477E+02 -0.38728008877E+02  0.47787263375E+02  0.19999965030E+02 0.  0.
        -12    1    1    2    0    0  0.10515104743E+02  0.16528697477E+02  0.38728008877E+02  0.43400736625E+02  0.00000000000E+00 0.  1.
         11    1    3    3    0    0 -0.51501097196E+01 -0.79055669263E+01 -0.21193094730E+02  0.23198467256E+02  0.51100000000E-03 0. -1.
        -11    1    3    3    0    0  0.35534951480E+01 -0.20713693923E+01 -0.32238611302E+00  0.41257522942E+01  0.51100000000E-03 0.  1.
        -12    1    3    3    0    0 -0.89184901715E+01 -0.65517611579E+01 -0.17212528035E+02  0.20463043824E+02  0.00000000000E+00 0.  1.
</event>
<event>
 7    1  0.2950722E-010  0.4778727E+02  0.7816164E-02  0.1312668E+00
        -11   -1    0    0    0    0  0.00000000000E+00  0.00000000000E+00  0.45593999997E+02  0.45594000000E+02  0.51100000000E-03 0.  1.
         11   -1    0    0    0    0 -0.00000000000E+00 -0.00000000000E+00 -0.45593999997E+02  0.45594000000E+02  0.51100000000E-03 0. -1.
    9900012    2    1    2    0    0  0.34417989806E+02 -0.51577569847E+01  0.25931111192E+02  0.47787274119E+02  0.20000014018E+02 0.  0.
        -12    1    1    2    0    0 -0.34417989806E+02  0.51577569847E+01 -0.25931111192E+02  0.43400725881E+02  0.00000000000E+00 0.  1.
         11    1    3    3    0    0  0.21276975694E+02  0.44094772701E+01  0.11498563737E+02  0.24583940953E+02  0.51100000000E-03 0. -1.
        -11    1    3    3    0    0  0.10178310654E+02 -0.75767957730E+01  0.14936610947E+02  0.19598678241E+02  0.51100000000E-03 0.  1.
        -12    1    3    3    0    0  0.29627034578E+01 -0.19904384818E+01 -0.50406349213E+00  0.36046549256E+01  0.00000000000E+00 0.  1.
</event>
<event>
 7    1  0.2950722E-010  0.4778727E+02  0.7816164E-02  0.1312668E+00
        -11   -1    0    0    0    0  0.00000000000E+00  0.00000000000E+00  0.45593999997E+02  0.45594000000E+02  0.51100000000E-03 0. -1.
         11   -1    0    0    0    0 -0.00000000000E+00 -0.00000000000E+00 -0.45593999997E+02  0.45594000000E+02  0.51100000000E-03 0.  1.
    9900012    2    1    2    0    0  0.34707205156E+02 -0.12603842827E+01  0.26027762369E+02  0.47787273368E+02  0.20000010593E+02 0.  0.
        -12    1    1    2    0    0 -0.34707205156E+02  0.12603842827E+01 -0.26027762369E+02  0.43400726632E+02  0.00000000000E+00 0.  1.
         11    1    3    3    0    0  0.23399383850E+02 -0.49363705062E+01  0.14736879575E+02  0.28090470594E+02  0.51100000000E-03 0. -1.
        -11    1    3    3    0    0 -0.16207917187E+01 -0.11987140647E+01  0.28987119700E+01  0.35307807282E+01  0.51100000000E-03 0.  1.
        -12    1    3    3    0    0  0.12928613025E+02  0.48747002882E+01  0.83921708234E+01  0.16166022046E+02  0.00000000000E+00 0.  1.
</event>
<event>
 7    1  0.2950722E-010  0.4778728E+02  0.7816164E-02  0.1312668E+00
        -11   -1    0    0    0    0  0.00000000000E+00  0.00000000000E+00  0.45593999997E+02  0.45594000000E+02  0.51100000000E-03 0.  1.
         11   -1    0    0    0    0 -0.00000000000E+00 -0.00000000000E+00 -0.45593999997E+02  0.45594000000E+02  0.51100000000E-03 0. -1.
    9900012    2    1    2    0    0  0.25048509160E+02  0.37877963402E+01 -0.35239858977E+02  0.47787275663E+02  0.20000021060E+02 0.  0.
        -12    1    1    2    0    0 -0.25048509160E+02 -0.37877963402E+01  0.35239858977E+02  0.43400724337E+02  0.00000000000E+00 0.  1.
         11    1    3    3    0    0  0.22912407474E+02  0.72899701876E+01 -0.34306898915E+02  0.41893739330E+02  0.51100000000E-03 0. -1.
        -11    1    3    3    0    0  0.10931791773E+01 -0.29253100807E+01 -0.24464841053E+01  0.39670851416E+01  0.51100000000E-03 0.  1.
         12    1    3    3    0    0  0.10429225084E+01 -0.57686376673E+00  0.15135240438E+01  0.19264511920E+01  0.00000000000E+00 0. -1.
</event>
<event>
 7    1  0.2950722E-010  0.4778726E+02  0.7816164E-02  0.1312668E+00
        -11   -1    0    0    0    0  0.00000000000E+00  0.00000000000E+00  0.45593999997E+02  0.45594000000E+02  0.51100000000E-03 0. -1.
         11   -1    0    0    0    0 -0.00000000000E+00 -0.00000000000E+00 -0.45593999997E+02  0.45594000000E+02  0.51100000000E-03 0.  1.
    9900012    2    1    2    0    0 -0.23786559376E+00  0.32026616788E+02  0.29289301152E+02  0.47787263544E+02  0.19999965804E+02 0.  0.
        -12    1    1    2    0    0  0.23786559376E+00 -0.32026616788E+02 -0.29289301152E+02  0.43400736456E+02  0.00000000000E+00 0.  1.
         11    1    3    3    0    0  0.11446919436E+00  0.10284570128E+02  0.12557854183E+02  0.16232226830E+02  0.51100000000E-03 0. -1.
        -11    1    3    3    0    0 -0.83034403268E+00  0.13399315089E+01 -0.28598834141E+01  0.32655506526E+01  0.51100000000E-03 0.  1.
        -12    1    3    3    0    0  0.47800924455E+00  0.20402115151E+02  0.19591330383E+02  0.28289486062E+02  0.00000000000E+00 0.  1.
</event>
<event>
 7    1  0.2950722E-010  0.4778727E+02  0.7816164E-02  0.1312668E+00
        -11   -1    0    0    0    0  0.00000000000E+00  0.00000000000E+00  0.45593999997E+02  0.45594000000E+02  0.51100000000E-03 0.  1.
         11   -1    0    0    0    0 -0.00000000000E+00 -0.00000000000E+00 -0.45593999997E+02  0.45594000000E+02  0.51100000000E-03 0. -1.
    9900012    2    1    2    0    0  0.80617638393E+01  0.14748077327E+02 -0.40014064063E+02  0.47787272542E+02  0.20000006829E+02 0.  0.
        -12    1    1    2    0    0 -0.80617638393E+01 -0.14748077327E+02  0.40014064063E+02  0.43400727458E+02  0.00000000000E+00 0.  1.
         11    1    3    3    0    0  0.10360359941E+02  0.14522748839E+02 -0.24571773739E+02  0.30364771642E+02  0.51100000000E-03 0. -1.
        -11    1    3    3    0    0 -0.19075531143E+01  0.27866644447E+01 -0.14111028922E+02  0.14509493276E+02  0.51100000000E-03 0.  1.
         12    1    3    3    0    0 -0.39104298736E+00 -0.25613359567E+01 -0.13312614017E+01  0.29130076245E+01  0.00000000000E+00 0. -1.
</event>
<event>
 7    1  0.2950722E-010  0.4778727E+02  0.7816164E-02  0.1312668E+00
        -11   -1    0    0    0    0  0.00000000000E+00  0.00000000000E+00  0.45593999997E+02  0.45594000000E+02  0.51100000000E-03 0. -1.
         11   -1    0    0    0    0 -0.00000000000E+00 -0.00000000000E+00 -0.45593999997E+02  0.45594000000E+02  0.51100000000E-03 0.  1.
    9900012    2    1    2    0    0 -0.17162642826E+02  0.33456219630E+02  0.21673689708E+02  0.47787265372E+02  0.19999974137E+02 0.  0.
        -12    1    1    2    0    0  0.17162642826E+02 -0.33456219630E+02 -0.21673689708E+02  0.43400734628E+02  0.00000000000E+00 0.  1.
         11    1    3    3    0    0 -0.13085973224E+02  0.29140111712E+02  0.10622727883E+02  0.33663498834E+02  0.51100000000E-03 0. -1.
        -11    1    3    3    0    0  0.12770669307E+01 -0.26703391296E+00  0.37756192173E+01  0.39946849426E+01  0.51100000000E-03 0.  1.
         12    1    3    3    0    0 -0.53537365327E+01  0.45831418307E+01  0.72753426078E+01  0.10129081595E+02  0.00000000000E+00 0. -1.
</event>
<event>
 7    1  0.2950722E-010  0.4778729E+02  0.7816164E-02  0.1312668E+00
        -11   -1    0    0    0    0  0.00000000000E+00  0.00000000000E+00  0.45593999997E+02  0.45594000000E+02  0.51100000000E-03 0. -1.
         11   -1    0    0    0    0 -0.00000000000E+00 -0.00000000000E+00 -0.45593999997E+02  0.45594000000E+02  0.51100000000E-03 0.  1.
    9900012    2    1    2    0    0 -0.25150662541E+02  0.41404689240E+01  0.35127225594E+02  0.47787293933E+02  0.20000104357E+02 0.  0.
        -12    1    1    2    0    0  0.25150662541E+02 -0.41404689240E+01 -0.35127225594E+02  0.43400706067E+02  0.00000000000E+00 0.  1.
         11    1    3    3    0    0 -0.10665215046E+02 -0.42647641412E+01  0.17372009318E+02  0.20825986967E+02  0.51100000000E-03 0. -1.
        -11    1    3    3    0    0 -0.42234768900E+01  0.25403173475E+01 -0.76819490233E+00  0.49880951209E+01  0.51100000000E-03 0.  1.
         12    1    3    3    0    0 -0.10261970605E+02  0.58649157177E+01  0.18523411178E+02  0.21973211845E+02  0.00000000000E+00 0. -1.
</event>
<event>
 7    1  0.2950722E-010  0.4778727E+02  0.7816164E-02  0.1312668E+00
        -11   -1    0    0    0    0  0.00000000000E+00  0.00000000000E+00  0.45593999997E+02  0.45594000000E+02  0.51100000000E-03 0. -1.
         11   -1    0    0    0    0 -0.00000000000E+00 -0.00000000000E+00 -0.45593999997E+02  0.45594000000E+02  0.51100000000E-03 0.  1.
    9900012    2    1    2    0    0  0.23063189779E+01  0.30537767970E+02  0.30753038607E+02  0.47787265405E+02  0.19999974286E+02 0.  0.
        -12    1    1    2    0    0 -0.23063189779E+01 -0.30537767970E+02 -0.30753038607E+02  0.43400734595E+02  0.00000000000E+00 0.  1.
         11    1    3    3    0    0  0.16358912116E+01  0.94389397960E+01  0.17125331130E+02  0.19622606634E+02  0.51100000000E-03 0. -1.
        -11    1    3    3    0    0  0.42593726074E+01  0.20294941679E+02  0.10090152101E+02  0.23061614914E+02  0.51100000000E-03 0.  1.
         12    1    3    3    0    0 -0.35889448411E+01  0.80388649565E+00  0.35375553762E+01  0.51030438574E+01  0.00000000000E+00 0. -1.
</event>
<event>
 7    1  0.2950722E-010  0.4778727E+02  0.7816164E-02  0.1312668E+00
        -11   -1    0    0    0    0  0.00000000000E+00  0.00000000000E+00  0.45593999997E+02  0.45594000000E+02  0.51100000000E-03 0.  1.
         11   -1    0    0    0    0 -0.00000000000E+00 -0.00000000000E+00 -0.45593999997E+02  0.45594000000E+02  0.51100000000E-03 0. -1.
    9900012    2    1    2    0    0  0.35645217714E+02  0.82620721270E+01 -0.23340521325E+02  0.47787270543E+02  0.19999997712E+02 0.  0.
        -12    1    1    2    0    0 -0.35645217714E+02 -0.82620721270E+01  0.23340521325E+02  0.43400729457E+02  0.00000000000E+00 0.  1.
         11    1    3    3    0    0  0.13499682650E+02  0.26716977766E+00 -0.57915256265E+01  0.14691990358E+02  0.51100000000E-03 0. -1.
        -11    1    3    3    0    0  0.16335600454E+02  0.11663880917E+02 -0.86619066988E+01  0.21861532155E+02  0.51100000000E-03 0.  1.
        -12    1    3    3    0    0  0.58099346101E+01 -0.36689785677E+01 -0.88870889998E+01  0.11233748030E+02  0.00000000000E+00 0.  1.
</event>
<event>
 7    1  0.2950722E-010  0.4778726E+02  0.7816164E-02  0.1312668E+00
        -11   -1    0    0    0    0  0.00000000000E+00  0.00000000000E+00  0.45593999997E+02  0.45594000000E+02  0.51100000000E-03 0. -1.
         11   -1    0    0    0    0 -0.00000000000E+00 -0.00000000000E+00 -0.45593999997E+02  0.45594000000E+02  0.51100000000E-03 0.  1.
    9900012    2    1    2    0    0 -0.15587491593E+02 -0.33611263251E+01  0.40365292497E+02  0.47787263800E+02  0.19999966971E+02 0.  0.
        -12    1    1    2    0    0  0.15587491593E+02  0.33611263251E+01 -0.40365292497E+02  0.43400736200E+02  0.00000000000E+00 0.  1.
         11    1    3    3    0    0 -0.13998178923E+02 -0.72568960606E+01  0.31656536465E+02  0.35365913742E+02  0.51100000000E-03 0. -1.
        -11    1    3    3    0    0  0.17696809309E+01  0.28169297651E+01  0.82098639230E+01  0.88582577177E+01  0.51100000000E-03 0.  1.
        -12    1    3    3    0    0 -0.33589936003E+01  0.10788399703E+01  0.49889210845E+00  0.35630923401E+01  0.00000000000E+00 0.  1.
</event>
<event>
 7    1  0.2950722E-010  0.4778727E+02  0.7816164E-02  0.1312668E+00
        -11   -1    0    0    0    0  0.00000000000E+00  0.00000000000E+00  0.45593999997E+02  0.45594000000E+02  0.51100000000E-03 0. -1.
         11   -1    0    0    0    0 -0.00000000000E+00 -0.00000000000E+00 -0.45593999997E+02  0.45594000000E+02  0.51100000000E-03 0.  1.
    9900012    2    1    2    0    0  0.39409092373E+02  0.15192150672E+02 -0.99872615689E+01  0.47787269622E+02  0.19999993512E+02 0.  0.
        -12    1    1    2    0    0 -0.39409092373E+02 -0.15192150672E+02  0.99872615689E+01  0.43400730378E+02  0.00000000000E+00 0.  1.
         11    1    3    3    0    0  0.20995517850E+02  0.11656953286E+02 -0.91195844298E+01  0.25687801583E+02  0.51100000000E-03 0. -1.
        -11    1    3    3    0    0  0.27885396455E+01  0.20578454191E+01  0.43485490609E+01  0.55606258927E+01  0.51100000000E-03 0.  1.
         12    1    3    3    0    0  0.15625034878E+02  0.14773519668E+01 -0.52162261999E+01  0.16538842146E+02  0.00000000000E+00 0. -1.
</event>
<event>
 7    1  0.2950722E-010  0.4778727E+02  0.7816164E-02  0.1312668E+00
        -11   -1    0    0    0    0  0.00000000000E+00  0.00000000000E+00  0.45593999997E+02  0.45594000000E+02  0.51100000000E-03 0.  1.
         11   -1    0    0    0    0 -0.00000000000E+00 -0.00000000000E+00 -0.45593999997E+02  0.45594000000E+02  0.51100000000E-03 0. -1.
    9900012    2    1    2    0    0 -0.15155302427E+02  0.35757823496E+02 -0.19373133929E+02  0.47787269003E+02  0.19999990692E+02 0.  0.
        -12    1    1    2    0    0  0.15155302427E+02 -0.35757823496E+02  0.19373133929E+02  0.43400730997E+02  0.00000000000E+00 0.  1.
         11    1    3    3    0    0 -0.81460811753E+01  0.23396224817E+01 -0.57654654026E+00  0.84949913506E+01  0.51100000000E-03 0. -1.
        -11    1    3    3    0    0  0.41827364318E+00  0.25017443025E+01 -0.42984308898E+00  0.25726334247E+01  0.51100000000E-03 0.  1.
         12    1    3    3    0    0 -0.74274948953E+01  0.30916456712E+02 -0.18366744300E+02  0.36719644228E+02  0.00000000000E+00 0. -1.
</event>
<event>
 7    1  0.2950722E-010  0.4778729E+02  0.7816164E-02  0.1312668E+00
        -11   -1    0    0    0    0  0.00000000000E+00  0.00000000000E+00  0.45593999997E+02  0.45594000000E+02  0.51100000000E-03 0.  1.
         11   -1    0    0    0    0 -0.00000000000E+00 -0.00000000000E+00 -0.45593999997E+02  0.45594000000E+02  0.51100000000E-03 0. -1.
    9900012    2    1    2    0    0  0.14364343842E+02 -0.14387621572E+02 -0.38344278373E+02  0.47787289033E+02  0.20000082016E+02 0.  0.
        -12    1    1    2    0    0 -0.14364343842E+02  0.14387621572E+02  0.38344278373E+02  0.43400710967E+02  0.00000000000E+00 0.  1.
         11    1    3    3    0    0  0.97896791337E+01 -0.88521393075E+01 -0.34442288551E+02  0.36884541867E+02  0.51100000000E-03 0. -1.
        -11    1    3    3    0    0  0.34050105360E+01 -0.72942321562E+01 -0.28194589165E+01  0.85293181640E+01  0.51100000000E-03 0.  1.
         12    1    3    3    0    0  0.11696541722E+01  0.17587498917E+01 -0.10825309052E+01  0.23734290014E+01  0.00000000000E+00 0. -1.
</event>
<event>
 7    1  0.2950722E-010  0.4778728E+02  0.7816164E-02  0.1312668E+00
        -11   -1    0    0    0    0  0.00000000000E+00  0.00000000000E+00  0.45593999997E+02  0.45594000000E+02  0.51100000000E-03 0.  1.
         11   -1    0    0    0    0 -0.00000000000E+00 -0.00000000000E+00 -0.45593999997E+02  0.45594000000E+02  0.51100000000E-03 0. -1.
    9900012    2    1    2    0    0  0.14941982725E+02 -0.18110532922E+02 -0.36501621761E+02  0.47787278328E+02  0.20000033210E+02 0.  0.
        -12    1    1    2    0    0 -0.14941982725E+02  0.18110532922E+02  0.36501621761E+02  0.43400721672E+02  0.00000000000E+00 0.  1.
         11    1    3    3    0    0  0.47735606105E+01 -0.14176055621E+02 -0.23320369231E+02  0.27705361488E+02  0.51100000000E-03 0. -1.
        -11    1    3    3    0    0  0.89012106260E+01 -0.53339751249E+01 -0.46977264372E+01  0.11390850503E+02  0.51100000000E-03 0.  1.
        -12    1    3    3    0    0  0.12672114884E+01  0.13994978236E+01 -0.84835260923E+01  0.86910663370E+01  0.00000000000E+00 0.  1.
</event>
<event>
 7    1  0.2950722E-010  0.4778727E+02  0.7816164E-02  0.1312668E+00
        -11   -1    0    0    0    0  0.00000000000E+00  0.00000000000E+00  0.45593999997E+02  0.45594000000E+02  0.51100000000E-03 0.  1.
         11   -1    0    0    0    0 -0.00000000000E+00 -0.00000000000E+00 -0.45593999997E+02  0.45594000000E+02  0.51100000000E-03 0. -1.
    9900012    2    1    2    0    0 -0.30780199902E+02  0.22946904609E+02 -0.20239626479E+02  0.47787267090E+02  0.19999981969E+02 0.  0.
        -12    1    1    2    0    0  0.30780199902E+02 -0.22946904609E+02  0.20239626479E+02  0.43400732910E+02  0.00000000000E+00 0.  1.
         11    1    3    3    0    0 -0.20374819811E+02  0.15619858565E+02 -0.13109215870E+02  0.28826460152E+02  0.51100000000E-03 0. -1.
        -11    1    3    3    0    0 -0.31884740262E+01 -0.24790605965E+01  0.11939695426E+01  0.42116115190E+01  0.51100000000E-03 0.  1.
         12    1    3    3    0    0 -0.72169060652E+01  0.98061066404E+01 -0.83243801507E+01  0.14749195418E+02  0.00000000000E+00 0. -1.
</event>
<event>
 7    1  0.2950722E-010  0.4778727E+02  0.7816164E-02  0.1312668E+00
        -11   -1    0    0    0    0  0.00000000000E+00  0.00000000000E+00  0.45593999997E+02  0.45594000000E+02  0.51100000000E-03 0. -1.
         11   -1    0    0    0    0 -0.00000000000E+00 -0.00000000000E+00 -0.45593999997E+02  0.45594000000E+02  0.51100000000E-03 0.  1.
    9900012    2    1    2    0    0  0.38929812501E+02  0.13417854325E+02 -0.13713282895E+02  0.47787271391E+02  0.20000001581E+02 0.  0.
        -12    1    1    2    0    0 -0.38929812501E+02 -0.13417854325E+02  0.13713282895E+02  0.43400728609E+02  0.00000000000E+00 0.  1.
         11    1    3    3    0    0  0.20718607794E+02  0.12502971759E+02 -0.42574859893E+01  0.24570535178E+02  0.51100000000E-03 0. -1.
        -11    1    3    3    0    0  0.19603782358E+02  0.12915517148E+00 -0.87932433434E+01  0.21485951051E+02  0.51100000000E-03 0.  1.
        -12    1    3    3    0    0 -0.13925776518E+01  0.78572739417E+00 -0.66255356209E+00  0.17307851620E+01  0.00000000000E+00 0.  1.
</event>
<event>
 7    1  0.2950722E-010  0.4778727E+02  0.7816164E-02  0.1312668E+00
        -11   -1    0    0    0    0  0.00000000000E+00  0.00000000000E+00  0.45593999997E+02  0.45594000000E+02  0.51100000000E-03 0.  1.
         11   -1    0    0    0    0 -0.00000000000E+00 -0.00000000000E+00 -0.45593999997E+02  0.45594000000E+02  0.51100000000E-03 0. -1.
    9900012    2    1    2    0    0 -0.66029034996E+00 -0.25246338208E+02  0.35296036774E+02  0.47787265119E+02  0.19999972985E+02 0.  0.
        -12    1    1    2    0    0  0.66029034996E+00  0.25246338208E+02 -0.35296036774E+02  0.43400734881E+02  0.00000000000E+00 0.  1.
         11    1    3    3    0    0 -0.67891216028E+00 -0.92198770061E+01  0.90389974907E+01  0.12929444289E+02  0.51100000000E-03 0. -1.
        -11    1    3    3    0    0  0.68713469228E+01 -0.11901778457E+02  0.21603470535E+02  0.25604251178E+02  0.51100000000E-03 0.  1.
        -12    1    3    3    0    0 -0.68527251125E+01 -0.41246827442E+01  0.46535687485E+01  0.92535696520E+01  0.00000000000E+00 0.  1.
</event>
<event>
 7    1  0.2950722E-010  0.4778727E+02  0.7816164E-02  0.1312668E+00
        -11   -1    0    0    0    0  0.00000000000E+00  0.00000000000E+00  0.45593999997E+02  0.45594000000E+02  0.51100000000E-03 0. -1.
         11   -1    0    0    0    0 -0.00000000000E+00 -0.00000000000E+00 -0.45593999997E+02  0.45594000000E+02  0.51100000000E-03 0.  1.
    9900012    2    1    2    0    0  0.23931024211E+02 -0.35571268657E+02  0.67538260634E+01  0.47787271433E+02  0.20000001772E+02 0.  0.
        -12    1    1    2    0    0 -0.23931024211E+02  0.35571268657E+02 -0.67538260634E+01  0.43400728567E+02  0.00000000000E+00 0.  1.
         11    1    3    3    0    0  0.71145146354E+01 -0.89296491465E+01  0.46727367687E+01  0.12336507672E+02  0.51100000000E-03 0. -1.
        -11    1    3    3    0    0  0.64593813569E+01 -0.22302185349E+02  0.52047081418E+01  0.23794958835E+02  0.51100000000E-03 0.  1.
        -12    1    3    3    0    0  0.10357128218E+02 -0.43394341619E+01 -0.31236188471E+01  0.11655804926E+02  0.00000000000E+00 0.  1.
</event>
<event>
 7    1  0.2950722E-010  0.4778733E+02  0.7816164E-02  0.1312667E+00
        -11   -1    0    0    0    0  0.00000000000E+00  0.00000000000E+00  0.45593999997E+02  0.45594000000E+02  0.51100000000E-03 0.  1.
         11   -1    0    0    0    0 -0.00000000000E+00 -0.00000000000E+00 -0.45593999997E+02  0.45594000000E+02  0.51100000000E-03 0. -1.
    9900012    2    1    2    0    0 -0.17486581020E+02  0.23409269693E+02 -0.32091173735E+02  0.47787333472E+02  0.20000284632E+02 0.  0.
        -12    1    1    2    0    0  0.17486581020E+02 -0.23409269693E+02  0.32091173735E+02  0.43400666528E+02  0.00000000000E+00 0.  1.
         11    1    3    3    0    0 -0.15782698766E+02  0.13228774729E+02 -0.12537495314E+02  0.24109808174E+02  0.51100000000E-03 0.  1.
        -11    1    3    3    0    0 -0.32634976383E+01  0.48617013529E+01 -0.16136549587E+02  0.17166094189E+02  0.51100000000E-03 0. -1.
         12    1    3    3    0    0  0.15596153844E+01  0.53187936107E+01 -0.34171288343E+01  0.65114311092E+01  0.00000000000E+00 0. -1.
</event>
<event>
 7    1  0.2950722E-010  0.4778727E+02  0.7816164E-02  0.1312668E+00
        -11   -1    0    0    0    0  0.00000000000E+00  0.00000000000E+00  0.45593999997E+02  0.45594000000E+02  0.51100000000E-03 0.  1.
         11   -1    0    0    0    0 -0.00000000000E+00 -0.00000000000E+00 -0.45593999997E+02  0.45594000000E+02  0.51100000000E-03 0. -1.
    9900012    2    1    2    0    0  0.94303368447E+01 -0.23437499035E+02 -0.35289882842E+02  0.47787269072E+02  0.19999991008E+02 0.  0.
        -12    1    1    2    0    0 -0.94303368447E+01  0.23437499035E+02  0.35289882842E+02  0.43400730928E+02  0.00000000000E+00 0.  1.
         11    1    3    3    0    0 -0.28844998098E+01  0.20744802929E+00 -0.31095275197E+00  0.29086192107E+01  0.51100000000E-03 0. -1.
        -11    1    3    3    0    0  0.90310819849E+01 -0.89736459968E+01 -0.19599568721E+02  0.23371560893E+02  0.51100000000E-03 0.  1.
        -12    1    3    3    0    0  0.32837546695E+01 -0.14671301068E+02 -0.15379361370E+02  0.21507088968E+02  0.00000000000E+00 0.  1.
</event>
<event>
 7    1  0.2950722E-010  0.4778728E+02  0.7816164E-02  0.1312668E+00
        -11   -1    0    0    0    0  0.00000000000E+00  0.00000000000E+00  0.45593999997E+02  0.45594000000E+02  0.51100000000E-03 0. -1.
         11   -1    0    0    0    0 -0.00000000000E+00 -0.00000000000E+00 -0.45593999997E+02  0.45594000000E+02  0.51100000000E-03 0.  1.
    9900012    2    1    2    0    0 -0.34258132039E+02  0.22510698571E+02  0.14257321395E+02  0.47787281408E+02  0.20000047249E+02 0.  0.
        -12    1    1    2    0    0  0.34258132039E+02 -0.22510698571E+02 -0.14257321395E+02  0.43400718592E+02  0.00000000000E+00 0.  1.
         11    1    3    3    0    0 -0.24770356596E+02  0.64334305377E+01  0.55648941879E+01  0.26190220349E+02  0.51100000000E-03 0. -1.
        -11    1    3    3    0    0 -0.12799754602E+01  0.52962242088E+01  0.53605683615E+01  0.76435607846E+01  0.51100000000E-03 0.  1.
         12    1    3    3    0    0 -0.82077999833E+01  0.10781043825E+02  0.33318588453E+01  0.13953500273E+02  0.00000000000E+00 0. -1.
</event>
<event>
 7    1  0.2950722E-010  0.4778728E+02  0.7816164E-02  0.1312668E+00
        -11   -1    0    0    0    0  0.00000000000E+00  0.00000000000E+00  0.45593999997E+02  0.45594000000E+02  0.51100000000E-03 0.  1.
         11   -1    0    0    0    0 -0.00000000000E+00 -0.00000000000E+00 -0.45593999997E+02  0.45594000000E+02  0.51100000000E-03 0. -1.
    9900012    2    1    2    0    0 -0.18028935696E+02  0.71109758337E+01 -0.38833154965E+02  0.47787280833E+02  0.20000044632E+02 0.  0.
        -12    1    1    2    0    0  0.18028935696E+02 -0.71109758337E+01  0.38833154965E+02  0.43400719167E+02  0.00000000000E+00 0.  1.
         11    1    3    3    0    0 -0.71739013084E+01  0.60972661773E+01 -0.12427473467E+02  0.15591138889E+02  0.51100000000E-03 0. -1.
        -11    1    3    3    0    0 -0.85504854438E+01 -0.57308101297E+01 -0.20503375936E+02  0.22942131791E+02  0.51100000000E-03 0.  1.
        -12    1    3    3    0    0 -0.23045489442E+01  0.67445197861E+01 -0.59023055620E+01  0.92540101539E+01  0.00000000000E+00 0.  1.
</event>
<event>
 7    1  0.2950722E-010  0.4778726E+02  0.7816164E-02  0.1312668E+00
        -11   -1    0    0    0    0  0.00000000000E+00  0.00000000000E+00  0.45593999997E+02  0.45594000000E+02  0.51100000000E-03 0. -1.
         11   -1    0    0    0    0 -0.00000000000E+00 -0.00000000000E+00 -0.45593999997E+02  0.45594000000E+02  0.51100000000E-03 0.  1.
    9900012    2    1    2    0    0  0.23820472120E+02  0.16987180139E+02  0.32056898177E+02  0.47787263810E+02  0.19999967017E+02 0.  0.
        -12    1    1    2    0    0 -0.23820472120E+02 -0.16987180139E+02 -0.32056898177E+02  0.43400736190E+02  0.00000000000E+00 0.  1.
         11    1    3    3    0    0  0.16692837979E+02  0.17711916174E+02  0.19246827963E+02  0.31029070260E+02  0.51100000000E-03 0. -1.
        -11    1    3    3    0    0  0.62694499901E+01 -0.18695758146E+00  0.13912601961E+02  0.15261109065E+02  0.51100000000E-03 0.  1.
        -12    1    3    3    0    0  0.85818415029E+00 -0.53777845343E+00 -0.11025317468E+01  0.14970844844E+01  0.00000000000E+00 0.  1.
</event>
<event>
 7    1  0.2950722E-010  0.4778728E+02  0.7816164E-02  0.1312668E+00
        -11   -1    0    0    0    0  0.00000000000E+00  0.00000000000E+00  0.45593999997E+02  0.45594000000E+02  0.51100000000E-03 0. -1.
         11   -1    0    0    0    0 -0.00000000000E+00 -0.00000000000E+00 -0.45593999997E+02  0.45594000000E+02  0.51100000000E-03 0.  1.
    9900012    2    1    2    0    0  0.21661321202E+02  0.34206567716E+02  0.15630762492E+02  0.47787275960E+02  0.20000022410E+02 0.  0.
        -12    1    1    2    0    0 -0.21661321202E+02 -0.34206567716E+02 -0.15630762492E+02  0.43400724040E+02  0.00000000000E+00 0.  1.
         11    1    3    3    0    0  0.66880524332E+00  0.96793650034E+01 -0.32276394813E+01  0.10225217074E+02  0.51100000000E-03 0. -1.
        -11    1    3    3    0    0  0.82296681705E+01  0.95012715373E+01  0.93997519607E+01  0.15695761727E+02  0.51100000000E-03 0.  1.
         12    1    3    3    0    0  0.12762847788E+02  0.15025931176E+02  0.94586500128E+01  0.21866297158E+02  0.00000000000E+00 0. -1.
</event>
<event>
 7    1  0.2950722E-010  0.4778727E+02  0.7816164E-02  0.1312668E+00
        -11   -1    0    0    0    0  0.00000000000E+00  0.00000000000E+00  0.45593999997E+02  0.45594000000E+02  0.51100000000E-03 0.  1.
         11   -1    0    0    0    0 -0.00000000000E+00 -0.00000000000E+00 -0.45593999997E+02  0.45594000000E+02  0.51100000000E-03 0. -1.
    9900012    2    1    2    0    0  0.63740279575E+01 -0.42908399471E+02  0.13653531938E+01  0.47787272277E+02  0.20000005618E+02 0.  0.
        -12    1    1    2    0    0 -0.63740279575E+01  0.42908399471E+02 -0.13653531938E+01  0.43400727723E+02  0.00000000000E+00 0.  1.
         11    1    3    3    0    0  0.39599006935E+01 -0.18226467274E+02 -0.71895395033E+01  0.19989357201E+02  0.51100000000E-03 0. -1.
        -11    1    3    3    0    0 -0.26678321425E+01 -0.12864082209E+02  0.17772332484E+01  0.13257469506E+02  0.51100000000E-03 0.  1.
         12    1    3    3    0    0  0.50819594065E+01 -0.11817849989E+02  0.67776594487E+01  0.14540445570E+02  0.00000000000E+00 0. -1.
</event>
<event>
 7    1  0.2950722E-010  0.4778727E+02  0.7816164E-02  0.1312668E+00
        -11   -1    0    0    0    0  0.00000000000E+00  0.00000000000E+00  0.45593999997E+02  0.45594000000E+02  0.51100000000E-03 0.  1.
         11   -1    0    0    0    0 -0.00000000000E+00 -0.00000000000E+00 -0.45593999997E+02  0.45594000000E+02  0.51100000000E-03 0. -1.
    9900012    2    1    2    0    0 -0.15938119446E+02  0.33048596329E+02 -0.23181670698E+02  0.47787271583E+02  0.20000002455E+02 0.  0.
        -12    1    1    2    0    0  0.15938119446E+02 -0.33048596329E+02  0.23181670698E+02  0.43400728417E+02  0.00000000000E+00 0.  1.
         11    1    3    3    0    0 -0.35127631504E+01  0.14822798052E+02 -0.16525585589E+02  0.22475538400E+02  0.51100000000E-03 0. -1.
        -11    1    3    3    0    0  0.12078910658E+01  0.58093195830E+01 -0.23033161402E+01  0.63649399327E+01  0.51100000000E-03 0.  1.
         12    1    3    3    0    0 -0.13633247361E+02  0.12416478694E+02 -0.43527689686E+01  0.18946793250E+02  0.00000000000E+00 0. -1.
</event>
<event>
 7    1  0.2950722E-010  0.4778727E+02  0.7816164E-02  0.1312668E+00
        -11   -1    0    0    0    0  0.00000000000E+00  0.00000000000E+00  0.45593999997E+02  0.45594000000E+02  0.51100000000E-03 0.  1.
         11   -1    0    0    0    0 -0.00000000000E+00 -0.00000000000E+00 -0.45593999997E+02  0.45594000000E+02  0.51100000000E-03 0. -1.
    9900012    2    1    2    0    0  0.18745005552E+02 -0.21037269627E+02 -0.33010326049E+02  0.47787267605E+02  0.19999984320E+02 0.  0.
        -12    1    1    2    0    0 -0.18745005552E+02  0.21037269627E+02  0.33010326049E+02  0.43400732395E+02  0.00000000000E+00 0.  1.
         11    1    3    3    0    0  0.37615734683E+01 -0.13498539916E+02 -0.10377367698E+02  0.17437023124E+02  0.51100000000E-03 0. -1.
        -11    1    3    3    0    0  0.16853522018E+02 -0.63785829387E+01 -0.20184088709E+02  0.27057807782E+02  0.51100000000E-03 0.  1.
         12    1    3    3    0    0 -0.18700899339E+01 -0.11601467720E+01 -0.24488696421E+01  0.32924366991E+01  0.00000000000E+00 0. -1.
</event>
<event>
 7    1  0.2950722E-010  0.4778727E+02  0.7816164E-02  0.1312668E+00
        -11   -1    0    0    0    0  0.00000000000E+00  0.00000000000E+00  0.45593999997E+02  0.45594000000E+02  0.51100000000E-03 0. -1.
         11   -1    0    0    0    0 -0.00000000000E+00 -0.00000000000E+00 -0.45593999997E+02  0.45594000000E+02  0.51100000000E-03 0.  1.
    9900012    2    1    2    0    0 -0.26849142521E+02  0.12252672444E+02 -0.31821674116E+02  0.47787269826E+02  0.19999994443E+02 0.  0.
        -12    1    1    2    0    0  0.26849142521E+02 -0.12252672444E+02  0.31821674116E+02  0.43400730174E+02  0.00000000000E+00 0.  1.
         11    1    3    3    0    0 -0.15544809890E+02  0.11671526672E+02 -0.95419110287E+01  0.21654415617E+02  0.51100000000E-03 0. -1.
        -11    1    3    3    0    0 -0.11227100163E+02  0.81794856127E+00 -0.22871070435E+02  0.25491227531E+02  0.51100000000E-03 0.  1.
        -12    1    3    3    0    0 -0.77232467622E-01 -0.23680278900E+00  0.59130734746E+00  0.64162667813E+00  0.00000000000E+00 0.  1.
</event>
<event>
 7    1  0.2950722E-010  0.4778728E+02  0.7816164E-02  0.1312668E+00
        -11   -1    0    0    0    0  0.00000000000E+00  0.00000000000E+00  0.45593999997E+02  0.45594000000E+02  0.51100000000E-03 0. -1.
         11   -1    0    0    0    0 -0.00000000000E+00 -0.00000000000E+00 -0.45593999997E+02  0.45594000000E+02  0.51100000000E-03 0.  1.
    9900012    2    1    2    0    0  0.41201601339E+02 -0.12605679726E+02 -0.52103549862E+01  0.47787275198E+02  0.20000018937E+02 0.  0.
        -12    1    1    2    0    0 -0.41201601339E+02  0.12605679726E+02  0.52103549862E+01  0.43400724802E+02  0.00000000000E+00 0.  1.
         11    1    3    3    0    0  0.24652949593E+02 -0.12525396422E+02  0.31913186251E+00  0.27654209889E+02  0.51100000000E-03 0. -1.
        -11    1    3    3    0    0  0.73714164462E+00  0.16482928553E+01  0.18620838507E+01  0.25937624543E+01  0.51100000000E-03 0.  1.
         12    1    3    3    0    0  0.15811510102E+02 -0.17285761588E+01 -0.73915706994E+01  0.17539302855E+02  0.00000000000E+00 0. -1.
</event>
<event>
 7    1  0.2950722E-010  0.4778727E+02  0.7816164E-02  0.1312668E+00
        -11   -1    0    0    0    0  0.00000000000E+00  0.00000000000E+00  0.45593999997E+02  0.45594000000E+02  0.51100000000E-03 0.  1.
         11   -1    0    0    0    0 -0.00000000000E+00 -0.00000000000E+00 -0.45593999997E+02  0.45594000000E+02  0.51100000000E-03 0. -1.
    9900012    2    1    2    0    0  0.86859252575E+01  0.17770103069E+02 -0.38631612069E+02  0.47787270609E+02  0.19999998013E+02 0.  0.
        -12    1    1    2    0    0 -0.86859252575E+01 -0.17770103069E+02  0.38631612069E+02  0.43400729391E+02  0.00000000000E+00 0.  1.
         11    1    3    3    0    0  0.86407279696E+01 -0.13611766769E+01 -0.11396983525E+02  0.14366844313E+02  0.51100000000E-03 0. -1.
        -11    1    3    3    0    0  0.69254151096E+00  0.18258217313E+02 -0.25960506482E+02  0.31745708533E+02  0.51100000000E-03 0.  1.
         12    1    3    3    0    0 -0.64734422306E+00  0.87306243319E+00 -0.12741220614E+01  0.16747177621E+01  0.00000000000E+00 0. -1.
</event>
<event>
 7    1  0.2950722E-010  0.4778727E+02  0.7816164E-02  0.1312668E+00
        -11   -1    0    0    0    0  0.00000000000E+00  0.00000000000E+00  0.45593999997E+02  0.45594000000E+02  0.51100000000E-03 0. -1.
         11   -1    0    0    0    0 -0.00000000000E+00 -0.00000000000E+00 -0.45593999997E+02  0.45594000000E+02  0.51100000000E-03 0.  1.
    9900012    2    1    2    0    0  0.19383664086E+02 -0.25303337345E+02  0.29455691688E+02  0.47787273197E+02  0.20000009814E+02 0.  0.
        -12    1    1    2    0    0 -0.19383664086E+02  0.25303337345E+02 -0.29455691688E+02  0.43400726803E+02  0.00000000000E+00 0.  1.
         11    1    3    3    0    0 -0.14059377572E+01 -0.10230335339E+02  0.89854709333E+01  0.13688502850E+02  0.51100000000E-03 0. -1.
        -11    1    3    3    0    0  0.37894531328E+01 -0.39165909370E+01  0.30037623519E+00  0.54580093218E+01  0.51100000000E-03 0.  1.
         12    1    3    3    0    0  0.17000148711E+02 -0.11156411069E+02  0.20169844520E+02  0.28640761025E+02  0.00000000000E+00 0. -1.
</event>
<event>
 7    1  0.2950722E-010  0.4778727E+02  0.7816164E-02  0.1312668E+00
        -11   -1    0    0    0    0  0.00000000000E+00  0.00000000000E+00  0.45593999997E+02  0.45594000000E+02  0.51100000000E-03 0.  1.
         11   -1    0    0    0    0 -0.00000000000E+00 -0.00000000000E+00 -0.45593999997E+02  0.45594000000E+02  0.51100000000E-03 0. -1.
    9900012    2    1    2    0    0  0.25278164151E+02 -0.39372412032E+00 -0.35277227223E+02  0.47787270028E+02  0.19999995367E+02 0.  0.
        -12    1    1    2    0    0 -0.25278164151E+02  0.39372412032E+00  0.35277227223E+02  0.43400729972E+02  0.00000000000E+00 0.  1.
         11    1    3    3    0    0  0.24349243087E+02 -0.10616822529E+01 -0.33316344974E+02  0.41279433751E+02  0.51100000000E-03 0. -1.
        -11    1    3    3    0    0  0.82706004420E+00 -0.24547202188E+01  0.36080725093E+00  0.26153129455E+01  0.51100000000E-03 0.  1.
         12    1    3    3    0    0  0.10186101978E+00  0.31226783514E+01 -0.23216894996E+01  0.38925233315E+01  0.00000000000E+00 0. -1.
</event>
<event>
 7    1  0.2950722E-010  0.4778727E+02  0.7816164E-02  0.1312668E+00
        -11   -1    0    0    0    0  0.00000000000E+00  0.00000000000E+00  0.45593999997E+02  0.45594000000E+02  0.51100000000E-03 0.  1.
         11   -1    0    0    0    0 -0.00000000000E+00 -0.00000000000E+00 -0.45593999997E+02  0.45594000000E+02  0.51100000000E-03 0. -1.
    9900012    2    1    2    0    0 -0.73870574366E+00  0.43097068790E+02  0.50714827243E+01  0.47787274644E+02  0.20000016410E+02 0.  0.
        -12    1    1    2    0    0  0.73870574366E+00 -0.43097068790E+02 -0.50714827243E+01  0.43400725356E+02  0.00000000000E+00 0.  1.
         11    1    3    3    0    0 -0.21529088432E+01  0.43056735348E+02  0.54915496013E+01  0.43458883932E+02  0.51100000000E-03 0. -1.
        -11    1    3    3    0    0  0.13019550779E+01 -0.17396508549E+01  0.62531464637E+00  0.22610817742E+01  0.51100000000E-03 0.  1.
        -12    1    3    3    0    0  0.11224802170E+00  0.17799842962E+01 -0.10453815233E+01  0.20673089373E+01  0.00000000000E+00 0.  1.
</event>
<event>
 7    1  0.2950722E-010  0.4778727E+02  0.7816164E-02  0.1312668E+00
        -11   -1    0    0    0    0  0.00000000000E+00  0.00000000000E+00  0.45593999997E+02  0.45594000000E+02  0.51100000000E-03 0. -1.
         11   -1    0    0    0    0 -0.00000000000E+00 -0.00000000000E+00 -0.45593999997E+02  0.45594000000E+02  0.51100000000E-03 0.  1.
    9900012    2    1    2    0    0  0.19732719224E+01 -0.21919303665E+02  0.37406866690E+02  0.47787270159E+02  0.19999995962E+02 0.  0.
        -12    1    1    2    0    0 -0.19732719224E+01  0.21919303665E+02 -0.37406866690E+02  0.43400729841E+02  0.00000000000E+00 0.  1.
         11    1    3    3    0    0  0.42677840425E+01 -0.31771488972E+01  0.26129488888E+01  0.59275423158E+01  0.51100000000E-03 0. -1.
        -11    1    3    3    0    0 -0.50802929949E+01 -0.51545761293E+01  0.21350164821E+02  0.22543481766E+02  0.51100000000E-03 0.  1.
         12    1    3    3    0    0  0.27857808749E+01 -0.13587578638E+02  0.13443752980E+02  0.19316246077E+02  0.00000000000E+00 0. -1.
</event>
<event>
 7    1  0.2950722E-010  0.4778727E+02  0.7816164E-02  0.1312668E+00
        -11   -1    0    0    0    0  0.00000000000E+00  0.00000000000E+00  0.45593999997E+02  0.45594000000E+02  0.51100000000E-03 0.  1.
         11   -1    0    0    0    0 -0.00000000000E+00 -0.00000000000E+00 -0.45593999997E+02  0.45594000000E+02  0.51100000000E-03 0. -1.
    9900012    2    1    2    0    0 -0.39982125290E+02  0.16877085367E+02 -0.46584942747E+00  0.47787269950E+02  0.19999995009E+02 0.  0.
        -12    1    1    2    0    0  0.39982125290E+02 -0.16877085367E+02  0.46584942747E+00  0.43400730050E+02  0.00000000000E+00 0.  1.
         11    1    3    3    0    0 -0.22142109548E+02  0.84592411942E+01  0.74633951274E+01  0.24850232271E+02  0.51100000000E-03 0.  1.
        -11    1    3    3    0    0 -0.33600919810E+01  0.59511217352E+01 -0.25609928477E+01  0.72982705250E+01  0.51100000000E-03 0. -1.
        -12    1    3    3    0    0 -0.14479923761E+02  0.24667224376E+01 -0.53682517072E+01  0.15638767154E+02  0.00000000000E+00 0.  1.
</event>
<event>
 7    1  0.2950722E-010  0.4778727E+02  0.7816164E-02  0.1312668E+00
        -11   -1    0    0    0    0  0.00000000000E+00  0.00000000000E+00  0.45593999997E+02  0.45594000000E+02  0.51100000000E-03 0.  1.
         11   -1    0    0    0    0 -0.00000000000E+00 -0.00000000000E+00 -0.45593999997E+02  0.45594000000E+02  0.51100000000E-03 0. -1.
    9900012    2    1    2    0    0 -0.20558232004E+02  0.22156159495E+02 -0.31146224766E+02  0.47787267012E+02  0.19999981614E+02 0.  0.
        -12    1    1    2    0    0  0.20558232004E+02 -0.22156159495E+02  0.31146224766E+02  0.43400732988E+02  0.00000000000E+00 0.  1.
         11    1    3    3    0    0 -0.81910862317E+01  0.30852123008E+01 -0.14727889073E+00  0.87540916107E+01  0.51100000000E-03 0. -1.
        -11    1    3    3    0    0 -0.44165189939E+01  0.12531871527E+02 -0.19534567101E+02  0.23625256741E+02  0.51100000000E-03 0.  1.
         12    1    3    3    0    0 -0.79506267785E+01  0.65390756670E+01 -0.11464378775E+02  0.15407918660E+02  0.00000000000E+00 0. -1.
</event>
<event>
 7    1  0.2950722E-010  0.4778727E+02  0.7816164E-02  0.1312668E+00
        -11   -1    0    0    0    0  0.00000000000E+00  0.00000000000E+00  0.45593999997E+02  0.45594000000E+02  0.51100000000E-03 0.  1.
         11   -1    0    0    0    0 -0.00000000000E+00 -0.00000000000E+00 -0.45593999997E+02  0.45594000000E+02  0.51100000000E-03 0. -1.
    9900012    2    1    2    0    0 -0.12129224852E+01  0.29898688448E+02 -0.31435973960E+02  0.47787271773E+02  0.20000003320E+02 0.  0.
        -12    1    1    2    0    0  0.12129224852E+01 -0.29898688448E+02  0.31435973960E+02  0.43400728227E+02  0.00000000000E+00 0.  1.
         11    1    3    3    0    0 -0.10375199498E+01  0.14849279951E+02 -0.17879935703E+02  0.23265202852E+02  0.51100000000E-03 0. -1.
        -11    1    3    3    0    0  0.54239570808E+01  0.11062673072E+02 -0.44212751096E+01  0.13090061870E+02  0.51100000000E-03 0.  1.
        -12    1    3    3    0    0 -0.55993596162E+01  0.39867354252E+01 -0.91347631467E+01  0.11432007051E+02  0.00000000000E+00 0.  1.
</event>
<event>
 7    1  0.2950722E-010  0.4778727E+02  0.7816164E-02  0.1312668E+00
        -11   -1    0    0    0    0  0.00000000000E+00  0.00000000000E+00  0.45593999997E+02  0.45594000000E+02  0.51100000000E-03 0. -1.
         11   -1    0    0    0    0 -0.00000000000E+00 -0.00000000000E+00 -0.45593999997E+02  0.45594000000E+02  0.51100000000E-03 0.  1.
    9900012    2    1    2    0    0  0.14365748590E+02 -0.18472130150E+02  0.36551726305E+02  0.47787273962E+02  0.20000013301E+02 0.  0.
        -12    1    1    2    0    0 -0.14365748590E+02  0.18472130150E+02 -0.36551726305E+02  0.43400726038E+02  0.00000000000E+00 0.  1.
         11    1    3    3    0    0  0.75561279348E+01 -0.16317368837E+02  0.22672832325E+02  0.28938018609E+02  0.51100000000E-03 0. -1.
        -11    1    3    3    0    0  0.14627704444E+01  0.16368789107E+01  0.11756081675E+02  0.11959286206E+02  0.51100000000E-03 0.  1.
        -12    1    3    3    0    0  0.53468502104E+01 -0.37916402236E+01  0.21228123037E+01  0.68899691461E+01  0.00000000000E+00 0.  1.
</event>
<event>
 7    1  0.2950722E-010  0.4778727E+02  0.7816164E-02  0.1312668E+00
        -11   -1    0    0    0    0  0.00000000000E+00  0.00000000000E+00  0.45593999997E+02  0.45594000000E+02  0.51100000000E-03 0.  1.
         11   -1    0    0    0    0 -0.00000000000E+00 -0.00000000000E+00 -0.45593999997E+02  0.45594000000E+02  0.51100000000E-03 0. -1.
    9900012    2    1    2    0    0 -0.39629134324E+02  0.18656534831E+01 -0.17597569381E+02  0.47787269611E+02  0.19999993464E+02 0.  0.
        -12    1    1    2    0    0  0.39629134324E+02 -0.18656534831E+01  0.17597569381E+02  0.43400730389E+02  0.00000000000E+00 0.  1.
         11    1    3    3    0    0 -0.81381963820E+01  0.92516210222E+00 -0.12470285987E+02  0.14919591084E+02  0.51100000000E-03 0. -1.
        -11    1    3    3    0    0 -0.14864459196E+02  0.36906673927E+01 -0.22764766743E+00  0.15317473575E+02  0.51100000000E-03 0.  1.
         12    1    3    3    0    0 -0.16626478746E+02 -0.27501760118E+01 -0.48996357267E+01  0.17550204952E+02  0.00000000000E+00 0. -1.
</event>
<event>
 7    1  0.2950722E-010  0.4778727E+02  0.7816164E-02  0.1312668E+00
        -11   -1    0    0    0    0  0.00000000000E+00  0.00000000000E+00  0.45593999997E+02  0.45594000000E+02  0.51100000000E-03 0.  1.
         11   -1    0    0    0    0 -0.00000000000E+00 -0.00000000000E+00 -0.45593999997E+02  0.45594000000E+02  0.51100000000E-03 0. -1.
    9900012    2    1    2    0    0  0.37465349732E+02  0.20391851763E+02 -0.80089310799E+01  0.47787273902E+02  0.20000013027E+02 0.  0.
        -12    1    1    2    0    0 -0.37465349732E+02 -0.20391851763E+02  0.80089310799E+01  0.43400726098E+02  0.00000000000E+00 0.  1.
         11    1    3    3    0    0  0.31777106285E+02  0.12855403394E+02 -0.16514222997E+01  0.34318698637E+02  0.51100000000E-03 0. -1.
        -11    1    3    3    0    0  0.81364553896E+00  0.62476689917E+01 -0.15200868915E+01  0.64812075504E+01  0.51100000000E-03 0.  1.
         12    1    3    3    0    0  0.48745979080E+01  0.12887793767E+01 -0.48374218887E+01  0.69873677143E+01  0.00000000000E+00 0. -1.
</event>
<event>
 7    1  0.2950722E-010  0.4778727E+02  0.7816164E-02  0.1312668E+00
        -11   -1    0    0    0    0  0.00000000000E+00  0.00000000000E+00  0.45593999997E+02  0.45594000000E+02  0.51100000000E-03 0.  1.
         11   -1    0    0    0    0 -0.00000000000E+00 -0.00000000000E+00 -0.45593999997E+02  0.45594000000E+02  0.51100000000E-03 0. -1.
    9900012    2    1    2    0    0  0.23873992429E+02 -0.29799202552E+02 -0.20631609321E+02  0.47787270854E+02  0.19999999132E+02 0.  0.
        -12    1    1    2    0    0 -0.23873992429E+02  0.29799202552E+02  0.20631609321E+02  0.43400729146E+02  0.00000000000E+00 0.  1.
         11    1    3    3    0    0  0.53400987423E+01 -0.72252303726E+01 -0.60677122656E+01  0.10841482413E+02  0.51100000000E-03 0. -1.
        -11    1    3    3    0    0  0.19275752324E+02 -0.13208380761E+02 -0.14595583621E+02  0.27550807819E+02  0.51100000000E-03 0.  1.
        -12    1    3    3    0    0 -0.74185863665E+00 -0.93655914184E+01  0.31686565661E-01  0.93949806222E+01  0.00000000000E+00 0.  1.
</event>
<event>
 7    1  0.2950722E-010  0.4778727E+02  0.7816164E-02  0.1312668E+00
        -11   -1    0    0    0    0  0.00000000000E+00  0.00000000000E+00  0.45593999997E+02  0.45594000000E+02  0.51100000000E-03 0.  1.
         11   -1    0    0    0    0 -0.00000000000E+00 -0.00000000000E+00 -0.45593999997E+02  0.45594000000E+02  0.51100000000E-03 0. -1.
    9900012    2    1    2    0    0  0.14627325078E+02 -0.32175842802E+02 -0.25186892692E+02  0.47787273481E+02  0.20000011108E+02 0.  0.
        -12    1    1    2    0    0 -0.14627325078E+02  0.32175842802E+02  0.25186892692E+02  0.43400726519E+02  0.00000000000E+00 0.  1.
         11    1    3    3    0    0  0.91290504806E+01 -0.21437787280E+02 -0.10451423461E+02  0.25537238276E+02  0.51100000000E-03 0. -1.
        -11    1    3    3    0    0  0.55955887023E+01  0.16426797262E+00 -0.65517290767E+01  0.86175838289E+01  0.51100000000E-03 0.  1.
        -12    1    3    3    0    0 -0.97314104764E-01 -0.10902323495E+02 -0.81837401539E+01  0.13632451376E+02  0.00000000000E+00 0.  1.
</event>
<event>
 7    1  0.2950722E-010  0.4778727E+02  0.7816164E-02  0.1312668E+00
        -11   -1    0    0    0    0  0.00000000000E+00  0.00000000000E+00  0.45593999997E+02  0.45594000000E+02  0.51100000000E-03 0.  1.
         11   -1    0    0    0    0 -0.00000000000E+00 -0.00000000000E+00 -0.45593999997E+02  0.45594000000E+02  0.51100000000E-03 0. -1.
    9900012    2    1    2    0    0 -0.63864336713E+01 -0.20780263514E+02 -0.37563514624E+02  0.47787268236E+02  0.19999987196E+02 0.  0.
        -12    1    1    2    0    0  0.63864336713E+01  0.20780263514E+02  0.37563514624E+02  0.43400731764E+02  0.00000000000E+00 0.  1.
         11    1    3    3    0    0 -0.27140780932E+00  0.34999795948E+01 -0.69812251608E+01  0.78141553843E+01  0.51100000000E-03 0.  1.
        -11    1    3    3    0    0 -0.34878980125E+01 -0.17061196556E+02 -0.25041343714E+02  0.30501127123E+02  0.51100000000E-03 0. -1.
        -12    1    3    3    0    0 -0.26271278495E+01 -0.72190465525E+01 -0.55409457487E+01  0.94719857292E+01  0.00000000000E+00 0.  1.
</event>
<event>
 7    1  0.2950722E-010  0.4778727E+02  0.7816164E-02  0.1312668E+00
        -11   -1    0    0    0    0  0.00000000000E+00  0.00000000000E+00  0.45593999997E+02  0.45594000000E+02  0.51100000000E-03 0.  1.
         11   -1    0    0    0    0 -0.00000000000E+00 -0.00000000000E+00 -0.45593999997E+02  0.45594000000E+02  0.51100000000E-03 0. -1.
    9900012    2    1    2    0    0  0.18240736103E+02 -0.80176745247E+01 -0.38556656500E+02  0.47787270526E+02  0.19999997638E+02 0.  0.
        -12    1    1    2    0    0 -0.18240736103E+02  0.80176745247E+01  0.38556656500E+02  0.43400729474E+02  0.00000000000E+00 0.  1.
         11    1    3    3    0    0  0.38629524184E+01 -0.64481265629E+01 -0.23999334251E+02  0.25148932031E+02  0.51100000000E-03 0. -1.
        -11    1    3    3    0    0  0.10410539578E+02 -0.54311357154E+01 -0.10744898320E+02  0.15916325255E+02  0.51100000000E-03 0.  1.
         12    1    3    3    0    0  0.39672441067E+01  0.38615877535E+01 -0.38124239296E+01  0.67220132401E+01  0.00000000000E+00 0. -1.
</event>
<event>
 7    1  0.2950722E-010  0.4778727E+02  0.7816164E-02  0.1312668E+00
        -11   -1    0    0    0    0  0.00000000000E+00  0.00000000000E+00  0.45593999997E+02  0.45594000000E+02  0.51100000000E-03 0. -1.
         11   -1    0    0    0    0 -0.00000000000E+00 -0.00000000000E+00 -0.45593999997E+02  0.45594000000E+02  0.51100000000E-03 0.  1.
    9900012    2    1    2    0    0 -0.63214631076E+01 -0.41148627046E+02  0.12265910337E+02  0.47787274661E+02  0.20000016489E+02 0.  0.
        -12    1    1    2    0    0  0.63214631076E+01  0.41148627046E+02 -0.12265910337E+02  0.43400725339E+02  0.00000000000E+00 0.  1.
         11    1    3    3    0    0 -0.75506958691E+01 -0.11760309889E+02  0.40801309845E+01  0.14559030390E+02  0.51100000000E-03 0. -1.
        -11    1    3    3    0    0  0.30971461737E+01 -0.20552123449E+02 -0.37022980221E+00  0.20787476111E+02  0.51100000000E-03 0.  1.
        -12    1    3    3    0    0 -0.18679134122E+01 -0.88361937078E+01  0.85560091544E+01  0.12440768160E+02  0.00000000000E+00 0.  1.
</event>
<event>
 7    1  0.2950722E-010  0.4778729E+02  0.7816164E-02  0.1312668E+00
        -11   -1    0    0    0    0  0.00000000000E+00  0.00000000000E+00  0.45593999997E+02  0.45594000000E+02  0.51100000000E-03 0.  1.
         11   -1    0    0    0    0 -0.00000000000E+00 -0.00000000000E+00 -0.45593999997E+02  0.45594000000E+02  0.51100000000E-03 0. -1.
    9900012    2    1    2    0    0 -0.11337642466E+02  0.18632699723E+02 -0.37522020141E+02  0.47787289970E+02  0.20000086288E+02 0.  0.
        -12    1    1    2    0    0  0.11337642466E+02 -0.18632699723E+02  0.37522020141E+02  0.43400710030E+02  0.00000000000E+00 0.  1.
         11    1    3    3    0    0 -0.12629250340E+02  0.15943311457E+02 -0.30503906893E+02  0.36662998791E+02  0.51100000000E-03 0. -1.
        -11    1    3    3    0    0  0.71948647773E+00  0.29154162920E+01 -0.87687756852E+01  0.92686967922E+01  0.51100000000E-03 0.  1.
         12    1    3    3    0    0  0.57212139624E+00 -0.22602802607E+00  0.17506624367E+01  0.18555943867E+01  0.00000000000E+00 0. -1.
</event>
<event>
 7    1  0.2950722E-010  0.4778727E+02  0.7816164E-02  0.1312668E+00
        -11   -1    0    0    0    0  0.00000000000E+00  0.00000000000E+00  0.45593999997E+02  0.45594000000E+02  0.51100000000E-03 0.  1.
         11   -1    0    0    0    0 -0.00000000000E+00 -0.00000000000E+00 -0.45593999997E+02  0.45594000000E+02  0.51100000000E-03 0. -1.
    9900012    2    1    2    0    0  0.12101124098E+02 -0.29979667772E+02 -0.28955237023E+02  0.47787269185E+02  0.19999991524E+02 0.  0.
        -12    1    1    2    0    0 -0.12101124098E+02  0.29979667772E+02  0.28955237023E+02  0.43400730815E+02  0.00000000000E+00 0.  1.
         11    1    3    3    0    0 -0.16373328938E+01 -0.43746086913E+01 -0.25898913304E+01  0.53409360202E+01  0.51100000000E-03 0. -1.
        -11    1    3    3    0    0  0.37135772681E+01 -0.21071917837E+02 -0.21765351494E+02  0.30521253306E+02  0.51100000000E-03 0.  1.
        -12    1    3    3    0    0  0.10024879724E+02 -0.45331412438E+01 -0.45999941983E+01  0.11925079859E+02  0.00000000000E+00 0.  1.
</event>
<event>
 7    1  0.2950722E-010  0.4778726E+02  0.7816164E-02  0.1312668E+00
        -11   -1    0    0    0    0  0.00000000000E+00  0.00000000000E+00  0.45593999997E+02  0.45594000000E+02  0.51100000000E-03 0. -1.
         11   -1    0    0    0    0 -0.00000000000E+00 -0.00000000000E+00 -0.45593999997E+02  0.45594000000E+02  0.51100000000E-03 0.  1.
    9900012    2    1    2    0    0  0.62927341844E+01  0.42916347366E+02 -0.14874411649E+01  0.47787264338E+02  0.19999969423E+02 0.  0.
        -12    1    1    2    0    0 -0.62927341844E+01 -0.42916347366E+02  0.14874411649E+01  0.43400735662E+02  0.00000000000E+00 0.  1.
         11    1    3    3    0    0  0.41526927506E+01  0.17657556812E+02  0.63173365678E+01  0.19207886693E+02  0.51100000000E-03 0. -1.
        -11    1    3    3    0    0 -0.14685495911E+01  0.36110304101E+01 -0.51705285855E+01  0.64753798837E+01  0.51100000000E-03 0.  1.
         12    1    3    3    0    0  0.36085910249E+01  0.21647760144E+02 -0.26342491471E+01  0.22103997761E+02  0.00000000000E+00 0. -1.
</event>
<event>
 7    1  0.2950722E-010  0.4778726E+02  0.7816164E-02  0.1312668E+00
        -11   -1    0    0    0    0  0.00000000000E+00  0.00000000000E+00  0.45593999997E+02  0.45594000000E+02  0.51100000000E-03 0.  1.
         11   -1    0    0    0    0 -0.00000000000E+00 -0.00000000000E+00 -0.45593999997E+02  0.45594000000E+02  0.51100000000E-03 0. -1.
    9900012    2    1    2    0    0  0.14499974073E+02  0.35362980619E+02 -0.20562937480E+02  0.47787262170E+02  0.19999959538E+02 0.  0.
        -12    1    1    2    0    0 -0.14499974073E+02 -0.35362980619E+02  0.20562937480E+02  0.43400737830E+02  0.00000000000E+00 0.  1.
         11    1    3    3    0    0  0.95461654149E+00  0.70789319367E+01 -0.37113908083E+01  0.80496578870E+01  0.51100000000E-03 0. -1.
        -11    1    3    3    0    0  0.31383375432E+01  0.66838651211E+01  0.36079689200E+01  0.82183122039E+01  0.51100000000E-03 0.  1.
        -12    1    3    3    0    0  0.10407019989E+02  0.21600183561E+02 -0.20459515591E+02  0.31519292079E+02  0.00000000000E+00 0.  1.
</event>
<event>
 7    1  0.2950722E-010  0.4778727E+02  0.7816164E-02  0.1312668E+00
        -11   -1    0    0    0    0  0.00000000000E+00  0.00000000000E+00  0.45593999997E+02  0.45594000000E+02  0.51100000000E-03 0.  1.
         11   -1    0    0    0    0 -0.00000000000E+00 -0.00000000000E+00 -0.45593999997E+02  0.45594000000E+02  0.51100000000E-03 0. -1.
    9900012    2    1    2    0    0 -0.76623837944E+01 -0.92985365082E+01 -0.41694709318E+02  0.47787266231E+02  0.19999978054E+02 0.  0.
        -12    1    1    2    0    0  0.76623837944E+01  0.92985365082E+01  0.41694709318E+02  0.43400733769E+02  0.00000000000E+00 0.  1.
         11    1    3    3    0    0 -0.10231450653E+02 -0.10886316565E+02 -0.28903430984E+02  0.32536176692E+02  0.51100000000E-03 0. -1.
        -11    1    3    3    0    0  0.27366865180E+01 -0.92006648068E+00 -0.12370138092E+02  0.12702609658E+02  0.51100000000E-03 0.  1.
         12    1    3    3    0    0 -0.16761965916E+00  0.25078465374E+01 -0.42114024144E+00  0.25484798819E+01  0.00000000000E+00 0. -1.
</event>
<event>
 7    1  0.2950722E-010  0.4778727E+02  0.7816164E-02  0.1312668E+00
        -11   -1    0    0    0    0  0.00000000000E+00  0.00000000000E+00  0.45593999997E+02  0.45594000000E+02  0.51100000000E-03 0.  1.
         11   -1    0    0    0    0 -0.00000000000E+00 -0.00000000000E+00 -0.45593999997E+02  0.45594000000E+02  0.51100000000E-03 0. -1.
    9900012    2    1    2    0    0  0.20877085758E+02  0.34375706203E+02 -0.16312004466E+02  0.47787269864E+02  0.19999994617E+02 0.  0.
        -12    1    1    2    0    0 -0.20877085758E+02 -0.34375706203E+02  0.16312004466E+02  0.43400730136E+02  0.00000000000E+00 0.  1.
         11    1    3    3    0    0  0.10083269680E+02  0.10757055750E+02 -0.64311262608E+01  0.16085582398E+02  0.51100000000E-03 0. -1.
        -11    1    3    3    0    0 -0.90542952115E+00  0.51587785275E+01  0.32896084320E+01  0.61850078748E+01  0.51100000000E-03 0.  1.
        -12    1    3    3    0    0  0.11699245599E+02  0.18459871926E+02 -0.13170486637E+02  0.25516679591E+02  0.00000000000E+00 0.  1.
</event>
<event>
 7    1  0.2950722E-010  0.4778727E+02  0.7816164E-02  0.1312668E+00
        -11   -1    0    0    0    0  0.00000000000E+00  0.00000000000E+00  0.45593999997E+02  0.45594000000E+02  0.51100000000E-03 0.  1.
         11   -1    0    0    0    0 -0.00000000000E+00 -0.00000000000E+00 -0.45593999997E+02  0.45594000000E+02  0.51100000000E-03 0. -1.
    9900012    2    1    2    0    0 -0.63425688557E+01 -0.40460699877E+02 -0.14364084995E+02  0.47787270145E+02  0.19999995898E+02 0.  0.
        -12    1    1    2    0    0  0.63425688557E+01  0.40460699877E+02  0.14364084995E+02  0.43400729855E+02  0.00000000000E+00 0.  1.
         11    1    3    3    0    0 -0.56933590530E+01 -0.22529670987E+01 -0.49128443123E+01  0.78502380571E+01  0.51100000000E-03 0.  1.
        -11    1    3    3    0    0 -0.52176048208E-01 -0.29587036971E+02 -0.10119740600E+02  0.31269867750E+02  0.51100000000E-03 0. -1.
        -12    1    3    3    0    0 -0.59703375446E+00 -0.86206958074E+01  0.66849991711E+00  0.86671643371E+01  0.00000000000E+00 0.  1.
</event>
<event>
 7    1  0.2950722E-010  0.4778727E+02  0.7816164E-02  0.1312668E+00
        -11   -1    0    0    0    0  0.00000000000E+00  0.00000000000E+00  0.45593999997E+02  0.45594000000E+02  0.51100000000E-03 0.  1.
         11   -1    0    0    0    0 -0.00000000000E+00 -0.00000000000E+00 -0.45593999997E+02  0.45594000000E+02  0.51100000000E-03 0. -1.
    9900012    2    1    2    0    0  0.32221737138E+02  0.50977833128E+01 -0.28625085927E+02  0.47787270937E+02  0.19999999509E+02 0.  0.
        -12    1    1    2    0    0 -0.32221737138E+02 -0.50977833128E+01  0.28625085927E+02  0.43400729063E+02  0.00000000000E+00 0.  1.
         11    1    3    3    0    0  0.65361423719E+01 -0.30445617243E+01 -0.14293184447E+01  0.73507458585E+01  0.51100000000E-03 0. -1.
        -11    1    3    3    0    0  0.20504147802E+02  0.11566097499E+02 -0.23198139358E+02  0.33050693766E+02  0.51100000000E-03 0.  1.
        -12    1    3    3    0    0  0.51814469634E+01 -0.34237524618E+01 -0.39976281245E+01  0.73858313125E+01  0.00000000000E+00 0.  1.
</event>
<event>
 7    1  0.2950722E-010  0.4778727E+02  0.7816164E-02  0.1312668E+00
        -11   -1    0    0    0    0  0.00000000000E+00  0.00000000000E+00  0.45593999997E+02  0.45594000000E+02  0.51100000000E-03 0. -1.
         11   -1    0    0    0    0 -0.00000000000E+00 -0.00000000000E+00 -0.45593999997E+02  0.45594000000E+02  0.51100000000E-03 0.  1.
    9900012    2    1    2    0    0 -0.42575106895E+02 -0.32140486279E+01 -0.77880268575E+01  0.47787271918E+02  0.20000003984E+02 0.  0.
        -12    1    1    2    0    0  0.42575106895E+02  0.32140486279E+01  0.77880268575E+01  0.43400728082E+02  0.00000000000E+00 0.  1.
         11    1    3    3    0    0 -0.37153936024E+01 -0.51769772920E+01  0.65591788383E+00  0.64058935391E+01  0.51100000000E-03 0. -1.
        -11    1    3    3    0    0 -0.71063401935E+01 -0.24146596503E+01 -0.52702452574E+01  0.91709398377E+01  0.51100000000E-03 0.  1.
         12    1    3    3    0    0 -0.31753373099E+02  0.43775883144E+01 -0.31736994839E+01  0.32210438541E+02  0.00000000000E+00 0. -1.
</event>
<event>
 7    1  0.2950722E-010  0.4778727E+02  0.7816164E-02  0.1312668E+00
        -11   -1    0    0    0    0  0.00000000000E+00  0.00000000000E+00  0.45593999997E+02  0.45594000000E+02  0.51100000000E-03 0.  1.
         11   -1    0    0    0    0 -0.00000000000E+00 -0.00000000000E+00 -0.45593999997E+02  0.45594000000E+02  0.51100000000E-03 0. -1.
    9900012    2    1    2    0    0 -0.26645715412E+01 -0.14098116987E+02 -0.40960544414E+02  0.47787273707E+02  0.20000012140E+02 0.  0.
        -12    1    1    2    0    0  0.26645715412E+01  0.14098116987E+02  0.40960544414E+02  0.43400726293E+02  0.00000000000E+00 0.  1.
         11    1    3    3    0    0 -0.30033301727E+01 -0.37263382232E+00 -0.11559949335E+02  0.11949530409E+02  0.51100000000E-03 0. -1.
        -11    1    3    3    0    0  0.52067612702E+01 -0.13194658412E+02 -0.15079902511E+02  0.20702966781E+02  0.51100000000E-03 0.  1.
        -12    1    3    3    0    0 -0.48680026387E+01 -0.53082475228E+00 -0.14320692568E+02  0.15134776517E+02  0.00000000000E+00 0.  1.
</event>
<event>
 7    1  0.2950722E-010  0.4778727E+02  0.7816164E-02  0.1312668E+00
        -11   -1    0    0    0    0  0.00000000000E+00  0.00000000000E+00  0.45593999997E+02  0.45594000000E+02  0.51100000000E-03 0.  1.
         11   -1    0    0    0    0 -0.00000000000E+00 -0.00000000000E+00 -0.45593999997E+02  0.45594000000E+02  0.51100000000E-03 0. -1.
    9900012    2    1    2    0    0  0.14730394540E+02 -0.85935952055E+01 -0.39909758901E+02  0.47787271234E+02  0.20000000864E+02 0.  0.
        -12    1    1    2    0    0 -0.14730394540E+02  0.85935952055E+01  0.39909758901E+02  0.43400728766E+02  0.00000000000E+00 0.  1.
         11    1    3    3    0    0  0.55796365462E+01 -0.35948054769E+01 -0.28318900362E+02  0.29086338518E+02  0.51100000000E-03 0. -1.
        -11    1    3    3    0    0  0.95370377509E+01 -0.98138057601E+00 -0.46118298185E+01  0.10638945974E+02  0.51100000000E-03 0.  1.
         12    1    3    3    0    0 -0.38627975678E+00 -0.40174091526E+01 -0.69790287207E+01  0.80619867424E+01  0.00000000000E+00 0. -1.
</event>
<event>
 7    1  0.2950722E-010  0.4778726E+02  0.7816164E-02  0.1312668E+00
        -11   -1    0    0    0    0  0.00000000000E+00  0.00000000000E+00  0.45593999997E+02  0.45594000000E+02  0.51100000000E-03 0. -1.
         11   -1    0    0    0    0 -0.00000000000E+00 -0.00000000000E+00 -0.45593999997E+02  0.45594000000E+02  0.51100000000E-03 0.  1.
    9900012    2    1    2    0    0  0.52568970184E+01  0.23035187581E+02  0.36405621573E+02  0.47787261351E+02  0.19999955805E+02 0.  0.
        -12    1    1    2    0    0 -0.52568970184E+01 -0.23035187581E+02 -0.36405621573E+02  0.43400738649E+02  0.00000000000E+00 0.  1.
         11    1    3    3    0    0  0.60168155476E+01  0.78322184626E+01  0.24943561642E+02  0.26827727876E+02  0.51100000000E-03 0. -1.
        -11    1    3    3    0    0  0.28234470525E+01  0.11425278226E+02  0.53432070150E+01  0.12925118849E+02  0.51100000000E-03 0.  1.
         12    1    3    3    0    0 -0.35833655817E+01  0.37776908929E+01  0.61188529160E+01  0.80344146259E+01  0.00000000000E+00 0. -1.
</event>
<event>
 7    1  0.3873501E-010  0.4778727E+02  0.7816164E-02  0.1312668E+00
        -11   -1    0    0    0    0  0.00000000000E+00  0.00000000000E+00  0.45593999997E+02  0.45594000000E+02  0.51100000000E-03 0. -1.
         11   -1    0    0    0    0 -0.00000000000E+00 -0.00000000000E+00 -0.45593999997E+02  0.45594000000E+02  0.51100000000E-03 0.  1.
    9900012    2    1    2    0    0  0.12958317257E+02 -0.41699651512E+01  0.41210637904E+02  0.47787271066E+02  0.20000000100E+02 0.  0.
        -12    1    1    2    0    0 -0.12958317257E+02  0.41699651512E+01 -0.41210637904E+02  0.43400728934E+02  0.00000000000E+00 0.  1.
         11    1    3    3    0    0  0.12485788876E+02  0.40507740893E+01  0.33570221682E+02  0.36045297594E+02  0.51100000000E-03 0. -1.
        -11    1    3    3    0    0 -0.12763835546E+01 -0.57429765963E+01  0.50820092263E+01  0.77741721875E+01  0.51100000000E-03 0.  1.
         12    1    3    3    0    0  0.17489119363E+01 -0.24777626443E+01  0.25584069957E+01  0.39678012851E+01  0.00000000000E+00 0. -1.
</event>
<event>
 7    1  0.2950722E-010  0.4778727E+02  0.7816164E-02  0.1312668E+00
        -11   -1    0    0    0    0  0.00000000000E+00  0.00000000000E+00  0.45593999997E+02  0.45594000000E+02  0.51100000000E-03 0. -1.
         11   -1    0    0    0    0 -0.00000000000E+00 -0.00000000000E+00 -0.45593999997E+02  0.45594000000E+02  0.51100000000E-03 0.  1.
    9900012    2    1    2    0    0  0.40588129390E+01 -0.41947372015E+02  0.10371482518E+02  0.47787266929E+02  0.19999981238E+02 0.  0.
        -12    1    1    2    0    0 -0.40588129390E+01  0.41947372015E+02 -0.10371482518E+02  0.43400733071E+02  0.00000000000E+00 0.  1.
         11    1    3    3    0    0  0.88639679926E+01 -0.29313651945E+02  0.60342742495E+01  0.31213339855E+02  0.51100000000E-03 0. -1.
        -11    1    3    3    0    0  0.12409817735E+01 -0.30452104493E+01 -0.17311751841E+01  0.37162225743E+01  0.51100000000E-03 0.  1.
         12    1    3    3    0    0 -0.60461368271E+01 -0.95885096206E+01  0.60683834528E+01  0.12857704500E+02  0.00000000000E+00 0. -1.
</event>
<event>
 7    1  0.2950722E-010  0.4778727E+02  0.7816164E-02  0.1312668E+00
        -11   -1    0    0    0    0  0.00000000000E+00  0.00000000000E+00  0.45593999997E+02  0.45594000000E+02  0.51100000000E-03 0.  1.
         11   -1    0    0    0    0 -0.00000000000E+00 -0.00000000000E+00 -0.45593999997E+02  0.45594000000E+02  0.51100000000E-03 0. -1.
    9900012    2    1    2    0    0 -0.16491673260E+02 -0.32586071573E+02 -0.23447724075E+02  0.47787272912E+02  0.20000008517E+02 0.  0.
        -12    1    1    2    0    0  0.16491673260E+02  0.32586071573E+02  0.23447724075E+02  0.43400727088E+02  0.00000000000E+00 0.  1.
         11    1    3    3    0    0 -0.14434365962E+02 -0.16324835374E+02 -0.96965142400E+01  0.23851070403E+02  0.51100000000E-03 0. -1.
        -11    1    3    3    0    0  0.21727466775E+01 -0.12301891400E+02 -0.50324585380E+01  0.13467850583E+02  0.51100000000E-03 0.  1.
        -12    1    3    3    0    0 -0.42300539751E+01 -0.39593447992E+01 -0.87187512969E+01  0.10468351926E+02  0.00000000000E+00 0.  1.
</event>
<event>
 7    1  0.2950722E-010  0.4778729E+02  0.7816164E-02  0.1312668E+00
        -11   -1    0    0    0    0  0.00000000000E+00  0.00000000000E+00  0.45593999997E+02  0.45594000000E+02  0.51100000000E-03 0. -1.
         11   -1    0    0    0    0 -0.00000000000E+00 -0.00000000000E+00 -0.45593999997E+02  0.45594000000E+02  0.51100000000E-03 0.  1.
    9900012    2    1    2    0    0 -0.14607136884E+02  0.11651161902E+02  0.39172743155E+02  0.47787287703E+02  0.20000075952E+02 0.  0.
        -12    1    1    2    0    0  0.14607136884E+02 -0.11651161902E+02 -0.39172743155E+02  0.43400712297E+02  0.00000000000E+00 0.  1.
         11    1    3    3    0    0 -0.15687323601E+02  0.33115290509E+01  0.15909342987E+02  0.22586844422E+02  0.51100000000E-03 0. -1.
        -11    1    3    3    0    0  0.26292368772E+01  0.48455309394E+01  0.10264276843E+02  0.11651070166E+02  0.51100000000E-03 0.  1.
         12    1    3    3    0    0 -0.15490501594E+01  0.34941019114E+01  0.12999123325E+02  0.13549373114E+02  0.00000000000E+00 0. -1.
</event>
<event>
 7    1  0.2950722E-010  0.4778728E+02  0.7816164E-02  0.1312668E+00
        -11   -1    0    0    0    0  0.00000000000E+00  0.00000000000E+00  0.45593999997E+02  0.45594000000E+02  0.51100000000E-03 0.  1.
         11   -1    0    0    0    0 -0.00000000000E+00 -0.00000000000E+00 -0.45593999997E+02  0.45594000000E+02  0.51100000000E-03 0. -1.
    9900012    2    1    2    0    0 -0.12785657118E+02 -0.48071385539E+01 -0.41195159563E+02  0.47787276730E+02  0.20000025921E+02 0.  0.
        -12    1    1    2    0    0  0.12785657118E+02  0.48071385539E+01  0.41195159563E+02  0.43400723270E+02  0.00000000000E+00 0.  1.
         11    1    3    3    0    0 -0.96415452268E+00  0.52698080138E+01 -0.51162676908E+01  0.74078786296E+01  0.51100000000E-03 0. -1.
        -11    1    3    3    0    0 -0.15243720186E+01 -0.71967711473E+01 -0.16647685193E+02  0.18200622175E+02  0.51100000000E-03 0.  1.
         12    1    3    3    0    0 -0.10297130576E+02 -0.28801754204E+01 -0.19431206678E+02  0.22178775925E+02  0.00000000000E+00 0. -1.
</event>
<event>
 7    1  0.2950722E-010  0.4778730E+02  0.7816164E-02  0.1312668E+00
        -11   -1    0    0    0    0  0.00000000000E+00  0.00000000000E+00  0.45593999997E+02  0.45594000000E+02  0.51100000000E-03 0.  1.
         11   -1    0    0    0    0 -0.00000000000E+00 -0.00000000000E+00 -0.45593999997E+02  0.45594000000E+02  0.51100000000E-03 0. -1.
    9900012    2    1    2    0    0  0.12264170328E+02 -0.41575918454E+02 -0.21573624309E+01  0.47787296298E+02  0.20000115143E+02 0.  0.
        -12    1    1    2    0    0 -0.12264170328E+02  0.41575918454E+02  0.21573624309E+01  0.43400703702E+02  0.00000000000E+00 0.  1.
         11    1    3    3    0    0 -0.35952664716E+01 -0.25821423702E+01 -0.17075326645E+01  0.47443722750E+01  0.51100000000E-03 0.  1.
        -11    1    3    3    0    0  0.11514638505E+02 -0.31594437010E+02 -0.37792091434E+01  0.33838997796E+02  0.51100000000E-03 0. -1.
         12    1    3    3    0    0  0.43447982946E+01 -0.73993390743E+01  0.33293793770E+01  0.92039262271E+01  0.00000000000E+00 0. -1.
</event>
<event>
 7    1  0.2950722E-010  0.4778729E+02  0.7816164E-02  0.1312668E+00
        -11   -1    0    0    0    0  0.00000000000E+00  0.00000000000E+00  0.45593999997E+02  0.45594000000E+02  0.51100000000E-03 0. -1.
         11   -1    0    0    0    0 -0.00000000000E+00 -0.00000000000E+00 -0.45593999997E+02  0.45594000000E+02  0.51100000000E-03 0.  1.
    9900012    2    1    2    0    0 -0.18794827558E+02 -0.21147478440E+02  0.32911393437E+02  0.47787294876E+02  0.20000108656E+02 0.  0.
        -12    1    1    2    0    0  0.18794827558E+02  0.21147478440E+02 -0.32911393437E+02  0.43400705124E+02  0.00000000000E+00 0.  1.
         11    1    3    3    0    0 -0.12697913907E+02 -0.30312628119E+01  0.76647632444E+01  0.15138499518E+02  0.51100000000E-03 0. -1.
        -11    1    3    3    0    0 -0.79024955438E+01 -0.16385023119E+02  0.21874361136E+02  0.28450063160E+02  0.51100000000E-03 0.  1.
        -12    1    3    3    0    0  0.18055818923E+01 -0.17311925095E+01  0.33722690570E+01  0.41987321976E+01  0.00000000000E+00 0.  1.
</event>
<event>
 7    1  0.2950722E-010  0.4778727E+02  0.7816164E-02  0.1312668E+00
        -11   -1    0    0    0    0  0.00000000000E+00  0.00000000000E+00  0.45593999997E+02  0.45594000000E+02  0.51100000000E-03 0. -1.
         11   -1    0    0    0    0 -0.00000000000E+00 -0.00000000000E+00 -0.45593999997E+02  0.45594000000E+02  0.51100000000E-03 0.  1.
    9900012    2    1    2    0    0 -0.43021329128E+02  0.53110104780E+01 -0.21404262603E+01  0.47787274006E+02  0.20000013504E+02 0.  0.
        -12    1    1    2    0    0  0.43021329128E+02 -0.53110104780E+01  0.21404262603E+01  0.43400725994E+02  0.00000000000E+00 0.  1.
         11    1    3    3    0    0 -0.19215227635E+02  0.33791700154E+01  0.38760240898E+01  0.19891388239E+02  0.51100000000E-03 0. -1.
        -11    1    3    3    0    0 -0.29242878553E+01 -0.37591225211E+01  0.14859647100E+01  0.49890432921E+01  0.51100000000E-03 0.  1.
        -12    1    3    3    0    0 -0.20881813637E+02  0.56909629837E+01 -0.75024150601E+01  0.22906842475E+02  0.00000000000E+00 0.  1.
</event>
<event>
 7    1  0.2950722E-010  0.4778728E+02  0.7816164E-02  0.1312668E+00
        -11   -1    0    0    0    0  0.00000000000E+00  0.00000000000E+00  0.45593999997E+02  0.45594000000E+02  0.51100000000E-03 0.  1.
         11   -1    0    0    0    0 -0.00000000000E+00 -0.00000000000E+00 -0.45593999997E+02  0.45594000000E+02  0.51100000000E-03 0. -1.
    9900012    2    1    2    0    0  0.33000597414E+01  0.42833373593E+02 -0.61672131352E+01  0.47787276440E+02  0.20000024601E+02 0.  0.
        -12    1    1    2    0    0 -0.33000597414E+01 -0.42833373593E+02  0.61672131352E+01  0.43400723560E+02  0.00000000000E+00 0.  1.
         11    1    3    3    0    0  0.61404840652E+01  0.23533917811E+02 -0.38206346768E+01  0.24620074770E+02  0.51100000000E-03 0. -1.
        -11    1    3    3    0    0 -0.44262351483E+01  0.10240500382E+02  0.41546399200E+01  0.11904639381E+02  0.51100000000E-03 0.  1.
        -12    1    3    3    0    0  0.15858108245E+01  0.90589554002E+01 -0.65012183784E+01  0.11262562289E+02  0.00000000000E+00 0.  1.
</event>
<event>
 7    1  0.2950722E-010  0.4778727E+02  0.7816164E-02  0.1312668E+00
        -11   -1    0    0    0    0  0.00000000000E+00  0.00000000000E+00  0.45593999997E+02  0.45594000000E+02  0.51100000000E-03 0. -1.
         11   -1    0    0    0    0 -0.00000000000E+00 -0.00000000000E+00 -0.45593999997E+02  0.45594000000E+02  0.51100000000E-03 0.  1.
    9900012    2    1    2    0    0 -0.21247635146E+02 -0.37817066132E+02 -0.14251194177E+01  0.47787268952E+02  0.19999990460E+02 0.  0.
        -12    1    1    2    0    0  0.21247635146E+02  0.37817066132E+02  0.14251194177E+01  0.43400731048E+02  0.00000000000E+00 0.  1.
         11    1    3    3    0    0 -0.10685451299E+00 -0.44595606408E+01  0.21492775661E+01  0.49516152227E+01  0.51100000000E-03 0. -1.
        -11    1    3    3    0    0  0.13659824717E+01  0.69551046716E+00 -0.12023295966E+01  0.19481374805E+01  0.51100000000E-03 0.  1.
        -12    1    3    3    0    0 -0.22506763105E+02 -0.34053015958E+02 -0.23720673872E+01  0.40887516249E+02  0.00000000000E+00 0.  1.
</event>
<event>
 7    1  0.2950722E-010  0.4778727E+02  0.7816164E-02  0.1312668E+00
        -11   -1    0    0    0    0  0.00000000000E+00  0.00000000000E+00  0.45593999997E+02  0.45594000000E+02  0.51100000000E-03 0.  1.
         11   -1    0    0    0    0 -0.00000000000E+00 -0.00000000000E+00 -0.45593999997E+02  0.45594000000E+02  0.51100000000E-03 0. -1.
    9900012    2    1    2    0    0  0.40815716891E+02  0.80556614910E+01  0.12361503850E+02  0.47787271840E+02  0.20000003629E+02 0.  0.
        -12    1    1    2    0    0 -0.40815716891E+02 -0.80556614910E+01 -0.12361503850E+02  0.43400728160E+02  0.00000000000E+00 0.  1.
         11    1    3    3    0    0  0.34506244060E+02  0.81572147026E+01  0.94332730012E+01  0.36690702781E+02  0.51100000000E-03 0. -1.
        -11    1    3    3    0    0  0.17892177120E+01  0.11992110817E+01  0.53779071119E+01  0.57932108890E+01  0.51100000000E-03 0.  1.
         12    1    3    3    0    0  0.45202551190E+01 -0.13007642933E+01 -0.24496762630E+01  0.53033581702E+01  0.00000000000E+00 0. -1.
</event>
<event>
 7    1  0.2950722E-010  0.4778727E+02  0.7816164E-02  0.1312668E+00
        -11   -1    0    0    0    0  0.00000000000E+00  0.00000000000E+00  0.45593999997E+02  0.45594000000E+02  0.51100000000E-03 0.  1.
         11   -1    0    0    0    0 -0.00000000000E+00 -0.00000000000E+00 -0.45593999997E+02  0.45594000000E+02  0.51100000000E-03 0. -1.
    9900012    2    1    2    0    0 -0.37702724544E+02  0.26785881095E+00 -0.21495494694E+02  0.47787268687E+02  0.19999989250E+02 0.  0.
        -12    1    1    2    0    0  0.37702724544E+02 -0.26785881095E+00  0.21495494694E+02  0.43400731313E+02  0.00000000000E+00 0.  1.
         11    1    3    3    0    0 -0.21715840472E+01 -0.67289786451E+00 -0.31122390287E+01  0.38541666859E+01  0.51100000000E-03 0. -1.
        -11    1    3    3    0    0 -0.34173791408E+02  0.21817879107E+00 -0.21557712559E+02  0.40405823742E+02  0.51100000000E-03 0.  1.
        -12    1    3    3    0    0 -0.13573490884E+01  0.72257788439E+00  0.31744568936E+01  0.35272782589E+01  0.00000000000E+00 0.  1.
</event>
<event>
 7    1  0.2950722E-010  0.4778727E+02  0.7816164E-02  0.1312668E+00
        -11   -1    0    0    0    0  0.00000000000E+00  0.00000000000E+00  0.45593999997E+02  0.45594000000E+02  0.51100000000E-03 0.  1.
         11   -1    0    0    0    0 -0.00000000000E+00 -0.00000000000E+00 -0.45593999997E+02  0.45594000000E+02  0.51100000000E-03 0. -1.
    9900012    2    1    2    0    0  0.12493226295E+02 -0.21522034551E+02 -0.35557625006E+02  0.47787269931E+02  0.19999994922E+02 0.  0.
        -12    1    1    2    0    0 -0.12493226295E+02  0.21522034551E+02  0.35557625006E+02  0.43400730069E+02  0.00000000000E+00 0.  1.
         11    1    3    3    0    0  0.93261444664E+01 -0.57876621864E+01 -0.23528782296E+02  0.25963004464E+02  0.51100000000E-03 0. -1.
        -11    1    3    3    0    0  0.37718472803E+01 -0.16663363914E+02 -0.11509976799E+02  0.20600342109E+02  0.51100000000E-03 0.  1.
        -12    1    3    3    0    0 -0.60476545177E+00  0.92899154986E+00 -0.51886591113E+00  0.12239233575E+01  0.00000000000E+00 0.  1.
</event>
<event>
 7    1  0.2950722E-010  0.4778727E+02  0.7816164E-02  0.1312668E+00
        -11   -1    0    0    0    0  0.00000000000E+00  0.00000000000E+00  0.45593999997E+02  0.45594000000E+02  0.51100000000E-03 0.  1.
         11   -1    0    0    0    0 -0.00000000000E+00 -0.00000000000E+00 -0.45593999997E+02  0.45594000000E+02  0.51100000000E-03 0. -1.
    9900012    2    1    2    0    0 -0.21855069474E+02 -0.13821806465E+02 -0.34855944990E+02  0.47787270780E+02  0.19999998795E+02 0.  0.
        -12    1    1    2    0    0  0.21855069474E+02  0.13821806465E+02  0.34855944990E+02  0.43400729220E+02  0.00000000000E+00 0.  1.
         11    1    3    3    0    0 -0.49924717613E+00  0.12499845145E+01 -0.41205130111E+01  0.43347822050E+01  0.51100000000E-03 0. -1.
        -11    1    3    3    0    0 -0.15322028503E+02 -0.10817076606E+01 -0.13513383979E+02  0.20458401593E+02  0.51100000000E-03 0.  1.
        -12    1    3    3    0    0 -0.60337937945E+01 -0.13990083319E+02 -0.17222048000E+02  0.22994086982E+02  0.00000000000E+00 0.  1.
</event>
<event>
 7    1  0.2950722E-010  0.4778725E+02  0.7816164E-02  0.1312668E+00
        -11   -1    0    0    0    0  0.00000000000E+00  0.00000000000E+00  0.45593999997E+02  0.45594000000E+02  0.51100000000E-03 0.  1.
         11   -1    0    0    0    0 -0.00000000000E+00 -0.00000000000E+00 -0.45593999997E+02  0.45594000000E+02  0.51100000000E-03 0. -1.
    9900012    2    1    2    0    0  0.17681727280E+02  0.78519498362E+01 -0.38850074194E+02  0.47787252763E+02  0.19999916649E+02 0.  0.
        -12    1    1    2    0    0 -0.17681727280E+02 -0.78519498362E+01  0.38850074194E+02  0.43400747237E+02  0.00000000000E+00 0.  1.
         11    1    3    3    0    0  0.60202352634E+01  0.43875425760E+01 -0.79369207264E+01  0.10885241080E+02  0.51100000000E-03 0. -1.
        -11    1    3    3    0    0 -0.13227542658E+01  0.27460632327E+01 -0.19073586957E+02  0.19315596335E+02  0.51100000000E-03 0.  1.
        -12    1    3    3    0    0  0.12984246282E+02  0.71834402746E+00 -0.11839566511E+02  0.17586415349E+02  0.00000000000E+00 0.  1.
</event>
<event>
 7    1  0.2950722E-010  0.4778727E+02  0.7816164E-02  0.1312668E+00
        -11   -1    0    0    0    0  0.00000000000E+00  0.00000000000E+00  0.45593999997E+02  0.45594000000E+02  0.51100000000E-03 0.  1.
         11   -1    0    0    0    0 -0.00000000000E+00 -0.00000000000E+00 -0.45593999997E+02  0.45594000000E+02  0.51100000000E-03 0. -1.
    9900012    2    1    2    0    0 -0.16500683715E+02 -0.11624086324E+02 -0.38421752643E+02  0.47787273945E+02  0.20000013224E+02 0.  0.
        -12    1    1    2    0    0  0.16500683715E+02  0.11624086324E+02  0.38421752643E+02  0.43400726055E+02  0.00000000000E+00 0.  1.
         11    1    3    3    0    0 -0.43917841807E+01 -0.30819470886E+00  0.22513049631E+00  0.44083371321E+01  0.51100000000E-03 0. -1.
        -11    1    3    3    0    0 -0.62966592983E+00 -0.37625212624E+01 -0.19149314232E+02  0.19525605785E+02  0.51100000000E-03 0.  1.
        -12    1    3    3    0    0 -0.11479233605E+02 -0.75533703525E+01 -0.19497568908E+02  0.23853331028E+02  0.00000000000E+00 0.  1.
</event>
<event>
 7    1  0.2950722E-010  0.4778727E+02  0.7816164E-02  0.1312668E+00
        -11   -1    0    0    0    0  0.00000000000E+00  0.00000000000E+00  0.45593999997E+02  0.45594000000E+02  0.51100000000E-03 0. -1.
         11   -1    0    0    0    0 -0.00000000000E+00 -0.00000000000E+00 -0.45593999997E+02  0.45594000000E+02  0.51100000000E-03 0.  1.
    9900012    2    1    2    0    0 -0.38240360163E+00 -0.26059940903E+02  0.34703843318E+02  0.47787268515E+02  0.19999988468E+02 0.  0.
        -12    1    1    2    0    0  0.38240360163E+00  0.26059940903E+02 -0.34703843318E+02  0.43400731485E+02  0.00000000000E+00 0.  1.
         11    1    3    3    0    0 -0.20026638440E+01 -0.58824412964E+01  0.36688811110E+01  0.72162640574E+01  0.51100000000E-03 0. -1.
        -11    1    3    3    0    0 -0.35626453675E+01  0.55084441238E+00  0.10548389857E+01  0.37561359304E+01  0.51100000000E-03 0.  1.
        -12    1    3    3    0    0  0.51829056098E+01 -0.20728344019E+02  0.29980123221E+02  0.36814868527E+02  0.00000000000E+00 0.  1.
</event>
<event>
 7    1  0.2950722E-010  0.4778727E+02  0.7816164E-02  0.1312668E+00
        -11   -1    0    0    0    0  0.00000000000E+00  0.00000000000E+00  0.45593999997E+02  0.45594000000E+02  0.51100000000E-03 0.  1.
         11   -1    0    0    0    0 -0.00000000000E+00 -0.00000000000E+00 -0.45593999997E+02  0.45594000000E+02  0.51100000000E-03 0. -1.
    9900012    2    1    2    0    0 -0.23961996897E+01  0.32837663069E+02 -0.28276656707E+02  0.47787271857E+02  0.20000003706E+02 0.  0.
        -12    1    1    2    0    0  0.23961996897E+01 -0.32837663069E+02  0.28276656707E+02  0.43400728143E+02  0.00000000000E+00 0.  1.
         11    1    3    3    0    0  0.15177585870E+01  0.13764666946E+02 -0.13075904539E+02  0.19045968787E+02  0.51100000000E-03 0. -1.
        -11    1    3    3    0    0 -0.54906380944E+01  0.19231945763E+02 -0.82886281919E+01  0.21649854551E+02  0.51100000000E-03 0.  1.
        -12    1    3    3    0    0  0.15766798177E+01 -0.15894964032E+00 -0.69121239765E+01  0.70914485193E+01  0.00000000000E+00 0.  1.
</event>
<event>
 7    1  0.2950722E-010  0.4778728E+02  0.7816164E-02  0.1312668E+00
        -11   -1    0    0    0    0  0.00000000000E+00  0.00000000000E+00  0.45593999997E+02  0.45594000000E+02  0.51100000000E-03 0.  1.
         11   -1    0    0    0    0 -0.00000000000E+00 -0.00000000000E+00 -0.45593999997E+02  0.45594000000E+02  0.51100000000E-03 0. -1.
    9900012    2    1    2    0    0 -0.10699187714E+02 -0.11026708959E+01 -0.42046811325E+02  0.47787276003E+02  0.20000022609E+02 0.  0.
        -12    1    1    2    0    0  0.10699187714E+02  0.11026708959E+01  0.42046811325E+02  0.43400723997E+02  0.00000000000E+00 0.  1.
         11    1    3    3    0    0  0.53310362008E+01 -0.85303522493E+00 -0.81847949841E+01  0.98050234708E+01  0.51100000000E-03 0. -1.
        -11    1    3    3    0    0 -0.61187070007E+01  0.23691859715E+01 -0.94449226093E+01  0.11500355685E+02  0.51100000000E-03 0.  1.
         12    1    3    3    0    0 -0.99115169142E+01 -0.26188216425E+01 -0.24417093732E+02  0.26481896847E+02  0.00000000000E+00 0. -1.
</event>
<event>
 7    1  0.2950722E-010  0.4778727E+02  0.7816164E-02  0.1312668E+00
        -11   -1    0    0    0    0  0.00000000000E+00  0.00000000000E+00  0.45593999997E+02  0.45594000000E+02  0.51100000000E-03 0. -1.
         11   -1    0    0    0    0 -0.00000000000E+00 -0.00000000000E+00 -0.45593999997E+02  0.45594000000E+02  0.51100000000E-03 0.  1.
    9900012    2    1    2    0    0 -0.39211869194E+01  0.37294506533E+02 -0.21848734012E+02  0.47787273021E+02  0.20000009013E+02 0.  0.
        -12    1    1    2    0    0  0.39211869194E+01 -0.37294506533E+02  0.21848734012E+02  0.43400726979E+02  0.00000000000E+00 0.  1.
         11    1    3    3    0    0  0.22195292402E+01  0.31629922270E+01 -0.14868440747E+01  0.41402337422E+01  0.51100000000E-03 0. -1.
        -11    1    3    3    0    0  0.17681611198E+01  0.19558086529E+02 -0.18468809572E+02  0.26958154048E+02  0.51100000000E-03 0.  1.
        -12    1    3    3    0    0 -0.79088772793E+01  0.14573427777E+02 -0.18930803653E+01  0.16688885231E+02  0.00000000000E+00 0.  1.
</event>
<event>
 7    1  0.2950722E-010  0.4778727E+02  0.7816164E-02  0.1312668E+00
        -11   -1    0    0    0    0  0.00000000000E+00  0.00000000000E+00  0.45593999997E+02  0.45594000000E+02  0.51100000000E-03 0. -1.
         11   -1    0    0    0    0 -0.00000000000E+00 -0.00000000000E+00 -0.45593999997E+02  0.45594000000E+02  0.51100000000E-03 0.  1.
    9900012    2    1    2    0    0 -0.50451330092E+01 -0.14945416749E+02  0.40432711731E+02  0.47787273891E+02  0.20000012978E+02 0.  0.
        -12    1    1    2    0    0  0.50451330092E+01  0.14945416749E+02 -0.40432711731E+02  0.43400726109E+02  0.00000000000E+00 0.  1.
         11    1    3    3    0    0  0.34374315264E+01 -0.12375355963E+02  0.19454052245E+02  0.23311489008E+02  0.51100000000E-03 0. -1.
        -11    1    3    3    0    0  0.12983602706E+01 -0.72756869288E+00  0.28829589101E+00  0.15159849528E+01  0.51100000000E-03 0.  1.
         12    1    3    3    0    0 -0.97809248062E+01 -0.18424920928E+01  0.20690363594E+02  0.22959799930E+02  0.00000000000E+00 0. -1.
</event>
<event>
 7    1  0.2950722E-010  0.4778726E+02  0.7816164E-02  0.1312668E+00
        -11   -1    0    0    0    0  0.00000000000E+00  0.00000000000E+00  0.45593999997E+02  0.45594000000E+02  0.51100000000E-03 0.  1.
         11   -1    0    0    0    0 -0.00000000000E+00 -0.00000000000E+00 -0.45593999997E+02  0.45594000000E+02  0.51100000000E-03 0. -1.
    9900012    2    1    2    0    0  0.16267334527E+02  0.13962912076E+02 -0.37736387602E+02  0.47787262270E+02  0.19999959995E+02 0.  0.
        -12    1    1    2    0    0 -0.16267334527E+02 -0.13962912076E+02  0.37736387602E+02  0.43400737730E+02  0.00000000000E+00 0.  1.
         11    1    3    3    0    0 -0.14740061550E+01  0.10171804522E+02 -0.18230605871E+02  0.20928289277E+02  0.51100000000E-03 0. -1.
        -11    1    3    3    0    0  0.12150455904E+02  0.28649439623E+01 -0.15582539101E+02  0.19966396963E+02  0.51100000000E-03 0.  1.
         12    1    3    3    0    0  0.55908847784E+01  0.92616359121E+00 -0.39232426294E+01  0.68925760302E+01  0.00000000000E+00 0. -1.
</event>
<event>
 7    1  0.2950722E-010  0.4778727E+02  0.7816164E-02  0.1312668E+00
        -11   -1    0    0    0    0  0.00000000000E+00  0.00000000000E+00  0.45593999997E+02  0.45594000000E+02  0.51100000000E-03 0.  1.
         11   -1    0    0    0    0 -0.00000000000E+00 -0.00000000000E+00 -0.45593999997E+02  0.45594000000E+02  0.51100000000E-03 0. -1.
    9900012    2    1    2    0    0 -0.36164337929E+02  0.17873693011E+02 -0.16009229353E+02  0.47787266548E+02  0.19999979500E+02 0.  0.
        -12    1    1    2    0    0  0.36164337929E+02 -0.17873693011E+02  0.16009229353E+02  0.43400733452E+02  0.00000000000E+00 0.  1.
         11    1    3    3    0    0 -0.13884220224E+02  0.38123875027E+00 -0.10722945853E+02  0.17547036281E+02  0.51100000000E-03 0. -1.
        -11    1    3    3    0    0 -0.19309874998E+02  0.15147477510E+02 -0.77356061385E+01  0.25732410496E+02  0.51100000000E-03 0.  1.
        -12    1    3    3    0    0 -0.29702427066E+01  0.23449767505E+01  0.24493226388E+01  0.45078197707E+01  0.00000000000E+00 0.  1.
</event>
<event>
 7    1  0.2950722E-010  0.4778727E+02  0.7816164E-02  0.1312668E+00
        -11   -1    0    0    0    0  0.00000000000E+00  0.00000000000E+00  0.45593999997E+02  0.45594000000E+02  0.51100000000E-03 0.  1.
         11   -1    0    0    0    0 -0.00000000000E+00 -0.00000000000E+00 -0.45593999997E+02  0.45594000000E+02  0.51100000000E-03 0. -1.
    9900012    2    1    2    0    0  0.13371658794E+02  0.33590930695E+02 -0.24009814646E+02  0.47787273241E+02  0.20000010015E+02 0.  0.
        -12    1    1    2    0    0 -0.13371658794E+02 -0.33590930695E+02  0.24009814646E+02  0.43400726759E+02  0.00000000000E+00 0.  1.
         11    1    3    3    0    0  0.80836778166E+01  0.93579509504E+01 -0.17764771720E+02  0.21644958017E+02  0.51100000000E-03 0. -1.
        -11    1    3    3    0    0  0.24088523639E+01  0.17102938650E+02 -0.20777257286E+01  0.17396264675E+02  0.51100000000E-03 0.  1.
         12    1    3    3    0    0  0.28791286133E+01  0.71300410950E+01 -0.41673171975E+01  0.87460505494E+01  0.00000000000E+00 0. -1.
</event>
<event>
 7    1  0.2950722E-010  0.4778724E+02  0.7816164E-02  0.1312668E+00
        -11   -1    0    0    0    0  0.00000000000E+00  0.00000000000E+00  0.45593999997E+02  0.45594000000E+02  0.51100000000E-03 0.  1.
         11   -1    0    0    0    0 -0.00000000000E+00 -0.00000000000E+00 -0.45593999997E+02  0.45594000000E+02  0.51100000000E-03 0. -1.
    9900012    2    1    2    0    0  0.32879102135E+02 -0.13757109560E+02 -0.24765554938E+02  0.47787238117E+02  0.19999849872E+02 0.  0.
        -12    1    1    2    0    0 -0.32879102135E+02  0.13757109560E+02  0.24765554938E+02  0.43400761883E+02  0.00000000000E+00 0.  1.
         11    1    3    3    0    0  0.99487899397E+01  0.30961311914E+01 -0.70057696373E+01  0.12555686285E+02  0.51100000000E-03 0. -1.
        -11    1    3    3    0    0  0.22045745413E+02 -0.14521333049E+02 -0.12085782263E+02  0.29033603591E+02  0.51100000000E-03 0.  1.
        -12    1    3    3    0    0  0.88456678201E+00 -0.23319077020E+01 -0.56740030381E+01  0.61979482411E+01  0.00000000000E+00 0.  1.
</event>
<event>
 7    1  0.2950722E-010  0.4778727E+02  0.7816164E-02  0.1312668E+00
        -11   -1    0    0    0    0  0.00000000000E+00  0.00000000000E+00  0.45593999997E+02  0.45594000000E+02  0.51100000000E-03 0.  1.
         11   -1    0    0    0    0 -0.00000000000E+00 -0.00000000000E+00 -0.45593999997E+02  0.45594000000E+02  0.51100000000E-03 0. -1.
    9900012    2    1    2    0    0 -0.42682241652E+02 -0.23180970124E+01  0.75150467110E+01  0.47787271282E+02  0.20000001084E+02 0.  0.
        -12    1    1    2    0    0  0.42682241652E+02  0.23180970124E+01 -0.75150467110E+01  0.43400728718E+02  0.00000000000E+00 0.  1.
         11    1    3    3    0    0 -0.30651525996E+00  0.30577389206E+00 -0.15318204849E+01  0.15918302475E+01  0.51100000000E-03 0. -1.
        -11    1    3    3    0    0 -0.43187693529E+02 -0.67923792975E+00  0.85784229552E+01  0.44036661740E+02  0.51100000000E-03 0.  1.
        -12    1    3    3    0    0  0.81196713737E+00 -0.19446329747E+01  0.46844424078E+00  0.21587792951E+01  0.00000000000E+00 0.  1.
</event>
<event>
 7    1  0.2950722E-010  0.4778727E+02  0.7816164E-02  0.1312668E+00
        -11   -1    0    0    0    0  0.00000000000E+00  0.00000000000E+00  0.45593999997E+02  0.45594000000E+02  0.51100000000E-03 0.  1.
         11   -1    0    0    0    0 -0.00000000000E+00 -0.00000000000E+00 -0.45593999997E+02  0.45594000000E+02  0.51100000000E-03 0. -1.
    9900012    2    1    2    0    0  0.15151984310E+02  0.25972000885E+02 -0.31296899993E+02  0.47787269503E+02  0.19999992973E+02 0.  0.
        -12    1    1    2    0    0 -0.15151984310E+02 -0.25972000885E+02  0.31296899993E+02  0.43400730497E+02  0.00000000000E+00 0.  1.
         11    1    3    3    0    0  0.73592541336E+01  0.32176722550E+01 -0.30133753841E+01  0.85786052252E+01  0.51100000000E-03 0. -1.
        -11    1    3    3    0    0  0.61668432303E+01  0.23652951709E+02 -0.28241225810E+02  0.37350487487E+02  0.51100000000E-03 0.  1.
        -12    1    3    3    0    0  0.16258869459E+01 -0.89862307924E+00 -0.42298799068E-01  0.18581767913E+01  0.00000000000E+00 0.  1.
</event>
<event>
 7    1  0.2950722E-010  0.4778727E+02  0.7816164E-02  0.1312668E+00
        -11   -1    0    0    0    0  0.00000000000E+00  0.00000000000E+00  0.45593999997E+02  0.45594000000E+02  0.51100000000E-03 0.  1.
         11   -1    0    0    0    0 -0.00000000000E+00 -0.00000000000E+00 -0.45593999997E+02  0.45594000000E+02  0.51100000000E-03 0. -1.
    9900012    2    1    2    0    0  0.15956866143E+02 -0.13258785601E+01 -0.40339115247E+02  0.47787265560E+02  0.19999974992E+02 0.  0.
        -12    1    1    2    0    0 -0.15956866143E+02  0.13258785601E+01  0.40339115247E+02  0.43400734440E+02  0.00000000000E+00 0.  1.
         11    1    3    3    0    0  0.25119784298E+01  0.54408670783E+01 -0.20994923431E+02  0.21833457819E+02  0.51100000000E-03 0. -1.
        -11    1    3    3    0    0  0.97405167801E+01 -0.66896676451E+01 -0.86732749969E+01  0.14657933680E+02  0.51100000000E-03 0.  1.
        -12    1    3    3    0    0  0.37043709326E+01 -0.77077993306E-01 -0.10670916819E+02  0.11295874060E+02  0.00000000000E+00 0.  1.
</event>
<event>
 7    1  0.2950722E-010  0.4778727E+02  0.7816164E-02  0.1312668E+00
        -11   -1    0    0    0    0  0.00000000000E+00  0.00000000000E+00  0.45593999997E+02  0.45594000000E+02  0.51100000000E-03 0. -1.
         11   -1    0    0    0    0 -0.00000000000E+00 -0.00000000000E+00 -0.45593999997E+02  0.45594000000E+02  0.51100000000E-03 0.  1.
    9900012    2    1    2    0    0 -0.12222849836E+01 -0.39694671674E+02  0.17506065798E+02  0.47787270978E+02  0.19999999698E+02 0.  0.
        -12    1    1    2    0    0  0.12222849836E+01  0.39694671674E+02 -0.17506065798E+02  0.43400729022E+02  0.00000000000E+00 0.  1.
         11    1    3    3    0    0 -0.52203236910E+01 -0.66774683862E+01  0.57205387999E+01  0.10225699385E+02  0.51100000000E-03 0.  1.
        -11    1    3    3    0    0  0.20073721348E+01 -0.30153366227E+02  0.14128729288E+02  0.33359796602E+02  0.51100000000E-03 0. -1.
        -12    1    3    3    0    0  0.19906665726E+01 -0.28638370604E+01 -0.23432022896E+01  0.42017749918E+01  0.00000000000E+00 0.  1.
</event>
<event>
 7    1  0.2950722E-010  0.4778727E+02  0.7816164E-02  0.1312668E+00
        -11   -1    0    0    0    0  0.00000000000E+00  0.00000000000E+00  0.45593999997E+02  0.45594000000E+02  0.51100000000E-03 0. -1.
         11   -1    0    0    0    0 -0.00000000000E+00 -0.00000000000E+00 -0.45593999997E+02  0.45594000000E+02  0.51100000000E-03 0.  1.
    9900012    2    1    2    0    0  0.30533539902E+02  0.25089815698E+02  0.17939545248E+02  0.47787271960E+02  0.20000004174E+02 0.  0.
        -12    1    1    2    0    0 -0.30533539902E+02 -0.25089815698E+02 -0.17939545248E+02  0.43400728040E+02  0.00000000000E+00 0.  1.
         11    1    3    3    0    0  0.61660018278E+01  0.53125765303E+01  0.18711105449E+01  0.83512934844E+01  0.51100000000E-03 0. -1.
        -11    1    3    3    0    0  0.83277153863E+01  0.18046952366E+02  0.85315302870E+01  0.21629386088E+02  0.51100000000E-03 0.  1.
        -12    1    3    3    0    0  0.16039822688E+02  0.17302868020E+01  0.75369044160E+01  0.17806592387E+02  0.00000000000E+00 0.  1.
</event>
<event>
 7    1  0.2950722E-010  0.4778727E+02  0.7816164E-02  0.1312668E+00
        -11   -1    0    0    0    0  0.00000000000E+00  0.00000000000E+00  0.45593999997E+02  0.45594000000E+02  0.51100000000E-03 0. -1.
         11   -1    0    0    0    0 -0.00000000000E+00 -0.00000000000E+00 -0.45593999997E+02  0.45594000000E+02  0.51100000000E-03 0.  1.
    9900012    2    1    2    0    0 -0.39351033436E+01  0.33281886275E+02  0.27576336441E+02  0.47787270468E+02  0.19999997372E+02 0.  0.
        -12    1    1    2    0    0  0.39351033436E+01 -0.33281886275E+02 -0.27576336441E+02  0.43400729532E+02  0.00000000000E+00 0.  1.
         11    1    3    3    0    0  0.37430219781E+01  0.86746457344E+01 -0.22140138572E+00  0.94503286176E+01  0.51100000000E-03 0. -1.
        -11    1    3    3    0    0 -0.71090018783E+01  0.15894145525E+02  0.15900726405E+02  0.23579543467E+02  0.51100000000E-03 0.  1.
         12    1    3    3    0    0 -0.56912344339E+00  0.87130950164E+01  0.11897011422E+02  0.14757398383E+02  0.00000000000E+00 0. -1.
</event>
<event>
 7    1  0.2950722E-010  0.4778727E+02  0.7816164E-02  0.1312668E+00
        -11   -1    0    0    0    0  0.00000000000E+00  0.00000000000E+00  0.45593999997E+02  0.45594000000E+02  0.51100000000E-03 0. -1.
         11   -1    0    0    0    0 -0.00000000000E+00 -0.00000000000E+00 -0.45593999997E+02  0.45594000000E+02  0.51100000000E-03 0.  1.
    9900012    2    1    2    0    0 -0.15579145700E+02  0.93246653689E+01  0.39420352431E+02  0.47787270158E+02  0.19999995959E+02 0.  0.
        -12    1    1    2    0    0  0.15579145700E+02 -0.93246653689E+01 -0.39420352431E+02  0.43400729842E+02  0.00000000000E+00 0.  1.
         11    1    3    3    0    0 -0.56986724929E+01  0.93068365625E+01  0.15165513660E+02  0.18683813310E+02  0.51100000000E-03 0. -1.
        -11    1    3    3    0    0 -0.10714424828E+02 -0.22516581915E+01  0.10609871137E+02  0.15245925023E+02  0.51100000000E-03 0.  1.
        -12    1    3    3    0    0  0.83395162027E+00  0.22694869979E+01  0.13644967634E+02  0.13857531825E+02  0.00000000000E+00 0.  1.
</event>
<event>
 7    1  0.2950722E-010  0.4778727E+02  0.7816164E-02  0.1312668E+00
        -11   -1    0    0    0    0  0.00000000000E+00  0.00000000000E+00  0.45593999997E+02  0.45594000000E+02  0.51100000000E-03 0.  1.
         11   -1    0    0    0    0 -0.00000000000E+00 -0.00000000000E+00 -0.45593999997E+02  0.45594000000E+02  0.51100000000E-03 0. -1.
    9900012    2    1    2    0    0 -0.31040214136E+02 -0.47844944816E+01 -0.29953919581E+02  0.47787267526E+02  0.19999983958E+02 0.  0.
        -12    1    1    2    0    0  0.31040214136E+02  0.47844944816E+01  0.29953919581E+02  0.43400732474E+02  0.00000000000E+00 0.  1.
         11    1    3    3    0    0 -0.16351075999E+02 -0.11864625365E+02 -0.14845199970E+02  0.25070041559E+02  0.51100000000E-03 0. -1.
        -11    1    3    3    0    0 -0.11386444353E+00 -0.51571769177E+00 -0.50681356680E+00  0.73197684507E+00  0.51100000000E-03 0.  1.
         12    1    3    3    0    0 -0.14575273693E+02  0.75958485753E+01 -0.14601906045E+02  0.21985249121E+02  0.00000000000E+00 0. -1.
</event>
<event>
 7    1  0.2950722E-010  0.4778727E+02  0.7816164E-02  0.1312668E+00
        -11   -1    0    0    0    0  0.00000000000E+00  0.00000000000E+00  0.45593999997E+02  0.45594000000E+02  0.51100000000E-03 0. -1.
         11   -1    0    0    0    0 -0.00000000000E+00 -0.00000000000E+00 -0.45593999997E+02  0.45594000000E+02  0.51100000000E-03 0.  1.
    9900012    2    1    2    0    0  0.31017384634E+02 -0.24717941257E+02  0.17622955815E+02  0.47787270269E+02  0.19999996464E+02 0.  0.
        -12    1    1    2    0    0 -0.31017384634E+02  0.24717941257E+02 -0.17622955815E+02  0.43400729731E+02  0.00000000000E+00 0.  1.
         11    1    3    3    0    0  0.10842290286E+02 -0.13622721283E+02  0.16790560609E+02  0.24187945751E+02  0.51100000000E-03 0. -1.
        -11    1    3    3    0    0  0.10184061818E+02 -0.78107910112E+01 -0.11902774252E+01  0.12889543512E+02  0.51100000000E-03 0.  1.
         12    1    3    3    0    0  0.99910325302E+01 -0.32844289622E+01  0.20226726313E+01  0.10709781006E+02  0.00000000000E+00 0. -1.
</event>
<event>
 7    1  0.2950722E-010  0.4778727E+02  0.7816164E-02  0.1312668E+00
        -11   -1    0    0    0    0  0.00000000000E+00  0.00000000000E+00  0.45593999997E+02  0.45594000000E+02  0.51100000000E-03 0. -1.
         11   -1    0    0    0    0 -0.00000000000E+00 -0.00000000000E+00 -0.45593999997E+02  0.45594000000E+02  0.51100000000E-03 0.  1.
    9900012    2    1    2    0    0 -0.33079842316E+01 -0.28529039133E+02  0.32538811657E+02  0.47787273075E+02  0.20000009260E+02 0.  0.
        -12    1    1    2    0    0  0.33079842316E+01  0.28529039133E+02 -0.32538811657E+02  0.43400726925E+02  0.00000000000E+00 0.  1.
         11    1    3    3    0    0 -0.17841990838E+01 -0.17496345374E+01  0.13782086119E+02  0.14006801399E+02  0.51100000000E-03 0. -1.
        -11    1    3    3    0    0  0.12020201895E+00 -0.92966658969E+01  0.20037302754E+01  0.95109085056E+01  0.51100000000E-03 0.  1.
         12    1    3    3    0    0 -0.16439871667E+01 -0.17482738699E+02  0.16752995263E+02  0.24269563171E+02  0.00000000000E+00 0. -1.
</event>
<event>
 7    1  0.2950722E-010  0.4778728E+02  0.7816164E-02  0.1312668E+00
        -11   -1    0    0    0    0  0.00000000000E+00  0.00000000000E+00  0.45593999997E+02  0.45594000000E+02  0.51100000000E-03 0. -1.
         11   -1    0    0    0    0 -0.00000000000E+00 -0.00000000000E+00 -0.45593999997E+02  0.45594000000E+02  0.51100000000E-03 0.  1.
    9900012    2    1    2    0    0 -0.26311184367E+02  0.27790126358E+02  0.20470785690E+02  0.47787278664E+02  0.20000034739E+02 0.  0.
        -12    1    1    2    0    0  0.26311184367E+02 -0.27790126358E+02 -0.20470785690E+02  0.43400721336E+02  0.00000000000E+00 0.  1.
         11    1    3    3    0    0 -0.46226028445E+01  0.17363227431E+01  0.10166542025E+02  0.11302294047E+02  0.51100000000E-03 0. -1.
        -11    1    3    3    0    0 -0.98532105143E+01  0.18496565494E+02  0.61659709813E+01  0.21845546249E+02  0.51100000000E-03 0.  1.
        -12    1    3    3    0    0 -0.11835371008E+02  0.75572381203E+01  0.41382726841E+01  0.14639438367E+02  0.00000000000E+00 0.  1.
</event>
<event>
 7    1  0.2950722E-010  0.4778727E+02  0.7816164E-02  0.1312668E+00
        -11   -1    0    0    0    0  0.00000000000E+00  0.00000000000E+00  0.45593999997E+02  0.45594000000E+02  0.51100000000E-03 0. -1.
         11   -1    0    0    0    0 -0.00000000000E+00 -0.00000000000E+00 -0.45593999997E+02  0.45594000000E+02  0.51100000000E-03 0.  1.
    9900012    2    1    2    0    0  0.12873340954E+02 -0.40436621095E+02  0.90983470263E+01  0.47787272454E+02  0.20000006426E+02 0.  0.
        -12    1    1    2    0    0 -0.12873340954E+02  0.40436621095E+02 -0.90983470263E+01  0.43400727546E+02  0.00000000000E+00 0.  1.
         11    1    3    3    0    0  0.49565070173E+01 -0.13289108101E+02  0.34247310451E+01  0.14590960864E+02  0.51100000000E-03 0. -1.
        -11    1    3    3    0    0  0.12454950464E+02 -0.19890992345E+02  0.11051861766E+01  0.23494654802E+02  0.51100000000E-03 0.  1.
        -12    1    3    3    0    0 -0.45381165273E+01 -0.72565206491E+01  0.45684298046E+01  0.97016567877E+01  0.00000000000E+00 0.  1.
</event>
<event>
 7    1  0.2950722E-010  0.4778727E+02  0.7816164E-02  0.1312668E+00
        -11   -1    0    0    0    0  0.00000000000E+00  0.00000000000E+00  0.45593999997E+02  0.45594000000E+02  0.51100000000E-03 0.  1.
         11   -1    0    0    0    0 -0.00000000000E+00 -0.00000000000E+00 -0.45593999997E+02  0.45594000000E+02  0.51100000000E-03 0. -1.
    9900012    2    1    2    0    0  0.31110239905E+02  0.26071967045E+02 -0.15363236964E+02  0.47787267949E+02  0.19999985888E+02 0.  0.
        -12    1    1    2    0    0 -0.31110239905E+02 -0.26071967045E+02  0.15363236964E+02  0.43400732051E+02  0.00000000000E+00 0.  1.
         11    1    3    3    0    0 -0.11462556295E+01  0.34823284620E+01  0.15592125391E+01  0.39839248850E+01  0.51100000000E-03 0.  1.
        -11    1    3    3    0    0  0.97470087196E+01  0.96508489090E+01 -0.20122300986E+01  0.13863337761E+02  0.51100000000E-03 0. -1.
         12    1    3    3    0    0  0.22509486815E+02  0.12938789674E+02 -0.14910219404E+02  0.29940005303E+02  0.00000000000E+00 0. -1.
</event>
<event>
 7    1  0.2950722E-010  0.4778728E+02  0.7816164E-02  0.1312668E+00
        -11   -1    0    0    0    0  0.00000000000E+00  0.00000000000E+00  0.45593999997E+02  0.45594000000E+02  0.51100000000E-03 0.  1.
         11   -1    0    0    0    0 -0.00000000000E+00 -0.00000000000E+00 -0.45593999997E+02  0.45594000000E+02  0.51100000000E-03 0. -1.
    9900012    2    1    2    0    0 -0.10550053757E+02  0.73105880913E+01 -0.41459307350E+02  0.47787279978E+02  0.20000040730E+02 0.  0.
        -12    1    1    2    0    0  0.10550053757E+02 -0.73105880913E+01  0.41459307350E+02  0.43400720022E+02  0.00000000000E+00 0.  1.
         11    1    3    3    0    0 -0.23648556483E+01 -0.60868781542E+01 -0.71213586397E+01  0.96621103822E+01  0.51100000000E-03 0. -1.
        -11    1    3    3    0    0 -0.71730660212E+01  0.67786898803E+01 -0.20251606790E+02  0.22528450690E+02  0.51100000000E-03 0.  1.
         12    1    3    3    0    0 -0.10121320876E+01  0.66187763651E+01 -0.14086341920E+02  0.15596718906E+02  0.00000000000E+00 0. -1.
</event>
<event>
 7    1  0.2950722E-010  0.4778727E+02  0.7816164E-02  0.1312668E+00
        -11   -1    0    0    0    0  0.00000000000E+00  0.00000000000E+00  0.45593999997E+02  0.45594000000E+02  0.51100000000E-03 0.  1.
         11   -1    0    0    0    0 -0.00000000000E+00 -0.00000000000E+00 -0.45593999997E+02  0.45594000000E+02  0.51100000000E-03 0. -1.
    9900012    2    1    2    0    0  0.10011573487E+02  0.36660729272E+02 -0.20961451635E+02  0.47787272713E+02  0.20000007607E+02 0.  0.
        -12    1    1    2    0    0 -0.10011573487E+02 -0.36660729272E+02  0.20961451635E+02  0.43400727287E+02  0.00000000000E+00 0.  1.
         11    1    3    3    0    0  0.98737853575E+01  0.12032740019E+02 -0.16071796404E+02  0.22373670007E+02  0.51100000000E-03 0. -1.
        -11    1    3    3    0    0 -0.15256664980E+01  0.10169559577E+02 -0.89897064303E+00  0.10322584402E+02  0.51100000000E-03 0.  1.
         12    1    3    3    0    0  0.16634546275E+01  0.14458429675E+02 -0.39906845875E+01  0.15091018304E+02  0.00000000000E+00 0. -1.
</event>
<event>
 7    1  0.2950722E-010  0.4778726E+02  0.7816164E-02  0.1312668E+00
        -11   -1    0    0    0    0  0.00000000000E+00  0.00000000000E+00  0.45593999997E+02  0.45594000000E+02  0.51100000000E-03 0.  1.
         11   -1    0    0    0    0 -0.00000000000E+00 -0.00000000000E+00 -0.45593999997E+02  0.45594000000E+02  0.51100000000E-03 0. -1.
    9900012    2    1    2    0    0 -0.35555365734E+02 -0.12256705947E+02 -0.21661332013E+02  0.47787260632E+02  0.19999952525E+02 0.  0.
        -12    1    1    2    0    0  0.35555365734E+02  0.12256705947E+02  0.21661332013E+02  0.43400739368E+02  0.00000000000E+00 0.  1.
         11    1    3    3    0    0 -0.17427779999E+02 -0.14817450921E+02 -0.16047826631E+02  0.27943104827E+02  0.51100000000E-03 0. -1.
        -11    1    3    3    0    0  0.16754331438E+00  0.61228365194E+00 -0.20530670874E+00  0.66716799863E+00  0.51100000000E-03 0.  1.
         12    1    3    3    0    0 -0.18295129049E+02  0.19484613227E+01 -0.54081986730E+01  0.19176987807E+02  0.00000000000E+00 0. -1.
</event>
<event>
 7    1  0.2950722E-010  0.4778730E+02  0.7816164E-02  0.1312668E+00
        -11   -1    0    0    0    0  0.00000000000E+00  0.00000000000E+00  0.45593999997E+02  0.45594000000E+02  0.51100000000E-03 0.  1.
         11   -1    0    0    0    0 -0.00000000000E+00 -0.00000000000E+00 -0.45593999997E+02  0.45594000000E+02  0.51100000000E-03 0. -1.
    9900012    2    1    2    0    0 -0.30422427419E+00 -0.10814460696E+02 -0.42030649577E+02  0.47787301660E+02  0.20000139587E+02 0.  0.
        -12    1    1    2    0    0  0.30422427419E+00  0.10814460696E+02  0.42030649577E+02  0.43400698340E+02  0.00000000000E+00 0.  1.
         11    1    3    3    0    0 -0.13927140423E+01 -0.38465102149E+01 -0.80019947472E+01  0.89870581078E+01  0.51100000000E-03 0. -1.
        -11    1    3    3    0    0 -0.77278734370E+01 -0.59618059837E+01 -0.17265145895E+02  0.19833013424E+02  0.51100000000E-03 0.  1.
        -12    1    3    3    0    0  0.88163632051E+01 -0.10061444973E+01 -0.16763508935E+02  0.18967230128E+02  0.00000000000E+00 0.  1.
</event>
<event>
 7    1  0.2950722E-010  0.4778727E+02  0.7816164E-02  0.1312668E+00
        -11   -1    0    0    0    0  0.00000000000E+00  0.00000000000E+00  0.45593999997E+02  0.45594000000E+02  0.51100000000E-03 0. -1.
         11   -1    0    0    0    0 -0.00000000000E+00 -0.00000000000E+00 -0.45593999997E+02  0.45594000000E+02  0.51100000000E-03 0.  1.
    9900012    2    1    2    0    0  0.42098806126E+02  0.92802505350E+01  0.50190350495E+01  0.47787271434E+02  0.20000001778E+02 0.  0.
        -12    1    1    2    0    0 -0.42098806126E+02 -0.92802505350E+01 -0.50190350495E+01  0.43400728566E+02  0.00000000000E+00 0.  1.
         11    1    3    3    0    0  0.33805763780E+02  0.47923582942E+00  0.59240629378E+00  0.33814350167E+02  0.51100000000E-03 0. -1.
        -11    1    3    3    0    0  0.28915566989E+01  0.59104731110E+01  0.30056409936E+00  0.65867390701E+01  0.51100000000E-03 0.  1.
         12    1    3    3    0    0  0.54014856469E+01  0.28905415946E+01  0.41260646564E+01  0.73861821973E+01  0.00000000000E+00 0. -1.
</event>
<event>
 7    1  0.2950722E-010  0.4778727E+02  0.7816164E-02  0.1312668E+00
        -11   -1    0    0    0    0  0.00000000000E+00  0.00000000000E+00  0.45593999997E+02  0.45594000000E+02  0.51100000000E-03 0.  1.
         11   -1    0    0    0    0 -0.00000000000E+00 -0.00000000000E+00 -0.45593999997E+02  0.45594000000E+02  0.51100000000E-03 0. -1.
    9900012    2    1    2    0    0 -0.68483103913E+01 -0.17609599840E+01 -0.42820829282E+02  0.47787265494E+02  0.19999974691E+02 0.  0.
        -12    1    1    2    0    0  0.68483103913E+01  0.17609599840E+01  0.42820829282E+02  0.43400734506E+02  0.00000000000E+00 0.  1.
         11    1    3    3    0    0  0.10278816039E+01  0.36761605864E+01 -0.31874647328E+00  0.38304434239E+01  0.51100000000E-03 0.  1.
        -11    1    3    3    0    0 -0.67551873585E+01 -0.13413380548E+01 -0.23648540816E+02  0.24630981040E+02  0.51100000000E-03 0. -1.
        -12    1    3    3    0    0 -0.11210046367E+01 -0.40957825155E+01 -0.18853541993E+02  0.19325841030E+02  0.00000000000E+00 0.  1.
</event>
<event>
 7    1  0.2950722E-010  0.4778726E+02  0.7816164E-02  0.1312668E+00
        -11   -1    0    0    0    0  0.00000000000E+00  0.00000000000E+00  0.45593999997E+02  0.45594000000E+02  0.51100000000E-03 0. -1.
         11   -1    0    0    0    0 -0.00000000000E+00 -0.00000000000E+00 -0.45593999997E+02  0.45594000000E+02  0.51100000000E-03 0.  1.
    9900012    2    1    2    0    0 -0.19132057056E+02 -0.37672397274E+02  0.99186208943E+01  0.47787260790E+02  0.19999953245E+02 0.  0.
        -12    1    1    2    0    0  0.19132057056E+02  0.37672397274E+02 -0.99186208943E+01  0.43400739210E+02  0.00000000000E+00 0.  1.
         11    1    3    3    0    0 -0.90792430473E+01 -0.28214232424E+02  0.74360701384E+01  0.30557661968E+02  0.51100000000E-03 0. -1.
        -11    1    3    3    0    0 -0.10790898395E+02 -0.40694072066E+01  0.91403529615E+00  0.11568881708E+02  0.51100000000E-03 0.  1.
        -12    1    3    3    0    0  0.73808438610E+00 -0.53887576436E+01  0.15685154597E+01  0.56607171145E+01  0.00000000000E+00 0.  1.
</event>
<event>
 7    1  0.2950722E-010  0.4778727E+02  0.7816164E-02  0.1312668E+00
        -11   -1    0    0    0    0  0.00000000000E+00  0.00000000000E+00  0.45593999997E+02  0.45594000000E+02  0.51100000000E-03 0.  1.
         11   -1    0    0    0    0 -0.00000000000E+00 -0.00000000000E+00 -0.45593999997E+02  0.45594000000E+02  0.51100000000E-03 0. -1.
    9900012    2    1    2    0    0  0.31073637418E+01 -0.34338474567E+01 -0.43152939852E+02  0.47787271485E+02  0.20000002008E+02 0.  0.
        -12    1    1    2    0    0 -0.31073637418E+01  0.34338474567E+01  0.43152939852E+02  0.43400728515E+02  0.00000000000E+00 0.  1.
         11    1    3    3    0    0 -0.27462751567E+00 -0.12877931274E+01 -0.36956822660E+02  0.36980272752E+02  0.51100000000E-03 0. -1.
        -11    1    3    3    0    0  0.28165110306E+01  0.27345406326E+01 -0.24356935737E+01  0.46198539265E+01  0.51100000000E-03 0.  1.
         12    1    3    3    0    0  0.56548022691E+00 -0.48805949619E+01 -0.37604236180E+01  0.61871448064E+01  0.00000000000E+00 0. -1.
</event>
<event>
 7    1  0.2950722E-010  0.4778727E+02  0.7816164E-02  0.1312668E+00
        -11   -1    0    0    0    0  0.00000000000E+00  0.00000000000E+00  0.45593999997E+02  0.45594000000E+02  0.51100000000E-03 0. -1.
         11   -1    0    0    0    0 -0.00000000000E+00 -0.00000000000E+00 -0.45593999997E+02  0.45594000000E+02  0.51100000000E-03 0.  1.
    9900012    2    1    2    0    0 -0.28388371688E+02 -0.24607564019E+02  0.21729963487E+02  0.47787272274E+02  0.20000005604E+02 0.  0.
        -12    1    1    2    0    0  0.28388371688E+02  0.24607564019E+02 -0.21729963487E+02  0.43400727726E+02  0.00000000000E+00 0.  1.
         11    1    3    3    0    0 -0.85214462613E+01 -0.28804409024E+01 -0.33755686228E+00  0.90014404998E+01  0.51100000000E-03 0. -1.
        -11    1    3    3    0    0 -0.72634783907E+01 -0.14113635305E+02  0.16888555036E+02  0.23177060023E+02  0.51100000000E-03 0.  1.
        -12    1    3    3    0    0 -0.12603447036E+02 -0.76134878115E+01  0.51789653137E+01  0.15608771751E+02  0.00000000000E+00 0.  1.
</event>
<event>
 7    1  0.2950722E-010  0.4778727E+02  0.7816164E-02  0.1312668E+00
        -11   -1    0    0    0    0  0.00000000000E+00  0.00000000000E+00  0.45593999997E+02  0.45594000000E+02  0.51100000000E-03 0.  1.
         11   -1    0    0    0    0 -0.00000000000E+00 -0.00000000000E+00 -0.45593999997E+02  0.45594000000E+02  0.51100000000E-03 0. -1.
    9900012    2    1    2    0    0  0.20970368034E+02 -0.33154092384E+02 -0.18565366951E+02  0.47787273885E+02  0.20000012949E+02 0.  0.
        -12    1    1    2    0    0 -0.20970368034E+02  0.33154092384E+02  0.18565366951E+02  0.43400726115E+02  0.00000000000E+00 0.  1.
         11    1    3    3    0    0  0.59232835062E-01 -0.32365516989E+01 -0.48787328543E+01  0.58549816356E+01  0.51100000000E-03 0. -1.
        -11    1    3    3    0    0  0.10379458066E+02 -0.16202581679E+02 -0.15274288648E+02  0.24567472332E+02  0.51100000000E-03 0.  1.
        -12    1    3    3    0    0  0.10531677133E+02 -0.13714959007E+02  0.15876545509E+01  0.17364819917E+02  0.00000000000E+00 0.  1.
</event>
<event>
 7    1  0.2950722E-010  0.4778727E+02  0.7816164E-02  0.1312668E+00
        -11   -1    0    0    0    0  0.00000000000E+00  0.00000000000E+00  0.45593999997E+02  0.45594000000E+02  0.51100000000E-03 0.  1.
         11   -1    0    0    0    0 -0.00000000000E+00 -0.00000000000E+00 -0.45593999997E+02  0.45594000000E+02  0.51100000000E-03 0. -1.
    9900012    2    1    2    0    0  0.26915946706E+02  0.32734247276E+02 -0.93607959641E+01  0.47787266908E+02  0.19999981140E+02 0.  0.
        -12    1    1    2    0    0 -0.26915946706E+02 -0.32734247276E+02  0.93607959641E+01  0.43400733092E+02  0.00000000000E+00 0.  1.
         11    1    3    3    0    0  0.16484118533E+02  0.19867133681E+02  0.79346842162E-04  0.25815289360E+02  0.51100000000E-03 0. -1.
        -11    1    3    3    0    0 -0.19947589410E+01  0.44237997996E+01 -0.24129052844E+01  0.54195184355E+01  0.51100000000E-03 0.  1.
        -12    1    3    3    0    0  0.12426587114E+02  0.84433137961E+01 -0.69479700265E+01  0.16552459112E+02  0.00000000000E+00 0.  1.
</event>
