<event>
 7    1  0.1541705E-008  0.4614232E+02  0.7816164E-02  0.1320468E+00
        -11   -1    0    0    0    0  0.00000000000E+00  0.00000000000E+00  0.45593999997E+02  0.45594000000E+02  0.51100000000E-03 0.  1.
         11   -1    0    0    0    0 -0.00000000000E+00 -0.00000000000E+00 -0.45593999997E+02  0.45594000000E+02  0.51100000000E-03 0. -1.
    9900012    2    1    2    0    0  0.23202105679E+02  0.20043978287E+02 -0.33000223206E+02  0.46142317575E+02  0.99999983027E+01 0.  0.
        -12    1    1    2    0    0 -0.23202105679E+02 -0.20043978287E+02  0.33000223206E+02  0.45045682425E+02  0.00000000000E+00 0.  1.
         11    1    3    3    0    0  0.47477353064E+01  0.56003353377E+01 -0.92603411880E+01  0.11817726753E+02  0.51100000000E-03 0. -1.
        -11    1    3    3    0    0  0.79445301525E+00  0.27591311220E+01 -0.61840171849E+01  0.68180663641E+01  0.51100000000E-03 0.  1.
        -12    1    3    3    0    0  0.17659917357E+02  0.11684511827E+02 -0.17555864833E+02  0.27506524458E+02  0.00000000000E+00 0.  1.
</event>
<event>
 7    1  0.1541705E-008  0.4614232E+02  0.7816164E-02  0.1320468E+00
        -11   -1    0    0    0    0  0.00000000000E+00  0.00000000000E+00  0.45593999997E+02  0.45594000000E+02  0.51100000000E-03 0. -1.
         11   -1    0    0    0    0 -0.00000000000E+00 -0.00000000000E+00 -0.45593999997E+02  0.45594000000E+02  0.51100000000E-03 0.  1.
    9900012    2    1    2    0    0 -0.10750304424E+02 -0.21281607230E+02 -0.38218291803E+02  0.46142315635E+02  0.99999806163E+01 0.  0.
        -12    1    1    2    0    0  0.10750304424E+02  0.21281607230E+02  0.38218291803E+02  0.45045684365E+02  0.00000000000E+00 0.  1.
         11    1    3    3    0    0  0.65180173728E-01 -0.91779725049E+01 -0.14275871569E+02  0.16971739365E+02  0.51100000000E-03 0. -1.
        -11    1    3    3    0    0 -0.53925117273E+01 -0.42814202550E+01 -0.75743802210E+01  0.10236258014E+02  0.51100000000E-03 0.  1.
         12    1    3    3    0    0 -0.54229728705E+01 -0.78222144704E+01 -0.16368040013E+02  0.18934318257E+02  0.00000000000E+00 0. -1.
</event>
<event>
 7    1  0.1541705E-008  0.4614232E+02  0.7816164E-02  0.1320468E+00
        -11   -1    0    0    0    0  0.00000000000E+00  0.00000000000E+00  0.45593999997E+02  0.45594000000E+02  0.51100000000E-03 0.  1.
         11   -1    0    0    0    0 -0.00000000000E+00 -0.00000000000E+00 -0.45593999997E+02  0.45594000000E+02  0.51100000000E-03 0. -1.
    9900012    2    1    2    0    0  0.44707750919E+02  0.82724625732E+00 -0.54448259923E+01  0.46142318091E+02  0.10000003006E+02 0.  0.
        -12    1    1    2    0    0 -0.44707750919E+02 -0.82724625732E+00  0.54448259923E+01  0.45045681909E+02  0.00000000000E+00 0.  1.
         11    1    3    3    0    0  0.16894688866E+02  0.50803357040E+01 -0.13397327023E+01  0.17692800985E+02  0.51100000000E-03 0. -1.
        -11    1    3    3    0    0  0.10739132528E+02 -0.14079641936E+01 -0.19742745475E+01  0.11009500028E+02  0.51100000000E-03 0.  1.
         12    1    3    3    0    0  0.17073929526E+02 -0.28451252531E+01 -0.21308187425E+01  0.17440017077E+02  0.00000000000E+00 0. -1.
</event>
<event>
 7    1  0.1541705E-008  0.4614232E+02  0.7816164E-02  0.1320468E+00
        -11   -1    0    0    0    0  0.00000000000E+00  0.00000000000E+00  0.45593999997E+02  0.45594000000E+02  0.51100000000E-03 0.  1.
         11   -1    0    0    0    0 -0.00000000000E+00 -0.00000000000E+00 -0.45593999997E+02  0.45594000000E+02  0.51100000000E-03 0. -1.
    9900012    2    1    2    0    0 -0.44789949892E+02 -0.10352541499E+01 -0.46799637413E+01  0.46142318485E+02  0.10000006605E+02 0.  0.
        -12    1    1    2    0    0  0.44789949892E+02  0.10352541499E+01  0.46799637413E+01  0.45045681515E+02  0.00000000000E+00 0.  1.
         11    1    3    3    0    0 -0.29335721020E+02  0.32573846505E+01 -0.19689604960E+01  0.29581614024E+02  0.51100000000E-03 0. -1.
        -11    1    3    3    0    0 -0.58955912725E+01 -0.31495803111E+01 -0.15746920559E+01  0.68671324380E+01  0.51100000000E-03 0.  1.
         12    1    3    3    0    0 -0.95586375991E+01 -0.11430584892E+01 -0.11363111894E+01  0.96935720237E+01  0.00000000000E+00 0. -1.
</event>
<event>
 7    1  0.1541705E-008  0.4614232E+02  0.7816164E-02  0.1320468E+00
        -11   -1    0    0    0    0  0.00000000000E+00  0.00000000000E+00  0.45593999997E+02  0.45594000000E+02  0.51100000000E-03 0.  1.
         11   -1    0    0    0    0 -0.00000000000E+00 -0.00000000000E+00 -0.45593999997E+02  0.45594000000E+02  0.51100000000E-03 0. -1.
    9900012    2    1    2    0    0  0.16179619622E+02  0.36858002335E+02 -0.20219323287E+02  0.46142318060E+02  0.10000002724E+02 0.  0.
        -12    1    1    2    0    0 -0.16179619622E+02 -0.36858002335E+02  0.20219323287E+02  0.45045681940E+02  0.00000000000E+00 0.  1.
         11    1    3    3    0    0  0.10025223778E+02  0.27525798597E+02 -0.16349549660E+02  0.33548211197E+02  0.51100000000E-03 0. -1.
        -11    1    3    3    0    0  0.47398714569E+01  0.49365527450E+01 -0.46979956827E+00  0.68597847144E+01  0.51100000000E-03 0.  1.
         12    1    3    3    0    0  0.14145243871E+01  0.43956509937E+01 -0.33999740584E+01  0.57343221481E+01  0.00000000000E+00 0. -1.
</event>
<event>
 7    1  0.1541705E-008  0.4614232E+02  0.7816164E-02  0.1320468E+00
        -11   -1    0    0    0    0  0.00000000000E+00  0.00000000000E+00  0.45593999997E+02  0.45594000000E+02  0.51100000000E-03 0.  1.
         11   -1    0    0    0    0 -0.00000000000E+00 -0.00000000000E+00 -0.45593999997E+02  0.45594000000E+02  0.51100000000E-03 0. -1.
    9900012    2    1    2    0    0  0.39639536739E+02 -0.89237612800E+01 -0.19447033599E+02  0.46142317587E+02  0.99999984150E+01 0.  0.
        -12    1    1    2    0    0 -0.39639536739E+02  0.89237612800E+01  0.19447033599E+02  0.45045682413E+02  0.00000000000E+00 0.  1.
         11    1    3    3    0    0  0.11559941555E+02 -0.61175114715E+01 -0.79739128449E+01  0.15317946392E+02  0.51100000000E-03 0. -1.
        -11    1    3    3    0    0  0.12695898188E+02 -0.18614724580E+01 -0.27806681802E+01  0.13129471669E+02  0.51100000000E-03 0.  1.
         12    1    3    3    0    0  0.15383696996E+02 -0.94477735044E+00 -0.86924525737E+01  0.17694899526E+02  0.00000000000E+00 0. -1.
</event>
<event>
 7    1  0.1541705E-008  0.4614232E+02  0.7816164E-02  0.1320468E+00
        -11   -1    0    0    0    0  0.00000000000E+00  0.00000000000E+00  0.45593999997E+02  0.45594000000E+02  0.51100000000E-03 0.  1.
         11   -1    0    0    0    0 -0.00000000000E+00 -0.00000000000E+00 -0.45593999997E+02  0.45594000000E+02  0.51100000000E-03 0. -1.
    9900012    2    1    2    0    0  0.16249807057E+02  0.20968847565E+02 -0.36405559636E+02  0.46142316855E+02  0.99999917351E+01 0.  0.
        -12    1    1    2    0    0 -0.16249807057E+02 -0.20968847565E+02  0.36405559636E+02  0.45045683145E+02  0.00000000000E+00 0.  1.
         11    1    3    3    0    0  0.23147408951E+01  0.84453742894E+01 -0.15009444772E+02  0.17377163316E+02  0.51100000000E-03 0. -1.
        -11    1    3    3    0    0  0.31994167543E+01  0.51832255304E+01 -0.53202900974E+01  0.80874953755E+01  0.51100000000E-03 0.  1.
         12    1    3    3    0    0  0.10735649408E+02  0.73402477449E+01 -0.16075824767E+02  0.20677658163E+02  0.00000000000E+00 0. -1.
</event>
<event>
 7    1  0.1541705E-008  0.4614232E+02  0.7816164E-02  0.1320468E+00
        -11   -1    0    0    0    0  0.00000000000E+00  0.00000000000E+00  0.45593999997E+02  0.45594000000E+02  0.51100000000E-03 0.  1.
         11   -1    0    0    0    0 -0.00000000000E+00 -0.00000000000E+00 -0.45593999997E+02  0.45594000000E+02  0.51100000000E-03 0. -1.
    9900012    2    1    2    0    0  0.16921806810E+02  0.26651577891E+02 -0.32131903427E+02  0.46142319101E+02  0.10000012217E+02 0.  0.
        -12    1    1    2    0    0 -0.16921806810E+02 -0.26651577891E+02  0.32131903427E+02  0.45045680899E+02  0.00000000000E+00 0.  1.
         11    1    3    3    0    0  0.64322807023E+01  0.14022076387E+02 -0.20352511239E+02  0.25538550766E+02  0.51100000000E-03 0. -1.
        -11    1    3    3    0    0  0.75025163378E+01  0.63370100016E+01 -0.80769015926E+01  0.12715415320E+02  0.51100000000E-03 0.  1.
         12    1    3    3    0    0  0.29870097704E+01  0.62924915024E+01 -0.37024905951E+01  0.78883530146E+01  0.00000000000E+00 0. -1.
</event>
<event>
 7    1  0.1541705E-008  0.4614232E+02  0.7816164E-02  0.1320468E+00
        -11   -1    0    0    0    0  0.00000000000E+00  0.00000000000E+00  0.45593999997E+02  0.45594000000E+02  0.51100000000E-03 0.  1.
         11   -1    0    0    0    0 -0.00000000000E+00 -0.00000000000E+00 -0.45593999997E+02  0.45594000000E+02  0.51100000000E-03 0. -1.
    9900012    2    1    2    0    0 -0.13060932074E+02  0.42641268919E+02  0.63440935582E+01  0.46142320021E+02  0.10000020611E+02 0.  0.
        -12    1    1    2    0    0  0.13060932074E+02 -0.42641268919E+02 -0.63440935582E+01  0.45045679979E+02  0.00000000000E+00 0.  1.
         11    1    3    3    0    0 -0.35111430336E+01  0.96029503844E+01  0.15258042523E+01  0.10337933080E+02  0.51100000000E-03 0. -1.
        -11    1    3    3    0    0 -0.42977977725E+01  0.25168942155E+02  0.61140640536E+01  0.26255066072E+02  0.51100000000E-03 0.  1.
        -12    1    3    3    0    0 -0.52519912684E+01  0.78693763790E+01 -0.12957747477E+01  0.95493208698E+01  0.00000000000E+00 0.  1.
</event>
<event>
 7    1  0.1541705E-008  0.4614232E+02  0.7816164E-02  0.1320468E+00
        -11   -1    0    0    0    0  0.00000000000E+00  0.00000000000E+00  0.45593999997E+02  0.45594000000E+02  0.51100000000E-03 0. -1.
         11   -1    0    0    0    0 -0.00000000000E+00 -0.00000000000E+00 -0.45593999997E+02  0.45594000000E+02  0.51100000000E-03 0.  1.
    9900012    2    1    2    0    0  0.17540185000E+02  0.40706669455E+02  0.80263566709E+01  0.46142318416E+02  0.10000005972E+02 0.  0.
        -12    1    1    2    0    0 -0.17540185000E+02 -0.40706669455E+02 -0.80263566709E+01  0.45045681584E+02  0.00000000000E+00 0.  1.
         11    1    3    3    0    0  0.84200490687E+01  0.18239709799E+02  0.70047196833E+01  0.21275580791E+02  0.51100000000E-03 0. -1.
        -11    1    3    3    0    0  0.29590087777E+00  0.70314531472E+01  0.82465203992E+00  0.70858268353E+01  0.51100000000E-03 0.  1.
         12    1    3    3    0    0  0.88242350531E+01  0.15435506509E+02  0.19698494759E+00  0.17780910790E+02  0.00000000000E+00 0. -1.
</event>
<event>
 7    1  0.1541705E-008  0.4614232E+02  0.7816164E-02  0.1320468E+00
        -11   -1    0    0    0    0  0.00000000000E+00  0.00000000000E+00  0.45593999997E+02  0.45594000000E+02  0.51100000000E-03 0.  1.
         11   -1    0    0    0    0 -0.00000000000E+00 -0.00000000000E+00 -0.45593999997E+02  0.45594000000E+02  0.51100000000E-03 0. -1.
    9900012    2    1    2    0    0 -0.32536427896E+02 -0.25351023469E+02 -0.18105799682E+02  0.46142317485E+02  0.99999974789E+01 0.  0.
        -12    1    1    2    0    0  0.32536427896E+02  0.25351023469E+02  0.18105799682E+02  0.45045682515E+02  0.00000000000E+00 0.  1.
         11    1    3    3    0    0 -0.11720703196E+02 -0.14307833976E+02 -0.51296876526E+01  0.19193819114E+02  0.51100000000E-03 0. -1.
        -11    1    3    3    0    0 -0.19699837456E+02 -0.10836112909E+02 -0.12323103496E+02  0.25639107216E+02  0.51100000000E-03 0.  1.
         12    1    3    3    0    0 -0.11158872438E+01 -0.20707658350E+00 -0.65300853345E+00  0.13093911551E+01  0.00000000000E+00 0. -1.
</event>
<event>
 7    1  0.1541705E-008  0.4614232E+02  0.7816164E-02  0.1320468E+00
        -11   -1    0    0    0    0  0.00000000000E+00  0.00000000000E+00  0.45593999997E+02  0.45594000000E+02  0.51100000000E-03 0. -1.
         11   -1    0    0    0    0 -0.00000000000E+00 -0.00000000000E+00 -0.45593999997E+02  0.45594000000E+02  0.51100000000E-03 0.  1.
    9900012    2    1    2    0    0  0.11980056608E+02  0.42725650958E+02  0.77531107205E+01  0.46142315058E+02  0.99999753496E+01 0.  0.
        -12    1    1    2    0    0 -0.11980056608E+02 -0.42725650958E+02 -0.77531107205E+01  0.45045684942E+02  0.00000000000E+00 0.  1.
         11    1    3    3    0    0  0.21351761487E+01  0.35850835123E+01 -0.40567724856E+00  0.41924187849E+01  0.51100000000E-03 0.  1.
        -11    1    3    3    0    0  0.20847095442E+01  0.24234733781E+02  0.41859049810E+01  0.24681777409E+02  0.51100000000E-03 0. -1.
         12    1    3    3    0    0  0.77601709146E+01  0.14905833664E+02  0.39728829881E+01  0.17268118864E+02  0.00000000000E+00 0. -1.
</event>
<event>
 7    1  0.1541705E-008  0.4614232E+02  0.7816164E-02  0.1320468E+00
        -11   -1    0    0    0    0  0.00000000000E+00  0.00000000000E+00  0.45593999997E+02  0.45594000000E+02  0.51100000000E-03 0.  1.
         11   -1    0    0    0    0 -0.00000000000E+00 -0.00000000000E+00 -0.45593999997E+02  0.45594000000E+02  0.51100000000E-03 0. -1.
    9900012    2    1    2    0    0 -0.21436968885E+00 -0.44623898617E+02 -0.61461443603E+01  0.46142319045E+02  0.10000011710E+02 0.  0.
        -12    1    1    2    0    0  0.21436968885E+00  0.44623898617E+02  0.61461443603E+01  0.45045680955E+02  0.00000000000E+00 0.  1.
         11    1    3    3    0    0  0.16164175047E+00 -0.36134979752E+02 -0.87158239022E+01  0.37171608471E+02  0.51100000000E-03 0. -1.
        -11    1    3    3    0    0 -0.23174800099E-01 -0.20585916147E+01  0.12125370281E+01  0.23892640735E+01  0.51100000000E-03 0.  1.
         12    1    3    3    0    0 -0.35283663922E+00 -0.64303272507E+01  0.13571425139E+01  0.65814465012E+01  0.00000000000E+00 0. -1.
</event>
<event>
 7    1  0.1541705E-008  0.4614231E+02  0.7816164E-02  0.1320468E+00
        -11   -1    0    0    0    0  0.00000000000E+00  0.00000000000E+00  0.45593999997E+02  0.45594000000E+02  0.51100000000E-03 0.  1.
         11   -1    0    0    0    0 -0.00000000000E+00 -0.00000000000E+00 -0.45593999997E+02  0.45594000000E+02  0.51100000000E-03 0. -1.
    9900012    2    1    2    0    0  0.34661267069E+02  0.64580557161E+01 -0.28035775391E+02  0.46142305198E+02  0.99998854383E+01 0.  0.
        -12    1    1    2    0    0 -0.34661267069E+02 -0.64580557161E+01  0.28035775391E+02  0.45045694802E+02  0.00000000000E+00 0.  1.
         11    1    3    3    0    0  0.23212012010E+02  0.46767132337E+01 -0.20959797869E+02  0.31622496346E+02  0.51100000000E-03 0. -1.
        -11    1    3    3    0    0  0.14903176865E+01  0.70893792201E+00  0.74588327863E+00  0.18110720335E+01  0.51100000000E-03 0.  1.
        -12    1    3    3    0    0  0.99589373723E+01  0.10724045603E+01 -0.78218608007E+01  0.12708736818E+02  0.00000000000E+00 0.  1.
</event>
<event>
 7    1  0.1541705E-008  0.4614232E+02  0.7816164E-02  0.1320468E+00
        -11   -1    0    0    0    0  0.00000000000E+00  0.00000000000E+00  0.45593999997E+02  0.45594000000E+02  0.51100000000E-03 0.  1.
         11   -1    0    0    0    0 -0.00000000000E+00 -0.00000000000E+00 -0.45593999997E+02  0.45594000000E+02  0.51100000000E-03 0. -1.
    9900012    2    1    2    0    0 -0.33661895426E+02 -0.22258067907E+02 -0.20014211648E+02  0.46142318093E+02  0.10000003022E+02 0.  0.
        -12    1    1    2    0    0  0.33661895426E+02  0.22258067907E+02  0.20014211648E+02  0.45045681907E+02  0.00000000000E+00 0.  1.
         11    1    3    3    0    0 -0.51755486197E+00 -0.17937663202E+01  0.33451676002E+00  0.18966713923E+01  0.51100000000E-03 0. -1.
        -11    1    3    3    0    0 -0.15687103852E+02 -0.69443095348E+01 -0.10039301923E+02  0.19877028086E+02  0.51100000000E-03 0.  1.
         12    1    3    3    0    0 -0.17457236711E+02 -0.13519992052E+02 -0.10309426485E+02  0.24368618614E+02  0.00000000000E+00 0. -1.
</event>
<event>
 7    1  0.1541705E-008  0.4614232E+02  0.7816164E-02  0.1320468E+00
        -11   -1    0    0    0    0  0.00000000000E+00  0.00000000000E+00  0.45593999997E+02  0.45594000000E+02  0.51100000000E-03 0.  1.
         11   -1    0    0    0    0 -0.00000000000E+00 -0.00000000000E+00 -0.45593999997E+02  0.45594000000E+02  0.51100000000E-03 0. -1.
    9900012    2    1    2    0    0 -0.15346377826E+02 -0.25979997544E+02 -0.33446104629E+02  0.46142317636E+02  0.99999988567E+01 0.  0.
        -12    1    1    2    0    0  0.15346377826E+02  0.25979997544E+02  0.33446104629E+02  0.45045682364E+02  0.00000000000E+00 0.  1.
         11    1    3    3    0    0 -0.43461054806E+01 -0.72571310446E+01 -0.79202879715E+01  0.11588164033E+02  0.51100000000E-03 0. -1.
        -11    1    3    3    0    0 -0.68177236807E+01 -0.41040479082E+01 -0.71010857638E+01  0.10665363787E+02  0.51100000000E-03 0.  1.
        -12    1    3    3    0    0 -0.41825486651E+01 -0.14618818591E+02 -0.18424730894E+02  0.23888789816E+02  0.00000000000E+00 0.  1.
</event>
<event>
 7    1  0.1541705E-008  0.4614232E+02  0.7816164E-02  0.1320468E+00
        -11   -1    0    0    0    0  0.00000000000E+00  0.00000000000E+00  0.45593999997E+02  0.45594000000E+02  0.51100000000E-03 0.  1.
         11   -1    0    0    0    0 -0.00000000000E+00 -0.00000000000E+00 -0.45593999997E+02  0.45594000000E+02  0.51100000000E-03 0. -1.
    9900012    2    1    2    0    0 -0.36704788360E+02  0.12864855208E+02 -0.22723718045E+02  0.46142319299E+02  0.10000014020E+02 0.  0.
        -12    1    1    2    0    0  0.36704788360E+02 -0.12864855208E+02  0.22723718045E+02  0.45045680701E+02  0.00000000000E+00 0.  1.
         11    1    3    3    0    0 -0.19337948795E+02  0.42556672307E+01 -0.13699847161E+02  0.24078055978E+02  0.51100000000E-03 0. -1.
        -11    1    3    3    0    0 -0.39406343420E+01 -0.35320397047E+00 -0.12651692506E+01  0.41537941158E+01  0.51100000000E-03 0.  1.
         12    1    3    3    0    0 -0.13426205223E+02  0.89623919475E+01 -0.77587016340E+01  0.17910469205E+02  0.00000000000E+00 0. -1.
</event>
<event>
 7    1  0.1541705E-008  0.4614232E+02  0.7816164E-02  0.1320468E+00
        -11   -1    0    0    0    0  0.00000000000E+00  0.00000000000E+00  0.45593999997E+02  0.45594000000E+02  0.51100000000E-03 0.  1.
         11   -1    0    0    0    0 -0.00000000000E+00 -0.00000000000E+00 -0.45593999997E+02  0.45594000000E+02  0.51100000000E-03 0. -1.
    9900012    2    1    2    0    0  0.12353040424E+02 -0.36404568023E+02  0.23478146864E+02  0.46142316957E+02  0.99999926686E+01 0.  0.
        -12    1    1    2    0    0 -0.12353040424E+02  0.36404568023E+02 -0.23478146864E+02  0.45045683043E+02  0.00000000000E+00 0.  1.
         11    1    3    3    0    0  0.72403140042E+00 -0.97904593082E+01  0.44680173640E+01  0.10786125086E+02  0.51100000000E-03 0.  1.
        -11    1    3    3    0    0  0.10057003221E+00  0.41153850497E+00  0.19501565630E+00  0.46637928747E+00  0.51100000000E-03 0. -1.
         12    1    3    3    0    0  0.11528438991E+02 -0.27025647220E+02  0.18815113844E+02  0.34889812584E+02  0.00000000000E+00 0. -1.
</event>
<event>
 7    1  0.1541705E-008  0.4614232E+02  0.7816164E-02  0.1320468E+00
        -11   -1    0    0    0    0  0.00000000000E+00  0.00000000000E+00  0.45593999997E+02  0.45594000000E+02  0.51100000000E-03 0.  1.
         11   -1    0    0    0    0 -0.00000000000E+00 -0.00000000000E+00 -0.45593999997E+02  0.45594000000E+02  0.51100000000E-03 0. -1.
    9900012    2    1    2    0    0  0.42019325188E+02  0.11355095499E+02 -0.11599641796E+02  0.46142316824E+02  0.99999914508E+01 0.  0.
        -12    1    1    2    0    0 -0.42019325188E+02 -0.11355095499E+02  0.11599641796E+02  0.45045683176E+02  0.00000000000E+00 0.  1.
         11    1    3    3    0    0  0.28084629998E+02  0.82225864874E+01 -0.53661879196E+01  0.29751526746E+02  0.51100000000E-03 0. -1.
        -11    1    3    3    0    0  0.99760105362E+01 -0.19704204165E+00 -0.43650056423E+01  0.10890954334E+02  0.51100000000E-03 0.  1.
        -12    1    3    3    0    0  0.39586846540E+01  0.33295510537E+01 -0.18684482342E+01  0.54998357441E+01  0.00000000000E+00 0.  1.
</event>
<event>
 7    1  0.1541705E-008  0.4614232E+02  0.7816164E-02  0.1320468E+00
        -11   -1    0    0    0    0  0.00000000000E+00  0.00000000000E+00  0.45593999997E+02  0.45594000000E+02  0.51100000000E-03 0.  1.
         11   -1    0    0    0    0 -0.00000000000E+00 -0.00000000000E+00 -0.45593999997E+02  0.45594000000E+02  0.51100000000E-03 0. -1.
    9900012    2    1    2    0    0 -0.16783166042E+02 -0.34145378028E+02 -0.24114974453E+02  0.46142317677E+02  0.99999992344E+01 0.  0.
        -12    1    1    2    0    0  0.16783166042E+02  0.34145378028E+02  0.24114974453E+02  0.45045682323E+02  0.00000000000E+00 0.  1.
         11    1    3    3    0    0 -0.89563974984E+01 -0.14271940809E+02 -0.10516955601E+02  0.19862318747E+02  0.51100000000E-03 0. -1.
        -11    1    3    3    0    0 -0.27634178761E+01 -0.15624015609E+02 -0.92090056917E+01  0.18345357129E+02  0.51100000000E-03 0.  1.
        -12    1    3    3    0    0 -0.50633506671E+01 -0.42494216098E+01 -0.43890131603E+01  0.79346418015E+01  0.00000000000E+00 0.  1.
</event>
<event>
 7    1  0.1541705E-008  0.4614232E+02  0.7816164E-02  0.1320468E+00
        -11   -1    0    0    0    0  0.00000000000E+00  0.00000000000E+00  0.45593999997E+02  0.45594000000E+02  0.51100000000E-03 0.  1.
         11   -1    0    0    0    0 -0.00000000000E+00 -0.00000000000E+00 -0.45593999997E+02  0.45594000000E+02  0.51100000000E-03 0. -1.
    9900012    2    1    2    0    0 -0.28062443138E+01  0.38407765028E+02 -0.23368397959E+02  0.46142318245E+02  0.10000004414E+02 0.  0.
        -12    1    1    2    0    0  0.28062443138E+01 -0.38407765028E+02  0.23368397959E+02  0.45045681755E+02  0.00000000000E+00 0.  1.
         11    1    3    3    0    0  0.16470044075E+01  0.25243711293E+02 -0.12232530594E+02  0.28099686624E+02  0.51100000000E-03 0. -1.
        -11    1    3    3    0    0 -0.89232973076E+00  0.46474594972E+00 -0.84147267685E+00  0.13116088110E+01  0.51100000000E-03 0.  1.
         12    1    3    3    0    0 -0.35609189905E+01  0.12699307785E+02 -0.10294394688E+02  0.16731022810E+02  0.00000000000E+00 0. -1.
</event>
<event>
 7    1  0.1541705E-008  0.4614232E+02  0.7816164E-02  0.1320468E+00
        -11   -1    0    0    0    0  0.00000000000E+00  0.00000000000E+00  0.45593999997E+02  0.45594000000E+02  0.51100000000E-03 0.  1.
         11   -1    0    0    0    0 -0.00000000000E+00 -0.00000000000E+00 -0.45593999997E+02  0.45594000000E+02  0.51100000000E-03 0. -1.
    9900012    2    1    2    0    0  0.22572193660E+02  0.28664870812E+02 -0.26418453960E+02  0.46142318132E+02  0.10000003383E+02 0.  0.
        -12    1    1    2    0    0 -0.22572193660E+02 -0.28664870812E+02  0.26418453960E+02  0.45045681868E+02  0.00000000000E+00 0.  1.
         11    1    3    3    0    0  0.18891205308E+02  0.24253289771E+02 -0.17410530737E+02  0.35330246016E+02  0.51100000000E-03 0. -1.
        -11    1    3    3    0    0  0.97881145775E-01  0.90901051436E+00 -0.19793456926E+01  0.21802959583E+01  0.51100000000E-03 0.  1.
         12    1    3    3    0    0  0.35831072059E+01  0.35025705269E+01 -0.70285775301E+01  0.86317761580E+01  0.00000000000E+00 0. -1.
</event>
<event>
 7    1  0.1541705E-008  0.4614232E+02  0.7816164E-02  0.1320468E+00
        -11   -1    0    0    0    0  0.00000000000E+00  0.00000000000E+00  0.45593999997E+02  0.45594000000E+02  0.51100000000E-03 0. -1.
         11   -1    0    0    0    0 -0.00000000000E+00 -0.00000000000E+00 -0.45593999997E+02  0.45594000000E+02  0.51100000000E-03 0.  1.
    9900012    2    1    2    0    0 -0.19809161587E+02  0.31780382658E+02  0.25034334740E+02  0.46142317404E+02  0.99999967398E+01 0.  0.
        -12    1    1    2    0    0  0.19809161587E+02 -0.31780382658E+02 -0.25034334740E+02  0.45045682596E+02  0.00000000000E+00 0.  1.
         11    1    3    3    0    0 -0.10538210527E+02  0.17730890017E+02  0.10390422698E+02  0.23095437341E+02  0.51100000000E-03 0. -1.
        -11    1    3    3    0    0 -0.93111517890E-01  0.15715909392E+01 -0.20721510456E+00  0.15879251228E+01  0.51100000000E-03 0.  1.
        -12    1    3    3    0    0 -0.91778395423E+01  0.12477901703E+02  0.14851127147E+02  0.21458954939E+02  0.00000000000E+00 0.  1.
</event>
<event>
 7    1  0.1541705E-008  0.4614232E+02  0.7816164E-02  0.1320468E+00
        -11   -1    0    0    0    0  0.00000000000E+00  0.00000000000E+00  0.45593999997E+02  0.45594000000E+02  0.51100000000E-03 0. -1.
         11   -1    0    0    0    0 -0.00000000000E+00 -0.00000000000E+00 -0.45593999997E+02  0.45594000000E+02  0.51100000000E-03 0.  1.
    9900012    2    1    2    0    0  0.29548653492E+02  0.73778741892E+01 -0.33189720929E+02  0.46142317342E+02  0.99999961773E+01 0.  0.
        -12    1    1    2    0    0 -0.29548653492E+02 -0.73778741892E+01  0.33189720929E+02  0.45045682658E+02  0.00000000000E+00 0.  1.
         11    1    3    3    0    0  0.18651462459E+02  0.11276157863E+01 -0.22967108212E+02  0.29608050073E+02  0.51100000000E-03 0. -1.
        -11    1    3    3    0    0  0.10396789863E+02  0.53006544081E+01 -0.82605639312E+01  0.14297800297E+02  0.51100000000E-03 0.  1.
        -12    1    3    3    0    0  0.50040117009E+00  0.94960399488E+00 -0.19620487860E+01  0.22364669720E+01  0.00000000000E+00 0.  1.
</event>
<event>
 7    1  0.1541705E-008  0.4614232E+02  0.7816164E-02  0.1320468E+00
        -11   -1    0    0    0    0  0.00000000000E+00  0.00000000000E+00  0.45593999997E+02  0.45594000000E+02  0.51100000000E-03 0. -1.
         11   -1    0    0    0    0 -0.00000000000E+00 -0.00000000000E+00 -0.45593999997E+02  0.45594000000E+02  0.51100000000E-03 0.  1.
    9900012    2    1    2    0    0 -0.16032394564E+02  0.14886146439E+00  0.42095770001E+02  0.46142315554E+02  0.99999798781E+01 0.  0.
        -12    1    1    2    0    0  0.16032394564E+02 -0.14886146439E+00 -0.42095770001E+02  0.45045684446E+02  0.00000000000E+00 0.  1.
         11    1    3    3    0    0 -0.40897367854E+01 -0.12214836070E+01  0.71657194254E+01  0.83405937631E+01  0.51100000000E-03 0. -1.
        -11    1    3    3    0    0 -0.34424018117E+01  0.42193283386E+01  0.14614133644E+02  0.15595696980E+02  0.51100000000E-03 0.  1.
        -12    1    3    3    0    0 -0.85002559670E+01 -0.28489832672E+01  0.20315916932E+02  0.22206024812E+02  0.00000000000E+00 0.  1.
</event>
<event>
 7    1  0.1541705E-008  0.4614233E+02  0.7816164E-02  0.1320468E+00
        -11   -1    0    0    0    0  0.00000000000E+00  0.00000000000E+00  0.45593999997E+02  0.45594000000E+02  0.51100000000E-03 0. -1.
         11   -1    0    0    0    0 -0.00000000000E+00 -0.00000000000E+00 -0.45593999997E+02  0.45594000000E+02  0.51100000000E-03 0.  1.
    9900012    2    1    2    0    0 -0.15726685142E+02  0.29546340581E+02  0.30146274149E+02  0.46142326375E+02  0.10000078550E+02 0.  0.
        -12    1    1    2    0    0  0.15726685142E+02 -0.29546340581E+02 -0.30146274149E+02  0.45045673625E+02  0.00000000000E+00 0.  1.
         11    1    3    3    0    0  0.77340284387E+00  0.37758791543E+00  0.11519782907E+00  0.86832908147E+00  0.51100000000E-03 0. -1.
        -11    1    3    3    0    0 -0.75901521932E+00  0.23861183612E+00  0.15057612902E+01  0.17030434626E+01  0.51100000000E-03 0.  1.
         12    1    3    3    0    0 -0.15741072766E+02  0.28930140829E+02  0.28525315029E+02  0.43570953831E+02  0.00000000000E+00 0. -1.
</event>
<event>
 7    1  0.1541705E-008  0.4614232E+02  0.7816164E-02  0.1320468E+00
        -11   -1    0    0    0    0  0.00000000000E+00  0.00000000000E+00  0.45593999997E+02  0.45594000000E+02  0.51100000000E-03 0.  1.
         11   -1    0    0    0    0 -0.00000000000E+00 -0.00000000000E+00 -0.45593999997E+02  0.45594000000E+02  0.51100000000E-03 0. -1.
    9900012    2    1    2    0    0 -0.28691605451E+02 -0.34505583987E+02  0.39076776034E+01  0.46142317700E+02  0.99999994403E+01 0.  0.
        -12    1    1    2    0    0  0.28691605451E+02  0.34505583987E+02 -0.39076776034E+01  0.45045682300E+02  0.00000000000E+00 0.  1.
         11    1    3    3    0    0 -0.14062699567E+02 -0.16648873561E+02  0.18447625705E+01  0.21871160444E+02  0.51100000000E-03 0. -1.
        -11    1    3    3    0    0 -0.56537473798E+01 -0.22602060418E+01 -0.43371957904E+00  0.61042201566E+01  0.51100000000E-03 0.  1.
        -12    1    3    3    0    0 -0.89751585046E+01 -0.15596504384E+02  0.24966346119E+01  0.18166937099E+02  0.00000000000E+00 0.  1.
</event>
<event>
 7    1  0.1541705E-008  0.4614232E+02  0.7816164E-02  0.1320468E+00
        -11   -1    0    0    0    0  0.00000000000E+00  0.00000000000E+00  0.45593999997E+02  0.45594000000E+02  0.51100000000E-03 0. -1.
         11   -1    0    0    0    0 -0.00000000000E+00 -0.00000000000E+00 -0.45593999997E+02  0.45594000000E+02  0.51100000000E-03 0.  1.
    9900012    2    1    2    0    0  0.85561216049E+01  0.35905977104E+02 -0.25819895784E+02  0.46142318443E+02  0.10000006216E+02 0.  0.
        -12    1    1    2    0    0 -0.85561216049E+01 -0.35905977104E+02  0.25819895784E+02  0.45045681557E+02  0.00000000000E+00 0.  1.
         11    1    3    3    0    0  0.39974546712E+01  0.92566550595E+01 -0.57830841591E+01  0.11623655595E+02  0.51100000000E-03 0. -1.
        -11    1    3    3    0    0  0.40191513370E+01  0.23819238992E+02 -0.20396436542E+02  0.31615254981E+02  0.51100000000E-03 0.  1.
        -12    1    3    3    0    0  0.53951559665E+00  0.28300830517E+01  0.35962491755E+00  0.29034078666E+01  0.00000000000E+00 0.  1.
</event>
<event>
 7    1  0.1541705E-008  0.4614232E+02  0.7816164E-02  0.1320468E+00
        -11   -1    0    0    0    0  0.00000000000E+00  0.00000000000E+00  0.45593999997E+02  0.45594000000E+02  0.51100000000E-03 0.  1.
         11   -1    0    0    0    0 -0.00000000000E+00 -0.00000000000E+00 -0.45593999997E+02  0.45594000000E+02  0.51100000000E-03 0. -1.
    9900012    2    1    2    0    0  0.20275900176E+02 -0.15573231668E+02 -0.37087407618E+02  0.46142317895E+02  0.10000001217E+02 0.  0.
        -12    1    1    2    0    0 -0.20275900176E+02  0.15573231668E+02  0.37087407618E+02  0.45045682105E+02  0.00000000000E+00 0.  1.
         11    1    3    3    0    0  0.14979332844E+02 -0.12821048540E+02 -0.31973000144E+02  0.37563711699E+02  0.51100000000E-03 0. -1.
        -11    1    3    3    0    0  0.48836817348E+01 -0.90404993522E+00 -0.33542284636E+01  0.59932046869E+01  0.51100000000E-03 0.  1.
        -12    1    3    3    0    0  0.41288559738E+00 -0.18481331929E+01 -0.17601790103E+01  0.25854015091E+01  0.00000000000E+00 0.  1.
</event>
<event>
 7    1  0.1541705E-008  0.4614232E+02  0.7816164E-02  0.1320468E+00
        -11   -1    0    0    0    0  0.00000000000E+00  0.00000000000E+00  0.45593999997E+02  0.45594000000E+02  0.51100000000E-03 0. -1.
         11   -1    0    0    0    0 -0.00000000000E+00 -0.00000000000E+00 -0.45593999997E+02  0.45594000000E+02  0.51100000000E-03 0.  1.
    9900012    2    1    2    0    0  0.12782685263E+02  0.20112812640E+02  0.38225529968E+02  0.46142318562E+02  0.10000007308E+02 0.  0.
        -12    1    1    2    0    0 -0.12782685263E+02 -0.20112812640E+02 -0.38225529968E+02  0.45045681438E+02  0.00000000000E+00 0.  1.
         11    1    3    3    0    0  0.11927696687E+02  0.15896638456E+02  0.29149269376E+02  0.35279639565E+02  0.51100000000E-03 0. -1.
        -11    1    3    3    0    0 -0.56291568113E+00  0.43415526436E+01  0.78299414533E+01  0.89707266620E+01  0.51100000000E-03 0.  1.
         12    1    3    3    0    0  0.14179042579E+01 -0.12537845971E+00  0.12463191391E+01  0.18919523354E+01  0.00000000000E+00 0. -1.
</event>
<event>
 7    1  0.1541705E-008  0.4614232E+02  0.7816164E-02  0.1320468E+00
        -11   -1    0    0    0    0  0.00000000000E+00  0.00000000000E+00  0.45593999997E+02  0.45594000000E+02  0.51100000000E-03 0.  1.
         11   -1    0    0    0    0 -0.00000000000E+00 -0.00000000000E+00 -0.45593999997E+02  0.45594000000E+02  0.51100000000E-03 0. -1.
    9900012    2    1    2    0    0 -0.14362967372E+02  0.37241077496E+02 -0.20878716646E+02  0.46142317703E+02  0.99999994712E+01 0.  0.
        -12    1    1    2    0    0  0.14362967372E+02 -0.37241077496E+02  0.20878716646E+02  0.45045682297E+02  0.00000000000E+00 0.  1.
         11    1    3    3    0    0 -0.10705712097E+02  0.19074276248E+02 -0.11030557891E+02  0.24497213995E+02  0.51100000000E-03 0. -1.
        -11    1    3    3    0    0 -0.27276561125E+01  0.10450793211E+02 -0.28109453472E+01  0.11160672050E+02  0.51100000000E-03 0.  1.
         12    1    3    3    0    0 -0.92959916205E+00  0.77160080378E+01 -0.70372134078E+01  0.10484431658E+02  0.00000000000E+00 0. -1.
</event>
<event>
 7    1  0.1541705E-008  0.4614232E+02  0.7816164E-02  0.1320468E+00
        -11   -1    0    0    0    0  0.00000000000E+00  0.00000000000E+00  0.45593999997E+02  0.45594000000E+02  0.51100000000E-03 0.  1.
         11   -1    0    0    0    0 -0.00000000000E+00 -0.00000000000E+00 -0.45593999997E+02  0.45594000000E+02  0.51100000000E-03 0. -1.
    9900012    2    1    2    0    0 -0.40742234237E+02 -0.68273819997E+01 -0.17960254447E+02  0.46142317239E+02  0.99999952403E+01 0.  0.
        -12    1    1    2    0    0  0.40742234237E+02  0.68273819997E+01  0.17960254447E+02  0.45045682761E+02  0.00000000000E+00 0.  1.
         11    1    3    3    0    0 -0.17125141978E+02 -0.49373359705E+01 -0.84173656513E+01  0.19710398753E+02  0.51100000000E-03 0. -1.
        -11    1    3    3    0    0 -0.13391264719E+02  0.67191042287E+00 -0.22064224312E+01  0.13588441213E+02  0.51100000000E-03 0.  1.
        -12    1    3    3    0    0 -0.10225827540E+02 -0.25619564521E+01 -0.73364663643E+01  0.12843477273E+02  0.00000000000E+00 0.  1.
</event>
<event>
 7    1  0.1541705E-008  0.4614233E+02  0.7816164E-02  0.1320468E+00
        -11   -1    0    0    0    0  0.00000000000E+00  0.00000000000E+00  0.45593999997E+02  0.45594000000E+02  0.51100000000E-03 0. -1.
         11   -1    0    0    0    0 -0.00000000000E+00 -0.00000000000E+00 -0.45593999997E+02  0.45594000000E+02  0.51100000000E-03 0.  1.
    9900012    2    1    2    0    0 -0.25755484606E+02  0.23621805245E+02  0.28421430150E+02  0.46142330263E+02  0.10000114000E+02 0.  0.
        -12    1    1    2    0    0  0.25755484606E+02 -0.23621805245E+02 -0.28421430150E+02  0.45045669737E+02  0.00000000000E+00 0.  1.
         11    1    3    3    0    0 -0.10012451403E+02  0.90959869855E+01  0.17141568489E+02  0.21836197765E+02  0.51100000000E-03 0. -1.
        -11    1    3    3    0    0 -0.34482815010E+01  0.24544049087E+01  0.14792939013E+01  0.44836435489E+01  0.51100000000E-03 0.  1.
         12    1    3    3    0    0 -0.12294751703E+02  0.12071413350E+02  0.98005677597E+01  0.19822488949E+02  0.00000000000E+00 0. -1.
</event>
<event>
 7    1  0.1541705E-008  0.4614232E+02  0.7816164E-02  0.1320468E+00
        -11   -1    0    0    0    0  0.00000000000E+00  0.00000000000E+00  0.45593999997E+02  0.45594000000E+02  0.51100000000E-03 0.  1.
         11   -1    0    0    0    0 -0.00000000000E+00 -0.00000000000E+00 -0.45593999997E+02  0.45594000000E+02  0.51100000000E-03 0. -1.
    9900012    2    1    2    0    0  0.66706505228E+01 -0.68857973440E+00 -0.44543705921E+02  0.46142318102E+02  0.10000003109E+02 0.  0.
        -12    1    1    2    0    0 -0.66706505228E+01  0.68857973440E+00  0.44543705921E+02  0.45045681898E+02  0.00000000000E+00 0.  1.
         11    1    3    3    0    0  0.87335177098E+01  0.11196161328E+01 -0.27619982581E+02  0.28989503444E+02  0.51100000000E-03 0. -1.
        -11    1    3    3    0    0 -0.16551091442E+01 -0.13451709364E+01 -0.14257083605E+02  0.14415731140E+02  0.51100000000E-03 0.  1.
         12    1    3    3    0    0 -0.40775804286E+00 -0.46302493076E+00 -0.26666397353E+01  0.27370835183E+01  0.00000000000E+00 0. -1.
</event>
<event>
 7    1  0.1541705E-008  0.4614232E+02  0.7816164E-02  0.1320468E+00
        -11   -1    0    0    0    0  0.00000000000E+00  0.00000000000E+00  0.45593999997E+02  0.45594000000E+02  0.51100000000E-03 0. -1.
         11   -1    0    0    0    0 -0.00000000000E+00 -0.00000000000E+00 -0.45593999997E+02  0.45594000000E+02  0.51100000000E-03 0.  1.
    9900012    2    1    2    0    0 -0.36675090776E+02 -0.25085050422E+02  0.74021206675E+01  0.46142318426E+02  0.10000006059E+02 0.  0.
        -12    1    1    2    0    0  0.36675090776E+02  0.25085050422E+02 -0.74021206675E+01  0.45045681574E+02  0.00000000000E+00 0.  1.
         11    1    3    3    0    0 -0.25486175123E+02 -0.19044453118E+02  0.14181375720E+01  0.31847251551E+02  0.51100000000E-03 0.  1.
        -11    1    3    3    0    0 -0.32639908394E+01 -0.75245841543E+00  0.23794668392E+01  0.41087336938E+01  0.51100000000E-03 0. -1.
         12    1    3    3    0    0 -0.79249248141E+01 -0.52881388891E+01  0.36045162562E+01  0.10186333180E+02  0.00000000000E+00 0. -1.
</event>
<event>
 7    1  0.1541705E-008  0.4614232E+02  0.7816164E-02  0.1320468E+00
        -11   -1    0    0    0    0  0.00000000000E+00  0.00000000000E+00  0.45593999997E+02  0.45594000000E+02  0.51100000000E-03 0.  1.
         11   -1    0    0    0    0 -0.00000000000E+00 -0.00000000000E+00 -0.45593999997E+02  0.45594000000E+02  0.51100000000E-03 0. -1.
    9900012    2    1    2    0    0  0.23581159288E+02 -0.36887514979E+02 -0.10599701357E+02  0.46142317593E+02  0.99999984660E+01 0.  0.
        -12    1    1    2    0    0 -0.23581159288E+02  0.36887514979E+02  0.10599701357E+02  0.45045682407E+02  0.00000000000E+00 0.  1.
         11    1    3    3    0    0  0.11648375892E+02 -0.11095312031E+02 -0.44613495542E+01  0.16694138195E+02  0.51100000000E-03 0. -1.
        -11    1    3    3    0    0  0.48302315471E+01 -0.15730200229E+02 -0.41742427997E+01  0.16976296394E+02  0.51100000000E-03 0.  1.
         12    1    3    3    0    0  0.71025518490E+01 -0.10062002719E+02 -0.19641090029E+01  0.12471883004E+02  0.00000000000E+00 0. -1.
</event>
<event>
 7    1  0.1541705E-008  0.4614232E+02  0.7816164E-02  0.1320468E+00
        -11   -1    0    0    0    0  0.00000000000E+00  0.00000000000E+00  0.45593999997E+02  0.45594000000E+02  0.51100000000E-03 0.  1.
         11   -1    0    0    0    0 -0.00000000000E+00 -0.00000000000E+00 -0.45593999997E+02  0.45594000000E+02  0.51100000000E-03 0. -1.
    9900012    2    1    2    0    0  0.38721514013E+02  0.22761522636E+02 -0.34162959320E+01  0.46142316100E+02  0.99999848499E+01 0.  0.
        -12    1    1    2    0    0 -0.38721514013E+02 -0.22761522636E+02  0.34162959320E+01  0.45045683900E+02  0.00000000000E+00 0.  1.
         11    1    3    3    0    0  0.28941567837E+02  0.17883922816E+02 -0.55214902901E+01  0.34466445993E+02  0.51100000000E-03 0. -1.
        -11    1    3    3    0    0  0.45835138475E+01  0.64567430998E+00  0.18026415410E+01  0.49673948193E+01  0.51100000000E-03 0.  1.
         12    1    3    3    0    0  0.51964323287E+01  0.42319255101E+01  0.30255281717E+00  0.67084752871E+01  0.00000000000E+00 0. -1.
</event>
<event>
 7    1  0.1541705E-008  0.4614232E+02  0.7816164E-02  0.1320468E+00
        -11   -1    0    0    0    0  0.00000000000E+00  0.00000000000E+00  0.45593999997E+02  0.45594000000E+02  0.51100000000E-03 0. -1.
         11   -1    0    0    0    0 -0.00000000000E+00 -0.00000000000E+00 -0.45593999997E+02  0.45594000000E+02  0.51100000000E-03 0.  1.
    9900012    2    1    2    0    0  0.25408576440E+02  0.33388272434E+02  0.16393321079E+02  0.46142317978E+02  0.10000001979E+02 0.  0.
        -12    1    1    2    0    0 -0.25408576440E+02 -0.33388272434E+02 -0.16393321079E+02  0.45045682022E+02  0.00000000000E+00 0.  1.
         11    1    3    3    0    0  0.15440348889E+02  0.16361683751E+02  0.11598335836E+02  0.25310678841E+02  0.51100000000E-03 0. -1.
        -11    1    3    3    0    0  0.81953120756E+01  0.14451183180E+02  0.21801217110E+01  0.16755678627E+02  0.51100000000E-03 0.  1.
         12    1    3    3    0    0  0.17729154755E+01  0.25754055033E+01  0.26148635320E+01  0.40759605102E+01  0.00000000000E+00 0. -1.
</event>
<event>
 7    1  0.1541705E-008  0.4614232E+02  0.7816164E-02  0.1320468E+00
        -11   -1    0    0    0    0  0.00000000000E+00  0.00000000000E+00  0.45593999997E+02  0.45594000000E+02  0.51100000000E-03 0. -1.
         11   -1    0    0    0    0 -0.00000000000E+00 -0.00000000000E+00 -0.45593999997E+02  0.45594000000E+02  0.51100000000E-03 0.  1.
    9900012    2    1    2    0    0  0.38644081249E+02  0.20235853228E+02  0.11236489715E+02  0.46142317937E+02  0.10000001603E+02 0.  0.
        -12    1    1    2    0    0 -0.38644081249E+02 -0.20235853228E+02 -0.11236489715E+02  0.45045682063E+02  0.00000000000E+00 0.  1.
         11    1    3    3    0    0  0.47285514551E+01  0.48987606262E+01  0.38896920282E+01  0.78413493017E+01  0.51100000000E-03 0. -1.
        -11    1    3    3    0    0  0.19268846698E+02  0.11369306319E+02  0.34859622103E+01  0.22642913064E+02  0.51100000000E-03 0.  1.
        -12    1    3    3    0    0  0.14646683096E+02  0.39677862831E+01  0.38608354762E+01  0.15658055571E+02  0.00000000000E+00 0.  1.
</event>
<event>
 7    1  0.1541705E-008  0.4614232E+02  0.7816164E-02  0.1320468E+00
        -11   -1    0    0    0    0  0.00000000000E+00  0.00000000000E+00  0.45593999997E+02  0.45594000000E+02  0.51100000000E-03 0.  1.
         11   -1    0    0    0    0 -0.00000000000E+00 -0.00000000000E+00 -0.45593999997E+02  0.45594000000E+02  0.51100000000E-03 0. -1.
    9900012    2    1    2    0    0  0.17323328806E+02  0.28734865729E+02 -0.30055338370E+02  0.46142316590E+02  0.99999893212E+01 0.  0.
        -12    1    1    2    0    0 -0.17323328806E+02 -0.28734865729E+02  0.30055338370E+02  0.45045683410E+02  0.00000000000E+00 0.  1.
         11    1    3    3    0    0  0.10612744338E+02  0.12799554508E+02 -0.13648956673E+02  0.21511693483E+02  0.51100000000E-03 0. -1.
        -11    1    3    3    0    0  0.12562896547E+01 -0.61649145803E-01 -0.22769327173E+01  0.26012472343E+01  0.51100000000E-03 0.  1.
         12    1    3    3    0    0  0.54542948128E+01  0.15996960367E+02 -0.14129448979E+02  0.22029375873E+02  0.00000000000E+00 0. -1.
</event>
<event>
 7    1  0.1541705E-008  0.4614232E+02  0.7816164E-02  0.1320468E+00
        -11   -1    0    0    0    0  0.00000000000E+00  0.00000000000E+00  0.45593999997E+02  0.45594000000E+02  0.51100000000E-03 0. -1.
         11   -1    0    0    0    0 -0.00000000000E+00 -0.00000000000E+00 -0.45593999997E+02  0.45594000000E+02  0.51100000000E-03 0.  1.
    9900012    2    1    2    0    0 -0.15248348052E+02  0.32327988799E+02  0.27413545502E+02  0.46142318131E+02  0.10000003371E+02 0.  0.
        -12    1    1    2    0    0  0.15248348052E+02 -0.32327988799E+02 -0.27413545502E+02  0.45045681869E+02  0.00000000000E+00 0.  1.
         11    1    3    3    0    0 -0.43540344466E+01  0.35890642609E+01  0.16490168977E+01  0.58786269843E+01  0.51100000000E-03 0.  1.
        -11    1    3    3    0    0 -0.37392037113E+01  0.14646895364E+02  0.11872073993E+02  0.19221324859E+02  0.51100000000E-03 0. -1.
        -12    1    3    3    0    0 -0.71551098938E+01  0.14092029174E+02  0.13892454611E+02  0.21042366287E+02  0.00000000000E+00 0.  1.
</event>
<event>
 7    1  0.1541705E-008  0.4614232E+02  0.7816164E-02  0.1320468E+00
        -11   -1    0    0    0    0  0.00000000000E+00  0.00000000000E+00  0.45593999997E+02  0.45594000000E+02  0.51100000000E-03 0. -1.
         11   -1    0    0    0    0 -0.00000000000E+00 -0.00000000000E+00 -0.45593999997E+02  0.45594000000E+02  0.51100000000E-03 0.  1.
    9900012    2    1    2    0    0 -0.21874483698E+02 -0.22683957775E+02  0.32187863391E+02  0.46142317331E+02  0.99999960820E+01 0.  0.
        -12    1    1    2    0    0  0.21874483698E+02  0.22683957775E+02 -0.32187863391E+02  0.45045682669E+02  0.00000000000E+00 0.  1.
         11    1    3    3    0    0 -0.29531260268E+01 -0.17513177469E+01  0.67879951112E+00  0.34998337415E+01  0.51100000000E-03 0. -1.
        -11    1    3    3    0    0 -0.11834851274E+02 -0.11319014483E+02  0.21709385425E+02  0.27193403784E+02  0.51100000000E-03 0.  1.
         12    1    3    3    0    0 -0.70865063974E+01 -0.96136255456E+01  0.97996784544E+01  0.15449079806E+02  0.00000000000E+00 0. -1.
</event>
<event>
 7    1  0.1541705E-008  0.4614232E+02  0.7816164E-02  0.1320468E+00
        -11   -1    0    0    0    0  0.00000000000E+00  0.00000000000E+00  0.45593999997E+02  0.45594000000E+02  0.51100000000E-03 0. -1.
         11   -1    0    0    0    0 -0.00000000000E+00 -0.00000000000E+00 -0.45593999997E+02  0.45594000000E+02  0.51100000000E-03 0.  1.
    9900012    2    1    2    0    0  0.25241190839E+02 -0.22481598425E+02  0.29775378419E+02  0.46142321598E+02  0.10000034987E+02 0.  0.
        -12    1    1    2    0    0 -0.25241190839E+02  0.22481598425E+02 -0.29775378419E+02  0.45045678402E+02  0.00000000000E+00 0.  1.
         11    1    3    3    0    0  0.15686354604E+02 -0.93338160547E+01  0.17806404763E+02  0.25499997917E+02  0.51100000000E-03 0. -1.
        -11    1    3    3    0    0  0.29910036592E+01 -0.53969512315E+01  0.22021385776E+01  0.65515341761E+01  0.51100000000E-03 0.  1.
         12    1    3    3    0    0  0.65638325752E+01 -0.77508311391E+01  0.97668350781E+01  0.14090789505E+02  0.00000000000E+00 0. -1.
</event>
<event>
 7    1  0.1541705E-008  0.4614232E+02  0.7816164E-02  0.1320468E+00
        -11   -1    0    0    0    0  0.00000000000E+00  0.00000000000E+00  0.45593999997E+02  0.45594000000E+02  0.51100000000E-03 0.  1.
         11   -1    0    0    0    0 -0.00000000000E+00 -0.00000000000E+00 -0.45593999997E+02  0.45594000000E+02  0.51100000000E-03 0. -1.
    9900012    2    1    2    0    0  0.71750677180E+01 -0.29989060768E+02 -0.32837297231E+02  0.46142318166E+02  0.10000003690E+02 0.  0.
        -12    1    1    2    0    0 -0.71750677180E+01  0.29989060768E+02  0.32837297231E+02  0.45045681834E+02  0.00000000000E+00 0.  1.
         11    1    3    3    0    0 -0.19261767630E+01 -0.29114272028E+01 -0.21342879705E+01  0.40916684472E+01  0.51100000000E-03 0.  1.
        -11    1    3    3    0    0  0.70040789306E+01 -0.22654593488E+02 -0.23879272962E+02  0.33652747365E+02  0.51100000000E-03 0. -1.
         12    1    3    3    0    0  0.20971655504E+01 -0.44230400769E+01 -0.68237362983E+01  0.83979023534E+01  0.00000000000E+00 0. -1.
</event>
<event>
 7    1  0.1704131E-008  0.4614232E+02  0.7816164E-02  0.1320468E+00
        -11   -1    0    0    0    0  0.00000000000E+00  0.00000000000E+00  0.45593999997E+02  0.45594000000E+02  0.51100000000E-03 0. -1.
         11   -1    0    0    0    0 -0.00000000000E+00 -0.00000000000E+00 -0.45593999997E+02  0.45594000000E+02  0.51100000000E-03 0.  1.
    9900012    2    1    2    0    0  0.10297479648E+02  0.10476115113E+02  0.42583169891E+02  0.46142318376E+02  0.10000005610E+02 0.  0.
        -12    1    1    2    0    0 -0.10297479648E+02 -0.10476115113E+02 -0.42583169891E+02  0.45045681624E+02  0.00000000000E+00 0.  1.
         11    1    3    3    0    0  0.77306304081E+01  0.97998049309E+01  0.38892756786E+02  0.40846607617E+02  0.51100000000E-03 0. -1.
        -11    1    3    3    0    0 -0.54319449257E+00  0.10476220867E+00  0.20584353222E+00  0.59026027987E+00  0.51100000000E-03 0.  1.
         12    1    3    3    0    0  0.31100437321E+01  0.57154797377E+00  0.34845695734E+01  0.47054504793E+01  0.00000000000E+00 0. -1.
</event>
<event>
 7    1  0.1541705E-008  0.4614232E+02  0.7816164E-02  0.1320468E+00
        -11   -1    0    0    0    0  0.00000000000E+00  0.00000000000E+00  0.45593999997E+02  0.45594000000E+02  0.51100000000E-03 0. -1.
         11   -1    0    0    0    0 -0.00000000000E+00 -0.00000000000E+00 -0.45593999997E+02  0.45594000000E+02  0.51100000000E-03 0.  1.
    9900012    2    1    2    0    0 -0.19635296751E+02 -0.23149652282E+02  0.33281561077E+02  0.46142316666E+02  0.99999900150E+01 0.  0.
        -12    1    1    2    0    0  0.19635296751E+02  0.23149652282E+02 -0.33281561077E+02  0.45045683334E+02  0.00000000000E+00 0.  1.
         11    1    3    3    0    0 -0.14600269184E+02 -0.13699668444E+02  0.17301172177E+02  0.26460902000E+02  0.51100000000E-03 0. -1.
        -11    1    3    3    0    0 -0.20471830814E+01 -0.29940962092E+01  0.90503318331E+01  0.97500808832E+01  0.51100000000E-03 0.  1.
        -12    1    3    3    0    0 -0.29878444858E+01 -0.64558876286E+01  0.69300570677E+01  0.99313337828E+01  0.00000000000E+00 0.  1.
</event>
<event>
 7    1  0.1541705E-008  0.4614232E+02  0.7816164E-02  0.1320468E+00
        -11   -1    0    0    0    0  0.00000000000E+00  0.00000000000E+00  0.45593999997E+02  0.45594000000E+02  0.51100000000E-03 0.  1.
         11   -1    0    0    0    0 -0.00000000000E+00 -0.00000000000E+00 -0.45593999997E+02  0.45594000000E+02  0.51100000000E-03 0. -1.
    9900012    2    1    2    0    0 -0.15017983673E+02  0.76815325417E+01 -0.41768023239E+02  0.46142317176E+02  0.99999946649E+01 0.  0.
        -12    1    1    2    0    0  0.15017983673E+02 -0.76815325417E+01  0.41768023239E+02  0.45045682824E+02  0.00000000000E+00 0.  1.
         11    1    3    3    0    0 -0.49385151802E+01  0.38992491011E+01 -0.89762721592E+01  0.10962049894E+02  0.51100000000E-03 0.  1.
        -11    1    3    3    0    0 -0.10438180409E+02  0.19681360240E+01 -0.24831052801E+02  0.27007598063E+02  0.51100000000E-03 0. -1.
         12    1    3    3    0    0  0.35871191567E+00  0.18141474166E+01 -0.79606982781E+01  0.81726692190E+01  0.00000000000E+00 0. -1.
</event>
<event>
 7    1  0.1541705E-008  0.4614232E+02  0.7816164E-02  0.1320468E+00
        -11   -1    0    0    0    0  0.00000000000E+00  0.00000000000E+00  0.45593999997E+02  0.45594000000E+02  0.51100000000E-03 0.  1.
         11   -1    0    0    0    0 -0.00000000000E+00 -0.00000000000E+00 -0.45593999997E+02  0.45594000000E+02  0.51100000000E-03 0. -1.
    9900012    2    1    2    0    0  0.25920827131E+02 -0.10364055867E+02 -0.35352659636E+02  0.46142317893E+02  0.10000001202E+02 0.  0.
        -12    1    1    2    0    0 -0.25920827131E+02  0.10364055867E+02  0.35352659636E+02  0.45045682107E+02  0.00000000000E+00 0.  1.
         11    1    3    3    0    0  0.94467378907E+01 -0.14527010850E+01 -0.13077724291E+02  0.16198088471E+02  0.51100000000E-03 0. -1.
        -11    1    3    3    0    0  0.16599510857E+02 -0.75696119994E+01 -0.21979407031E+02  0.28564613077E+02  0.51100000000E-03 0.  1.
        -12    1    3    3    0    0 -0.12542161620E+00 -0.13417427827E+01 -0.29552831306E+00  0.13796163454E+01  0.00000000000E+00 0.  1.
</event>
<event>
 7    1  0.1541705E-008  0.4614231E+02  0.7816164E-02  0.1320468E+00
        -11   -1    0    0    0    0  0.00000000000E+00  0.00000000000E+00  0.45593999997E+02  0.45594000000E+02  0.51100000000E-03 0. -1.
         11   -1    0    0    0    0 -0.00000000000E+00 -0.00000000000E+00 -0.45593999997E+02  0.45594000000E+02  0.51100000000E-03 0.  1.
    9900012    2    1    2    0    0 -0.26292894054E+02 -0.23899076253E+02  0.27688114225E+02  0.46142314381E+02  0.99999691793E+01 0.  0.
        -12    1    1    2    0    0  0.26292894054E+02  0.23899076253E+02 -0.27688114225E+02  0.45045685619E+02  0.00000000000E+00 0.  1.
         11    1    3    3    0    0 -0.17675528516E+02 -0.18681873621E+02  0.23006824688E+02  0.34507255654E+02  0.51100000000E-03 0. -1.
        -11    1    3    3    0    0 -0.19276104913E+01 -0.23881651696E+00 -0.23229900446E+00  0.19561898229E+01  0.51100000000E-03 0.  1.
         12    1    3    3    0    0 -0.66897550466E+01 -0.49783861157E+01  0.49135885420E+01  0.96788689040E+01  0.00000000000E+00 0. -1.
</event>
<event>
 7    1  0.1541705E-008  0.4614232E+02  0.7816164E-02  0.1320468E+00
        -11   -1    0    0    0    0  0.00000000000E+00  0.00000000000E+00  0.45593999997E+02  0.45594000000E+02  0.51100000000E-03 0.  1.
         11   -1    0    0    0    0 -0.00000000000E+00 -0.00000000000E+00 -0.45593999997E+02  0.45594000000E+02  0.51100000000E-03 0. -1.
    9900012    2    1    2    0    0 -0.30389587284E+01 -0.30619149659E+02 -0.32899026407E+02  0.46142317248E+02  0.99999953252E+01 0.  0.
        -12    1    1    2    0    0  0.30389587284E+01  0.30619149659E+02  0.32899026407E+02  0.45045682752E+02  0.00000000000E+00 0.  1.
         11    1    3    3    0    0  0.27849456952E+01 -0.10293084566E+02 -0.14644933618E+02  0.18115672589E+02  0.51100000000E-03 0. -1.
        -11    1    3    3    0    0 -0.16668714890E+01 -0.74008911024E+01 -0.52442014101E+01  0.92224345139E+01  0.51100000000E-03 0.  1.
         12    1    3    3    0    0 -0.41570329346E+01 -0.12925173990E+02 -0.13009891379E+02  0.18804210145E+02  0.00000000000E+00 0. -1.
</event>
<event>
 7    1  0.1541705E-008  0.4614232E+02  0.7816164E-02  0.1320468E+00
        -11   -1    0    0    0    0  0.00000000000E+00  0.00000000000E+00  0.45593999997E+02  0.45594000000E+02  0.51100000000E-03 0.  1.
         11   -1    0    0    0    0 -0.00000000000E+00 -0.00000000000E+00 -0.45593999997E+02  0.45594000000E+02  0.51100000000E-03 0. -1.
    9900012    2    1    2    0    0 -0.23859966780E+02 -0.38085507466E+02 -0.30510788084E+01  0.46142323453E+02  0.10000051900E+02 0.  0.
        -12    1    1    2    0    0  0.23859966780E+02  0.38085507466E+02  0.30510788084E+01  0.45045676547E+02  0.00000000000E+00 0.  1.
         11    1    3    3    0    0 -0.11337012519E+02 -0.16308861430E+02  0.81962638093E+00  0.19879099619E+02  0.51100000000E-03 0. -1.
        -11    1    3    3    0    0 -0.38461690994E+01 -0.32173761655E+01  0.12034513751E+01  0.51568228208E+01  0.51100000000E-03 0.  1.
        -12    1    3    3    0    0 -0.86767851625E+01 -0.18559269871E+02 -0.50741565644E+01  0.21106401013E+02  0.00000000000E+00 0.  1.
</event>
<event>
 7    1  0.1541705E-008  0.4614232E+02  0.7816164E-02  0.1320468E+00
        -11   -1    0    0    0    0  0.00000000000E+00  0.00000000000E+00  0.45593999997E+02  0.45594000000E+02  0.51100000000E-03 0.  1.
         11   -1    0    0    0    0 -0.00000000000E+00 -0.00000000000E+00 -0.45593999997E+02  0.45594000000E+02  0.51100000000E-03 0. -1.
    9900012    2    1    2    0    0 -0.10651941544E+02 -0.43840836797E+00 -0.43765939393E+02  0.46142317505E+02  0.99999976606E+01 0.  0.
        -12    1    1    2    0    0  0.10651941544E+02  0.43840836797E+00  0.43765939393E+02  0.45045682495E+02  0.00000000000E+00 0.  1.
         11    1    3    3    0    0 -0.11593160121E+01 -0.21905093833E+01 -0.12690702272E+02  0.12930439644E+02  0.51100000000E-03 0. -1.
        -11    1    3    3    0    0 -0.90727108253E+01  0.36459541207E+01 -0.25683840496E+02  0.27482116477E+02  0.51100000000E-03 0.  1.
        -12    1    3    3    0    0 -0.41991470667E+00 -0.18938531054E+01 -0.53913966243E+01  0.57297613830E+01  0.00000000000E+00 0.  1.
</event>
<event>
 7    1  0.1541705E-008  0.4614232E+02  0.7816164E-02  0.1320468E+00
        -11   -1    0    0    0    0  0.00000000000E+00  0.00000000000E+00  0.45593999997E+02  0.45594000000E+02  0.51100000000E-03 0.  1.
         11   -1    0    0    0    0 -0.00000000000E+00 -0.00000000000E+00 -0.45593999997E+02  0.45594000000E+02  0.51100000000E-03 0. -1.
    9900012    2    1    2    0    0  0.14484487628E+02  0.64207760007E+01 -0.42167365545E+02  0.46142318039E+02  0.10000002535E+02 0.  0.
        -12    1    1    2    0    0 -0.14484487628E+02 -0.64207760007E+01  0.42167365545E+02  0.45045681961E+02  0.00000000000E+00 0.  1.
         11    1    3    3    0    0  0.54206389076E+01  0.32007904824E+01 -0.23666673727E+02  0.24489586184E+02  0.51100000000E-03 0. -1.
        -11    1    3    3    0    0  0.57072959482E+00 -0.14159195985E+01 -0.32631413545E+01  0.36025896714E+01  0.51100000000E-03 0.  1.
         12    1    3    3    0    0  0.84931191252E+01  0.46359051167E+01 -0.15237550463E+02  0.18050142184E+02  0.00000000000E+00 0. -1.
</event>
<event>
 7    1  0.1541705E-008  0.4614232E+02  0.7816164E-02  0.1320468E+00
        -11   -1    0    0    0    0  0.00000000000E+00  0.00000000000E+00  0.45593999997E+02  0.45594000000E+02  0.51100000000E-03 0.  1.
         11   -1    0    0    0    0 -0.00000000000E+00 -0.00000000000E+00 -0.45593999997E+02  0.45594000000E+02  0.51100000000E-03 0. -1.
    9900012    2    1    2    0    0 -0.29055936772E+02 -0.28771516262E+02  0.18896186463E+02  0.46142317937E+02  0.10000001603E+02 0.  0.
        -12    1    1    2    0    0  0.29055936772E+02  0.28771516262E+02 -0.18896186463E+02  0.45045682063E+02  0.00000000000E+00 0.  1.
         11    1    3    3    0    0 -0.37857918872E+00 -0.10284078324E+01 -0.49867190364E+00  0.12040011630E+01  0.51100000000E-03 0. -1.
        -11    1    3    3    0    0 -0.37177440264E+00 -0.27452508506E+01  0.14760451354E+01  0.31390011057E+01  0.51100000000E-03 0.  1.
         12    1    3    3    0    0 -0.28305583180E+02 -0.24997857579E+02  0.17918813231E+02  0.41799315668E+02  0.00000000000E+00 0. -1.
</event>
<event>
 7    1  0.1541705E-008  0.4614232E+02  0.7816164E-02  0.1320468E+00
        -11   -1    0    0    0    0  0.00000000000E+00  0.00000000000E+00  0.45593999997E+02  0.45594000000E+02  0.51100000000E-03 0.  1.
         11   -1    0    0    0    0 -0.00000000000E+00 -0.00000000000E+00 -0.45593999997E+02  0.45594000000E+02  0.51100000000E-03 0. -1.
    9900012    2    1    2    0    0  0.27174111179E+02 -0.17631921027E+02 -0.31301699466E+02  0.46142319331E+02  0.10000014317E+02 0.  0.
        -12    1    1    2    0    0 -0.27174111179E+02  0.17631921027E+02  0.31301699466E+02  0.45045680669E+02  0.00000000000E+00 0.  1.
         11    1    3    3    0    0  0.83817256411E+01 -0.68455393028E+01 -0.10975348494E+02  0.15413403514E+02  0.51100000000E-03 0. -1.
        -11    1    3    3    0    0 -0.42229620207E+00  0.18833137625E+00  0.23850882655E+00  0.52027830151E+00  0.51100000000E-03 0.  1.
         12    1    3    3    0    0  0.19214681740E+02 -0.10974713100E+02 -0.20564859798E+02  0.30208637515E+02  0.00000000000E+00 0. -1.
</event>
<event>
 7    1  0.1541705E-008  0.4614232E+02  0.7816164E-02  0.1320468E+00
        -11   -1    0    0    0    0  0.00000000000E+00  0.00000000000E+00  0.45593999997E+02  0.45594000000E+02  0.51100000000E-03 0. -1.
         11   -1    0    0    0    0 -0.00000000000E+00 -0.00000000000E+00 -0.45593999997E+02  0.45594000000E+02  0.51100000000E-03 0.  1.
    9900012    2    1    2    0    0 -0.60772227649E+01 -0.24720120122E+02  0.37163108204E+02  0.46142316669E+02  0.99999900368E+01 0.  0.
        -12    1    1    2    0    0  0.60772227649E+01  0.24720120122E+02 -0.37163108204E+02  0.45045683331E+02  0.00000000000E+00 0.  1.
         11    1    3    3    0    0 -0.29768759792E+01 -0.56730462816E+01  0.45629886519E+01  0.78655012814E+01  0.51100000000E-03 0. -1.
        -11    1    3    3    0    0  0.13979873399E+01 -0.27995102329E+01  0.40123346562E+01  0.50882664829E+01  0.51100000000E-03 0.  1.
         12    1    3    3    0    0 -0.44983341256E+01 -0.16247563608E+02  0.28587784896E+02  0.33188548904E+02  0.00000000000E+00 0. -1.
</event>
<event>
 7    1  0.1541705E-008  0.4614232E+02  0.7816164E-02  0.1320468E+00
        -11   -1    0    0    0    0  0.00000000000E+00  0.00000000000E+00  0.45593999997E+02  0.45594000000E+02  0.51100000000E-03 0.  1.
         11   -1    0    0    0    0 -0.00000000000E+00 -0.00000000000E+00 -0.45593999997E+02  0.45594000000E+02  0.51100000000E-03 0. -1.
    9900012    2    1    2    0    0 -0.77637080050E+01 -0.11663427541E+02 -0.42811243447E+02  0.46142320191E+02  0.10000022160E+02 0.  0.
        -12    1    1    2    0    0  0.77637080050E+01  0.11663427541E+02  0.42811243447E+02  0.45045679809E+02  0.00000000000E+00 0.  1.
         11    1    3    3    0    0 -0.54589085228E+01 -0.28570788526E+01 -0.16010235171E+02  0.17154888876E+02  0.51100000000E-03 0. -1.
        -11    1    3    3    0    0  0.14609912985E+01 -0.10406521282E+00 -0.24369127507E+01  0.28432145819E+01  0.51100000000E-03 0.  1.
         12    1    3    3    0    0 -0.37657907808E+01 -0.87022834756E+01 -0.24364095524E+02  0.26144216734E+02  0.00000000000E+00 0. -1.
</event>
<event>
 7    1  0.1541705E-008  0.4614232E+02  0.7816164E-02  0.1320468E+00
        -11   -1    0    0    0    0  0.00000000000E+00  0.00000000000E+00  0.45593999997E+02  0.45594000000E+02  0.51100000000E-03 0.  1.
         11   -1    0    0    0    0 -0.00000000000E+00 -0.00000000000E+00 -0.45593999997E+02  0.45594000000E+02  0.51100000000E-03 0. -1.
    9900012    2    1    2    0    0  0.25699822583E+02  0.15311328156E+02 -0.33677823568E+02  0.46142318176E+02  0.10000003785E+02 0.  0.
        -12    1    1    2    0    0 -0.25699822583E+02 -0.15311328156E+02  0.33677823568E+02  0.45045681824E+02  0.00000000000E+00 0.  1.
         11    1    3    3    0    0  0.42497916241E+01  0.18589508620E+01 -0.57466942957E+01  0.73851826481E+01  0.51100000000E-03 0. -1.
        -11    1    3    3    0    0  0.30350015221E+01 -0.12688172328E+01 -0.32059348914E+01  0.45933811293E+01  0.51100000000E-03 0.  1.
        -12    1    3    3    0    0  0.18415029437E+02  0.14721194527E+02 -0.24725194381E+02  0.34163754399E+02  0.00000000000E+00 0.  1.
</event>
<event>
 7    1  0.1541705E-008  0.4614232E+02  0.7816164E-02  0.1320468E+00
        -11   -1    0    0    0    0  0.00000000000E+00  0.00000000000E+00  0.45593999997E+02  0.45594000000E+02  0.51100000000E-03 0. -1.
         11   -1    0    0    0    0 -0.00000000000E+00 -0.00000000000E+00 -0.45593999997E+02  0.45594000000E+02  0.51100000000E-03 0.  1.
    9900012    2    1    2    0    0  0.27369085651E+02  0.22168682504E+02  0.28081954532E+02  0.46142317591E+02  0.99999984522E+01 0.  0.
        -12    1    1    2    0    0 -0.27369085651E+02 -0.22168682504E+02 -0.28081954532E+02  0.45045682409E+02  0.00000000000E+00 0.  1.
         11    1    3    3    0    0  0.17075219204E+02  0.12867191614E+02  0.16018287314E+02  0.26715412399E+02  0.51100000000E-03 0. -1.
        -11    1    3    3    0    0  0.80009837847E+01  0.43076167363E+01  0.46753219583E+01  0.10219096787E+02  0.51100000000E-03 0.  1.
         12    1    3    3    0    0  0.22928826628E+01  0.49938741531E+01  0.73883452590E+01  0.92078084053E+01  0.00000000000E+00 0. -1.
</event>
<event>
 7    1  0.1541705E-008  0.4614232E+02  0.7816164E-02  0.1320468E+00
        -11   -1    0    0    0    0  0.00000000000E+00  0.00000000000E+00  0.45593999997E+02  0.45594000000E+02  0.51100000000E-03 0.  1.
         11   -1    0    0    0    0 -0.00000000000E+00 -0.00000000000E+00 -0.45593999997E+02  0.45594000000E+02  0.51100000000E-03 0. -1.
    9900012    2    1    2    0    0  0.87811642562E+00  0.38367978805E+01 -0.44873392593E+02  0.46142317973E+02  0.10000001933E+02 0.  0.
        -12    1    1    2    0    0 -0.87811642562E+00 -0.38367978805E+01  0.44873392593E+02  0.45045682027E+02  0.00000000000E+00 0.  1.
         11    1    3    3    0    0  0.35013587975E+01  0.15364371292E+01 -0.97703352430E+01  0.10491882743E+02  0.51100000000E-03 0. -1.
        -11    1    3    3    0    0 -0.18946592074E+01  0.14016689520E+01 -0.50259837388E+01  0.55511190014E+01  0.51100000000E-03 0.  1.
        -12    1    3    3    0    0 -0.72858316444E+00  0.89869179936E+00 -0.30077073612E+02  0.30099316228E+02  0.00000000000E+00 0.  1.
</event>
<event>
 7    1  0.1541705E-008  0.4614232E+02  0.7816164E-02  0.1320468E+00
        -11   -1    0    0    0    0  0.00000000000E+00  0.00000000000E+00  0.45593999997E+02  0.45594000000E+02  0.51100000000E-03 0. -1.
         11   -1    0    0    0    0 -0.00000000000E+00 -0.00000000000E+00 -0.45593999997E+02  0.45594000000E+02  0.51100000000E-03 0.  1.
    9900012    2    1    2    0    0 -0.42499595817E+02  0.45435802329E+01  0.14221593575E+02  0.46142317746E+02  0.99999998583E+01 0.  0.
        -12    1    1    2    0    0  0.42499595817E+02 -0.45435802329E+01 -0.14221593575E+02  0.45045682254E+02  0.00000000000E+00 0.  1.
         11    1    3    3    0    0 -0.14799398559E+02 -0.12547478585E+01  0.51146131956E+01  0.15708464543E+02  0.51100000000E-03 0. -1.
        -11    1    3    3    0    0 -0.13707705196E+02  0.46518729325E+01  0.17421528135E+01  0.14579993148E+02  0.51100000000E-03 0.  1.
        -12    1    3    3    0    0 -0.13992492062E+02  0.11464551590E+01  0.73648275661E+01  0.15853860054E+02  0.00000000000E+00 0.  1.
</event>
<event>
 7    1  0.1541705E-008  0.4614232E+02  0.7816164E-02  0.1320468E+00
        -11   -1    0    0    0    0  0.00000000000E+00  0.00000000000E+00  0.45593999997E+02  0.45594000000E+02  0.51100000000E-03 0.  1.
         11   -1    0    0    0    0 -0.00000000000E+00 -0.00000000000E+00 -0.45593999997E+02  0.45594000000E+02  0.51100000000E-03 0. -1.
    9900012    2    1    2    0    0  0.16455253079E+02 -0.33697333827E+02 -0.24956518705E+02  0.46142317778E+02  0.10000000157E+02 0.  0.
        -12    1    1    2    0    0 -0.16455253079E+02  0.33697333827E+02  0.24956518705E+02  0.45045682222E+02  0.00000000000E+00 0.  1.
         11    1    3    3    0    0  0.69288784592E+01 -0.16845388509E+02 -0.10011604579E+02  0.20784818913E+02  0.51100000000E-03 0. -1.
        -11    1    3    3    0    0  0.82787725314E+01 -0.13996955177E+02 -0.15162698727E+02  0.22234213766E+02  0.51100000000E-03 0.  1.
        -12    1    3    3    0    0  0.12476020882E+01 -0.28549901416E+01  0.21778460183E+00  0.31232850994E+01  0.00000000000E+00 0.  1.
</event>
<event>
 7    1  0.1541705E-008  0.4614232E+02  0.7816164E-02  0.1320468E+00
        -11   -1    0    0    0    0  0.00000000000E+00  0.00000000000E+00  0.45593999997E+02  0.45594000000E+02  0.51100000000E-03 0.  1.
         11   -1    0    0    0    0 -0.00000000000E+00 -0.00000000000E+00 -0.45593999997E+02  0.45594000000E+02  0.51100000000E-03 0. -1.
    9900012    2    1    2    0    0 -0.60197346894E+01  0.42494963365E+02 -0.13676785633E+02  0.46142316717E+02  0.99999904801E+01 0.  0.
        -12    1    1    2    0    0  0.60197346894E+01 -0.42494963365E+02  0.13676785633E+02  0.45045683283E+02  0.00000000000E+00 0.  1.
         11    1    3    3    0    0 -0.41827983831E+01  0.26161907997E+02 -0.71230075347E+01  0.27434986222E+02  0.51100000000E-03 0. -1.
        -11    1    3    3    0    0 -0.37242305472E+01  0.13943693963E+02 -0.59073022583E+01  0.15594637371E+02  0.51100000000E-03 0.  1.
        -12    1    3    3    0    0  0.18872942408E+01  0.23893614054E+01 -0.64647584029E+00  0.31126931248E+01  0.00000000000E+00 0.  1.
</event>
<event>
 7    1  0.1541705E-008  0.4614232E+02  0.7816164E-02  0.1320468E+00
        -11   -1    0    0    0    0  0.00000000000E+00  0.00000000000E+00  0.45593999997E+02  0.45594000000E+02  0.51100000000E-03 0. -1.
         11   -1    0    0    0    0 -0.00000000000E+00 -0.00000000000E+00 -0.45593999997E+02  0.45594000000E+02  0.51100000000E-03 0.  1.
    9900012    2    1    2    0    0 -0.38603591106E+02 -0.51086411126E+01 -0.22644603312E+02  0.46142317416E+02  0.99999968558E+01 0.  0.
        -12    1    1    2    0    0  0.38603591106E+02  0.51086411126E+01  0.22644603312E+02  0.45045682584E+02  0.00000000000E+00 0.  1.
         11    1    3    3    0    0 -0.20729242863E+02 -0.53465391526E+01 -0.10079088123E+02  0.23661678052E+02  0.51100000000E-03 0. -1.
        -11    1    3    3    0    0 -0.40446258040E+01  0.11107868096E+01 -0.55269239877E+01  0.69382803531E+01  0.51100000000E-03 0.  1.
        -12    1    3    3    0    0 -0.13829722439E+02 -0.87288876957E+00 -0.70385912004E+01  0.15542359011E+02  0.00000000000E+00 0.  1.
</event>
<event>
 7    1  0.1541705E-008  0.4614232E+02  0.7816164E-02  0.1320468E+00
        -11   -1    0    0    0    0  0.00000000000E+00  0.00000000000E+00  0.45593999997E+02  0.45594000000E+02  0.51100000000E-03 0.  1.
         11   -1    0    0    0    0 -0.00000000000E+00 -0.00000000000E+00 -0.45593999997E+02  0.45594000000E+02  0.51100000000E-03 0. -1.
    9900012    2    1    2    0    0 -0.23310824006E+02  0.23715253586E+02 -0.30385946895E+02  0.46142317219E+02  0.99999950548E+01 0.  0.
        -12    1    1    2    0    0  0.23310824006E+02 -0.23715253586E+02  0.30385946895E+02  0.45045682781E+02  0.00000000000E+00 0.  1.
         11    1    3    3    0    0 -0.10964960633E+02  0.94661638639E+01 -0.88271396556E+01  0.16963402216E+02  0.51100000000E-03 0. -1.
        -11    1    3    3    0    0 -0.41356581027E+00 -0.23342799242E+00 -0.20731879119E+01  0.21268835620E+01  0.51100000000E-03 0.  1.
         12    1    3    3    0    0 -0.11932297562E+02  0.14482517715E+02 -0.19485619328E+02  0.27052031441E+02  0.00000000000E+00 0. -1.
</event>
<event>
 7    1  0.1541705E-008  0.4614232E+02  0.7816164E-02  0.1320468E+00
        -11   -1    0    0    0    0  0.00000000000E+00  0.00000000000E+00  0.45593999997E+02  0.45594000000E+02  0.51100000000E-03 0.  1.
         11   -1    0    0    0    0 -0.00000000000E+00 -0.00000000000E+00 -0.45593999997E+02  0.45594000000E+02  0.51100000000E-03 0. -1.
    9900012    2    1    2    0    0  0.31968202921E+02  0.31734902979E+02 -0.20833362293E+00  0.46142317987E+02  0.10000002063E+02 0.  0.
        -12    1    1    2    0    0 -0.31968202921E+02 -0.31734902979E+02  0.20833362293E+00  0.45045682013E+02  0.00000000000E+00 0.  1.
         11    1    3    3    0    0  0.17489253275E+02  0.19461261776E+02  0.12309531415E+01  0.26194082079E+02  0.51100000000E-03 0. -1.
        -11    1    3    3    0    0  0.12125949694E+02  0.10169353016E+02 -0.34608138334E+01  0.16199741646E+02  0.51100000000E-03 0.  1.
         12    1    3    3    0    0  0.23529999516E+01  0.21042881866E+01  0.20215270690E+01  0.37484942624E+01  0.00000000000E+00 0. -1.
</event>
<event>
 7    1  0.1541705E-008  0.4614232E+02  0.7816164E-02  0.1320468E+00
        -11   -1    0    0    0    0  0.00000000000E+00  0.00000000000E+00  0.45593999997E+02  0.45594000000E+02  0.51100000000E-03 0.  1.
         11   -1    0    0    0    0 -0.00000000000E+00 -0.00000000000E+00 -0.45593999997E+02  0.45594000000E+02  0.51100000000E-03 0. -1.
    9900012    2    1    2    0    0 -0.35971129173E+02  0.59706165580E+01 -0.26448877544E+02  0.46142317416E+02  0.99999968566E+01 0.  0.
        -12    1    1    2    0    0  0.35971129173E+02 -0.59706165580E+01  0.26448877544E+02  0.45045682584E+02  0.00000000000E+00 0.  1.
         11    1    3    3    0    0 -0.20871170717E+02  0.18471467167E+01 -0.17575381779E+02  0.27347975483E+02  0.51100000000E-03 0. -1.
        -11    1    3    3    0    0 -0.10686529152E+01  0.21215917892E+01 -0.96702260299E+00  0.25648204127E+01  0.51100000000E-03 0.  1.
         12    1    3    3    0    0 -0.14031305541E+02  0.20018780521E+01 -0.79064731622E+01  0.16229521521E+02  0.00000000000E+00 0. -1.
</event>
<event>
 7    1  0.1541705E-008  0.4614232E+02  0.7816164E-02  0.1320468E+00
        -11   -1    0    0    0    0  0.00000000000E+00  0.00000000000E+00  0.45593999997E+02  0.45594000000E+02  0.51100000000E-03 0.  1.
         11   -1    0    0    0    0 -0.00000000000E+00 -0.00000000000E+00 -0.45593999997E+02  0.45594000000E+02  0.51100000000E-03 0. -1.
    9900012    2    1    2    0    0  0.44157178059E+02  0.50665108588E+01  0.73203542314E+01  0.46142317716E+02  0.99999995842E+01 0.  0.
        -12    1    1    2    0    0 -0.44157178059E+02 -0.50665108588E+01 -0.73203542314E+01  0.45045682284E+02  0.00000000000E+00 0.  1.
         11    1    3    3    0    0  0.12904933548E+02  0.40401211655E+01  0.19711435212E+01  0.13665478255E+02  0.51100000000E-03 0. -1.
        -11    1    3    3    0    0  0.58550216969E+01  0.29586332449E+01  0.12618111427E+01  0.66803411118E+01  0.51100000000E-03 0.  1.
         12    1    3    3    0    0  0.25397222814E+02 -0.19322435515E+01  0.40873995674E+01  0.25796498349E+02  0.00000000000E+00 0. -1.
</event>
<event>
 7    1  0.1541705E-008  0.4614232E+02  0.7816164E-02  0.1320468E+00
        -11   -1    0    0    0    0  0.00000000000E+00  0.00000000000E+00  0.45593999997E+02  0.45594000000E+02  0.51100000000E-03 0.  1.
         11   -1    0    0    0    0 -0.00000000000E+00 -0.00000000000E+00 -0.45593999997E+02  0.45594000000E+02  0.51100000000E-03 0. -1.
    9900012    2    1    2    0    0  0.39956003147E+01 -0.23694175602E+02 -0.38101635177E+02  0.46142318936E+02  0.10000010713E+02 0.  0.
        -12    1    1    2    0    0 -0.39956003147E+01  0.23694175602E+02  0.38101635177E+02  0.45045681064E+02  0.00000000000E+00 0.  1.
         11    1    3    3    0    0  0.14528928800E+01 -0.22309690521E+02 -0.29458402805E+02  0.36981491113E+02  0.51100000000E-03 0. -1.
        -11    1    3    3    0    0  0.51023335229E+00 -0.54519452914E+00 -0.32877509273E+01  0.33714806197E+01  0.51100000000E-03 0.  1.
        -12    1    3    3    0    0  0.20324740824E+01 -0.83929055131E+00 -0.53554814453E+01  0.57893472029E+01  0.00000000000E+00 0.  1.
</event>
<event>
 7    1  0.1541705E-008  0.4614232E+02  0.7816164E-02  0.1320468E+00
        -11   -1    0    0    0    0  0.00000000000E+00  0.00000000000E+00  0.45593999997E+02  0.45594000000E+02  0.51100000000E-03 0.  1.
         11   -1    0    0    0    0 -0.00000000000E+00 -0.00000000000E+00 -0.45593999997E+02  0.45594000000E+02  0.51100000000E-03 0. -1.
    9900012    2    1    2    0    0 -0.40974821679E+02 -0.13927511791E+02 -0.12498071929E+02  0.46142318762E+02  0.10000009125E+02 0.  0.
        -12    1    1    2    0    0  0.40974821679E+02  0.13927511791E+02  0.12498071929E+02  0.45045681238E+02  0.00000000000E+00 0.  1.
         11    1    3    3    0    0 -0.27317196221E+02 -0.95422424857E+01 -0.98829560768E+01  0.30577057119E+02  0.51100000000E-03 0. -1.
        -11    1    3    3    0    0 -0.38923033238E+01 -0.93976099021E+00  0.16958052553E+01  0.43484401351E+01  0.51100000000E-03 0.  1.
        -12    1    3    3    0    0 -0.97653221342E+01 -0.34455083147E+01 -0.43109211073E+01  0.11216821507E+02  0.00000000000E+00 0.  1.
</event>
<event>
 7    1  0.1541705E-008  0.4614232E+02  0.7816164E-02  0.1320468E+00
        -11   -1    0    0    0    0  0.00000000000E+00  0.00000000000E+00  0.45593999997E+02  0.45594000000E+02  0.51100000000E-03 0.  1.
         11   -1    0    0    0    0 -0.00000000000E+00 -0.00000000000E+00 -0.45593999997E+02  0.45594000000E+02  0.51100000000E-03 0. -1.
    9900012    2    1    2    0    0 -0.23634160464E+01 -0.36054378536E+02 -0.26899990832E+02  0.46142318145E+02  0.10000003505E+02 0.  0.
        -12    1    1    2    0    0  0.23634160464E+01  0.36054378536E+02  0.26899990832E+02  0.45045681855E+02  0.00000000000E+00 0.  1.
         11    1    3    3    0    0  0.11268393425E+01 -0.76885221013E+01 -0.57095400270E+01  0.96427167638E+01  0.51100000000E-03 0. -1.
        -11    1    3    3    0    0  0.20712098149E+01 -0.38441021785E+01 -0.17005126451E+01  0.46860191179E+01  0.51100000000E-03 0.  1.
        -12    1    3    3    0    0 -0.55614652037E+01 -0.24521754256E+02 -0.19489938160E+02  0.31813582264E+02  0.00000000000E+00 0.  1.
</event>
<event>
 7    1  0.1541705E-008  0.4614232E+02  0.7816164E-02  0.1320468E+00
        -11   -1    0    0    0    0  0.00000000000E+00  0.00000000000E+00  0.45593999997E+02  0.45594000000E+02  0.51100000000E-03 0.  1.
         11   -1    0    0    0    0 -0.00000000000E+00 -0.00000000000E+00 -0.45593999997E+02  0.45594000000E+02  0.51100000000E-03 0. -1.
    9900012    2    1    2    0    0 -0.19330310665E+02 -0.52929825745E+01 -0.40341499221E+02  0.46142321691E+02  0.10000035834E+02 0.  0.
        -12    1    1    2    0    0  0.19330310665E+02  0.52929825745E+01  0.40341499221E+02  0.45045678309E+02  0.00000000000E+00 0.  1.
         11    1    3    3    0    0 -0.20028423075E+01 -0.75972456800E+00 -0.96800634978E+01  0.99142416912E+01  0.51100000000E-03 0. -1.
        -11    1    3    3    0    0 -0.13274988524E+02 -0.81085078497E-01 -0.20941091256E+02  0.24794378362E+02  0.51100000000E-03 0.  1.
        -12    1    3    3    0    0 -0.40524798332E+01 -0.44521729280E+01 -0.97203444676E+01  0.11433701638E+02  0.00000000000E+00 0.  1.
</event>
<event>
 7    1  0.1541705E-008  0.4614232E+02  0.7816164E-02  0.1320468E+00
        -11   -1    0    0    0    0  0.00000000000E+00  0.00000000000E+00  0.45593999997E+02  0.45594000000E+02  0.51100000000E-03 0.  1.
         11   -1    0    0    0    0 -0.00000000000E+00 -0.00000000000E+00 -0.45593999997E+02  0.45594000000E+02  0.51100000000E-03 0. -1.
    9900012    2    1    2    0    0 -0.10759402091E+02 -0.58531549427E+00 -0.43737927756E+02  0.46142315946E+02  0.99999834442E+01 0.  0.
        -12    1    1    2    0    0  0.10759402091E+02  0.58531549427E+00  0.43737927756E+02  0.45045684054E+02  0.00000000000E+00 0.  1.
         11    1    3    3    0    0 -0.74024255047E+01 -0.41652724067E+01 -0.22741313559E+02  0.24275764462E+02  0.51100000000E-03 0.  1.
        -11    1    3    3    0    0 -0.25745176891E+01  0.28679616299E+01 -0.85905209507E+01  0.94154339097E+01  0.51100000000E-03 0. -1.
         12    1    3    3    0    0 -0.78245889713E+00  0.71199528259E+00 -0.12406093246E+02  0.12451117573E+02  0.00000000000E+00 0. -1.
</event>
<event>
 7    1  0.1541705E-008  0.4614232E+02  0.7816164E-02  0.1320468E+00
        -11   -1    0    0    0    0  0.00000000000E+00  0.00000000000E+00  0.45593999997E+02  0.45594000000E+02  0.51100000000E-03 0. -1.
         11   -1    0    0    0    0 -0.00000000000E+00 -0.00000000000E+00 -0.45593999997E+02  0.45594000000E+02  0.51100000000E-03 0.  1.
    9900012    2    1    2    0    0  0.15195688840E+02  0.26367930333E+02  0.33210493042E+02  0.46142316994E+02  0.99999930060E+01 0.  0.
        -12    1    1    2    0    0 -0.15195688840E+02 -0.26367930333E+02 -0.33210493042E+02  0.45045683006E+02  0.00000000000E+00 0.  1.
         11    1    3    3    0    0  0.72546953829E+01  0.17760346198E+02  0.18132778686E+02  0.26398071242E+02  0.51100000000E-03 0. -1.
        -11    1    3    3    0    0  0.19801388398E+00  0.42042266842E+00  0.37055526687E+01  0.37345797033E+01  0.51100000000E-03 0.  1.
         12    1    3    3    0    0  0.77429795727E+01  0.81871614673E+01  0.11372161687E+02  0.16009666049E+02  0.00000000000E+00 0. -1.
</event>
<event>
 7    1  0.1541705E-008  0.4614232E+02  0.7816164E-02  0.1320468E+00
        -11   -1    0    0    0    0  0.00000000000E+00  0.00000000000E+00  0.45593999997E+02  0.45594000000E+02  0.51100000000E-03 0.  1.
         11   -1    0    0    0    0 -0.00000000000E+00 -0.00000000000E+00 -0.45593999997E+02  0.45594000000E+02  0.51100000000E-03 0. -1.
    9900012    2    1    2    0    0  0.28791314096E+02 -0.33894131589E+02 -0.71666939722E+01  0.46142318453E+02  0.10000006313E+02 0.  0.
        -12    1    1    2    0    0 -0.28791314096E+02  0.33894131589E+02  0.71666939722E+01  0.45045681547E+02  0.00000000000E+00 0.  1.
         11    1    3    3    0    0  0.37733602584E+00 -0.75988821226E+00  0.49872896503E+00  0.98414603246E+00  0.51100000000E-03 0.  1.
        -11    1    3    3    0    0  0.26066691098E+02 -0.30370971397E+02 -0.43745301019E+01  0.40261703917E+02  0.51100000000E-03 0. -1.
        -12    1    3    3    0    0  0.23472869718E+01 -0.27632719794E+01 -0.32908928353E+01  0.48964685044E+01  0.00000000000E+00 0.  1.
</event>
<event>
 7    1  0.1541705E-008  0.4614232E+02  0.7816164E-02  0.1320468E+00
        -11   -1    0    0    0    0  0.00000000000E+00  0.00000000000E+00  0.45593999997E+02  0.45594000000E+02  0.51100000000E-03 0. -1.
         11   -1    0    0    0    0 -0.00000000000E+00 -0.00000000000E+00 -0.45593999997E+02  0.45594000000E+02  0.51100000000E-03 0.  1.
    9900012    2    1    2    0    0  0.29001418870E+02  0.32699890353E+02  0.10897154752E+02  0.46142321991E+02  0.10000038573E+02 0.  0.
        -12    1    1    2    0    0 -0.29001418870E+02 -0.32699890353E+02 -0.10897154752E+02  0.45045678009E+02  0.00000000000E+00 0.  1.
         11    1    3    3    0    0  0.25377718002E+02  0.25666326365E+02  0.76049245580E+01  0.36886633865E+02  0.51100000000E-03 0. -1.
        -11    1    3    3    0    0  0.17530230263E+01  0.72635601519E+00 -0.35081420074E-02  0.18975498306E+01  0.51100000000E-03 0.  1.
         12    1    3    3    0    0  0.18706778413E+01  0.63072079728E+01  0.32957383355E+01  0.73581382954E+01  0.00000000000E+00 0. -1.
</event>
<event>
 7    1  0.1541705E-008  0.4614232E+02  0.7816164E-02  0.1320468E+00
        -11   -1    0    0    0    0  0.00000000000E+00  0.00000000000E+00  0.45593999997E+02  0.45594000000E+02  0.51100000000E-03 0.  1.
         11   -1    0    0    0    0 -0.00000000000E+00 -0.00000000000E+00 -0.45593999997E+02  0.45594000000E+02  0.51100000000E-03 0. -1.
    9900012    2    1    2    0    0 -0.38753805773E+02 -0.13089595660E+02 -0.18865801515E+02  0.46142318262E+02  0.10000004564E+02 0.  0.
        -12    1    1    2    0    0  0.38753805773E+02  0.13089595660E+02  0.18865801515E+02  0.45045681738E+02  0.00000000000E+00 0.  1.
         11    1    3    3    0    0 -0.72691454414E+01 -0.45640420579E+01 -0.60083461922E+01  0.10477174217E+02  0.51100000000E-03 0. -1.
        -11    1    3    3    0    0 -0.64609217898E+01  0.76747358588E+00 -0.16364168679E+01  0.67089780522E+01  0.51100000000E-03 0.  1.
        -12    1    3    3    0    0 -0.25023738542E+02 -0.92930271879E+01 -0.11221038455E+02  0.28956165992E+02  0.00000000000E+00 0.  1.
</event>
<event>
 7    1  0.1541705E-008  0.4614232E+02  0.7816164E-02  0.1320468E+00
        -11   -1    0    0    0    0  0.00000000000E+00  0.00000000000E+00  0.45593999997E+02  0.45594000000E+02  0.51100000000E-03 0.  1.
         11   -1    0    0    0    0 -0.00000000000E+00 -0.00000000000E+00 -0.45593999997E+02  0.45594000000E+02  0.51100000000E-03 0. -1.
    9900012    2    1    2    0    0  0.12034963110E+02 -0.42061253208E+02  0.10729593675E+02  0.46142317200E+02  0.99999948822E+01 0.  0.
        -12    1    1    2    0    0 -0.12034963110E+02  0.42061253208E+02 -0.10729593675E+02  0.45045682800E+02  0.00000000000E+00 0.  1.
         11    1    3    3    0    0  0.72211026871E+01 -0.15725864824E+02  0.28923429329E+01  0.17544594506E+02  0.51100000000E-03 0. -1.
        -11    1    3    3    0    0  0.33613379669E+01 -0.19836598635E+02  0.29430141550E+01  0.20333483984E+02  0.51100000000E-03 0.  1.
        -12    1    3    3    0    0  0.14525224561E+01 -0.64987897493E+01  0.48942365870E+01  0.82642387103E+01  0.00000000000E+00 0.  1.
</event>
<event>
 7    1  0.1541705E-008  0.4614232E+02  0.7816164E-02  0.1320468E+00
        -11   -1    0    0    0    0  0.00000000000E+00  0.00000000000E+00  0.45593999997E+02  0.45594000000E+02  0.51100000000E-03 0.  1.
         11   -1    0    0    0    0 -0.00000000000E+00 -0.00000000000E+00 -0.45593999997E+02  0.45594000000E+02  0.51100000000E-03 0. -1.
    9900012    2    1    2    0    0  0.22034634355E+02 -0.29346175611E+02 -0.26122602091E+02  0.46142317919E+02  0.10000001441E+02 0.  0.
        -12    1    1    2    0    0 -0.22034634355E+02  0.29346175611E+02  0.26122602091E+02  0.45045682081E+02  0.00000000000E+00 0.  1.
         11    1    3    3    0    0  0.19021068487E+01 -0.82176598542E-01 -0.23420732925E+01  0.30182894205E+01  0.51100000000E-03 0. -1.
        -11    1    3    3    0    0  0.94073410961E+01 -0.12728977267E+02 -0.72891881621E+01  0.17425762338E+02  0.51100000000E-03 0.  1.
        -12    1    3    3    0    0  0.10725186410E+02 -0.16535021746E+02 -0.16491340636E+02  0.25698266160E+02  0.00000000000E+00 0.  1.
</event>
<event>
 7    1  0.1541705E-008  0.4614232E+02  0.7816164E-02  0.1320468E+00
        -11   -1    0    0    0    0  0.00000000000E+00  0.00000000000E+00  0.45593999997E+02  0.45594000000E+02  0.51100000000E-03 0.  1.
         11   -1    0    0    0    0 -0.00000000000E+00 -0.00000000000E+00 -0.45593999997E+02  0.45594000000E+02  0.51100000000E-03 0. -1.
    9900012    2    1    2    0    0 -0.38141884176E+01  0.90306603812E+01 -0.43966040944E+02  0.46142316339E+02  0.99999870314E+01 0.  0.
        -12    1    1    2    0    0  0.38141884176E+01 -0.90306603812E+01  0.43966040944E+02  0.45045683661E+02  0.00000000000E+00 0.  1.
         11    1    3    3    0    0 -0.20286859970E+01  0.46331910308E+01 -0.23070639345E+02  0.23618561050E+02  0.51100000000E-03 0. -1.
        -11    1    3    3    0    0 -0.10037146202E+01  0.71504943421E+00  0.59104073305E-01  0.12337877795E+01  0.51100000000E-03 0.  1.
        -12    1    3    3    0    0 -0.78178780041E+00  0.36824199162E+01 -0.20954505672E+02  0.21289967510E+02  0.00000000000E+00 0.  1.
</event>
<event>
 7    1  0.1541705E-008  0.4614231E+02  0.7816164E-02  0.1320468E+00
        -11   -1    0    0    0    0  0.00000000000E+00  0.00000000000E+00  0.45593999997E+02  0.45594000000E+02  0.51100000000E-03 0.  1.
         11   -1    0    0    0    0 -0.00000000000E+00 -0.00000000000E+00 -0.45593999997E+02  0.45594000000E+02  0.51100000000E-03 0. -1.
    9900012    2    1    2    0    0  0.25519901271E+02  0.24928018141E+02 -0.27503508909E+02  0.46142307069E+02  0.99999025005E+01 0.  0.
        -12    1    1    2    0    0 -0.25519901271E+02 -0.24928018141E+02  0.27503508909E+02  0.45045692931E+02  0.00000000000E+00 0.  1.
         11    1    3    3    0    0  0.90714734950E+01  0.66690063508E+01 -0.91207570733E+01  0.14489840818E+02  0.51100000000E-03 0. -1.
        -11    1    3    3    0    0  0.16603510237E+02  0.16627678454E+02 -0.18640359218E+02  0.29993653245E+02  0.51100000000E-03 0.  1.
        -12    1    3    3    0    0 -0.15508246110E+00  0.16313333364E+01  0.25760738258E+00  0.16588130057E+01  0.00000000000E+00 0.  1.
</event>
<event>
 7    1  0.1541705E-008  0.4614232E+02  0.7816164E-02  0.1320468E+00
        -11   -1    0    0    0    0  0.00000000000E+00  0.00000000000E+00  0.45593999997E+02  0.45594000000E+02  0.51100000000E-03 0.  1.
         11   -1    0    0    0    0 -0.00000000000E+00 -0.00000000000E+00 -0.45593999997E+02  0.45594000000E+02  0.51100000000E-03 0. -1.
    9900012    2    1    2    0    0  0.14446804357E+01  0.57113290207E+01 -0.44658785738E+02  0.46142317362E+02  0.99999963577E+01 0.  0.
        -12    1    1    2    0    0 -0.14446804357E+01 -0.57113290207E+01  0.44658785738E+02  0.45045682638E+02  0.00000000000E+00 0.  1.
         11    1    3    3    0    0 -0.17464132029E+01  0.13812470388E+01 -0.22539471700E+01  0.31682930047E+01  0.51100000000E-03 0.  1.
        -11    1    3    3    0    0  0.37122080386E+01  0.21323818254E+01 -0.19851479652E+02  0.20307850340E+02  0.51100000000E-03 0. -1.
         12    1    3    3    0    0 -0.52111439998E+00  0.21977001564E+01 -0.22553358916E+02  0.22666174017E+02  0.00000000000E+00 0. -1.
</event>
<event>
 7    1  0.1541705E-008  0.4614232E+02  0.7816164E-02  0.1320468E+00
        -11   -1    0    0    0    0  0.00000000000E+00  0.00000000000E+00  0.45593999997E+02  0.45594000000E+02  0.51100000000E-03 0.  1.
         11   -1    0    0    0    0 -0.00000000000E+00 -0.00000000000E+00 -0.45593999997E+02  0.45594000000E+02  0.51100000000E-03 0. -1.
    9900012    2    1    2    0    0 -0.68421352591E+01 -0.34853034484E+02 -0.27704958519E+02  0.46142317030E+02  0.99999933351E+01 0.  0.
        -12    1    1    2    0    0  0.68421352591E+01  0.34853034484E+02  0.27704958519E+02  0.45045682970E+02  0.00000000000E+00 0.  1.
         11    1    3    3    0    0 -0.78138613418E+01 -0.20288248164E+02 -0.13516174986E+02  0.25599930256E+02  0.51100000000E-03 0. -1.
        -11    1    3    3    0    0  0.40959182381E+00 -0.16760742758E+00 -0.50976779146E+00  0.67507123642E+00  0.51100000000E-03 0.  1.
         12    1    3    3    0    0  0.56213425885E+00 -0.14397178893E+02 -0.13679015741E+02  0.19867315537E+02  0.00000000000E+00 0. -1.
</event>
<event>
 7    1  0.1541705E-008  0.4614232E+02  0.7816164E-02  0.1320468E+00
        -11   -1    0    0    0    0  0.00000000000E+00  0.00000000000E+00  0.45593999997E+02  0.45594000000E+02  0.51100000000E-03 0.  1.
         11   -1    0    0    0    0 -0.00000000000E+00 -0.00000000000E+00 -0.45593999997E+02  0.45594000000E+02  0.51100000000E-03 0. -1.
    9900012    2    1    2    0    0  0.24847486340E+02  0.34231647861E+02 -0.15489034029E+02  0.46142317989E+02  0.10000002077E+02 0.  0.
        -12    1    1    2    0    0 -0.24847486340E+02 -0.34231647861E+02  0.15489034029E+02  0.45045682011E+02  0.00000000000E+00 0.  1.
         11    1    3    3    0    0  0.16040186687E+02  0.22490273180E+02 -0.76146216638E+01  0.28654536116E+02  0.51100000000E-03 0. -1.
        -11    1    3    3    0    0  0.86514849851E+00  0.32056447139E+01 -0.40070138900E+01  0.52039216493E+01  0.51100000000E-03 0.  1.
        -12    1    3    3    0    0  0.79421511549E+01  0.85357299671E+01 -0.38673984749E+01  0.12283860224E+02  0.00000000000E+00 0.  1.
</event>
<event>
 7    1  0.1541705E-008  0.4614232E+02  0.7816164E-02  0.1320468E+00
        -11   -1    0    0    0    0  0.00000000000E+00  0.00000000000E+00  0.45593999997E+02  0.45594000000E+02  0.51100000000E-03 0.  1.
         11   -1    0    0    0    0 -0.00000000000E+00 -0.00000000000E+00 -0.45593999997E+02  0.45594000000E+02  0.51100000000E-03 0. -1.
    9900012    2    1    2    0    0 -0.43555685680E+02  0.10051115737E+02 -0.55669347573E+01  0.46142318240E+02  0.10000004370E+02 0.  0.
        -12    1    1    2    0    0  0.43555685680E+02 -0.10051115737E+02  0.55669347573E+01  0.45045681760E+02  0.00000000000E+00 0.  1.
         11    1    3    3    0    0 -0.83661277036E+01 -0.58136863577E+00  0.12602839841E+01  0.84804715803E+01  0.51100000000E-03 0.  1.
        -11    1    3    3    0    0 -0.24633938694E+02  0.82303791375E+01 -0.67532558725E+01  0.26836105185E+02  0.51100000000E-03 0. -1.
         12    1    3    3    0    0 -0.10555619282E+02  0.24021052351E+01 -0.73962868992E-01  0.10825741475E+02  0.00000000000E+00 0. -1.
</event>
<event>
 7    1  0.1541705E-008  0.4614232E+02  0.7816164E-02  0.1320468E+00
        -11   -1    0    0    0    0  0.00000000000E+00  0.00000000000E+00  0.45593999997E+02  0.45594000000E+02  0.51100000000E-03 0. -1.
         11   -1    0    0    0    0 -0.00000000000E+00 -0.00000000000E+00 -0.45593999997E+02  0.45594000000E+02  0.51100000000E-03 0.  1.
    9900012    2    1    2    0    0 -0.31304238988E+02  0.29701250431E+02 -0.12922601252E+02  0.46142320086E+02  0.10000021198E+02 0.  0.
        -12    1    1    2    0    0  0.31304238988E+02 -0.29701250431E+02  0.12922601252E+02  0.45045679914E+02  0.00000000000E+00 0.  1.
         11    1    3    3    0    0 -0.74029227131E+01  0.90717324103E+01 -0.93948976623E+00  0.11746583967E+02  0.51100000000E-03 0.  1.
        -11    1    3    3    0    0 -0.11894680405E+02  0.14209772312E+02 -0.82035284723E+01  0.20265708247E+02  0.51100000000E-03 0. -1.
        -12    1    3    3    0    0 -0.12006635871E+02  0.64197457086E+01 -0.37795830136E+01  0.14130027872E+02  0.00000000000E+00 0.  1.
</event>
<event>
 7    1  0.1541705E-008  0.4614232E+02  0.7816164E-02  0.1320468E+00
        -11   -1    0    0    0    0  0.00000000000E+00  0.00000000000E+00  0.45593999997E+02  0.45594000000E+02  0.51100000000E-03 0. -1.
         11   -1    0    0    0    0 -0.00000000000E+00 -0.00000000000E+00 -0.45593999997E+02  0.45594000000E+02  0.51100000000E-03 0.  1.
    9900012    2    1    2    0    0  0.10359916232E+02  0.41454509516E+02  0.14258660196E+02  0.46142316366E+02  0.99999872754E+01 0.  0.
        -12    1    1    2    0    0 -0.10359916232E+02 -0.41454509516E+02 -0.14258660196E+02  0.45045683634E+02  0.00000000000E+00 0.  1.
         11    1    3    3    0    0 -0.54403741793E-01  0.17926863813E+02  0.68674579114E+01  0.19197327532E+02  0.51100000000E-03 0. -1.
        -11    1    3    3    0    0  0.42538454909E+01  0.95849874504E+01  0.14554489390E+01  0.10587044808E+02  0.51100000000E-03 0.  1.
         12    1    3    3    0    0  0.61604744825E+01  0.13942658252E+02  0.59357533455E+01  0.16357944026E+02  0.00000000000E+00 0. -1.
</event>
<event>
 7    1  0.1541705E-008  0.4614232E+02  0.7816164E-02  0.1320468E+00
        -11   -1    0    0    0    0  0.00000000000E+00  0.00000000000E+00  0.45593999997E+02  0.45594000000E+02  0.51100000000E-03 0.  1.
         11   -1    0    0    0    0 -0.00000000000E+00 -0.00000000000E+00 -0.45593999997E+02  0.45594000000E+02  0.51100000000E-03 0. -1.
    9900012    2    1    2    0    0  0.17069068800E+02  0.36929750162E+02 -0.19337886198E+02  0.46142318749E+02  0.10000009008E+02 0.  0.
        -12    1    1    2    0    0 -0.17069068800E+02 -0.36929750162E+02  0.19337886198E+02  0.45045681251E+02  0.00000000000E+00 0.  1.
         11    1    3    3    0    0  0.13088909371E+02  0.22768298759E+02 -0.16418496462E+02  0.30972277979E+02  0.51100000000E-03 0. -1.
        -11    1    3    3    0    0  0.32214844651E+01  0.77180519869E+01 -0.11261574274E+01  0.84388695596E+01  0.51100000000E-03 0.  1.
         12    1    3    3    0    0  0.75867496386E+00  0.64433994168E+01 -0.17932323087E+01  0.67311712100E+01  0.00000000000E+00 0. -1.
</event>
<event>
 7    1  0.1541705E-008  0.4614232E+02  0.7816164E-02  0.1320468E+00
        -11   -1    0    0    0    0  0.00000000000E+00  0.00000000000E+00  0.45593999997E+02  0.45594000000E+02  0.51100000000E-03 0.  1.
         11   -1    0    0    0    0 -0.00000000000E+00 -0.00000000000E+00 -0.45593999997E+02  0.45594000000E+02  0.51100000000E-03 0. -1.
    9900012    2    1    2    0    0  0.15436218384E+02 -0.42249585024E+02  0.24102170721E+01  0.46142318531E+02  0.10000007016E+02 0.  0.
        -12    1    1    2    0    0 -0.15436218384E+02  0.42249585024E+02 -0.24102170721E+01  0.45045681469E+02  0.00000000000E+00 0.  1.
         11    1    3    3    0    0  0.19740326627E+01 -0.15752471988E+02  0.19792440251E+01  0.15998580745E+02  0.51100000000E-03 0. -1.
        -11    1    3    3    0    0  0.38962960880E+01 -0.99920822172E+01  0.23224468561E+01  0.10973449316E+02  0.51100000000E-03 0.  1.
         12    1    3    3    0    0  0.95658896334E+01 -0.16505030819E+02 -0.18914738091E+01  0.19170288469E+02  0.00000000000E+00 0. -1.
</event>
<event>
 7    1  0.1541705E-008  0.4614232E+02  0.7816164E-02  0.1320468E+00
        -11   -1    0    0    0    0  0.00000000000E+00  0.00000000000E+00  0.45593999997E+02  0.45594000000E+02  0.51100000000E-03 0.  1.
         11   -1    0    0    0    0 -0.00000000000E+00 -0.00000000000E+00 -0.45593999997E+02  0.45594000000E+02  0.51100000000E-03 0. -1.
    9900012    2    1    2    0    0 -0.12625394832E+02 -0.20224389603E+02 -0.38218934426E+02  0.46142317874E+02  0.10000001034E+02 0.  0.
        -12    1    1    2    0    0  0.12625394832E+02  0.20224389603E+02  0.38218934426E+02  0.45045682126E+02  0.00000000000E+00 0.  1.
         11    1    3    3    0    0 -0.83044993053E+01 -0.71608346394E+01 -0.18509669109E+02  0.21513951572E+02  0.51100000000E-03 0. -1.
        -11    1    3    3    0    0 -0.23757558772E+00 -0.73557839091E+01 -0.72637604453E+01  0.10340513292E+02  0.51100000000E-03 0.  1.
        -12    1    3    3    0    0 -0.40833199388E+01 -0.57077710546E+01 -0.12445504872E+02  0.14287853010E+02  0.00000000000E+00 0.  1.
</event>
<event>
 7    1  0.1541705E-008  0.4614232E+02  0.7816164E-02  0.1320468E+00
        -11   -1    0    0    0    0  0.00000000000E+00  0.00000000000E+00  0.45593999997E+02  0.45594000000E+02  0.51100000000E-03 0. -1.
         11   -1    0    0    0    0 -0.00000000000E+00 -0.00000000000E+00 -0.45593999997E+02  0.45594000000E+02  0.51100000000E-03 0.  1.
    9900012    2    1    2    0    0  0.15806076761E+02 -0.32443161130E+01  0.42056578867E+02  0.46142317902E+02  0.10000001287E+02 0.  0.
        -12    1    1    2    0    0 -0.15806076761E+02  0.32443161130E+01 -0.42056578867E+02  0.45045682098E+02  0.00000000000E+00 0.  1.
         11    1    3    3    0    0  0.12627302022E+02 -0.71973000804E+00  0.32419777318E+02  0.34799550705E+02  0.51100000000E-03 0. -1.
        -11    1    3    3    0    0  0.97216080716E+00 -0.16115790906E+01  0.84854407793E+01  0.86916620552E+01  0.51100000000E-03 0.  1.
         12    1    3    3    0    0  0.22066139320E+01 -0.91300701434E+00  0.11513607703E+01  0.26511051425E+01  0.00000000000E+00 0. -1.
</event>
<event>
 7    1  0.1541705E-008  0.4614232E+02  0.7816164E-02  0.1320468E+00
        -11   -1    0    0    0    0  0.00000000000E+00  0.00000000000E+00  0.45593999997E+02  0.45594000000E+02  0.51100000000E-03 0.  1.
         11   -1    0    0    0    0 -0.00000000000E+00 -0.00000000000E+00 -0.45593999997E+02  0.45594000000E+02  0.51100000000E-03 0. -1.
    9900012    2    1    2    0    0  0.17547767961E+02  0.41729890070E+01 -0.41276814860E+02  0.46142318269E+02  0.10000004628E+02 0.  0.
        -12    1    1    2    0    0 -0.17547767961E+02 -0.41729890070E+01  0.41276814860E+02  0.45045681731E+02  0.00000000000E+00 0.  1.
         11    1    3    3    0    0  0.10008214032E+02  0.42502312735E+01 -0.24597095924E+02  0.26893232274E+02  0.51100000000E-03 0. -1.
        -11    1    3    3    0    0 -0.62137203504E+00  0.86697352773E+00 -0.40061747003E+01  0.41457426710E+01  0.51100000000E-03 0.  1.
        -12    1    3    3    0    0  0.81609259643E+01 -0.94421579415E+00 -0.12673544236E+02  0.15103343324E+02  0.00000000000E+00 0.  1.
</event>
<event>
 7    1  0.1541705E-008  0.4614232E+02  0.7816164E-02  0.1320468E+00
        -11   -1    0    0    0    0  0.00000000000E+00  0.00000000000E+00  0.45593999997E+02  0.45594000000E+02  0.51100000000E-03 0.  1.
         11   -1    0    0    0    0 -0.00000000000E+00 -0.00000000000E+00 -0.45593999997E+02  0.45594000000E+02  0.51100000000E-03 0. -1.
    9900012    2    1    2    0    0 -0.73690741293E+00 -0.65474668835E+01 -0.44561206718E+02  0.46142317640E+02  0.99999988983E+01 0.  0.
        -12    1    1    2    0    0  0.73690741293E+00  0.65474668835E+01  0.44561206718E+02  0.45045682360E+02  0.00000000000E+00 0.  1.
         11    1    3    3    0    0  0.21735515836E+01 -0.55348277027E+01 -0.34003794782E+02  0.34519801622E+02  0.51100000000E-03 0. -1.
        -11    1    3    3    0    0 -0.35624812206E+01 -0.36040912582E+00 -0.97848982172E+01  0.10419472183E+02  0.51100000000E-03 0.  1.
        -12    1    3    3    0    0  0.65202222404E+00 -0.65223005490E+00 -0.77251371840E+00  0.12030438356E+01  0.00000000000E+00 0.  1.
</event>
<event>
 7    1  0.1541705E-008  0.4614232E+02  0.7816164E-02  0.1320468E+00
        -11   -1    0    0    0    0  0.00000000000E+00  0.00000000000E+00  0.45593999997E+02  0.45594000000E+02  0.51100000000E-03 0. -1.
         11   -1    0    0    0    0 -0.00000000000E+00 -0.00000000000E+00 -0.45593999997E+02  0.45594000000E+02  0.51100000000E-03 0.  1.
    9900012    2    1    2    0    0  0.26702646854E+02  0.12496436923E+02  0.34057615700E+02  0.46142317943E+02  0.10000001662E+02 0.  0.
        -12    1    1    2    0    0 -0.26702646854E+02 -0.12496436923E+02 -0.34057615700E+02  0.45045682057E+02  0.00000000000E+00 0.  1.
         11    1    3    3    0    0  0.12408277842E+02  0.10892754621E+02  0.18537619875E+02  0.24824600966E+02  0.51100000000E-03 0. -1.
        -11    1    3    3    0    0  0.96261980067E+01  0.11662192843E+01  0.86118258271E+01  0.12968704632E+02  0.51100000000E-03 0.  1.
         12    1    3    3    0    0  0.46681710049E+01  0.43746301707E+00  0.69081699981E+01  0.83490123455E+01  0.00000000000E+00 0. -1.
</event>
<event>
 7    1  0.1541705E-008  0.4614232E+02  0.7816164E-02  0.1320468E+00
        -11   -1    0    0    0    0  0.00000000000E+00  0.00000000000E+00  0.45593999997E+02  0.45594000000E+02  0.51100000000E-03 0.  1.
         11   -1    0    0    0    0 -0.00000000000E+00 -0.00000000000E+00 -0.45593999997E+02  0.45594000000E+02  0.51100000000E-03 0. -1.
    9900012    2    1    2    0    0  0.19054051720E+02 -0.49185808569E+01 -0.40519922784E+02  0.46142317998E+02  0.10000002163E+02 0.  0.
        -12    1    1    2    0    0 -0.19054051720E+02  0.49185808569E+01  0.40519922784E+02  0.45045682002E+02  0.00000000000E+00 0.  1.
         11    1    3    3    0    0  0.13110605766E+01 -0.41375351933E+00 -0.95816486216E+01  0.96797759467E+01  0.51100000000E-03 0. -1.
        -11    1    3    3    0    0  0.34615733552E+00  0.69012380714E+00 -0.33371606674E+01  0.34253083586E+01  0.51100000000E-03 0.  1.
         12    1    3    3    0    0  0.17396833808E+02 -0.51949511447E+01 -0.27601113495E+02  0.33037233693E+02  0.00000000000E+00 0. -1.
</event>
<event>
 7    1  0.1541705E-008  0.4614232E+02  0.7816164E-02  0.1320468E+00
        -11   -1    0    0    0    0  0.00000000000E+00  0.00000000000E+00  0.45593999997E+02  0.45594000000E+02  0.51100000000E-03 0.  1.
         11   -1    0    0    0    0 -0.00000000000E+00 -0.00000000000E+00 -0.45593999997E+02  0.45594000000E+02  0.51100000000E-03 0. -1.
    9900012    2    1    2    0    0 -0.11910203883E+02  0.38990247729E+02 -0.19157797372E+02  0.46142316804E+02  0.99999912680E+01 0.  0.
        -12    1    1    2    0    0  0.11910203883E+02 -0.38990247729E+02  0.19157797372E+02  0.45045683196E+02  0.00000000000E+00 0.  1.
         11    1    3    3    0    0 -0.12014052697E+02  0.23771107029E+02 -0.13673861005E+02  0.29939563568E+02  0.51100000000E-03 0. -1.
        -11    1    3    3    0    0  0.35007425762E+00  0.31979186568E+01 -0.97744656175E+00  0.33622370177E+01  0.51100000000E-03 0.  1.
         12    1    3    3    0    0 -0.24622544345E+00  0.12021222043E+02 -0.45064898060E+01  0.12840516218E+02  0.00000000000E+00 0. -1.
</event>
<event>
 7    1  0.1541705E-008  0.4614232E+02  0.7816164E-02  0.1320468E+00
        -11   -1    0    0    0    0  0.00000000000E+00  0.00000000000E+00  0.45593999997E+02  0.45594000000E+02  0.51100000000E-03 0.  1.
         11   -1    0    0    0    0 -0.00000000000E+00 -0.00000000000E+00 -0.45593999997E+02  0.45594000000E+02  0.51100000000E-03 0. -1.
    9900012    2    1    2    0    0 -0.42794375597E+02  0.13441012912E+02 -0.41345155533E+01  0.46142316192E+02  0.99999856956E+01 0.  0.
        -12    1    1    2    0    0  0.42794375597E+02 -0.13441012912E+02  0.41345155533E+01  0.45045683808E+02  0.00000000000E+00 0.  1.
         11    1    3    3    0    0 -0.25050540896E+02  0.33119297570E+01 -0.21385177155E+01  0.25358859126E+02  0.51100000000E-03 0. -1.
        -11    1    3    3    0    0 -0.58224414864E+01  0.36436641226E+01  0.83774868547E+00  0.69194606886E+01  0.51100000000E-03 0.  1.
         12    1    3    3    0    0 -0.11921393215E+02  0.64854190328E+01 -0.28337465233E+01  0.13863996378E+02  0.00000000000E+00 0. -1.
</event>
<event>
 7    1  0.1541705E-008  0.4614232E+02  0.7816164E-02  0.1320468E+00
        -11   -1    0    0    0    0  0.00000000000E+00  0.00000000000E+00  0.45593999997E+02  0.45594000000E+02  0.51100000000E-03 0.  1.
         11   -1    0    0    0    0 -0.00000000000E+00 -0.00000000000E+00 -0.45593999997E+02  0.45594000000E+02  0.51100000000E-03 0. -1.
    9900012    2    1    2    0    0  0.34422423024E+02 -0.27431435271E+02 -0.95774043910E+01  0.46142317380E+02  0.99999965210E+01 0.  0.
        -12    1    1    2    0    0 -0.34422423024E+02  0.27431435271E+02  0.95774043910E+01  0.45045682620E+02  0.00000000000E+00 0.  1.
         11    1    3    3    0    0  0.59515021417E+01 -0.69357305601E+01 -0.48230643452E+01  0.10333764371E+02  0.51100000000E-03 0. -1.
        -11    1    3    3    0    0  0.18185902652E+02 -0.13179620904E+02 -0.42012019918E+00  0.22463436151E+02  0.51100000000E-03 0.  1.
        -12    1    3    3    0    0  0.10285018230E+02 -0.73160838068E+01 -0.43342198467E+01  0.13345116858E+02  0.00000000000E+00 0.  1.
</event>
<event>
 7    1  0.1541705E-008  0.4614232E+02  0.7816164E-02  0.1320468E+00
        -11   -1    0    0    0    0  0.00000000000E+00  0.00000000000E+00  0.45593999997E+02  0.45594000000E+02  0.51100000000E-03 0.  1.
         11   -1    0    0    0    0 -0.00000000000E+00 -0.00000000000E+00 -0.45593999997E+02  0.45594000000E+02  0.51100000000E-03 0. -1.
    9900012    2    1    2    0    0 -0.27586179646E+01  0.33032499113E+02 -0.30501764762E+02  0.46142316252E+02  0.99999862373E+01 0.  0.
        -12    1    1    2    0    0  0.27586179646E+01 -0.33032499113E+02  0.30501764762E+02  0.45045683748E+02  0.00000000000E+00 0.  1.
         11    1    3    3    0    0  0.11430024228E+01  0.86362747064E+01 -0.12557403993E+02  0.15283327211E+02  0.51100000000E-03 0. -1.
        -11    1    3    3    0    0 -0.27868789454E+01  0.54229077893E+01 -0.45337693996E+01  0.75980055526E+01  0.51100000000E-03 0.  1.
         12    1    3    3    0    0 -0.11147414420E+01  0.18973316618E+02 -0.13410591370E+02  0.23260983488E+02  0.00000000000E+00 0. -1.
</event>
<event>
 7    1  0.1541705E-008  0.4614232E+02  0.7816164E-02  0.1320468E+00
        -11   -1    0    0    0    0  0.00000000000E+00  0.00000000000E+00  0.45593999997E+02  0.45594000000E+02  0.51100000000E-03 0.  1.
         11   -1    0    0    0    0 -0.00000000000E+00 -0.00000000000E+00 -0.45593999997E+02  0.45594000000E+02  0.51100000000E-03 0. -1.
    9900012    2    1    2    0    0  0.10402271608E+02  0.14741150466E+01 -0.43803345687E+02  0.46142319151E+02  0.10000012671E+02 0.  0.
        -12    1    1    2    0    0 -0.10402271608E+02 -0.14741150466E+01  0.43803345687E+02  0.45045680849E+02  0.00000000000E+00 0.  1.
         11    1    3    3    0    0  0.55564400447E+01 -0.21779653743E+01 -0.25309123911E+02  0.26003255806E+02  0.51100000000E-03 0. -1.
        -11    1    3    3    0    0  0.13437985046E+01  0.40314727186E+01 -0.12298638350E+02  0.13012112519E+02  0.51100000000E-03 0.  1.
         12    1    3    3    0    0  0.35020330589E+01 -0.37939229762E+00 -0.61955834269E+01  0.71269508249E+01  0.00000000000E+00 0. -1.
</event>
<event>
 7    1  0.1541705E-008  0.4614232E+02  0.7816164E-02  0.1320468E+00
        -11   -1    0    0    0    0  0.00000000000E+00  0.00000000000E+00  0.45593999997E+02  0.45594000000E+02  0.51100000000E-03 0. -1.
         11   -1    0    0    0    0 -0.00000000000E+00 -0.00000000000E+00 -0.45593999997E+02  0.45594000000E+02  0.51100000000E-03 0.  1.
    9900012    2    1    2    0    0  0.46599135045E+01 -0.14249509057E+02  0.42477643356E+02  0.46142317773E+02  0.10000000109E+02 0.  0.
        -12    1    1    2    0    0 -0.46599135045E+01  0.14249509057E+02 -0.42477643356E+02  0.45045682227E+02  0.00000000000E+00 0.  1.
         11    1    3    3    0    0  0.61167277169E+01 -0.41066283254E+01  0.14576413277E+02  0.16332500680E+02  0.51100000000E-03 0. -1.
        -11    1    3    3    0    0 -0.95348842922E+00 -0.17486461562E+01  0.70717995427E+01  0.73469213006E+01  0.51100000000E-03 0.  1.
         12    1    3    3    0    0 -0.50332578323E+00 -0.83942345752E+01  0.20829430536E+02  0.22462895793E+02  0.00000000000E+00 0. -1.
</event>
<event>
 7    1  0.1541705E-008  0.4614231E+02  0.7816164E-02  0.1320468E+00
        -11   -1    0    0    0    0  0.00000000000E+00  0.00000000000E+00  0.45593999997E+02  0.45594000000E+02  0.51100000000E-03 0. -1.
         11   -1    0    0    0    0 -0.00000000000E+00 -0.00000000000E+00 -0.45593999997E+02  0.45594000000E+02  0.51100000000E-03 0.  1.
    9900012    2    1    2    0    0  0.10987864507E+01  0.44573760142E+02 -0.64098882297E+01  0.46142311061E+02  0.99999389022E+01 0.  0.
        -12    1    1    2    0    0 -0.10987864507E+01 -0.44573760142E+02  0.64098882297E+01  0.45045688939E+02  0.00000000000E+00 0.  1.
         11    1    3    3    0    0  0.15093308909E+00  0.21671529087E+00 -0.11354749814E+01  0.11657830026E+01  0.51100000000E-03 0.  1.
        -11    1    3    3    0    0  0.42496361074E+00  0.19273807767E+02 -0.48721366409E+01  0.19884616557E+02  0.51100000000E-03 0. -1.
         12    1    3    3    0    0  0.52288975088E+00  0.25083237084E+02 -0.40227660732E+00  0.25091911501E+02  0.00000000000E+00 0. -1.
</event>
<event>
 7    1  0.1541705E-008  0.4614232E+02  0.7816164E-02  0.1320468E+00
        -11   -1    0    0    0    0  0.00000000000E+00  0.00000000000E+00  0.45593999997E+02  0.45594000000E+02  0.51100000000E-03 0. -1.
         11   -1    0    0    0    0 -0.00000000000E+00 -0.00000000000E+00 -0.45593999997E+02  0.45594000000E+02  0.51100000000E-03 0.  1.
    9900012    2    1    2    0    0  0.25220133244E+02 -0.30879760241E+02  0.20964225214E+02  0.46142318162E+02  0.10000003658E+02 0.  0.
        -12    1    1    2    0    0 -0.25220133244E+02  0.30879760241E+02 -0.20964225214E+02  0.45045681838E+02  0.00000000000E+00 0.  1.
         11    1    3    3    0    0  0.14610265471E+02 -0.24039914784E+02  0.13047741424E+02  0.31010013165E+02  0.51100000000E-03 0. -1.
        -11    1    3    3    0    0  0.70532120108E+01 -0.30315323676E+01  0.49824998520E+01  0.91522288653E+01  0.51100000000E-03 0.  1.
         12    1    3    3    0    0  0.35566557618E+01 -0.38083130899E+01  0.29339839375E+01  0.59800761320E+01  0.00000000000E+00 0. -1.
</event>
<event>
 7    1  0.1541705E-008  0.4614232E+02  0.7816164E-02  0.1320468E+00
        -11   -1    0    0    0    0  0.00000000000E+00  0.00000000000E+00  0.45593999997E+02  0.45594000000E+02  0.51100000000E-03 0.  1.
         11   -1    0    0    0    0 -0.00000000000E+00 -0.00000000000E+00 -0.45593999997E+02  0.45594000000E+02  0.51100000000E-03 0. -1.
    9900012    2    1    2    0    0  0.40329783208E+02  0.19155377320E+02  0.59744125253E+01  0.46142317644E+02  0.99999989353E+01 0.  0.
        -12    1    1    2    0    0 -0.40329783208E+02 -0.19155377320E+02 -0.59744125253E+01  0.45045682356E+02  0.00000000000E+00 0.  1.
         11    1    3    3    0    0  0.57752419651E+00  0.25351576927E+00  0.13723998129E+01  0.15103926478E+01  0.51100000000E-03 0.  1.
        -11    1    3    3    0    0  0.19066762039E+02  0.12260469281E+02  0.23756178925E+01  0.22792632193E+02  0.51100000000E-03 0. -1.
        -12    1    3    3    0    0  0.20685496972E+02  0.66413922695E+01  0.22263948200E+01  0.21839292804E+02  0.00000000000E+00 0.  1.
</event>
<event>
 7    1  0.1541705E-008  0.4614232E+02  0.7816164E-02  0.1320468E+00
        -11   -1    0    0    0    0  0.00000000000E+00  0.00000000000E+00  0.45593999997E+02  0.45594000000E+02  0.51100000000E-03 0.  1.
         11   -1    0    0    0    0 -0.00000000000E+00 -0.00000000000E+00 -0.45593999997E+02  0.45594000000E+02  0.51100000000E-03 0. -1.
    9900012    2    1    2    0    0  0.13505774439E+01 -0.69454667463E+01 -0.44486510388E+02  0.46142321248E+02  0.10000031793E+02 0.  0.
        -12    1    1    2    0    0 -0.13505774439E+01  0.69454667463E+01  0.44486510388E+02  0.45045678752E+02  0.00000000000E+00 0.  1.
         11    1    3    3    0    0  0.18475318888E+01 -0.19372732790E+01 -0.44334556582E+01  0.51789893968E+01  0.51100000000E-03 0.  1.
        -11    1    3    3    0    0  0.22292029487E+01 -0.13574379118E+01 -0.27231075074E+02  0.27355866527E+02  0.51100000000E-03 0. -1.
        -12    1    3    3    0    0 -0.27261573936E+01 -0.36507555554E+01 -0.12821979656E+02  0.13607465324E+02  0.00000000000E+00 0.  1.
</event>
<event>
 7    1  0.1541705E-008  0.4614232E+02  0.7816164E-02  0.1320468E+00
        -11   -1    0    0    0    0  0.00000000000E+00  0.00000000000E+00  0.45593999997E+02  0.45594000000E+02  0.51100000000E-03 0.  1.
         11   -1    0    0    0    0 -0.00000000000E+00 -0.00000000000E+00 -0.45593999997E+02  0.45594000000E+02  0.51100000000E-03 0. -1.
    9900012    2    1    2    0    0 -0.29197210731E+02 -0.34223481938E+02 -0.23215783041E+01  0.46142317008E+02  0.99999931314E+01 0.  0.
        -12    1    1    2    0    0  0.29197210731E+02  0.34223481938E+02  0.23215783041E+01  0.45045682992E+02  0.00000000000E+00 0.  1.
         11    1    3    3    0    0 -0.17523619138E+02 -0.25843136653E+02 -0.14440014670E+01  0.31257480389E+02  0.51100000000E-03 0. -1.
        -11    1    3    3    0    0 -0.11381140547E+02 -0.72282089410E+01 -0.14597076320E+01  0.13561272480E+02  0.51100000000E-03 0.  1.
        -12    1    3    3    0    0 -0.29245104667E+00 -0.11521363433E+01  0.58213079496E+00  0.13235641393E+01  0.00000000000E+00 0.  1.
</event>
<event>
 7    1  0.1541705E-008  0.4614232E+02  0.7816164E-02  0.1320468E+00
        -11   -1    0    0    0    0  0.00000000000E+00  0.00000000000E+00  0.45593999997E+02  0.45594000000E+02  0.51100000000E-03 0. -1.
         11   -1    0    0    0    0 -0.00000000000E+00 -0.00000000000E+00 -0.45593999997E+02  0.45594000000E+02  0.51100000000E-03 0.  1.
    9900012    2    1    2    0    0 -0.12786803942E+02 -0.34130525018E+02  0.26471086733E+02  0.46142317344E+02  0.99999962009E+01 0.  0.
        -12    1    1    2    0    0  0.12786803942E+02  0.34130525018E+02 -0.26471086733E+02  0.45045682656E+02  0.00000000000E+00 0.  1.
         11    1    3    3    0    0 -0.83985210711E+01 -0.18435157366E+02  0.17373785780E+02  0.26687799008E+02  0.51100000000E-03 0. -1.
        -11    1    3    3    0    0 -0.23989268756E+00 -0.10667473188E+02  0.53599441895E+01  0.11940751010E+02  0.51100000000E-03 0.  1.
         12    1    3    3    0    0 -0.41483901830E+01 -0.50278944645E+01  0.37373567636E+01  0.75137673264E+01  0.00000000000E+00 0. -1.
</event>
<event>
 7    1  0.1541705E-008  0.4614232E+02  0.7816164E-02  0.1320468E+00
        -11   -1    0    0    0    0  0.00000000000E+00  0.00000000000E+00  0.45593999997E+02  0.45594000000E+02  0.51100000000E-03 0.  1.
         11   -1    0    0    0    0 -0.00000000000E+00 -0.00000000000E+00 -0.45593999997E+02  0.45594000000E+02  0.51100000000E-03 0. -1.
    9900012    2    1    2    0    0  0.40617793200E+02  0.14695155730E+02  0.12781251954E+02  0.46142321762E+02  0.10000036484E+02 0.  0.
        -12    1    1    2    0    0 -0.40617793200E+02 -0.14695155730E+02 -0.12781251954E+02  0.45045678238E+02  0.00000000000E+00 0.  1.
         11    1    3    3    0    0  0.14145800268E+02  0.73997458166E+01  0.52645897650E+01  0.16809991346E+02  0.51100000000E-03 0. -1.
        -11    1    3    3    0    0  0.11457309955E+02  0.67380394624E+01  0.27906115026E+01  0.13581555140E+02  0.51100000000E-03 0.  1.
        -12    1    3    3    0    0  0.15014682976E+02  0.55737045118E+00  0.47260506868E+01  0.15750775276E+02  0.00000000000E+00 0.  1.
</event>
<event>
 7    1  0.1541705E-008  0.4614232E+02  0.7816164E-02  0.1320468E+00
        -11   -1    0    0    0    0  0.00000000000E+00  0.00000000000E+00  0.45593999997E+02  0.45594000000E+02  0.51100000000E-03 0.  1.
         11   -1    0    0    0    0 -0.00000000000E+00 -0.00000000000E+00 -0.45593999997E+02  0.45594000000E+02  0.51100000000E-03 0. -1.
    9900012    2    1    2    0    0  0.30606426520E+02 -0.94597919048E+00 -0.33037331986E+02  0.46142317346E+02  0.99999962168E+01 0.  0.
        -12    1    1    2    0    0 -0.30606426520E+02  0.94597919048E+00  0.33037331986E+02  0.45045682654E+02  0.00000000000E+00 0.  1.
         11    1    3    3    0    0  0.92147068522E+01  0.18714525168E+01 -0.89781014700E+01  0.13000748562E+02  0.51100000000E-03 0. -1.
        -11    1    3    3    0    0  0.45392129399E+01  0.15620528850E+01 -0.86373052924E+01  0.98816752783E+01  0.51100000000E-03 0.  1.
        -12    1    3    3    0    0  0.16852506728E+02 -0.43794845923E+01 -0.15421925224E+02  0.23259893506E+02  0.00000000000E+00 0.  1.
</event>
<event>
 7    1  0.1541705E-008  0.4614232E+02  0.7816164E-02  0.1320468E+00
        -11   -1    0    0    0    0  0.00000000000E+00  0.00000000000E+00  0.45593999997E+02  0.45594000000E+02  0.51100000000E-03 0.  1.
         11   -1    0    0    0    0 -0.00000000000E+00 -0.00000000000E+00 -0.45593999997E+02  0.45594000000E+02  0.51100000000E-03 0. -1.
    9900012    2    1    2    0    0 -0.24848222649E+02 -0.27608740648E+02 -0.25484044879E+02  0.46142320159E+02  0.10000021864E+02 0.  0.
        -12    1    1    2    0    0  0.24848222649E+02  0.27608740648E+02  0.25484044879E+02  0.45045679841E+02  0.00000000000E+00 0.  1.
         11    1    3    3    0    0 -0.93932203235E+01 -0.78708428180E+01 -0.63572617226E+01  0.13805706486E+02  0.51100000000E-03 0.  1.
        -11    1    3    3    0    0 -0.41131285467E+01 -0.27094887773E+01 -0.10521550363E+01  0.50364855164E+01  0.51100000000E-03 0. -1.
         12    1    3    3    0    0 -0.11341873779E+02 -0.17028409052E+02 -0.18074628120E+02  0.27300128156E+02  0.00000000000E+00 0. -1.
</event>
<event>
 7    1  0.1541705E-008  0.4614232E+02  0.7816164E-02  0.1320468E+00
        -11   -1    0    0    0    0  0.00000000000E+00  0.00000000000E+00  0.45593999997E+02  0.45594000000E+02  0.51100000000E-03 0.  1.
         11   -1    0    0    0    0 -0.00000000000E+00 -0.00000000000E+00 -0.45593999997E+02  0.45594000000E+02  0.51100000000E-03 0. -1.
    9900012    2    1    2    0    0 -0.31808424550E+02 -0.27447759150E+02 -0.16246787036E+02  0.46142318257E+02  0.10000004519E+02 0.  0.
        -12    1    1    2    0    0  0.31808424550E+02  0.27447759150E+02  0.16246787036E+02  0.45045681743E+02  0.00000000000E+00 0.  1.
         11    1    3    3    0    0 -0.10037261397E+02 -0.43358600215E+01 -0.34461683955E+01  0.11463959846E+02  0.51100000000E-03 0. -1.
        -11    1    3    3    0    0 -0.12196391955E+01 -0.57858543006E-01  0.61586308051E-01  0.12225630915E+01  0.51100000000E-03 0.  1.
         12    1    3    3    0    0 -0.20551523958E+02 -0.23054040586E+02 -0.12862204949E+02  0.33455795320E+02  0.00000000000E+00 0. -1.
</event>
<event>
 7    1  0.1541705E-008  0.4614232E+02  0.7816164E-02  0.1320468E+00
        -11   -1    0    0    0    0  0.00000000000E+00  0.00000000000E+00  0.45593999997E+02  0.45594000000E+02  0.51100000000E-03 0.  1.
         11   -1    0    0    0    0 -0.00000000000E+00 -0.00000000000E+00 -0.45593999997E+02  0.45594000000E+02  0.51100000000E-03 0. -1.
    9900012    2    1    2    0    0  0.28673158819E+02 -0.19482047711E+02 -0.28764793339E+02  0.46142317016E+02  0.99999932035E+01 0.  0.
        -12    1    1    2    0    0 -0.28673158819E+02  0.19482047711E+02  0.28764793339E+02  0.45045682984E+02  0.00000000000E+00 0.  1.
         11    1    3    3    0    0  0.36562119650E+01 -0.66204659999E+01 -0.41744754881E+01  0.86385590147E+01  0.51100000000E-03 0.  1.
        -11    1    3    3    0    0  0.15663238880E+02 -0.91306562955E+01 -0.14152564046E+02  0.23000021869E+02  0.51100000000E-03 0. -1.
         12    1    3    3    0    0  0.93537079731E+01 -0.37309254157E+01 -0.10437753805E+02  0.14503736132E+02  0.00000000000E+00 0. -1.
</event>
<event>
 7    1  0.1541705E-008  0.4614232E+02  0.7816164E-02  0.1320468E+00
        -11   -1    0    0    0    0  0.00000000000E+00  0.00000000000E+00  0.45593999997E+02  0.45594000000E+02  0.51100000000E-03 0.  1.
         11   -1    0    0    0    0 -0.00000000000E+00 -0.00000000000E+00 -0.45593999997E+02  0.45594000000E+02  0.51100000000E-03 0. -1.
    9900012    2    1    2    0    0 -0.77666135886E+01  0.23003281665E+02 -0.37942617645E+02  0.46142317768E+02  0.10000000063E+02 0.  0.
        -12    1    1    2    0    0  0.77666135886E+01 -0.23003281665E+02  0.37942617645E+02  0.45045682232E+02  0.00000000000E+00 0.  1.
         11    1    3    3    0    0 -0.45998081583E+01  0.25553058165E+01 -0.91421056136E+01  0.10548266124E+02  0.51100000000E-03 0.  1.
        -11    1    3    3    0    0 -0.14991981217E+01  0.55610145459E+01 -0.60370058938E+01  0.83437352673E+01  0.51100000000E-03 0. -1.
         12    1    3    3    0    0 -0.16676073086E+01  0.14886961302E+02 -0.22763506138E+02  0.27250316377E+02  0.00000000000E+00 0. -1.
</event>
<event>
 7    1  0.1541705E-008  0.4614232E+02  0.7816164E-02  0.1320468E+00
        -11   -1    0    0    0    0  0.00000000000E+00  0.00000000000E+00  0.45593999997E+02  0.45594000000E+02  0.51100000000E-03 0.  1.
         11   -1    0    0    0    0 -0.00000000000E+00 -0.00000000000E+00 -0.45593999997E+02  0.45594000000E+02  0.51100000000E-03 0. -1.
    9900012    2    1    2    0    0  0.71495197116E+01  0.43923061045E+02 -0.69830243361E+01  0.46142317049E+02  0.99999935036E+01 0.  0.
        -12    1    1    2    0    0 -0.71495197116E+01 -0.43923061045E+02  0.69830243361E+01  0.45045682951E+02  0.00000000000E+00 0.  1.
         11    1    3    3    0    0  0.18114732814E+01  0.88848871859E+01  0.24790676467E+01  0.94004485219E+01  0.51100000000E-03 0.  1.
        -11    1    3    3    0    0  0.44824972368E+01  0.25824896468E+02 -0.62355825733E+01  0.26942541628E+02  0.51100000000E-03 0. -1.
        -12    1    3    3    0    0  0.85554919342E+00  0.92132773909E+01 -0.32265094096E+01  0.97993268990E+01  0.00000000000E+00 0.  1.
</event>
<event>
 7    1  0.1541705E-008  0.4614232E+02  0.7816164E-02  0.1320468E+00
        -11   -1    0    0    0    0  0.00000000000E+00  0.00000000000E+00  0.45593999997E+02  0.45594000000E+02  0.51100000000E-03 0.  1.
         11   -1    0    0    0    0 -0.00000000000E+00 -0.00000000000E+00 -0.45593999997E+02  0.45594000000E+02  0.51100000000E-03 0. -1.
    9900012    2    1    2    0    0  0.15831815086E+01 -0.33361689612E+02 -0.30225888172E+02  0.46142321925E+02  0.10000037972E+02 0.  0.
        -12    1    1    2    0    0 -0.15831815086E+01  0.33361689612E+02  0.30225888172E+02  0.45045678075E+02  0.00000000000E+00 0.  1.
         11    1    3    3    0    0  0.35792634459E+01 -0.27755087450E+02 -0.22494748067E+02  0.35905009358E+02  0.51100000000E-03 0. -1.
        -11    1    3    3    0    0 -0.23641972178E+01 -0.55851660014E+01 -0.77807283778E+01  0.98652542846E+01  0.51100000000E-03 0.  1.
         12    1    3    3    0    0  0.36811528050E+00 -0.21436160797E-01  0.49588273298E-01  0.37205828250E+00  0.00000000000E+00 0. -1.
</event>
<event>
 7    1  0.1541705E-008  0.4614232E+02  0.7816164E-02  0.1320468E+00
        -11   -1    0    0    0    0  0.00000000000E+00  0.00000000000E+00  0.45593999997E+02  0.45594000000E+02  0.51100000000E-03 0.  1.
         11   -1    0    0    0    0 -0.00000000000E+00 -0.00000000000E+00 -0.45593999997E+02  0.45594000000E+02  0.51100000000E-03 0. -1.
    9900012    2    1    2    0    0 -0.10943256506E+02  0.26720041522E+02 -0.34574526132E+02  0.46142319417E+02  0.10000015102E+02 0.  0.
        -12    1    1    2    0    0  0.10943256506E+02 -0.26720041522E+02  0.34574526132E+02  0.45045680583E+02  0.00000000000E+00 0.  1.
         11    1    3    3    0    0 -0.92100565292E+01  0.13859605419E+02 -0.17984447412E+02  0.24502125471E+02  0.51100000000E-03 0. -1.
        -11    1    3    3    0    0 -0.57803797551E+00  0.81472724621E+01 -0.13818303912E+02  0.16051719526E+02  0.51100000000E-03 0.  1.
        -12    1    3    3    0    0 -0.11551620011E+01  0.47131636414E+01 -0.27717748088E+01  0.55884744207E+01  0.00000000000E+00 0.  1.
</event>
<event>
 7    1  0.1541705E-008  0.4614232E+02  0.7816164E-02  0.1320468E+00
        -11   -1    0    0    0    0  0.00000000000E+00  0.00000000000E+00  0.45593999997E+02  0.45594000000E+02  0.51100000000E-03 0.  1.
         11   -1    0    0    0    0 -0.00000000000E+00 -0.00000000000E+00 -0.45593999997E+02  0.45594000000E+02  0.51100000000E-03 0. -1.
    9900012    2    1    2    0    0  0.14436298582E+01  0.27057112283E+02 -0.35985304300E+02  0.46142317434E+02  0.99999970210E+01 0.  0.
        -12    1    1    2    0    0 -0.14436298582E+01 -0.27057112283E+02  0.35985304300E+02  0.45045682566E+02  0.00000000000E+00 0.  1.
         11    1    3    3    0    0 -0.22135663664E+01  0.12047243261E+02 -0.13242738428E+02  0.18039015150E+02  0.51100000000E-03 0. -1.
        -11    1    3    3    0    0  0.12989857481E+01  0.30523342257E-01 -0.24213742460E+01  0.27479718246E+01  0.51100000000E-03 0.  1.
         12    1    3    3    0    0  0.23582104765E+01  0.14979345680E+02 -0.20321191625E+02  0.25355330460E+02  0.00000000000E+00 0. -1.
</event>
<event>
 7    1  0.1541705E-008  0.4614232E+02  0.7816164E-02  0.1320468E+00
        -11   -1    0    0    0    0  0.00000000000E+00  0.00000000000E+00  0.45593999997E+02  0.45594000000E+02  0.51100000000E-03 0.  1.
         11   -1    0    0    0    0 -0.00000000000E+00 -0.00000000000E+00 -0.45593999997E+02  0.45594000000E+02  0.51100000000E-03 0. -1.
    9900012    2    1    2    0    0  0.44797476159E+02 -0.46648737373E+01  0.73385171394E+00  0.46142318126E+02  0.10000003324E+02 0.  0.
        -12    1    1    2    0    0 -0.44797476159E+02  0.46648737373E+01 -0.73385171394E+00  0.45045681874E+02  0.00000000000E+00 0.  1.
         11    1    3    3    0    0  0.17783418289E+02 -0.46724915464E+01 -0.22137389056E+01  0.18519794370E+02  0.51100000000E-03 0.  1.
        -11    1    3    3    0    0  0.26444803278E+02  0.71453298968E+00  0.24013881327E+01  0.26563223506E+02  0.51100000000E-03 0. -1.
         12    1    3    3    0    0  0.56925459174E+00 -0.70691518059E+00  0.54620248689E+00  0.10593002499E+01  0.00000000000E+00 0. -1.
</event>
<event>
 7    1  0.1541705E-008  0.4614232E+02  0.7816164E-02  0.1320468E+00
        -11   -1    0    0    0    0  0.00000000000E+00  0.00000000000E+00  0.45593999997E+02  0.45594000000E+02  0.51100000000E-03 0.  1.
         11   -1    0    0    0    0 -0.00000000000E+00 -0.00000000000E+00 -0.45593999997E+02  0.45594000000E+02  0.51100000000E-03 0. -1.
    9900012    2    1    2    0    0  0.19459377519E+02  0.24916428072E+02 -0.32087656181E+02  0.46142318293E+02  0.10000004850E+02 0.  0.
        -12    1    1    2    0    0 -0.19459377519E+02 -0.24916428072E+02  0.32087656181E+02  0.45045681707E+02  0.00000000000E+00 0.  1.
         11    1    3    3    0    0  0.41538893507E+01  0.52984535398E+01 -0.11433437698E+02  0.13268455242E+02  0.51100000000E-03 0.  1.
        -11    1    3    3    0    0  0.22484183139E+01  0.72432946541E+01 -0.59584776759E+01  0.96449032569E+01  0.51100000000E-03 0. -1.
         12    1    3    3    0    0  0.13057069854E+02  0.12374679878E+02 -0.14695740807E+02  0.23228959794E+02  0.00000000000E+00 0. -1.
</event>
<event>
 7    1  0.1541705E-008  0.4614232E+02  0.7816164E-02  0.1320468E+00
        -11   -1    0    0    0    0  0.00000000000E+00  0.00000000000E+00  0.45593999997E+02  0.45594000000E+02  0.51100000000E-03 0.  1.
         11   -1    0    0    0    0 -0.00000000000E+00 -0.00000000000E+00 -0.45593999997E+02  0.45594000000E+02  0.51100000000E-03 0. -1.
    9900012    2    1    2    0    0 -0.16294140032E+02  0.66026939335E+01 -0.41473110899E+02  0.46142317696E+02  0.99999994047E+01 0.  0.
        -12    1    1    2    0    0  0.16294140032E+02 -0.66026939335E+01  0.41473110899E+02  0.45045682304E+02  0.00000000000E+00 0.  1.
         11    1    3    3    0    0 -0.28956377729E+01  0.71096030722E+00 -0.95002403035E+01  0.99571456128E+01  0.51100000000E-03 0. -1.
        -11    1    3    3    0    0  0.57212863648E+00  0.23770191936E+01 -0.61059209723E+01  0.65772199754E+01  0.51100000000E-03 0.  1.
        -12    1    3    3    0    0 -0.13970630896E+02  0.35147144327E+01 -0.25866949624E+02  0.29607952108E+02  0.00000000000E+00 0.  1.
</event>
<event>
 7    1  0.1541705E-008  0.4614232E+02  0.7816164E-02  0.1320468E+00
        -11   -1    0    0    0    0  0.00000000000E+00  0.00000000000E+00  0.45593999997E+02  0.45594000000E+02  0.51100000000E-03 0.  1.
         11   -1    0    0    0    0 -0.00000000000E+00 -0.00000000000E+00 -0.45593999997E+02  0.45594000000E+02  0.51100000000E-03 0. -1.
    9900012    2    1    2    0    0 -0.12346721094E+01 -0.28963698440E+02 -0.34477429730E+02  0.46142318705E+02  0.10000008604E+02 0.  0.
        -12    1    1    2    0    0  0.12346721094E+01  0.28963698440E+02  0.34477429730E+02  0.45045681295E+02  0.00000000000E+00 0.  1.
         11    1    3    3    0    0  0.28022294103E+01 -0.80996394848E+01 -0.70214153894E+01  0.11079572365E+02  0.51100000000E-03 0. -1.
        -11    1    3    3    0    0 -0.39504626897E+01 -0.83920035792E+01 -0.13003566517E+02  0.15972621011E+02  0.51100000000E-03 0.  1.
         12    1    3    3    0    0 -0.86438830020E-01 -0.12472055376E+02 -0.14452447824E+02  0.19090125329E+02  0.00000000000E+00 0. -1.
</event>
<event>
 7    1  0.1541705E-008  0.4614232E+02  0.7816164E-02  0.1320468E+00
        -11   -1    0    0    0    0  0.00000000000E+00  0.00000000000E+00  0.45593999997E+02  0.45594000000E+02  0.51100000000E-03 0.  1.
         11   -1    0    0    0    0 -0.00000000000E+00 -0.00000000000E+00 -0.45593999997E+02  0.45594000000E+02  0.51100000000E-03 0. -1.
    9900012    2    1    2    0    0  0.17078761438E+02 -0.70299964146E+01 -0.41085380816E+02  0.46142318091E+02  0.10000003011E+02 0.  0.
        -12    1    1    2    0    0 -0.17078761438E+02  0.70299964146E+01  0.41085380816E+02  0.45045681909E+02  0.00000000000E+00 0.  1.
         11    1    3    3    0    0  0.79616429990E+01 -0.28713280045E+01 -0.99132505393E+01  0.13034754323E+02  0.51100000000E-03 0. -1.
        -11    1    3    3    0    0  0.19132502519E+01  0.71851891941E+00 -0.30568459802E+01  0.36771053251E+01  0.51100000000E-03 0.  1.
         12    1    3    3    0    0  0.72038681873E+01 -0.48771873295E+01 -0.28115284296E+02  0.29430458443E+02  0.00000000000E+00 0. -1.
</event>
<event>
 7    1  0.1541705E-008  0.4614232E+02  0.7816164E-02  0.1320468E+00
        -11   -1    0    0    0    0  0.00000000000E+00  0.00000000000E+00  0.45593999997E+02  0.45594000000E+02  0.51100000000E-03 0.  1.
         11   -1    0    0    0    0 -0.00000000000E+00 -0.00000000000E+00 -0.45593999997E+02  0.45594000000E+02  0.51100000000E-03 0. -1.
    9900012    2    1    2    0    0  0.18880567868E+02 -0.18858065804E+02 -0.36290646708E+02  0.46142317329E+02  0.99999960572E+01 0.  0.
        -12    1    1    2    0    0 -0.18880567868E+02  0.18858065804E+02  0.36290646708E+02  0.45045682671E+02  0.00000000000E+00 0.  1.
         11    1    3    3    0    0  0.51392603299E+01 -0.90760191018E+01 -0.12456996269E+02  0.16246934350E+02  0.51100000000E-03 0. -1.
        -11    1    3    3    0    0  0.95259999171E+01 -0.45770093284E+01 -0.10114904268E+02  0.14628908962E+02  0.51100000000E-03 0.  1.
         12    1    3    3    0    0  0.42153076208E+01 -0.52050373734E+01 -0.13718746170E+02  0.15266474016E+02  0.00000000000E+00 0. -1.
</event>
<event>
 7    1  0.1541705E-008  0.4614232E+02  0.7816164E-02  0.1320468E+00
        -11   -1    0    0    0    0  0.00000000000E+00  0.00000000000E+00  0.45593999997E+02  0.45594000000E+02  0.51100000000E-03 0. -1.
         11   -1    0    0    0    0 -0.00000000000E+00 -0.00000000000E+00 -0.45593999997E+02  0.45594000000E+02  0.51100000000E-03 0.  1.
    9900012    2    1    2    0    0 -0.17009910895E+02 -0.14466024565E+02  0.39121735980E+02  0.46142321390E+02  0.10000033088E+02 0.  0.
        -12    1    1    2    0    0  0.17009910895E+02  0.14466024565E+02 -0.39121735980E+02  0.45045678610E+02  0.00000000000E+00 0.  1.
         11    1    3    3    0    0 -0.13663634150E+02 -0.11695570139E+02  0.35298948120E+02  0.39616877687E+02  0.51100000000E-03 0. -1.
        -11    1    3    3    0    0 -0.14614901294E+01 -0.69264018244E+00 -0.19092505605E+00  0.16285442760E+01  0.51100000000E-03 0.  1.
        -12    1    3    3    0    0 -0.18847866163E+01 -0.20778142435E+01  0.40137129158E+01  0.48968994262E+01  0.00000000000E+00 0.  1.
</event>
<event>
 7    1  0.1541705E-008  0.4614232E+02  0.7816164E-02  0.1320468E+00
        -11   -1    0    0    0    0  0.00000000000E+00  0.00000000000E+00  0.45593999997E+02  0.45594000000E+02  0.51100000000E-03 0.  1.
         11   -1    0    0    0    0 -0.00000000000E+00 -0.00000000000E+00 -0.45593999997E+02  0.45594000000E+02  0.51100000000E-03 0. -1.
    9900012    2    1    2    0    0  0.15130035200E+02  0.15326798405E+01 -0.42401018814E+02  0.46142317975E+02  0.10000001947E+02 0.  0.
        -12    1    1    2    0    0 -0.15130035200E+02 -0.15326798405E+01  0.42401018814E+02  0.45045682025E+02  0.00000000000E+00 0.  1.
         11    1    3    3    0    0  0.73226955707E+01  0.16220107769E+01 -0.21795802422E+02  0.23050158196E+02  0.51100000000E-03 0. -1.
        -11    1    3    3    0    0 -0.59588278936E+00  0.15277167139E+01 -0.18207647511E+01  0.24503426693E+01  0.51100000000E-03 0.  1.
         12    1    3    3    0    0  0.84032224184E+01 -0.16170476504E+01 -0.18784451642E+02  0.20641817110E+02  0.00000000000E+00 0. -1.
</event>
<event>
 7    1  0.1541705E-008  0.4614232E+02  0.7816164E-02  0.1320468E+00
        -11   -1    0    0    0    0  0.00000000000E+00  0.00000000000E+00  0.45593999997E+02  0.45594000000E+02  0.51100000000E-03 0.  1.
         11   -1    0    0    0    0 -0.00000000000E+00 -0.00000000000E+00 -0.45593999997E+02  0.45594000000E+02  0.51100000000E-03 0. -1.
    9900012    2    1    2    0    0  0.39939534592E+02 -0.19309775517E+02 -0.78153405755E+01  0.46142318718E+02  0.10000008721E+02 0.  0.
        -12    1    1    2    0    0 -0.39939534592E+02  0.19309775517E+02  0.78153405755E+01  0.45045681282E+02  0.00000000000E+00 0.  1.
         11    1    3    3    0    0  0.23289179967E+02 -0.10738475730E+02 -0.31351587509E+01  0.25836601657E+02  0.51100000000E-03 0. -1.
        -11    1    3    3    0    0  0.12681565467E+02 -0.92948852469E+01 -0.38301560271E+01  0.16182925876E+02  0.51100000000E-03 0.  1.
        -12    1    3    3    0    0  0.39687891580E+01  0.72358546014E+00 -0.85002579737E+00  0.41227911850E+01  0.00000000000E+00 0.  1.
</event>
<event>
 7    1  0.1541705E-008  0.4614232E+02  0.7816164E-02  0.1320468E+00
        -11   -1    0    0    0    0  0.00000000000E+00  0.00000000000E+00  0.45593999997E+02  0.45594000000E+02  0.51100000000E-03 0.  1.
         11   -1    0    0    0    0 -0.00000000000E+00 -0.00000000000E+00 -0.45593999997E+02  0.45594000000E+02  0.51100000000E-03 0. -1.
    9900012    2    1    2    0    0  0.16955709913E+02 -0.29726258019E+02 -0.29291073045E+02  0.46142317914E+02  0.10000001390E+02 0.  0.
        -12    1    1    2    0    0 -0.16955709913E+02  0.29726258019E+02  0.29291073045E+02  0.45045682086E+02  0.00000000000E+00 0.  1.
         11    1    3    3    0    0  0.10631625664E+02 -0.12276568080E+02 -0.18615217496E+02  0.24703682129E+02  0.51100000000E-03 0. -1.
        -11    1    3    3    0    0  0.53115522930E+01 -0.15322963700E+02 -0.89952638150E+01  0.18545095731E+02  0.51100000000E-03 0.  1.
         12    1    3    3    0    0  0.10125319560E+01 -0.21267262396E+01 -0.16805917344E+01  0.28935400529E+01  0.00000000000E+00 0. -1.
</event>
<event>
 7    1  0.1541705E-008  0.4614232E+02  0.7816164E-02  0.1320468E+00
        -11   -1    0    0    0    0  0.00000000000E+00  0.00000000000E+00  0.45593999997E+02  0.45594000000E+02  0.51100000000E-03 0. -1.
         11   -1    0    0    0    0 -0.00000000000E+00 -0.00000000000E+00 -0.45593999997E+02  0.45594000000E+02  0.51100000000E-03 0.  1.
    9900012    2    1    2    0    0  0.20352826107E+02 -0.39652220693E+02 -0.65251275212E+01  0.46142318458E+02  0.10000006355E+02 0.  0.
        -12    1    1    2    0    0 -0.20352826107E+02  0.39652220693E+02  0.65251275212E+01  0.45045681542E+02  0.00000000000E+00 0.  1.
         11    1    3    3    0    0  0.19487185313E+01 -0.11173594965E+02 -0.28579965529E+00  0.11345854312E+02  0.51100000000E-03 0. -1.
        -11    1    3    3    0    0  0.38529474208E+01 -0.41442772696E+01 -0.25418184265E+01  0.62033119452E+01  0.51100000000E-03 0.  1.
        -12    1    3    3    0    0  0.14551160155E+02 -0.24334348458E+02 -0.36975094395E+01  0.28593152201E+02  0.00000000000E+00 0.  1.
</event>
<event>
 7    1  0.1541705E-008  0.4614232E+02  0.7816164E-02  0.1320468E+00
        -11   -1    0    0    0    0  0.00000000000E+00  0.00000000000E+00  0.45593999997E+02  0.45594000000E+02  0.51100000000E-03 0.  1.
         11   -1    0    0    0    0 -0.00000000000E+00 -0.00000000000E+00 -0.45593999997E+02  0.45594000000E+02  0.51100000000E-03 0. -1.
    9900012    2    1    2    0    0 -0.31581046052E+01 -0.23668507147E+02 -0.38196095035E+02  0.46142317286E+02  0.99999956673E+01 0.  0.
        -12    1    1    2    0    0  0.31581046052E+01  0.23668507147E+02  0.38196095035E+02  0.45045682714E+02  0.00000000000E+00 0.  1.
         11    1    3    3    0    0 -0.19386568727E+01 -0.18986164753E+02 -0.33567620244E+02  0.38613701863E+02  0.51100000000E-03 0. -1.
        -11    1    3    3    0    0 -0.13086719198E+01 -0.63361008179E-01 -0.86651763730E+00  0.15708245885E+01  0.51100000000E-03 0.  1.
         12    1    3    3    0    0  0.89224187300E-01 -0.46189813856E+01 -0.37619571540E+01  0.59577908342E+01  0.00000000000E+00 0. -1.
</event>
<event>
 7    1  0.1541705E-008  0.4614232E+02  0.7816164E-02  0.1320468E+00
        -11   -1    0    0    0    0  0.00000000000E+00  0.00000000000E+00  0.45593999997E+02  0.45594000000E+02  0.51100000000E-03 0. -1.
         11   -1    0    0    0    0 -0.00000000000E+00 -0.00000000000E+00 -0.45593999997E+02  0.45594000000E+02  0.51100000000E-03 0.  1.
    9900012    2    1    2    0    0  0.22362880541E+02  0.37766972449E+02  0.10132662076E+02  0.46142317912E+02  0.10000001372E+02 0.  0.
        -12    1    1    2    0    0 -0.22362880541E+02 -0.37766972449E+02 -0.10132662076E+02  0.45045682088E+02  0.00000000000E+00 0.  1.
         11    1    3    3    0    0  0.14577785800E+01  0.43862362968E+01  0.14483195520E+01  0.48437399833E+01  0.51100000000E-03 0. -1.
        -11    1    3    3    0    0  0.84181044024E+01  0.11003759334E+02 -0.10324487798E+01  0.13892917331E+02  0.51100000000E-03 0.  1.
        -12    1    3    3    0    0  0.12486997558E+02  0.22376976818E+02  0.97167913033E+01  0.27405660597E+02  0.00000000000E+00 0.  1.
</event>
<event>
 7    1  0.1541705E-008  0.4614232E+02  0.7816164E-02  0.1320468E+00
        -11   -1    0    0    0    0  0.00000000000E+00  0.00000000000E+00  0.45593999997E+02  0.45594000000E+02  0.51100000000E-03 0. -1.
         11   -1    0    0    0    0 -0.00000000000E+00 -0.00000000000E+00 -0.45593999997E+02  0.45594000000E+02  0.51100000000E-03 0.  1.
    9900012    2    1    2    0    0 -0.35549555849E+02  0.26877488990E+02 -0.65530992767E+01  0.46142318236E+02  0.10000004330E+02 0.  0.
        -12    1    1    2    0    0  0.35549555849E+02 -0.26877488990E+02  0.65530992767E+01  0.45045681764E+02  0.00000000000E+00 0.  1.
         11    1    3    3    0    0 -0.38349130719E+01  0.53020951105E+01 -0.13555197271E+01  0.66825298220E+01  0.51100000000E-03 0. -1.
        -11    1    3    3    0    0 -0.28111100221E+02  0.16384071629E+02 -0.60122612773E+01  0.33088049878E+02  0.51100000000E-03 0.  1.
        -12    1    3    3    0    0 -0.36035425566E+01  0.51913222497E+01  0.81468172776E+00  0.63717385363E+01  0.00000000000E+00 0.  1.
</event>
<event>
 7    1  0.1541705E-008  0.4614232E+02  0.7816164E-02  0.1320468E+00
        -11   -1    0    0    0    0  0.00000000000E+00  0.00000000000E+00  0.45593999997E+02  0.45594000000E+02  0.51100000000E-03 0. -1.
         11   -1    0    0    0    0 -0.00000000000E+00 -0.00000000000E+00 -0.45593999997E+02  0.45594000000E+02  0.51100000000E-03 0.  1.
    9900012    2    1    2    0    0  0.27356636544E+02  0.15746435008E+02 -0.32136858379E+02  0.46142318243E+02  0.10000004398E+02 0.  0.
        -12    1    1    2    0    0 -0.27356636544E+02 -0.15746435008E+02  0.32136858379E+02  0.45045681757E+02  0.00000000000E+00 0.  1.
         11    1    3    3    0    0  0.79856596871E-01 -0.14252245508E+00  0.56820969389E+00  0.59122943399E+00  0.51100000000E-03 0.  1.
        -11    1    3    3    0    0  0.19858215386E+02  0.11180996967E+02 -0.25395362165E+02  0.34121662200E+02  0.51100000000E-03 0. -1.
         12    1    3    3    0    0  0.74185645605E+01  0.47079604966E+01 -0.73097059074E+01  0.11429426610E+02  0.00000000000E+00 0. -1.
</event>
<event>
 7    1  0.1541705E-008  0.4614232E+02  0.7816164E-02  0.1320468E+00
        -11   -1    0    0    0    0  0.00000000000E+00  0.00000000000E+00  0.45593999997E+02  0.45594000000E+02  0.51100000000E-03 0. -1.
         11   -1    0    0    0    0 -0.00000000000E+00 -0.00000000000E+00 -0.45593999997E+02  0.45594000000E+02  0.51100000000E-03 0.  1.
    9900012    2    1    2    0    0  0.15005345031E+02  0.19073374328E+02  0.37949433690E+02  0.46142317575E+02  0.99999982998E+01 0.  0.
        -12    1    1    2    0    0 -0.15005345031E+02 -0.19073374328E+02 -0.37949433690E+02  0.45045682425E+02  0.00000000000E+00 0.  1.
         11    1    3    3    0    0  0.12953255800E+01  0.72627938703E+01  0.84913029290E+01  0.11248478513E+02  0.51100000000E-03 0. -1.
        -11    1    3    3    0    0  0.12649094492E+01  0.74514266924E+00  0.62182980492E+00  0.15943356233E+01  0.51100000000E-03 0.  1.
         12    1    3    3    0    0  0.12445110002E+02  0.11065437788E+02  0.28836300956E+02  0.33299503439E+02  0.00000000000E+00 0. -1.
</event>
<event>
 7    1  0.1541705E-008  0.4614232E+02  0.7816164E-02  0.1320468E+00
        -11   -1    0    0    0    0  0.00000000000E+00  0.00000000000E+00  0.45593999997E+02  0.45594000000E+02  0.51100000000E-03 0.  1.
         11   -1    0    0    0    0 -0.00000000000E+00 -0.00000000000E+00 -0.45593999997E+02  0.45594000000E+02  0.51100000000E-03 0. -1.
    9900012    2    1    2    0    0  0.69459496212E+01  0.41676171279E+02 -0.15619345983E+02  0.46142318325E+02  0.10000005143E+02 0.  0.
        -12    1    1    2    0    0 -0.69459496212E+01 -0.41676171279E+02  0.15619345983E+02  0.45045681675E+02  0.00000000000E+00 0.  1.
         11    1    3    3    0    0  0.15871736245E+01  0.27185154922E+01  0.10184710963E+01  0.33085843243E+01  0.51100000000E-03 0.  1.
        -11    1    3    3    0    0  0.54875274057E+01  0.32280563991E+02 -0.13009654422E+02  0.35233490844E+02  0.51100000000E-03 0. -1.
         12    1    3    3    0    0 -0.12875140907E+00  0.66770917953E+01 -0.36281626574E+01  0.76002431564E+01  0.00000000000E+00 0. -1.
</event>
<event>
 7    1  0.1541705E-008  0.4614232E+02  0.7816164E-02  0.1320468E+00
        -11   -1    0    0    0    0  0.00000000000E+00  0.00000000000E+00  0.45593999997E+02  0.45594000000E+02  0.51100000000E-03 0.  1.
         11   -1    0    0    0    0 -0.00000000000E+00 -0.00000000000E+00 -0.45593999997E+02  0.45594000000E+02  0.51100000000E-03 0. -1.
    9900012    2    1    2    0    0  0.75867192627E+01  0.69990710521E+01 -0.43847100625E+02  0.46142317210E+02  0.99999949748E+01 0.  0.
        -12    1    1    2    0    0 -0.75867192627E+01 -0.69990710521E+01  0.43847100625E+02  0.45045682790E+02  0.00000000000E+00 0.  1.
         11    1    3    3    0    0  0.43485776177E+01  0.45052124513E+01 -0.11310591845E+02  0.12928130363E+02  0.51100000000E-03 0. -1.
        -11    1    3    3    0    0  0.23001556314E+01  0.41075701181E+00 -0.28339779940E+02  0.28435937905E+02  0.51100000000E-03 0.  1.
        -12    1    3    3    0    0  0.93798601364E+00  0.20831015890E+01 -0.41967288401E+01  0.47782489417E+01  0.00000000000E+00 0.  1.
</event>
<event>
 7    1  0.1541705E-008  0.4614232E+02  0.7816164E-02  0.1320468E+00
        -11   -1    0    0    0    0  0.00000000000E+00  0.00000000000E+00  0.45593999997E+02  0.45594000000E+02  0.51100000000E-03 0.  1.
         11   -1    0    0    0    0 -0.00000000000E+00 -0.00000000000E+00 -0.45593999997E+02  0.45594000000E+02  0.51100000000E-03 0. -1.
    9900012    2    1    2    0    0  0.12009334676E+02  0.18528550392E+02 -0.39262988190E+02  0.46142317181E+02  0.99999947121E+01 0.  0.
        -12    1    1    2    0    0 -0.12009334676E+02 -0.18528550392E+02  0.39262988190E+02  0.45045682819E+02  0.00000000000E+00 0.  1.
         11    1    3    3    0    0  0.45936924226E+01  0.11895731803E+02 -0.25756154723E+02  0.28740040911E+02  0.51100000000E-03 0. -1.
        -11    1    3    3    0    0  0.48726331416E+01  0.54773766905E+01 -0.62753259107E+01  0.96500738178E+01  0.51100000000E-03 0.  1.
         12    1    3    3    0    0  0.25430091119E+01  0.11554418991E+01 -0.72315075559E+01  0.77522024520E+01  0.00000000000E+00 0. -1.
</event>
<event>
 7    1  0.1541705E-008  0.4614232E+02  0.7816164E-02  0.1320468E+00
        -11   -1    0    0    0    0  0.00000000000E+00  0.00000000000E+00  0.45593999997E+02  0.45594000000E+02  0.51100000000E-03 0.  1.
         11   -1    0    0    0    0 -0.00000000000E+00 -0.00000000000E+00 -0.45593999997E+02  0.45594000000E+02  0.51100000000E-03 0. -1.
    9900012    2    1    2    0    0 -0.19913707661E+01  0.12488444017E+02 -0.43234090791E+02  0.46142318764E+02  0.10000009148E+02 0.  0.
        -12    1    1    2    0    0  0.19913707661E+01 -0.12488444017E+02  0.43234090791E+02  0.45045681236E+02  0.00000000000E+00 0.  1.
         11    1    3    3    0    0 -0.56686342754E+01  0.65669113232E+01 -0.25669158974E+02  0.27095450939E+02  0.51100000000E-03 0. -1.
        -11    1    3    3    0    0  0.23484887478E+01  0.22155303783E+01 -0.10156122912E+02  0.10656960501E+02  0.51100000000E-03 0.  1.
         12    1    3    3    0    0  0.13287747614E+01  0.37060023158E+01 -0.74088089047E+01  0.83899073247E+01  0.00000000000E+00 0. -1.
</event>
<event>
 7    1  0.1541705E-008  0.4614232E+02  0.7816164E-02  0.1320468E+00
        -11   -1    0    0    0    0  0.00000000000E+00  0.00000000000E+00  0.45593999997E+02  0.45594000000E+02  0.51100000000E-03 0. -1.
         11   -1    0    0    0    0 -0.00000000000E+00 -0.00000000000E+00 -0.45593999997E+02  0.45594000000E+02  0.51100000000E-03 0.  1.
    9900012    2    1    2    0    0 -0.40781575608E+01 -0.17352623062E+01  0.44827125785E+02  0.46142315295E+02  0.99999775121E+01 0.  0.
        -12    1    1    2    0    0  0.40781575608E+01  0.17352623062E+01 -0.44827125785E+02  0.45045684705E+02  0.00000000000E+00 0.  1.
         11    1    3    3    0    0 -0.49538313556E+01 -0.29587865056E+01  0.29632127512E+02  0.30188703911E+02  0.51100000000E-03 0. -1.
        -11    1    3    3    0    0 -0.10842473915E+01  0.23562776851E+01  0.84173239901E+01  0.88078930710E+01  0.51100000000E-03 0.  1.
         12    1    3    3    0    0  0.19599211864E+01 -0.11327534857E+01  0.67776742833E+01  0.71457183129E+01  0.00000000000E+00 0. -1.
</event>
<event>
 7    1  0.1541705E-008  0.4614232E+02  0.7816164E-02  0.1320468E+00
        -11   -1    0    0    0    0  0.00000000000E+00  0.00000000000E+00  0.45593999997E+02  0.45594000000E+02  0.51100000000E-03 0.  1.
         11   -1    0    0    0    0 -0.00000000000E+00 -0.00000000000E+00 -0.45593999997E+02  0.45594000000E+02  0.51100000000E-03 0. -1.
    9900012    2    1    2    0    0 -0.79440469826E+01 -0.19390505331E+02 -0.39874977384E+02  0.46142318733E+02  0.10000008863E+02 0.  0.
        -12    1    1    2    0    0  0.79440469826E+01  0.19390505331E+02  0.39874977384E+02  0.45045681267E+02  0.00000000000E+00 0.  1.
         11    1    3    3    0    0 -0.64163072954E+01 -0.46554493590E+01 -0.10162756110E+02  0.12888902981E+02  0.51100000000E-03 0.  1.
        -11    1    3    3    0    0 -0.14977774423E+01 -0.14178008429E+02 -0.27549420318E+02  0.31019829471E+02  0.51100000000E-03 0. -1.
        -12    1    3    3    0    0 -0.29962244943E-01 -0.55704754328E+00 -0.21628009559E+01  0.22335862813E+01  0.00000000000E+00 0.  1.
</event>
<event>
 7    1  0.1541705E-008  0.4614232E+02  0.7816164E-02  0.1320468E+00
        -11   -1    0    0    0    0  0.00000000000E+00  0.00000000000E+00  0.45593999997E+02  0.45594000000E+02  0.51100000000E-03 0.  1.
         11   -1    0    0    0    0 -0.00000000000E+00 -0.00000000000E+00 -0.45593999997E+02  0.45594000000E+02  0.51100000000E-03 0. -1.
    9900012    2    1    2    0    0  0.13294866095E+02 -0.57687958065E+01 -0.42650686698E+02  0.46142317129E+02  0.99999942349E+01 0.  0.
        -12    1    1    2    0    0 -0.13294866095E+02  0.57687958065E+01  0.42650686698E+02  0.45045682871E+02  0.00000000000E+00 0.  1.
         11    1    3    3    0    0  0.92916560911E+01  0.89214464808E+00 -0.25922350872E+02  0.27551752575E+02  0.51100000000E-03 0. -1.
        -11    1    3    3    0    0  0.90436484317E+00 -0.12910539736E+01 -0.16235037806E+01  0.22628435472E+01  0.51100000000E-03 0.  1.
         12    1    3    3    0    0  0.30988451612E+01 -0.53698864809E+01 -0.15104832045E+02  0.16327721006E+02  0.00000000000E+00 0. -1.
</event>
<event>
 7    1  0.1541705E-008  0.4614232E+02  0.7816164E-02  0.1320468E+00
        -11   -1    0    0    0    0  0.00000000000E+00  0.00000000000E+00  0.45593999997E+02  0.45594000000E+02  0.51100000000E-03 0. -1.
         11   -1    0    0    0    0 -0.00000000000E+00 -0.00000000000E+00 -0.45593999997E+02  0.45594000000E+02  0.51100000000E-03 0.  1.
    9900012    2    1    2    0    0 -0.11260929912E+02 -0.24614109729E+02  0.36006256782E+02  0.46142317991E+02  0.10000002096E+02 0.  0.
        -12    1    1    2    0    0  0.11260929912E+02  0.24614109729E+02 -0.36006256782E+02  0.45045682009E+02  0.00000000000E+00 0.  1.
         11    1    3    3    0    0 -0.43297914645E+01 -0.10612348049E+02  0.20688673462E+02  0.23651431989E+02  0.51100000000E-03 0. -1.
        -11    1    3    3    0    0 -0.15322542961E+01 -0.88615934978E+01  0.78090718094E+01  0.11910383929E+02  0.51100000000E-03 0.  1.
         12    1    3    3    0    0 -0.53988841516E+01 -0.51401681823E+01  0.75085115103E+01  0.10580502073E+02  0.00000000000E+00 0. -1.
</event>
<event>
 7    1  0.1541705E-008  0.4614232E+02  0.7816164E-02  0.1320468E+00
        -11   -1    0    0    0    0  0.00000000000E+00  0.00000000000E+00  0.45593999997E+02  0.45594000000E+02  0.51100000000E-03 0.  1.
         11   -1    0    0    0    0 -0.00000000000E+00 -0.00000000000E+00 -0.45593999997E+02  0.45594000000E+02  0.51100000000E-03 0. -1.
    9900012    2    1    2    0    0 -0.29105290048E+02  0.30529608591E+02 -0.15809434079E+02  0.46142321901E+02  0.10000037751E+02 0.  0.
        -12    1    1    2    0    0  0.29105290048E+02 -0.30529608591E+02  0.15809434079E+02  0.45045678099E+02  0.00000000000E+00 0.  1.
         11    1    3    3    0    0 -0.41125285461E+01  0.77450810285E+01 -0.13312939721E+01  0.88696964481E+01  0.51100000000E-03 0. -1.
        -11    1    3    3    0    0 -0.67523937996E+01  0.96701882251E+01 -0.62478369397E+01  0.13347015735E+02  0.51100000000E-03 0.  1.
         12    1    3    3    0    0 -0.18240367702E+02  0.13114339338E+02 -0.82303031671E+01  0.23925609718E+02  0.00000000000E+00 0. -1.
</event>
<event>
 7    1  0.1541705E-008  0.4614232E+02  0.7816164E-02  0.1320468E+00
        -11   -1    0    0    0    0  0.00000000000E+00  0.00000000000E+00  0.45593999997E+02  0.45594000000E+02  0.51100000000E-03 0.  1.
         11   -1    0    0    0    0 -0.00000000000E+00 -0.00000000000E+00 -0.45593999997E+02  0.45594000000E+02  0.51100000000E-03 0. -1.
    9900012    2    1    2    0    0  0.33710015871E+02 -0.55232882103E+01 -0.29363950692E+02  0.46142317821E+02  0.10000000549E+02 0.  0.
        -12    1    1    2    0    0 -0.33710015871E+02  0.55232882103E+01  0.29363950692E+02  0.45045682179E+02  0.00000000000E+00 0.  1.
         11    1    3    3    0    0  0.12898735990E+02 -0.11897431139E+01 -0.83757598562E+01  0.15425505899E+02  0.51100000000E-03 0. -1.
        -11    1    3    3    0    0  0.20898170889E+02 -0.30295951423E+01 -0.19907055031E+02  0.29020731099E+02  0.51100000000E-03 0.  1.
        -12    1    3    3    0    0 -0.86891007918E-01 -0.13039499541E+01 -0.10811358047E+01  0.16960808231E+01  0.00000000000E+00 0.  1.
</event>
<event>
 7    1  0.1541705E-008  0.4614232E+02  0.7816164E-02  0.1320468E+00
        -11   -1    0    0    0    0  0.00000000000E+00  0.00000000000E+00  0.45593999997E+02  0.45594000000E+02  0.51100000000E-03 0. -1.
         11   -1    0    0    0    0 -0.00000000000E+00 -0.00000000000E+00 -0.45593999997E+02  0.45594000000E+02  0.51100000000E-03 0.  1.
    9900012    2    1    2    0    0 -0.11904420805E+02  0.40621652972E+02  0.15403884121E+02  0.46142316845E+02  0.99999916490E+01 0.  0.
        -12    1    1    2    0    0  0.11904420805E+02 -0.40621652972E+02 -0.15403884121E+02  0.45045683155E+02  0.00000000000E+00 0.  1.
         11    1    3    3    0    0 -0.45780639623E+01  0.22627005837E+02  0.46218644097E+01  0.23543612588E+02  0.51100000000E-03 0. -1.
        -11    1    3    3    0    0 -0.11955557950E+01  0.60746182094E+01  0.51744415628E+01  0.80687784575E+01  0.51100000000E-03 0.  1.
         12    1    3    3    0    0 -0.61308010477E+01  0.11920028925E+02  0.56075781483E+01  0.14529925800E+02  0.00000000000E+00 0. -1.
</event>
<event>
 7    1  0.1541705E-008  0.4614232E+02  0.7816164E-02  0.1320468E+00
        -11   -1    0    0    0    0  0.00000000000E+00  0.00000000000E+00  0.45593999997E+02  0.45594000000E+02  0.51100000000E-03 0.  1.
         11   -1    0    0    0    0 -0.00000000000E+00 -0.00000000000E+00 -0.45593999997E+02  0.45594000000E+02  0.51100000000E-03 0. -1.
    9900012    2    1    2    0    0  0.89474483459E+01  0.24494530161E+01 -0.44080118899E+02  0.46142317253E+02  0.99999953649E+01 0.  0.
        -12    1    1    2    0    0 -0.89474483459E+01 -0.24494530161E+01  0.44080118899E+02  0.45045682747E+02  0.00000000000E+00 0.  1.
         11    1    3    3    0    0  0.22349271232E+01  0.21032926762E+00 -0.18830237314E+01  0.29300027784E+01  0.51100000000E-03 0. -1.
        -11    1    3    3    0    0  0.23473908125E+01 -0.69193978191E+00 -0.42625223429E+01  0.49150911765E+01  0.51100000000E-03 0.  1.
         12    1    3    3    0    0  0.43651304102E+01  0.29310635304E+01 -0.37934572825E+02  0.38297223298E+02  0.00000000000E+00 0. -1.
</event>
<event>
 7    1  0.1541705E-008  0.4614232E+02  0.7816164E-02  0.1320468E+00
        -11   -1    0    0    0    0  0.00000000000E+00  0.00000000000E+00  0.45593999997E+02  0.45594000000E+02  0.51100000000E-03 0.  1.
         11   -1    0    0    0    0 -0.00000000000E+00 -0.00000000000E+00 -0.45593999997E+02  0.45594000000E+02  0.51100000000E-03 0. -1.
    9900012    2    1    2    0    0  0.44605971370E+02 -0.46741204949E+01  0.41920628357E+01  0.46142317909E+02  0.10000001345E+02 0.  0.
        -12    1    1    2    0    0 -0.44605971370E+02  0.46741204949E+01 -0.41920628357E+01  0.45045682091E+02  0.00000000000E+00 0.  1.
         11    1    3    3    0    0  0.42130162711E+02 -0.65613191982E+01  0.40752758438E+01  0.42832340505E+02  0.51100000000E-03 0. -1.
        -11    1    3    3    0    0  0.21706756626E+01  0.15089711813E+01 -0.31187314975E+00  0.26619714463E+01  0.51100000000E-03 0.  1.
         12    1    3    3    0    0  0.30513299683E+00  0.37822752198E+00  0.42866014163E+00  0.64800595766E+00  0.00000000000E+00 0. -1.
</event>
<event>
 7    1  0.1541705E-008  0.4614232E+02  0.7816164E-02  0.1320468E+00
        -11   -1    0    0    0    0  0.00000000000E+00  0.00000000000E+00  0.45593999997E+02  0.45594000000E+02  0.51100000000E-03 0.  1.
         11   -1    0    0    0    0 -0.00000000000E+00 -0.00000000000E+00 -0.45593999997E+02  0.45594000000E+02  0.51100000000E-03 0. -1.
    9900012    2    1    2    0    0 -0.38341766335E+02 -0.11600534904E+02 -0.20602176753E+02  0.46142321597E+02  0.10000034982E+02 0.  0.
        -12    1    1    2    0    0  0.38341766335E+02  0.11600534904E+02  0.20602176753E+02  0.45045678403E+02  0.00000000000E+00 0.  1.
         11    1    3    3    0    0 -0.23857699093E+02 -0.48733465275E+01 -0.15801832486E+02  0.29028214250E+02  0.51100000000E-03 0. -1.
        -11    1    3    3    0    0 -0.11131869418E+02 -0.38660422395E+01 -0.21717281897E+01  0.11982537416E+02  0.51100000000E-03 0.  1.
         12    1    3    3    0    0 -0.33521978246E+01 -0.28611461373E+01 -0.26286160782E+01  0.51315699314E+01  0.00000000000E+00 0. -1.
</event>
<event>
 7    1  0.1541705E-008  0.4614232E+02  0.7816164E-02  0.1320468E+00
        -11   -1    0    0    0    0  0.00000000000E+00  0.00000000000E+00  0.45593999997E+02  0.45594000000E+02  0.51100000000E-03 0. -1.
         11   -1    0    0    0    0 -0.00000000000E+00 -0.00000000000E+00 -0.45593999997E+02  0.45594000000E+02  0.51100000000E-03 0.  1.
    9900012    2    1    2    0    0 -0.32866632817E+02  0.23955728087E+02 -0.19365459638E+02  0.46142317767E+02  0.10000000052E+02 0.  0.
        -12    1    1    2    0    0  0.32866632817E+02 -0.23955728087E+02  0.19365459638E+02  0.45045682233E+02  0.00000000000E+00 0.  1.
         11    1    3    3    0    0 -0.16116357970E+02  0.13836859165E+02 -0.14509307510E+02  0.25723834676E+02  0.51100000000E-03 0.  1.
        -11    1    3    3    0    0 -0.14684523221E+02  0.92774416927E+01 -0.52664263251E+01  0.18150520463E+02  0.51100000000E-03 0. -1.
        -12    1    3    3    0    0 -0.20657516259E+01  0.84142722907E+00  0.41027419755E+00  0.22679626273E+01  0.00000000000E+00 0.  1.
</event>
<event>
 7    1  0.1541705E-008  0.4614232E+02  0.7816164E-02  0.1320468E+00
        -11   -1    0    0    0    0  0.00000000000E+00  0.00000000000E+00  0.45593999997E+02  0.45594000000E+02  0.51100000000E-03 0. -1.
         11   -1    0    0    0    0 -0.00000000000E+00 -0.00000000000E+00 -0.45593999997E+02  0.45594000000E+02  0.51100000000E-03 0.  1.
    9900012    2    1    2    0    0  0.18111194871E+02  0.50313527369E+01  0.40936335745E+02  0.46142317918E+02  0.10000001432E+02 0.  0.
        -12    1    1    2    0    0 -0.18111194871E+02 -0.50313527369E+01 -0.40936335745E+02  0.45045682082E+02  0.00000000000E+00 0.  1.
         11    1    3    3    0    0  0.57449212735E+01  0.16976732608E+01  0.86251032203E+01  0.10501362805E+02  0.51100000000E-03 0. -1.
        -11    1    3    3    0    0  0.12196010825E+01  0.23062656678E+01  0.18785298838E+01  0.32148348195E+01  0.51100000000E-03 0.  1.
        -12    1    3    3    0    0  0.11146672515E+02  0.10274138082E+01  0.30432702640E+02  0.32426120294E+02  0.00000000000E+00 0.  1.
</event>
<event>
 7    1  0.1541705E-008  0.4614232E+02  0.7816164E-02  0.1320468E+00
        -11   -1    0    0    0    0  0.00000000000E+00  0.00000000000E+00  0.45593999997E+02  0.45594000000E+02  0.51100000000E-03 0. -1.
         11   -1    0    0    0    0 -0.00000000000E+00 -0.00000000000E+00 -0.45593999997E+02  0.45594000000E+02  0.51100000000E-03 0.  1.
    9900012    2    1    2    0    0  0.38192758781E+02 -0.18536151755E+02  0.15061136133E+02  0.46142316891E+02  0.99999920624E+01 0.  0.
        -12    1    1    2    0    0 -0.38192758781E+02  0.18536151755E+02 -0.15061136133E+02  0.45045683109E+02  0.00000000000E+00 0.  1.
         11    1    3    3    0    0  0.34285444036E+02 -0.14479525422E+02  0.12003648987E+02  0.39105446148E+02  0.51100000000E-03 0. -1.
        -11    1    3    3    0    0  0.22823295614E+01 -0.39984298422E+01  0.28055665409E+01  0.53914444545E+01  0.51100000000E-03 0.  1.
        -12    1    3    3    0    0  0.16249851831E+01 -0.58196490939E-01  0.25192060524E+00  0.16454262877E+01  0.00000000000E+00 0.  1.
</event>
<event>
 7    1  0.1541705E-008  0.4614232E+02  0.7816164E-02  0.1320468E+00
        -11   -1    0    0    0    0  0.00000000000E+00  0.00000000000E+00  0.45593999997E+02  0.45594000000E+02  0.51100000000E-03 0.  1.
         11   -1    0    0    0    0 -0.00000000000E+00 -0.00000000000E+00 -0.45593999997E+02  0.45594000000E+02  0.51100000000E-03 0. -1.
    9900012    2    1    2    0    0 -0.17201172110E+02  0.18653208318E+02 -0.37219498759E+02  0.46142316629E+02  0.99999896720E+01 0.  0.
        -12    1    1    2    0    0  0.17201172110E+02 -0.18653208318E+02  0.37219498759E+02  0.45045683371E+02  0.00000000000E+00 0.  1.
         11    1    3    3    0    0 -0.65453967141E+00  0.54813051446E+01 -0.70670899250E+01  0.89675464057E+01  0.51100000000E-03 0. -1.
        -11    1    3    3    0    0 -0.25125548019E+01  0.45300882351E+01 -0.58901565763E+01  0.78440152858E+01  0.51100000000E-03 0.  1.
         12    1    3    3    0    0 -0.14034077637E+02  0.86418149388E+01 -0.24262252258E+02  0.29330754937E+02  0.00000000000E+00 0. -1.
</event>
<event>
 7    1  0.1541705E-008  0.4614232E+02  0.7816164E-02  0.1320468E+00
        -11   -1    0    0    0    0  0.00000000000E+00  0.00000000000E+00  0.45593999997E+02  0.45594000000E+02  0.51100000000E-03 0.  1.
         11   -1    0    0    0    0 -0.00000000000E+00 -0.00000000000E+00 -0.45593999997E+02  0.45594000000E+02  0.51100000000E-03 0. -1.
    9900012    2    1    2    0    0  0.34923571781E+02  0.26333947841E+02 -0.10769441833E+02  0.46142317052E+02  0.99999935358E+01 0.  0.
        -12    1    1    2    0    0 -0.34923571781E+02 -0.26333947841E+02  0.10769441833E+02  0.45045682948E+02  0.00000000000E+00 0.  1.
         11    1    3    3    0    0  0.13935329082E+02  0.12371022956E+02 -0.78084488000E+01  0.20204145083E+02  0.51100000000E-03 0. -1.
        -11    1    3    3    0    0  0.12157632405E+02  0.59244081105E+01 -0.35492731877E+01  0.13982273691E+02  0.51100000000E-03 0.  1.
        -12    1    3    3    0    0  0.88306102937E+01  0.80385167748E+01  0.58828015468E+00  0.11955898278E+02  0.00000000000E+00 0.  1.
</event>
<event>
 7    1  0.1541705E-008  0.4614231E+02  0.7816164E-02  0.1320468E+00
        -11   -1    0    0    0    0  0.00000000000E+00  0.00000000000E+00  0.45593999997E+02  0.45594000000E+02  0.51100000000E-03 0.  1.
         11   -1    0    0    0    0 -0.00000000000E+00 -0.00000000000E+00 -0.45593999997E+02  0.45594000000E+02  0.51100000000E-03 0. -1.
    9900012    2    1    2    0    0 -0.24304279782E+02 -0.15074969656E+02 -0.34801745780E+02  0.46142309472E+02  0.99999244112E+01 0.  0.
        -12    1    1    2    0    0  0.24304279782E+02  0.15074969656E+02  0.34801745780E+02  0.45045690528E+02  0.00000000000E+00 0.  1.
         11    1    3    3    0    0 -0.18626879762E+02 -0.10852120739E+02 -0.28506061004E+02  0.35739679468E+02  0.51100000000E-03 0. -1.
        -11    1    3    3    0    0 -0.12079582626E+01  0.67828576410E+00 -0.22221600806E+01  0.26186314034E+01  0.51100000000E-03 0.  1.
         12    1    3    3    0    0 -0.44694417567E+01 -0.49011346804E+01 -0.40735246953E+01  0.77839986007E+01  0.00000000000E+00 0. -1.
</event>
<event>
 7    1  0.1541705E-008  0.4614232E+02  0.7816164E-02  0.1320468E+00
        -11   -1    0    0    0    0  0.00000000000E+00  0.00000000000E+00  0.45593999997E+02  0.45594000000E+02  0.51100000000E-03 0.  1.
         11   -1    0    0    0    0 -0.00000000000E+00 -0.00000000000E+00 -0.45593999997E+02  0.45594000000E+02  0.51100000000E-03 0. -1.
    9900012    2    1    2    0    0 -0.28898332618E+02 -0.16350949167E+02 -0.30440866155E+02  0.46142317643E+02  0.99999989196E+01 0.  0.
        -12    1    1    2    0    0  0.28898332618E+02  0.16350949167E+02  0.30440866155E+02  0.45045682357E+02  0.00000000000E+00 0.  1.
         11    1    3    3    0    0 -0.11274075611E+02 -0.50028080531E+01 -0.16243041430E+02  0.20395324574E+02  0.51100000000E-03 0. -1.
        -11    1    3    3    0    0 -0.93146958106E+01 -0.36398922850E+01 -0.51773809322E+01  0.11261334178E+02  0.51100000000E-03 0.  1.
         12    1    3    3    0    0 -0.83095611960E+01 -0.77082488292E+01 -0.90204437926E+01  0.14485658891E+02  0.00000000000E+00 0. -1.
</event>
<event>
 7    1  0.1541705E-008  0.4614232E+02  0.7816164E-02  0.1320468E+00
        -11   -1    0    0    0    0  0.00000000000E+00  0.00000000000E+00  0.45593999997E+02  0.45594000000E+02  0.51100000000E-03 0.  1.
         11   -1    0    0    0    0 -0.00000000000E+00 -0.00000000000E+00 -0.45593999997E+02  0.45594000000E+02  0.51100000000E-03 0. -1.
    9900012    2    1    2    0    0  0.36445470385E+02 -0.54527283623E+01 -0.25905771329E+02  0.46142317118E+02  0.99999941313E+01 0.  0.
        -12    1    1    2    0    0 -0.36445470385E+02  0.54527283623E+01  0.25905771329E+02  0.45045682882E+02  0.00000000000E+00 0.  1.
         11    1    3    3    0    0  0.40986948752E+01 -0.16918823942E+01 -0.64901236443E+01  0.78602462363E+01  0.51100000000E-03 0. -1.
        -11    1    3    3    0    0  0.17594321603E+02 -0.33725636764E+01 -0.79764992520E+01  0.19610172845E+02  0.51100000000E-03 0.  1.
         12    1    3    3    0    0  0.14752453906E+02 -0.38828229163E+00 -0.11439148433E+02  0.18671898036E+02  0.00000000000E+00 0. -1.
</event>
<event>
 7    1  0.1541705E-008  0.4614232E+02  0.7816164E-02  0.1320468E+00
        -11   -1    0    0    0    0  0.00000000000E+00  0.00000000000E+00  0.45593999997E+02  0.45594000000E+02  0.51100000000E-03 0. -1.
         11   -1    0    0    0    0 -0.00000000000E+00 -0.00000000000E+00 -0.45593999997E+02  0.45594000000E+02  0.51100000000E-03 0.  1.
    9900012    2    1    2    0    0 -0.39054578498E+02  0.57939897584E+01 -0.21686011620E+02  0.46142317422E+02  0.99999969035E+01 0.  0.
        -12    1    1    2    0    0  0.39054578498E+02 -0.57939897584E+01  0.21686011620E+02  0.45045682578E+02  0.00000000000E+00 0.  1.
         11    1    3    3    0    0 -0.18495210856E+02  0.51536923509E+01 -0.10878143693E+02  0.22067337400E+02  0.51100000000E-03 0. -1.
        -11    1    3    3    0    0 -0.40494717972E+01 -0.22120052936E+01 -0.35224484244E+01  0.58050695447E+01  0.51100000000E-03 0.  1.
        -12    1    3    3    0    0 -0.16509895845E+02  0.28523027011E+01 -0.72854195027E+01  0.18269910477E+02  0.00000000000E+00 0.  1.
</event>
<event>
 7    1  0.1541705E-008  0.4614232E+02  0.7816164E-02  0.1320468E+00
        -11   -1    0    0    0    0  0.00000000000E+00  0.00000000000E+00  0.45593999997E+02  0.45594000000E+02  0.51100000000E-03 0.  1.
         11   -1    0    0    0    0 -0.00000000000E+00 -0.00000000000E+00 -0.45593999997E+02  0.45594000000E+02  0.51100000000E-03 0. -1.
    9900012    2    1    2    0    0  0.34658692320E+02  0.28398263050E+01 -0.28632569736E+02  0.46142316339E+02  0.99999870360E+01 0.  0.
        -12    1    1    2    0    0 -0.34658692320E+02 -0.28398263050E+01  0.28632569736E+02  0.45045683661E+02  0.00000000000E+00 0.  1.
         11    1    3    3    0    0  0.18663389535E+02 -0.63024953582E+00 -0.11309895085E+02  0.21831927320E+02  0.51100000000E-03 0. -1.
        -11    1    3    3    0    0  0.14020335496E+01  0.13264489736E+01 -0.61988621111E+00  0.20271714603E+01  0.51100000000E-03 0.  1.
         12    1    3    3    0    0  0.14593269235E+02  0.21436268672E+01 -0.16702788440E+02  0.22283217559E+02  0.00000000000E+00 0. -1.
</event>
<event>
 7    1  0.1541705E-008  0.4614232E+02  0.7816164E-02  0.1320468E+00
        -11   -1    0    0    0    0  0.00000000000E+00  0.00000000000E+00  0.45593999997E+02  0.45594000000E+02  0.51100000000E-03 0.  1.
         11   -1    0    0    0    0 -0.00000000000E+00 -0.00000000000E+00 -0.45593999997E+02  0.45594000000E+02  0.51100000000E-03 0. -1.
    9900012    2    1    2    0    0 -0.25745718804E+02  0.10581926436E+02 -0.35416017386E+02  0.46142317728E+02  0.99999996972E+01 0.  0.
        -12    1    1    2    0    0  0.25745718804E+02 -0.10581926436E+02  0.35416017386E+02  0.45045682272E+02  0.00000000000E+00 0.  1.
         11    1    3    3    0    0 -0.17823070192E+02  0.21785651520E+01 -0.21456702961E+02  0.27978528900E+02  0.51100000000E-03 0. -1.
        -11    1    3    3    0    0 -0.38869638685E+01  0.38893523165E+01 -0.56684796634E+01  0.78972914035E+01  0.51100000000E-03 0.  1.
         12    1    3    3    0    0 -0.40356847432E+01  0.45140089677E+01 -0.82908347624E+01  0.10266497424E+02  0.00000000000E+00 0. -1.
</event>
<event>
 7    1  0.1541705E-008  0.4614231E+02  0.7816164E-02  0.1320468E+00
        -11   -1    0    0    0    0  0.00000000000E+00  0.00000000000E+00  0.45593999997E+02  0.45594000000E+02  0.51100000000E-03 0. -1.
         11   -1    0    0    0    0 -0.00000000000E+00 -0.00000000000E+00 -0.45593999997E+02  0.45594000000E+02  0.51100000000E-03 0.  1.
    9900012    2    1    2    0    0 -0.30393716520E+02  0.12869678889E+02  0.30654643487E+02  0.46142314236E+02  0.99999678556E+01 0.  0.
        -12    1    1    2    0    0  0.30393716520E+02 -0.12869678889E+02 -0.30654643487E+02  0.45045685764E+02  0.00000000000E+00 0.  1.
         11    1    3    3    0    0 -0.25774545945E+01  0.89745218617E+00  0.12816352942E+01  0.30151752688E+01  0.51100000000E-03 0. -1.
        -11    1    3    3    0    0 -0.13930162510E+01 -0.11380653778E+01  0.33015865124E+01  0.37598086174E+01  0.51100000000E-03 0.  1.
        -12    1    3    3    0    0 -0.26423245675E+02  0.13110292080E+02  0.26071421681E+02  0.39367330350E+02  0.00000000000E+00 0.  1.
</event>
<event>
 7    1  0.1541705E-008  0.4614232E+02  0.7816164E-02  0.1320468E+00
        -11   -1    0    0    0    0  0.00000000000E+00  0.00000000000E+00  0.45593999997E+02  0.45594000000E+02  0.51100000000E-03 0.  1.
         11   -1    0    0    0    0 -0.00000000000E+00 -0.00000000000E+00 -0.45593999997E+02  0.45594000000E+02  0.51100000000E-03 0. -1.
    9900012    2    1    2    0    0 -0.45594314047E+00 -0.16553206069E+02 -0.41891490851E+02  0.46142317399E+02  0.99999966964E+01 0.  0.
        -12    1    1    2    0    0  0.45594314047E+00  0.16553206069E+02  0.41891490851E+02  0.45045682601E+02  0.00000000000E+00 0.  1.
         11    1    3    3    0    0 -0.29362585102E+01 -0.18487308127E+01 -0.50294913088E+01  0.61102539017E+01  0.51100000000E-03 0. -1.
        -11    1    3    3    0    0  0.10859594772E+01 -0.23468218214E+01 -0.11474540862E+02  0.11762311376E+02  0.51100000000E-03 0.  1.
         12    1    3    3    0    0  0.13943558925E+01 -0.12357653435E+02 -0.25387458679E+02  0.28269752121E+02  0.00000000000E+00 0. -1.
</event>
<event>
 7    1  0.1541705E-008  0.4614232E+02  0.7816164E-02  0.1320468E+00
        -11   -1    0    0    0    0  0.00000000000E+00  0.00000000000E+00  0.45593999997E+02  0.45594000000E+02  0.51100000000E-03 0. -1.
         11   -1    0    0    0    0 -0.00000000000E+00 -0.00000000000E+00 -0.45593999997E+02  0.45594000000E+02  0.51100000000E-03 0.  1.
    9900012    2    1    2    0    0 -0.17962674900E+02 -0.37194872508E+01  0.41141478808E+02  0.46142317039E+02  0.99999934130E+01 0.  0.
        -12    1    1    2    0    0  0.17962674900E+02  0.37194872508E+01 -0.41141478808E+02  0.45045682961E+02  0.00000000000E+00 0.  1.
         11    1    3    3    0    0 -0.10792421670E+02  0.77354981741E+00  0.16090592148E+02  0.19390252726E+02  0.51100000000E-03 0. -1.
        -11    1    3    3    0    0 -0.67655582892E+01 -0.51471575328E+01  0.23908675897E+02  0.25375003311E+02  0.51100000000E-03 0.  1.
        -12    1    3    3    0    0 -0.40469494042E+00  0.65412046457E+00  0.11422107625E+01  0.13770610019E+01  0.00000000000E+00 0.  1.
</event>
<event>
 7    1  0.1541705E-008  0.4614232E+02  0.7816164E-02  0.1320468E+00
        -11   -1    0    0    0    0  0.00000000000E+00  0.00000000000E+00  0.45593999997E+02  0.45594000000E+02  0.51100000000E-03 0.  1.
         11   -1    0    0    0    0 -0.00000000000E+00 -0.00000000000E+00 -0.45593999997E+02  0.45594000000E+02  0.51100000000E-03 0. -1.
    9900012    2    1    2    0    0  0.82320978984E+01  0.35737754706E+02 -0.26156431956E+02  0.46142317855E+02  0.10000000856E+02 0.  0.
        -12    1    1    2    0    0 -0.82320978984E+01 -0.35737754706E+02  0.26156431956E+02  0.45045682145E+02  0.00000000000E+00 0.  1.
         11    1    3    3    0    0  0.89752949725E+01  0.31354808795E+02 -0.21525476204E+02  0.39077181071E+02  0.51100000000E-03 0. -1.
        -11    1    3    3    0    0  0.11276526195E+00  0.43849884388E+01 -0.33274065239E+01  0.55056765297E+01  0.51100000000E-03 0.  1.
         12    1    3    3    0    0 -0.85596233599E+00 -0.20425280185E-02 -0.13035492283E+01  0.15594602538E+01  0.00000000000E+00 0. -1.
</event>
<event>
 7    1  0.1541705E-008  0.4614232E+02  0.7816164E-02  0.1320468E+00
        -11   -1    0    0    0    0  0.00000000000E+00  0.00000000000E+00  0.45593999997E+02  0.45594000000E+02  0.51100000000E-03 0. -1.
         11   -1    0    0    0    0 -0.00000000000E+00 -0.00000000000E+00 -0.45593999997E+02  0.45594000000E+02  0.51100000000E-03 0.  1.
    9900012    2    1    2    0    0 -0.29987551254E+02 -0.26443672931E+02  0.20750720076E+02  0.46142318166E+02  0.10000003688E+02 0.  0.
        -12    1    1    2    0    0  0.29987551254E+02  0.26443672931E+02 -0.20750720076E+02  0.45045681834E+02  0.00000000000E+00 0.  1.
         11    1    3    3    0    0 -0.10348524568E+02 -0.11899178387E+02  0.37150568625E+01  0.16201359659E+02  0.51100000000E-03 0. -1.
        -11    1    3    3    0    0 -0.12107883765E+02 -0.97091733670E+01  0.12379231122E+02  0.19852311204E+02  0.51100000000E-03 0.  1.
        -12    1    3    3    0    0 -0.75311429205E+01 -0.48353211764E+01  0.46564320918E+01  0.10088647302E+02  0.00000000000E+00 0.  1.
</event>
<event>
 7    1  0.1541705E-008  0.4614232E+02  0.7816164E-02  0.1320468E+00
        -11   -1    0    0    0    0  0.00000000000E+00  0.00000000000E+00  0.45593999997E+02  0.45594000000E+02  0.51100000000E-03 0. -1.
         11   -1    0    0    0    0 -0.00000000000E+00 -0.00000000000E+00 -0.45593999997E+02  0.45594000000E+02  0.51100000000E-03 0.  1.
    9900012    2    1    2    0    0 -0.38700490981E+02  0.95418065677E+01  0.20984266296E+02  0.46142317557E+02  0.99999981397E+01 0.  0.
        -12    1    1    2    0    0  0.38700490981E+02 -0.95418065677E+01 -0.20984266296E+02  0.45045682443E+02  0.00000000000E+00 0.  1.
         11    1    3    3    0    0 -0.93229846317E+01  0.42934641548E+01  0.60515348367E+01  0.11915240284E+02  0.51100000000E-03 0. -1.
        -11    1    3    3    0    0 -0.22685122690E+02  0.17167761158E+01  0.84690376365E+01  0.24275228329E+02  0.51100000000E-03 0.  1.
        -12    1    3    3    0    0 -0.66923836595E+01  0.35315662971E+01  0.64636938231E+01  0.99518489435E+01  0.00000000000E+00 0.  1.
</event>
<event>
 7    1  0.1541705E-008  0.4614232E+02  0.7816164E-02  0.1320468E+00
        -11   -1    0    0    0    0  0.00000000000E+00  0.00000000000E+00  0.45593999997E+02  0.45594000000E+02  0.51100000000E-03 0.  1.
         11   -1    0    0    0    0 -0.00000000000E+00 -0.00000000000E+00 -0.45593999997E+02  0.45594000000E+02  0.51100000000E-03 0. -1.
    9900012    2    1    2    0    0  0.45707361484E+01 -0.44453117910E+02 -0.56694011069E+01  0.46142318412E+02  0.10000005934E+02 0.  0.
        -12    1    1    2    0    0 -0.45707361484E+01  0.44453117910E+02  0.56694011069E+01  0.45045681588E+02  0.00000000000E+00 0.  1.
         11    1    3    3    0    0  0.71494132414E+01 -0.26902354378E+02 -0.51955853937E+01  0.28316865798E+02  0.51100000000E-03 0. -1.
        -11    1    3    3    0    0 -0.21144464972E+01 -0.12324478291E+02 -0.10421594531E+01  0.12547898060E+02  0.51100000000E-03 0.  1.
         12    1    3    3    0    0 -0.46423059576E+00 -0.52262852404E+01  0.56834373990E+00  0.52775545536E+01  0.00000000000E+00 0. -1.
</event>
<event>
 7    1  0.1541705E-008  0.4614232E+02  0.7816164E-02  0.1320468E+00
        -11   -1    0    0    0    0  0.00000000000E+00  0.00000000000E+00  0.45593999997E+02  0.45594000000E+02  0.51100000000E-03 0. -1.
         11   -1    0    0    0    0 -0.00000000000E+00 -0.00000000000E+00 -0.45593999997E+02  0.45594000000E+02  0.51100000000E-03 0.  1.
    9900012    2    1    2    0    0 -0.25308685873E+01  0.29700180195E+02  0.33772881745E+02  0.46142317180E+02  0.99999946974E+01 0.  0.
        -12    1    1    2    0    0  0.25308685873E+01 -0.29700180195E+02 -0.33772881745E+02  0.45045682820E+02  0.00000000000E+00 0.  1.
         11    1    3    3    0    0 -0.27895003401E+01  0.24948665266E+02  0.28049101234E+02  0.37642652550E+02  0.51100000000E-03 0. -1.
        -11    1    3    3    0    0  0.12680081321E+01  0.33589001659E+01  0.14127997768E+01  0.38582455104E+01  0.51100000000E-03 0.  1.
        -12    1    3    3    0    0 -0.10093763793E+01  0.13926147631E+01  0.43109807341E+01  0.46414191195E+01  0.00000000000E+00 0.  1.
</event>
<event>
 7    1  0.1541705E-008  0.4614232E+02  0.7816164E-02  0.1320468E+00
        -11   -1    0    0    0    0  0.00000000000E+00  0.00000000000E+00  0.45593999997E+02  0.45594000000E+02  0.51100000000E-03 0.  1.
         11   -1    0    0    0    0 -0.00000000000E+00 -0.00000000000E+00 -0.45593999997E+02  0.45594000000E+02  0.51100000000E-03 0. -1.
    9900012    2    1    2    0    0  0.12456628643E+02  0.24523092861E+02 -0.35673013666E+02  0.46142316692E+02  0.99999902548E+01 0.  0.
        -12    1    1    2    0    0 -0.12456628643E+02 -0.24523092861E+02  0.35673013666E+02  0.45045683308E+02  0.00000000000E+00 0.  1.
         11    1    3    3    0    0  0.28308923803E+01  0.10361981328E+02 -0.12534542482E+02  0.16507554762E+02  0.51100000000E-03 0. -1.
        -11    1    3    3    0    0  0.98523675009E-01 -0.67144188331E+00 -0.19893302592E+01  0.21018982512E+01  0.51100000000E-03 0.  1.
        -12    1    3    3    0    0  0.95272125872E+01  0.14832553417E+02 -0.21149140925E+02  0.27532863679E+02  0.00000000000E+00 0.  1.
</event>
<event>
 7    1  0.1541705E-008  0.4614232E+02  0.7816164E-02  0.1320468E+00
        -11   -1    0    0    0    0  0.00000000000E+00  0.00000000000E+00  0.45593999997E+02  0.45594000000E+02  0.51100000000E-03 0.  1.
         11   -1    0    0    0    0 -0.00000000000E+00 -0.00000000000E+00 -0.45593999997E+02  0.45594000000E+02  0.51100000000E-03 0. -1.
    9900012    2    1    2    0    0 -0.14938515957E+02 -0.23004523528E+02 -0.35731582997E+02  0.46142318906E+02  0.10000010444E+02 0.  0.
        -12    1    1    2    0    0  0.14938515957E+02  0.23004523528E+02  0.35731582997E+02  0.45045681094E+02  0.00000000000E+00 0.  1.
         11    1    3    3    0    0 -0.49706967495E+01 -0.11147319232E+02 -0.15042894755E+02  0.19371608996E+02  0.51100000000E-03 0. -1.
        -11    1    3    3    0    0 -0.61295766267E+01 -0.38134882599E+01 -0.51860552308E+01  0.88887328371E+01  0.51100000000E-03 0.  1.
        -12    1    3    3    0    0 -0.38382425812E+01 -0.80437160359E+01 -0.15502633011E+02  0.17881977073E+02  0.00000000000E+00 0.  1.
</event>
<event>
 7    1  0.1541705E-008  0.4614232E+02  0.7816164E-02  0.1320468E+00
        -11   -1    0    0    0    0  0.00000000000E+00  0.00000000000E+00  0.45593999997E+02  0.45594000000E+02  0.51100000000E-03 0.  1.
         11   -1    0    0    0    0 -0.00000000000E+00 -0.00000000000E+00 -0.45593999997E+02  0.45594000000E+02  0.51100000000E-03 0. -1.
    9900012    2    1    2    0    0  0.18574552000E+02 -0.19846092833E+02 -0.35919799499E+02  0.46142318977E+02  0.10000011089E+02 0.  0.
        -12    1    1    2    0    0 -0.18574552000E+02  0.19846092833E+02  0.35919799499E+02  0.45045681023E+02  0.00000000000E+00 0.  1.
         11    1    3    3    0    0  0.72150332972E+01 -0.69909257171E+01 -0.68939305808E+01  0.12184253238E+02  0.51100000000E-03 0. -1.
        -11    1    3    3    0    0  0.11272588759E+02 -0.12941861540E+02 -0.27425999663E+02  0.32353492782E+02  0.51100000000E-03 0.  1.
        -12    1    3    3    0    0  0.86929944234E-01  0.86694423819E-01 -0.15998692554E+01  0.16045729565E+01  0.00000000000E+00 0.  1.
</event>
<event>
 7    1  0.1541705E-008  0.4614232E+02  0.7816164E-02  0.1320468E+00
        -11   -1    0    0    0    0  0.00000000000E+00  0.00000000000E+00  0.45593999997E+02  0.45594000000E+02  0.51100000000E-03 0. -1.
         11   -1    0    0    0    0 -0.00000000000E+00 -0.00000000000E+00 -0.45593999997E+02  0.45594000000E+02  0.51100000000E-03 0.  1.
    9900012    2    1    2    0    0 -0.38038426837E+02 -0.19401506841E+02  0.14344789051E+02  0.46142319221E+02  0.10000013310E+02 0.  0.
        -12    1    1    2    0    0  0.38038426837E+02  0.19401506841E+02 -0.14344789051E+02  0.45045680779E+02  0.00000000000E+00 0.  1.
         11    1    3    3    0    0 -0.24203428263E+02 -0.12431934829E+02  0.99174398021E+01  0.28960568982E+02  0.51100000000E-03 0. -1.
        -11    1    3    3    0    0 -0.94997355542E+01 -0.25810856601E+01  0.47523913810E+00  0.98555989815E+01  0.51100000000E-03 0.  1.
        -12    1    3    3    0    0 -0.43352630199E+01 -0.43884863519E+01  0.39521101108E+01  0.73261512570E+01  0.00000000000E+00 0.  1.
</event>
<event>
 7    1  0.1541705E-008  0.4614233E+02  0.7816164E-02  0.1320468E+00
        -11   -1    0    0    0    0  0.00000000000E+00  0.00000000000E+00  0.45593999997E+02  0.45594000000E+02  0.51100000000E-03 0.  1.
         11   -1    0    0    0    0 -0.00000000000E+00 -0.00000000000E+00 -0.45593999997E+02  0.45594000000E+02  0.51100000000E-03 0. -1.
    9900012    2    1    2    0    0  0.17416166373E+02  0.12862921958E+02 -0.39501074721E+02  0.46142328549E+02  0.10000098368E+02 0.  0.
        -12    1    1    2    0    0 -0.17416166373E+02 -0.12862921958E+02  0.39501074721E+02  0.45045671451E+02  0.00000000000E+00 0.  1.
         11    1    3    3    0    0  0.94428888207E+01  0.75284520862E+01 -0.29631151086E+02  0.31997669525E+02  0.51100000000E-03 0. -1.
        -11    1    3    3    0    0  0.47380750863E+01  0.21149874557E+01 -0.33149901553E+01  0.61572467428E+01  0.51100000000E-03 0.  1.
         12    1    3    3    0    0  0.32352024663E+01  0.32194824156E+01 -0.65549334795E+01  0.79874122807E+01  0.00000000000E+00 0. -1.
</event>
<event>
 7    1  0.1541705E-008  0.4614232E+02  0.7816164E-02  0.1320468E+00
        -11   -1    0    0    0    0  0.00000000000E+00  0.00000000000E+00  0.45593999997E+02  0.45594000000E+02  0.51100000000E-03 0.  1.
         11   -1    0    0    0    0 -0.00000000000E+00 -0.00000000000E+00 -0.45593999997E+02  0.45594000000E+02  0.51100000000E-03 0. -1.
    9900012    2    1    2    0    0  0.29359453278E+02  0.49272453533E+01 -0.33806185846E+02  0.46142318243E+02  0.10000004391E+02 0.  0.
        -12    1    1    2    0    0 -0.29359453278E+02 -0.49272453533E+01  0.33806185846E+02  0.45045681757E+02  0.00000000000E+00 0.  1.
         11    1    3    3    0    0  0.16231550732E+02  0.18047869645E+01 -0.18143749850E+02  0.24411393939E+02  0.51100000000E-03 0. -1.
        -11    1    3    3    0    0  0.38760151151E+01  0.30735521714E+00 -0.75399230358E+00  0.39606142272E+01  0.51100000000E-03 0.  1.
        -12    1    3    3    0    0  0.92518874302E+01  0.28151031716E+01 -0.14908443692E+02  0.17770310076E+02  0.00000000000E+00 0.  1.
</event>
<event>
 7    1  0.1541705E-008  0.4614232E+02  0.7816164E-02  0.1320468E+00
        -11   -1    0    0    0    0  0.00000000000E+00  0.00000000000E+00  0.45593999997E+02  0.45594000000E+02  0.51100000000E-03 0.  1.
         11   -1    0    0    0    0 -0.00000000000E+00 -0.00000000000E+00 -0.45593999997E+02  0.45594000000E+02  0.51100000000E-03 0. -1.
    9900012    2    1    2    0    0 -0.16714810697E+01 -0.15793617288E+01 -0.44986944278E+02  0.46142318876E+02  0.10000010168E+02 0.  0.
        -12    1    1    2    0    0  0.16714810697E+01  0.15793617288E+01  0.44986944278E+02  0.45045681124E+02  0.00000000000E+00 0.  1.
         11    1    3    3    0    0 -0.14892888465E+01 -0.50579100430E+01 -0.28631855078E+02  0.29113288388E+02  0.51100000000E-03 0. -1.
        -11    1    3    3    0    0  0.72565125752E-01  0.21651195796E+01 -0.35825213467E+01  0.41865818937E+01  0.51100000000E-03 0.  1.
        -12    1    3    3    0    0 -0.25475734897E+00  0.13134287346E+01 -0.12772567853E+02  0.12842448595E+02  0.00000000000E+00 0.  1.
</event>
<event>
 7    1  0.1541705E-008  0.4614232E+02  0.7816164E-02  0.1320468E+00
        -11   -1    0    0    0    0  0.00000000000E+00  0.00000000000E+00  0.45593999997E+02  0.45594000000E+02  0.51100000000E-03 0.  1.
         11   -1    0    0    0    0 -0.00000000000E+00 -0.00000000000E+00 -0.45593999997E+02  0.45594000000E+02  0.51100000000E-03 0. -1.
    9900012    2    1    2    0    0 -0.31051459715E+02 -0.30398290211E+02 -0.11868625535E+02  0.46142317962E+02  0.10000001831E+02 0.  0.
        -12    1    1    2    0    0  0.31051459715E+02  0.30398290211E+02  0.11868625535E+02  0.45045682038E+02  0.00000000000E+00 0.  1.
         11    1    3    3    0    0 -0.13954637626E+02 -0.19318445299E+02 -0.59367721754E+01  0.24559713031E+02  0.51100000000E-03 0. -1.
        -11    1    3    3    0    0 -0.30768099717E+01 -0.22554966257E+01  0.42567213274E+00  0.38386484153E+01  0.51100000000E-03 0.  1.
         12    1    3    3    0    0 -0.14020012117E+02 -0.88243482866E+01 -0.63575254926E+01  0.17743956515E+02  0.00000000000E+00 0. -1.
</event>
<event>
 7    1  0.1541705E-008  0.4614231E+02  0.7816164E-02  0.1320468E+00
        -11   -1    0    0    0    0  0.00000000000E+00  0.00000000000E+00  0.45593999997E+02  0.45594000000E+02  0.51100000000E-03 0.  1.
         11   -1    0    0    0    0 -0.00000000000E+00 -0.00000000000E+00 -0.45593999997E+02  0.45594000000E+02  0.51100000000E-03 0. -1.
    9900012    2    1    2    0    0 -0.16180578235E+02  0.39149759328E+02 -0.15316625769E+02  0.46142314386E+02  0.99999692226E+01 0.  0.
        -12    1    1    2    0    0  0.16180578235E+02 -0.39149759328E+02  0.15316625769E+02  0.45045685614E+02  0.00000000000E+00 0.  1.
         11    1    3    3    0    0 -0.64409471700E+01  0.20782966142E+02 -0.80168224650E+01  0.23188077213E+02  0.51100000000E-03 0. -1.
        -11    1    3    3    0    0 -0.16261785691E+01  0.53602073428E+01 -0.48913515239E+01  0.74365045208E+01  0.51100000000E-03 0.  1.
        -12    1    3    3    0    0 -0.81134524957E+01  0.13006585843E+02 -0.24084517805E+01  0.15517732652E+02  0.00000000000E+00 0.  1.
</event>
<event>
 7    1  0.1541705E-008  0.4614232E+02  0.7816164E-02  0.1320468E+00
        -11   -1    0    0    0    0  0.00000000000E+00  0.00000000000E+00  0.45593999997E+02  0.45594000000E+02  0.51100000000E-03 0.  1.
         11   -1    0    0    0    0 -0.00000000000E+00 -0.00000000000E+00 -0.45593999997E+02  0.45594000000E+02  0.51100000000E-03 0. -1.
    9900012    2    1    2    0    0 -0.10094270933E+02  0.31218521309E+02 -0.30864594187E+02  0.46142317047E+02  0.99999934876E+01 0.  0.
        -12    1    1    2    0    0  0.10094270933E+02 -0.31218521309E+02  0.30864594187E+02  0.45045682953E+02  0.00000000000E+00 0.  1.
         11    1    3    3    0    0 -0.21427940968E+01  0.10597698339E+02 -0.11426557337E+02  0.15731147112E+02  0.51100000000E-03 0.  1.
        -11    1    3    3    0    0 -0.85103152057E+01  0.17390615890E+02 -0.13417728236E+02  0.23556197003E+02  0.51100000000E-03 0. -1.
        -12    1    3    3    0    0  0.55883836956E+00  0.32302070802E+01 -0.60203086130E+01  0.68549729321E+01  0.00000000000E+00 0.  1.
</event>
<event>
 7    1  0.1541705E-008  0.4614232E+02  0.7816164E-02  0.1320468E+00
        -11   -1    0    0    0    0  0.00000000000E+00  0.00000000000E+00  0.45593999997E+02  0.45594000000E+02  0.51100000000E-03 0.  1.
         11   -1    0    0    0    0 -0.00000000000E+00 -0.00000000000E+00 -0.45593999997E+02  0.45594000000E+02  0.51100000000E-03 0. -1.
    9900012    2    1    2    0    0 -0.27173578191E+02 -0.26156671957E+02 -0.24628005469E+02  0.46142317710E+02  0.99999995304E+01 0.  0.
        -12    1    1    2    0    0  0.27173578191E+02  0.26156671957E+02  0.24628005469E+02  0.45045682290E+02  0.00000000000E+00 0.  1.
         11    1    3    3    0    0 -0.61321541819E+00 -0.14976406674E+00  0.70108468793E+00  0.94338879873E+00  0.51100000000E-03 0. -1.
        -11    1    3    3    0    0 -0.10113724301E+02 -0.74193660779E+01 -0.71906306743E+01  0.14458201202E+02  0.51100000000E-03 0.  1.
         12    1    3    3    0    0 -0.16446638473E+02 -0.18587541813E+02 -0.18138459483E+02  0.30740727709E+02  0.00000000000E+00 0. -1.
</event>
<event>
 7    1  0.1541705E-008  0.4614232E+02  0.7816164E-02  0.1320468E+00
        -11   -1    0    0    0    0  0.00000000000E+00  0.00000000000E+00  0.45593999997E+02  0.45594000000E+02  0.51100000000E-03 0. -1.
         11   -1    0    0    0    0 -0.00000000000E+00 -0.00000000000E+00 -0.45593999997E+02  0.45594000000E+02  0.51100000000E-03 0.  1.
    9900012    2    1    2    0    0 -0.25334352916E+02  0.32954113628E+02 -0.17358299377E+02  0.46142316523E+02  0.99999887078E+01 0.  0.
        -12    1    1    2    0    0  0.25334352916E+02 -0.32954113628E+02  0.17358299377E+02  0.45045683477E+02  0.00000000000E+00 0.  1.
         11    1    3    3    0    0 -0.78226202686E+01  0.71736360862E+01 -0.60555513470E+00  0.10631140101E+02  0.51100000000E-03 0. -1.
        -11    1    3    3    0    0 -0.16185044307E+02  0.22185441341E+02 -0.14306390416E+02  0.30964855461E+02  0.51100000000E-03 0.  1.
         12    1    3    3    0    0 -0.13266883399E+01  0.35950362007E+01 -0.24463538254E+01  0.45463209604E+01  0.00000000000E+00 0. -1.
</event>
<event>
 7    1  0.1541705E-008  0.4614232E+02  0.7816164E-02  0.1320468E+00
        -11   -1    0    0    0    0  0.00000000000E+00  0.00000000000E+00  0.45593999997E+02  0.45594000000E+02  0.51100000000E-03 0.  1.
         11   -1    0    0    0    0 -0.00000000000E+00 -0.00000000000E+00 -0.45593999997E+02  0.45594000000E+02  0.51100000000E-03 0. -1.
    9900012    2    1    2    0    0 -0.59207425257E+01  0.39700681125E+02 -0.20442950796E+02  0.46142317509E+02  0.99999976976E+01 0.  0.
        -12    1    1    2    0    0  0.59207425257E+01 -0.39700681125E+02  0.20442950796E+02  0.45045682491E+02  0.00000000000E+00 0.  1.
         11    1    3    3    0    0 -0.24284088217E+01  0.11991831790E+02 -0.68194151368E+01  0.14007341724E+02  0.51100000000E-03 0. -1.
        -11    1    3    3    0    0 -0.89547456312E-01  0.56820052282E+00 -0.25688053584E+01  0.26324193836E+01  0.51100000000E-03 0.  1.
        -12    1    3    3    0    0 -0.34027862477E+01  0.27140648812E+02 -0.11054730301E+02  0.29502556401E+02  0.00000000000E+00 0.  1.
</event>
<event>
 7    1  0.1541705E-008  0.4614231E+02  0.7816164E-02  0.1320468E+00
        -11   -1    0    0    0    0  0.00000000000E+00  0.00000000000E+00  0.45593999997E+02  0.45594000000E+02  0.51100000000E-03 0.  1.
         11   -1    0    0    0    0 -0.00000000000E+00 -0.00000000000E+00 -0.45593999997E+02  0.45594000000E+02  0.51100000000E-03 0. -1.
    9900012    2    1    2    0    0  0.17437971241E+01  0.37632925791E+02 -0.24694854215E+02  0.46142314783E+02  0.99999728412E+01 0.  0.
        -12    1    1    2    0    0 -0.17437971241E+01 -0.37632925791E+02  0.24694854215E+02  0.45045685217E+02  0.00000000000E+00 0.  1.
         11    1    3    3    0    0  0.14886438000E+01  0.12477314287E+02 -0.47248162213E+01  0.13424727959E+02  0.51100000000E-03 0. -1.
        -11    1    3    3    0    0  0.63232573189E+00 -0.90101236378E-01 -0.27233639422E+00  0.69434965021E+00  0.51100000000E-03 0.  1.
        -12    1    3    3    0    0 -0.37717240781E+00  0.25245712740E+02 -0.19697701600E+02  0.32023237174E+02  0.00000000000E+00 0.  1.
</event>
<event>
 7    1  0.1541705E-008  0.4614232E+02  0.7816164E-02  0.1320468E+00
        -11   -1    0    0    0    0  0.00000000000E+00  0.00000000000E+00  0.45593999997E+02  0.45594000000E+02  0.51100000000E-03 0. -1.
         11   -1    0    0    0    0 -0.00000000000E+00 -0.00000000000E+00 -0.45593999997E+02  0.45594000000E+02  0.51100000000E-03 0.  1.
    9900012    2    1    2    0    0  0.52481017888E+01  0.23281668886E+02  0.38203857893E+02  0.46142318338E+02  0.10000005258E+02 0.  0.
        -12    1    1    2    0    0 -0.52481017888E+01 -0.23281668886E+02 -0.38203857893E+02  0.45045681662E+02  0.00000000000E+00 0.  1.
         11    1    3    3    0    0  0.89415658358E+00  0.48290047663E+01  0.70403239609E+01  0.85839946857E+01  0.51100000000E-03 0. -1.
        -11    1    3    3    0    0  0.83531752356E+00  0.45933642891E+00  0.78091314247E+01  0.78671010664E+01  0.51100000000E-03 0.  1.
        -12    1    3    3    0    0  0.35186276817E+01  0.17993327690E+02  0.23354402508E+02  0.29691222586E+02  0.00000000000E+00 0.  1.
</event>
<event>
 7    1  0.1541705E-008  0.4614232E+02  0.7816164E-02  0.1320468E+00
        -11   -1    0    0    0    0  0.00000000000E+00  0.00000000000E+00  0.45593999997E+02  0.45594000000E+02  0.51100000000E-03 0.  1.
         11   -1    0    0    0    0 -0.00000000000E+00 -0.00000000000E+00 -0.45593999997E+02  0.45594000000E+02  0.51100000000E-03 0. -1.
    9900012    2    1    2    0    0  0.22918568296E+02 -0.77752070545E+01 -0.37992091256E+02  0.46142316350E+02  0.99999871333E+01 0.  0.
        -12    1    1    2    0    0 -0.22918568296E+02  0.77752070545E+01  0.37992091256E+02  0.45045683650E+02  0.00000000000E+00 0.  1.
         11    1    3    3    0    0  0.46985823997E+01 -0.11829844410E+01 -0.95141909339E+01  0.10676888973E+02  0.51100000000E-03 0. -1.
        -11    1    3    3    0    0  0.14248191209E+02 -0.22920493960E+01 -0.24340640323E+02  0.28297194468E+02  0.51100000000E-03 0.  1.
        -12    1    3    3    0    0  0.39717946868E+01 -0.43001732175E+01 -0.41372599990E+01  0.71682329088E+01  0.00000000000E+00 0.  1.
</event>
<event>
 7    1  0.1541705E-008  0.4614232E+02  0.7816164E-02  0.1320468E+00
        -11   -1    0    0    0    0  0.00000000000E+00  0.00000000000E+00  0.45593999997E+02  0.45594000000E+02  0.51100000000E-03 0. -1.
         11   -1    0    0    0    0 -0.00000000000E+00 -0.00000000000E+00 -0.45593999997E+02  0.45594000000E+02  0.51100000000E-03 0.  1.
    9900012    2    1    2    0    0  0.39784979756E+02  0.21078845020E+02  0.13968404299E+01  0.46142317801E+02  0.10000000366E+02 0.  0.
        -12    1    1    2    0    0 -0.39784979756E+02 -0.21078845020E+02 -0.13968404299E+01  0.45045682199E+02  0.00000000000E+00 0.  1.
         11    1    3    3    0    0  0.40628338709E+01  0.52061221214E+01 -0.10831930106E+01  0.66920575286E+01  0.51100000000E-03 0.  1.
        -11    1    3    3    0    0  0.27314065263E+02  0.12111126101E+02  0.38933463421E+01  0.30131307350E+02  0.51100000000E-03 0. -1.
         12    1    3    3    0    0  0.84080806220E+01  0.37615967975E+01 -0.14133129016E+01  0.93189529225E+01  0.00000000000E+00 0. -1.
</event>
<event>
 7    1  0.1541705E-008  0.4614231E+02  0.7816164E-02  0.1320468E+00
        -11   -1    0    0    0    0  0.00000000000E+00  0.00000000000E+00  0.45593999997E+02  0.45594000000E+02  0.51100000000E-03 0.  1.
         11   -1    0    0    0    0 -0.00000000000E+00 -0.00000000000E+00 -0.45593999997E+02  0.45594000000E+02  0.51100000000E-03 0. -1.
    9900012    2    1    2    0    0  0.29656138522E+02 -0.27819697459E+01 -0.33791833250E+02  0.46142313168E+02  0.99999581184E+01 0.  0.
        -12    1    1    2    0    0 -0.29656138522E+02  0.27819697459E+01  0.33791833250E+02  0.45045686832E+02  0.00000000000E+00 0.  1.
         11    1    3    3    0    0  0.19050814156E+02 -0.23648659403E+01 -0.22498923813E+02  0.29575795576E+02  0.51100000000E-03 0. -1.
        -11    1    3    3    0    0  0.40480258670E+00  0.13459792050E+01 -0.29628984974E+01  0.32793738612E+01  0.51100000000E-03 0.  1.
        -12    1    3    3    0    0  0.10200521780E+02 -0.17630830106E+01 -0.83300109395E+01  0.13287143731E+02  0.00000000000E+00 0.  1.
</event>
<event>
 7    1  0.1541705E-008  0.4614231E+02  0.7816164E-02  0.1320468E+00
        -11   -1    0    0    0    0  0.00000000000E+00  0.00000000000E+00  0.45593999997E+02  0.45594000000E+02  0.51100000000E-03 0.  1.
         11   -1    0    0    0    0 -0.00000000000E+00 -0.00000000000E+00 -0.45593999997E+02  0.45594000000E+02  0.51100000000E-03 0. -1.
    9900012    2    1    2    0    0 -0.34715244134E+02 -0.10571551446E+02 -0.26687234421E+02  0.46142308127E+02  0.99999121522E+01 0.  0.
        -12    1    1    2    0    0  0.34715244134E+02  0.10571551446E+02  0.26687234421E+02  0.45045691873E+02  0.00000000000E+00 0.  1.
         11    1    3    3    0    0 -0.20059356896E+02 -0.80708440152E+01 -0.20397282807E+02  0.29724829156E+02  0.51100000000E-03 0. -1.
        -11    1    3    3    0    0 -0.86630326055E+01 -0.17637343017E+01 -0.21558469237E+01  0.90998114722E+01  0.51100000000E-03 0.  1.
         12    1    3    3    0    0 -0.59928546321E+01 -0.73697312886E+00 -0.41341046907E+01  0.73176674991E+01  0.00000000000E+00 0. -1.
</event>
<event>
 7    1  0.1541705E-008  0.4614232E+02  0.7816164E-02  0.1320468E+00
        -11   -1    0    0    0    0  0.00000000000E+00  0.00000000000E+00  0.45593999997E+02  0.45594000000E+02  0.51100000000E-03 0.  1.
         11   -1    0    0    0    0 -0.00000000000E+00 -0.00000000000E+00 -0.45593999997E+02  0.45594000000E+02  0.51100000000E-03 0. -1.
    9900012    2    1    2    0    0 -0.22151260706E+02 -0.69421431600E-01 -0.39222829605E+02  0.46142317272E+02  0.99999955408E+01 0.  0.
        -12    1    1    2    0    0  0.22151260706E+02  0.69421431600E-01  0.39222829605E+02  0.45045682728E+02  0.00000000000E+00 0.  1.
         11    1    3    3    0    0 -0.11910679598E+02  0.20403930381E+01 -0.22019128554E+02  0.25117115973E+02  0.51100000000E-03 0. -1.
        -11    1    3    3    0    0 -0.72117464813E+01 -0.21766432626E+01 -0.66603396318E+01  0.10055206983E+02  0.51100000000E-03 0.  1.
        -12    1    3    3    0    0 -0.30288346261E+01  0.66828792923E-01 -0.10543361419E+02  0.10969994316E+02  0.00000000000E+00 0.  1.
</event>
<event>
 7    1  0.1541705E-008  0.4614232E+02  0.7816164E-02  0.1320468E+00
        -11   -1    0    0    0    0  0.00000000000E+00  0.00000000000E+00  0.45593999997E+02  0.45594000000E+02  0.51100000000E-03 0. -1.
         11   -1    0    0    0    0 -0.00000000000E+00 -0.00000000000E+00 -0.45593999997E+02  0.45594000000E+02  0.51100000000E-03 0.  1.
    9900012    2    1    2    0    0 -0.27913976500E+02 -0.17304448499E+02  0.30829844585E+02  0.46142319419E+02  0.10000015115E+02 0.  0.
        -12    1    1    2    0    0  0.27913976500E+02  0.17304448499E+02 -0.30829844585E+02  0.45045680581E+02  0.00000000000E+00 0.  1.
         11    1    3    3    0    0 -0.27706621948E+00 -0.22758132207E+01  0.24886856711E+01  0.33837328701E+01  0.51100000000E-03 0. -1.
        -11    1    3    3    0    0 -0.25927303421E+02 -0.12590355469E+02  0.24067796735E+02  0.37549979407E+02  0.51100000000E-03 0.  1.
        -12    1    3    3    0    0 -0.17096068592E+01 -0.24382798096E+01  0.42733621786E+01  0.52086071413E+01  0.00000000000E+00 0.  1.
</event>
<event>
 7    1  0.1541705E-008  0.4614232E+02  0.7816164E-02  0.1320468E+00
        -11   -1    0    0    0    0  0.00000000000E+00  0.00000000000E+00  0.45593999997E+02  0.45594000000E+02  0.51100000000E-03 0. -1.
         11   -1    0    0    0    0 -0.00000000000E+00 -0.00000000000E+00 -0.45593999997E+02  0.45594000000E+02  0.51100000000E-03 0.  1.
    9900012    2    1    2    0    0  0.41367397990E+02 -0.15364607750E+02 -0.90432587897E+01  0.46142319660E+02  0.10000017311E+02 0.  0.
        -12    1    1    2    0    0 -0.41367397990E+02  0.15364607750E+02  0.90432587897E+01  0.45045680340E+02  0.00000000000E+00 0.  1.
         11    1    3    3    0    0  0.25917216278E+02 -0.97138540876E+01 -0.53441674414E+01  0.28189025999E+02  0.51100000000E-03 0. -1.
        -11    1    3    3    0    0  0.72404121818E+01 -0.49530201513E+01  0.33606957728E+00  0.87788906021E+01  0.51100000000E-03 0.  1.
         12    1    3    3    0    0  0.82097695302E+01 -0.69773351152E+00 -0.40351609256E+01  0.91744030589E+01  0.00000000000E+00 0. -1.
</event>
<event>
 7    1  0.1541705E-008  0.4614232E+02  0.7816164E-02  0.1320468E+00
        -11   -1    0    0    0    0  0.00000000000E+00  0.00000000000E+00  0.45593999997E+02  0.45594000000E+02  0.51100000000E-03 0.  1.
         11   -1    0    0    0    0 -0.00000000000E+00 -0.00000000000E+00 -0.45593999997E+02  0.45594000000E+02  0.51100000000E-03 0. -1.
    9900012    2    1    2    0    0 -0.16683669821E+02  0.82869974823E+01 -0.41013343200E+02  0.46142317783E+02  0.10000000197E+02 0.  0.
        -12    1    1    2    0    0  0.16683669821E+02 -0.82869974823E+01  0.41013343200E+02  0.45045682217E+02  0.00000000000E+00 0.  1.
         11    1    3    3    0    0 -0.97289261022E+00  0.10761929105E+01 -0.94075264078E+01  0.95187322993E+01  0.51100000000E-03 0. -1.
        -11    1    3    3    0    0 -0.11096241883E+02  0.19228301690E+01 -0.16624190898E+02  0.20079531445E+02  0.51100000000E-03 0.  1.
        -12    1    3    3    0    0 -0.46145353275E+01  0.52879744028E+01 -0.14981625895E+02  0.16544054038E+02  0.00000000000E+00 0.  1.
</event>
<event>
 7    1  0.1541705E-008  0.4614232E+02  0.7816164E-02  0.1320468E+00
        -11   -1    0    0    0    0  0.00000000000E+00  0.00000000000E+00  0.45593999997E+02  0.45594000000E+02  0.51100000000E-03 0.  1.
         11   -1    0    0    0    0 -0.00000000000E+00 -0.00000000000E+00 -0.45593999997E+02  0.45594000000E+02  0.51100000000E-03 0. -1.
    9900012    2    1    2    0    0 -0.61363951710E+01 -0.44595209395E+02  0.16509236131E+01  0.46142316572E+02  0.99999891577E+01 0.  0.
        -12    1    1    2    0    0  0.61363951710E+01  0.44595209395E+02 -0.16509236131E+01  0.45045683428E+02  0.00000000000E+00 0.  1.
         11    1    3    3    0    0 -0.30373258046E+01 -0.93424007926E+01  0.14995509696E+01  0.99375275589E+01  0.51100000000E-03 0. -1.
        -11    1    3    3    0    0  0.24270749718E+01 -0.75486250131E+01  0.59325757958E+00  0.79513764421E+01  0.51100000000E-03 0.  1.
        -12    1    3    3    0    0 -0.55261443381E+01 -0.27704183590E+02 -0.44188493608E+00  0.28253412571E+02  0.00000000000E+00 0.  1.
</event>
<event>
 7    1  0.1541705E-008  0.4614232E+02  0.7816164E-02  0.1320468E+00
        -11   -1    0    0    0    0  0.00000000000E+00  0.00000000000E+00  0.45593999997E+02  0.45594000000E+02  0.51100000000E-03 0.  1.
         11   -1    0    0    0    0 -0.00000000000E+00 -0.00000000000E+00 -0.45593999997E+02  0.45594000000E+02  0.51100000000E-03 0. -1.
    9900012    2    1    2    0    0  0.23773417248E+02  0.52529636580E+01 -0.37899136875E+02  0.46142316847E+02  0.99999916664E+01 0.  0.
        -12    1    1    2    0    0 -0.23773417248E+02 -0.52529636580E+01  0.37899136875E+02  0.45045683153E+02  0.00000000000E+00 0.  1.
         11    1    3    3    0    0  0.19090438956E+02  0.58553065530E+01 -0.29213922901E+02  0.35386194566E+02  0.51100000000E-03 0. -1.
        -11    1    3    3    0    0  0.40644020382E+01 -0.15103623563E+01 -0.38528537839E+01  0.58004345455E+01  0.51100000000E-03 0.  1.
        -12    1    3    3    0    0  0.61857625371E+00  0.90801946129E+00 -0.48323601899E+01  0.49556877352E+01  0.00000000000E+00 0.  1.
</event>
<event>
 7    1  0.1541705E-008  0.4614232E+02  0.7816164E-02  0.1320468E+00
        -11   -1    0    0    0    0  0.00000000000E+00  0.00000000000E+00  0.45593999997E+02  0.45594000000E+02  0.51100000000E-03 0.  1.
         11   -1    0    0    0    0 -0.00000000000E+00 -0.00000000000E+00 -0.45593999997E+02  0.45594000000E+02  0.51100000000E-03 0. -1.
    9900012    2    1    2    0    0 -0.17483043629E+02  0.32634472289E+02 -0.25660242570E+02  0.46142316024E+02  0.99999841556E+01 0.  0.
        -12    1    1    2    0    0  0.17483043629E+02 -0.32634472289E+02  0.25660242570E+02  0.45045683976E+02  0.00000000000E+00 0.  1.
         11    1    3    3    0    0  0.40912815635E+00  0.59266397564E+01 -0.27653994540E+01  0.65528527415E+01  0.51100000000E-03 0. -1.
        -11    1    3    3    0    0 -0.15997810044E+02  0.22185661768E+02 -0.18660208345E+02  0.33110978392E+02  0.51100000000E-03 0.  1.
        -12    1    3    3    0    0 -0.18943617419E+01  0.45221707645E+01 -0.42346347710E+01  0.64784848905E+01  0.00000000000E+00 0.  1.
</event>
<event>
 7    1  0.1541705E-008  0.4614232E+02  0.7816164E-02  0.1320468E+00
        -11   -1    0    0    0    0  0.00000000000E+00  0.00000000000E+00  0.45593999997E+02  0.45594000000E+02  0.51100000000E-03 0. -1.
         11   -1    0    0    0    0 -0.00000000000E+00 -0.00000000000E+00 -0.45593999997E+02  0.45594000000E+02  0.51100000000E-03 0.  1.
    9900012    2    1    2    0    0 -0.44743375423E+02  0.52094916025E+01  0.71615523520E-01  0.46142316790E+02  0.99999911483E+01 0.  0.
        -12    1    1    2    0    0  0.44743375423E+02 -0.52094916025E+01 -0.71615523520E-01  0.45045683210E+02  0.00000000000E+00 0.  1.
         11    1    3    3    0    0 -0.11778813225E+02  0.22032278222E+00  0.12095648609E+01  0.11842805011E+02  0.51100000000E-03 0. -1.
        -11    1    3    3    0    0 -0.30507073476E+02  0.33395439315E+01 -0.29472240577E+01  0.30830507872E+02  0.51100000000E-03 0.  1.
        -12    1    3    3    0    0 -0.24574887223E+01  0.16496248888E+01  0.18092747204E+01  0.34690039071E+01  0.00000000000E+00 0.  1.
</event>
<event>
 7    1  0.1541705E-008  0.4614232E+02  0.7816164E-02  0.1320468E+00
        -11   -1    0    0    0    0  0.00000000000E+00  0.00000000000E+00  0.45593999997E+02  0.45594000000E+02  0.51100000000E-03 0.  1.
         11   -1    0    0    0    0 -0.00000000000E+00 -0.00000000000E+00 -0.45593999997E+02  0.45594000000E+02  0.51100000000E-03 0. -1.
    9900012    2    1    2    0    0 -0.24200054754E+02 -0.20571149074E+02 -0.31942114570E+02  0.46142317548E+02  0.99999980557E+01 0.  0.
        -12    1    1    2    0    0  0.24200054754E+02  0.20571149074E+02  0.31942114570E+02  0.45045682452E+02  0.00000000000E+00 0.  1.
         11    1    3    3    0    0 -0.53909406278E+01 -0.35039598748E+01 -0.85968945810E+01  0.10735295634E+02  0.51100000000E-03 0. -1.
        -11    1    3    3    0    0 -0.17207437403E+02 -0.17123412082E+02 -0.19161545191E+02  0.30926880827E+02  0.51100000000E-03 0.  1.
        -12    1    3    3    0    0 -0.16016767235E+01  0.56222882760E-01 -0.41836747980E+01  0.44801410864E+01  0.00000000000E+00 0.  1.
</event>
<event>
 7    1  0.1541705E-008  0.4614232E+02  0.7816164E-02  0.1320468E+00
        -11   -1    0    0    0    0  0.00000000000E+00  0.00000000000E+00  0.45593999997E+02  0.45594000000E+02  0.51100000000E-03 0.  1.
         11   -1    0    0    0    0 -0.00000000000E+00 -0.00000000000E+00 -0.45593999997E+02  0.45594000000E+02  0.51100000000E-03 0. -1.
    9900012    2    1    2    0    0  0.14830156788E+02 -0.40571633571E+02 -0.12771941317E+02  0.46142317787E+02  0.10000000239E+02 0.  0.
        -12    1    1    2    0    0 -0.14830156788E+02  0.40571633571E+02  0.12771941317E+02  0.45045682213E+02  0.00000000000E+00 0.  1.
         11    1    3    3    0    0  0.18081424355E+01 -0.73763055129E+01 -0.56280852221E+01  0.94527565088E+01  0.51100000000E-03 0. -1.
        -11    1    3    3    0    0  0.76763423675E+01 -0.13495948341E+02 -0.21374791218E+01  0.15672768454E+02  0.51100000000E-03 0.  1.
         12    1    3    3    0    0  0.53456719851E+01 -0.19699379717E+02 -0.50063769730E+01  0.21016792824E+02  0.00000000000E+00 0. -1.
</event>
<event>
 7    1  0.1541705E-008  0.4614232E+02  0.7816164E-02  0.1320468E+00
        -11   -1    0    0    0    0  0.00000000000E+00  0.00000000000E+00  0.45593999997E+02  0.45594000000E+02  0.51100000000E-03 0.  1.
         11   -1    0    0    0    0 -0.00000000000E+00 -0.00000000000E+00 -0.45593999997E+02  0.45594000000E+02  0.51100000000E-03 0. -1.
    9900012    2    1    2    0    0  0.44175308158E+02  0.55164842880E+01 -0.68719721077E+01  0.46142318183E+02  0.10000003844E+02 0.  0.
        -12    1    1    2    0    0 -0.44175308158E+02 -0.55164842880E+01  0.68719721077E+01  0.45045681817E+02  0.00000000000E+00 0.  1.
         11    1    3    3    0    0  0.44774088420E+01  0.12191938074E+01  0.15496931373E+01  0.48923585886E+01  0.51100000000E-03 0. -1.
        -11    1    3    3    0    0  0.54085394682E+01  0.21594913406E+01 -0.27064996491E+01  0.64219033503E+01  0.51100000000E-03 0.  1.
         12    1    3    3    0    0  0.34289359848E+02  0.21377991399E+01 -0.57151655959E+01  0.34828056244E+02  0.00000000000E+00 0. -1.
</event>
<event>
 7    1  0.1541705E-008  0.4614232E+02  0.7816164E-02  0.1320468E+00
        -11   -1    0    0    0    0  0.00000000000E+00  0.00000000000E+00  0.45593999997E+02  0.45594000000E+02  0.51100000000E-03 0. -1.
         11   -1    0    0    0    0 -0.00000000000E+00 -0.00000000000E+00 -0.45593999997E+02  0.45594000000E+02  0.51100000000E-03 0.  1.
    9900012    2    1    2    0    0 -0.30916299028E+02 -0.29049495767E+02 -0.15146709465E+02  0.46142316993E+02  0.99999929969E+01 0.  0.
        -12    1    1    2    0    0  0.30916299028E+02  0.29049495767E+02  0.15146709465E+02  0.45045683007E+02  0.00000000000E+00 0.  1.
         11    1    3    3    0    0 -0.70532461046E+01 -0.45907612020E+01 -0.49880312703E+01  0.97828331909E+01  0.51100000000E-03 0. -1.
        -11    1    3    3    0    0 -0.19684256089E+02 -0.16368021899E+02 -0.91985507534E+01  0.27202856741E+02  0.51100000000E-03 0.  1.
        -12    1    3    3    0    0 -0.41787968348E+01 -0.80907126661E+01 -0.96012744180E+00  0.91566270611E+01  0.00000000000E+00 0.  1.
</event>
<event>
 7    1  0.1541705E-008  0.4614232E+02  0.7816164E-02  0.1320468E+00
        -11   -1    0    0    0    0  0.00000000000E+00  0.00000000000E+00  0.45593999997E+02  0.45594000000E+02  0.51100000000E-03 0.  1.
         11   -1    0    0    0    0 -0.00000000000E+00 -0.00000000000E+00 -0.45593999997E+02  0.45594000000E+02  0.51100000000E-03 0. -1.
    9900012    2    1    2    0    0  0.14376885266E+02 -0.45703306363E+01 -0.42444443574E+02  0.46142317162E+02  0.99999945341E+01 0.  0.
        -12    1    1    2    0    0 -0.14376885266E+02  0.45703306363E+01  0.42444443574E+02  0.45045682838E+02  0.00000000000E+00 0.  1.
         11    1    3    3    0    0  0.11315134337E+02 -0.47827780902E+00 -0.35879285508E+02  0.37624249409E+02  0.51100000000E-03 0. -1.
        -11    1    3    3    0    0  0.85696755120E+00 -0.31889513656E+00 -0.49892510065E+00  0.10416400574E+01  0.51100000000E-03 0.  1.
         12    1    3    3    0    0  0.22047833779E+01 -0.37731576908E+01 -0.60662329647E+01  0.74764276954E+01  0.00000000000E+00 0. -1.
</event>
<event>
 7    1  0.1541705E-008  0.4614232E+02  0.7816164E-02  0.1320468E+00
        -11   -1    0    0    0    0  0.00000000000E+00  0.00000000000E+00  0.45593999997E+02  0.45594000000E+02  0.51100000000E-03 0. -1.
         11   -1    0    0    0    0 -0.00000000000E+00 -0.00000000000E+00 -0.45593999997E+02  0.45594000000E+02  0.51100000000E-03 0.  1.
    9900012    2    1    2    0    0  0.38107351730E+02  0.37806850737E+00  0.24016667714E+02  0.46142317412E+02  0.99999968190E+01 0.  0.
        -12    1    1    2    0    0 -0.38107351730E+02 -0.37806850737E+00 -0.24016667714E+02  0.45045682588E+02  0.00000000000E+00 0.  1.
         11    1    3    3    0    0  0.12774946524E+02  0.13107091583E+00  0.87132190412E+01  0.15464042957E+02  0.51100000000E-03 0. -1.
        -11    1    3    3    0    0 -0.20644702476E+00 -0.47684120298E+00 -0.42900248029E+00  0.67382586482E+00  0.51100000000E-03 0.  1.
        -12    1    3    3    0    0  0.25538852232E+02  0.72383879452E+00  0.15732451153E+02  0.30004448590E+02  0.00000000000E+00 0.  1.
</event>
<event>
 7    1  0.1541705E-008  0.4614232E+02  0.7816164E-02  0.1320468E+00
        -11   -1    0    0    0    0  0.00000000000E+00  0.00000000000E+00  0.45593999997E+02  0.45594000000E+02  0.51100000000E-03 0. -1.
         11   -1    0    0    0    0 -0.00000000000E+00 -0.00000000000E+00 -0.45593999997E+02  0.45594000000E+02  0.51100000000E-03 0.  1.
    9900012    2    1    2    0    0 -0.15685644662E+02  0.39792614201E+02 -0.14128754540E+02  0.46142319871E+02  0.10000019239E+02 0.  0.
        -12    1    1    2    0    0  0.15685644662E+02 -0.39792614201E+02  0.14128754540E+02  0.45045680129E+02  0.00000000000E+00 0.  1.
         11    1    3    3    0    0  0.67682641179E+00  0.23167986540E+01 -0.23740880530E+01  0.33855493408E+01  0.51100000000E-03 0. -1.
        -11    1    3    3    0    0 -0.86795979240E+01  0.16415575425E+02 -0.36873629178E+01  0.18931539352E+02  0.51100000000E-03 0.  1.
         12    1    3    3    0    0 -0.76828731494E+01  0.21060240122E+02 -0.80673035695E+01  0.23825231179E+02  0.00000000000E+00 0. -1.
</event>
<event>
 7    1  0.1541705E-008  0.4614232E+02  0.7816164E-02  0.1320468E+00
        -11   -1    0    0    0    0  0.00000000000E+00  0.00000000000E+00  0.45593999997E+02  0.45594000000E+02  0.51100000000E-03 0. -1.
         11   -1    0    0    0    0 -0.00000000000E+00 -0.00000000000E+00 -0.45593999997E+02  0.45594000000E+02  0.51100000000E-03 0.  1.
    9900012    2    1    2    0    0 -0.30464187261E+02 -0.79131422989E+01  0.32224665209E+02  0.46142316806E+02  0.99999912932E+01 0.  0.
        -12    1    1    2    0    0  0.30464187261E+02  0.79131422989E+01 -0.32224665209E+02  0.45045683194E+02  0.00000000000E+00 0.  1.
         11    1    3    3    0    0 -0.21880296780E+02 -0.64988745789E+01  0.24627142415E+02  0.33577952614E+02  0.51100000000E-03 0. -1.
        -11    1    3    3    0    0  0.38359953673E+00  0.67027565697E+00  0.35251066807E+00  0.84892996951E+00  0.51100000000E-03 0.  1.
        -12    1    3    3    0    0 -0.89674900179E+01 -0.20845433770E+01  0.72450121263E+01  0.11715434223E+02  0.00000000000E+00 0.  1.
</event>
<event>
 7    1  0.1541705E-008  0.4614232E+02  0.7816164E-02  0.1320468E+00
        -11   -1    0    0    0    0  0.00000000000E+00  0.00000000000E+00  0.45593999997E+02  0.45594000000E+02  0.51100000000E-03 0. -1.
         11   -1    0    0    0    0 -0.00000000000E+00 -0.00000000000E+00 -0.45593999997E+02  0.45594000000E+02  0.51100000000E-03 0.  1.
    9900012    2    1    2    0    0  0.42685348879E+02  0.13698261296E+02  0.44081673389E+01  0.46142319732E+02  0.10000017974E+02 0.  0.
        -12    1    1    2    0    0 -0.42685348879E+02 -0.13698261296E+02 -0.44081673389E+01  0.45045680268E+02  0.00000000000E+00 0.  1.
         11    1    3    3    0    0  0.18427225914E+02  0.42651699680E+01  0.27306798868E+00  0.18916365828E+02  0.51100000000E-03 0. -1.
        -11    1    3    3    0    0  0.27512715417E+01  0.52856699653E+00  0.27213350518E+01  0.39057064522E+01  0.51100000000E-03 0.  1.
        -12    1    3    3    0    0  0.21506851424E+02  0.89045243317E+01  0.14137642984E+01  0.23320247452E+02  0.00000000000E+00 0.  1.
</event>
<event>
 7    1  0.1541705E-008  0.4614232E+02  0.7816164E-02  0.1320468E+00
        -11   -1    0    0    0    0  0.00000000000E+00  0.00000000000E+00  0.45593999997E+02  0.45594000000E+02  0.51100000000E-03 0.  1.
         11   -1    0    0    0    0 -0.00000000000E+00 -0.00000000000E+00 -0.45593999997E+02  0.45594000000E+02  0.51100000000E-03 0. -1.
    9900012    2    1    2    0    0  0.35632159606E+02  0.20305779450E+02 -0.18631639447E+02  0.46142318012E+02  0.10000002287E+02 0.  0.
        -12    1    1    2    0    0 -0.35632159606E+02 -0.20305779450E+02  0.18631639447E+02  0.45045681988E+02  0.00000000000E+00 0.  1.
         11    1    3    3    0    0  0.11728137942E+02  0.63475489643E+01 -0.83828269000E+01  0.15751583556E+02  0.51100000000E-03 0. -1.
        -11    1    3    3    0    0  0.91366859341E+01  0.72649828723E+01 -0.76856772589E+01  0.13976002332E+02  0.51100000000E-03 0.  1.
        -12    1    3    3    0    0  0.14767335730E+02  0.66932476134E+01 -0.25631352885E+01  0.16414732124E+02  0.00000000000E+00 0.  1.
</event>
<event>
 7    1  0.1541705E-008  0.4614232E+02  0.7816164E-02  0.1320468E+00
        -11   -1    0    0    0    0  0.00000000000E+00  0.00000000000E+00  0.45593999997E+02  0.45594000000E+02  0.51100000000E-03 0. -1.
         11   -1    0    0    0    0 -0.00000000000E+00 -0.00000000000E+00 -0.45593999997E+02  0.45594000000E+02  0.51100000000E-03 0.  1.
    9900012    2    1    2    0    0 -0.34942322056E+02 -0.92044715607E+01  0.26896569028E+02  0.46142316601E+02  0.99999894218E+01 0.  0.
        -12    1    1    2    0    0  0.34942322056E+02  0.92044715607E+01 -0.26896569028E+02  0.45045683399E+02  0.00000000000E+00 0.  1.
         11    1    3    3    0    0 -0.28474286404E+02 -0.56015525652E+01  0.20130810533E+02  0.35318718979E+02  0.51100000000E-03 0. -1.
        -11    1    3    3    0    0 -0.46300163893E+01 -0.41127304490E+01  0.63530908029E+01  0.88720553719E+01  0.51100000000E-03 0.  1.
        -12    1    3    3    0    0 -0.18380192629E+01  0.50981145346E+00  0.41266769221E+00  0.19515422499E+01  0.00000000000E+00 0.  1.
</event>
<event>
 7    1  0.1541705E-008  0.4614232E+02  0.7816164E-02  0.1320468E+00
        -11   -1    0    0    0    0  0.00000000000E+00  0.00000000000E+00  0.45593999997E+02  0.45594000000E+02  0.51100000000E-03 0.  1.
         11   -1    0    0    0    0 -0.00000000000E+00 -0.00000000000E+00 -0.45593999997E+02  0.45594000000E+02  0.51100000000E-03 0. -1.
    9900012    2    1    2    0    0 -0.41325510645E+02  0.15053919085E+02 -0.97311452592E+01  0.46142317655E+02  0.99999990340E+01 0.  0.
        -12    1    1    2    0    0  0.41325510645E+02 -0.15053919085E+02  0.97311452592E+01  0.45045682345E+02  0.00000000000E+00 0.  1.
         11    1    3    3    0    0 -0.88522748269E+01  0.50727653463E+01 -0.21999775254E+01  0.10437222774E+02  0.51100000000E-03 0. -1.
        -11    1    3    3    0    0 -0.47919547119E+01  0.46488705600E+01 -0.81584872897E+00  0.67261011629E+01  0.51100000000E-03 0.  1.
        -12    1    3    3    0    0 -0.27681281106E+02  0.53322831783E+01 -0.67153190048E+01  0.28978993718E+02  0.00000000000E+00 0.  1.
</event>
<event>
 7    1  0.1541705E-008  0.4614232E+02  0.7816164E-02  0.1320468E+00
        -11   -1    0    0    0    0  0.00000000000E+00  0.00000000000E+00  0.45593999997E+02  0.45594000000E+02  0.51100000000E-03 0. -1.
         11   -1    0    0    0    0 -0.00000000000E+00 -0.00000000000E+00 -0.45593999997E+02  0.45594000000E+02  0.51100000000E-03 0.  1.
    9900012    2    1    2    0    0  0.42850633941E+02  0.30143230979E+01 -0.13559150162E+02  0.46142317344E+02  0.99999961947E+01 0.  0.
        -12    1    1    2    0    0 -0.42850633941E+02 -0.30143230979E+01  0.13559150162E+02  0.45045682656E+02  0.00000000000E+00 0.  1.
         11    1    3    3    0    0  0.19759110454E+02  0.50497953650E+00 -0.92742999012E+01  0.21833233594E+02  0.51100000000E-03 0. -1.
        -11    1    3    3    0    0  0.17678788767E+02  0.57059309583E+00 -0.10664566411E+01  0.17720115090E+02  0.51100000000E-03 0.  1.
        -12    1    3    3    0    0  0.54127347190E+01  0.19387504656E+01 -0.32183936199E+01  0.65889686597E+01  0.00000000000E+00 0.  1.
</event>
<event>
 7    1  0.1541705E-008  0.4614232E+02  0.7816164E-02  0.1320468E+00
        -11   -1    0    0    0    0  0.00000000000E+00  0.00000000000E+00  0.45593999997E+02  0.45594000000E+02  0.51100000000E-03 0.  1.
         11   -1    0    0    0    0 -0.00000000000E+00 -0.00000000000E+00 -0.45593999997E+02  0.45594000000E+02  0.51100000000E-03 0. -1.
    9900012    2    1    2    0    0  0.11747734149E+02 -0.66901658772E+01 -0.42969126891E+02  0.46142318266E+02  0.10000004603E+02 0.  0.
        -12    1    1    2    0    0 -0.11747734149E+02  0.66901658772E+01  0.42969126891E+02  0.45045681734E+02  0.00000000000E+00 0.  1.
         11    1    3    3    0    0  0.64882101311E+01 -0.62533650385E+01 -0.26619582684E+02  0.28103445118E+02  0.51100000000E-03 0. -1.
        -11    1    3    3    0    0 -0.52779808194E-01 -0.12438060856E+00  0.42212294006E+00  0.44322035330E+00  0.51100000000E-03 0.  1.
        -12    1    3    3    0    0  0.53123038262E+01 -0.31242023017E+00 -0.16771667148E+02  0.17595652794E+02  0.00000000000E+00 0.  1.
</event>
<event>
 7    1  0.1541705E-008  0.4614232E+02  0.7816164E-02  0.1320468E+00
        -11   -1    0    0    0    0  0.00000000000E+00  0.00000000000E+00  0.45593999997E+02  0.45594000000E+02  0.51100000000E-03 0.  1.
         11   -1    0    0    0    0 -0.00000000000E+00 -0.00000000000E+00 -0.45593999997E+02  0.45594000000E+02  0.51100000000E-03 0. -1.
    9900012    2    1    2    0    0  0.30398624065E+02 -0.26358076254E+02 -0.20255589029E+02  0.46142318567E+02  0.10000007349E+02 0.  0.
        -12    1    1    2    0    0 -0.30398624065E+02  0.26358076254E+02  0.20255589029E+02  0.45045681433E+02  0.00000000000E+00 0.  1.
         11    1    3    3    0    0  0.14623659094E+02 -0.11533987310E+02 -0.58173942453E+01  0.19512210142E+02  0.51100000000E-03 0. -1.
        -11    1    3    3    0    0  0.51153784076E+01 -0.16291404713E+01 -0.42088582925E+01  0.68217067744E+01  0.51100000000E-03 0.  1.
        -12    1    3    3    0    0  0.10659586563E+02 -0.13194948473E+02 -0.10229336492E+02  0.19808401651E+02  0.00000000000E+00 0.  1.
</event>
<event>
 7    1  0.1541705E-008  0.4614232E+02  0.7816164E-02  0.1320468E+00
        -11   -1    0    0    0    0  0.00000000000E+00  0.00000000000E+00  0.45593999997E+02  0.45594000000E+02  0.51100000000E-03 0.  1.
         11   -1    0    0    0    0 -0.00000000000E+00 -0.00000000000E+00 -0.45593999997E+02  0.45594000000E+02  0.51100000000E-03 0. -1.
    9900012    2    1    2    0    0 -0.14068835135E+02 -0.32099423762E+02 -0.28298557608E+02  0.46142317736E+02  0.99999997743E+01 0.  0.
        -12    1    1    2    0    0  0.14068835135E+02  0.32099423762E+02  0.28298557608E+02  0.45045682264E+02  0.00000000000E+00 0.  1.
         11    1    3    3    0    0 -0.73224130071E+01 -0.11596283184E+02 -0.10404706757E+02  0.17214802900E+02  0.51100000000E-03 0. -1.
        -11    1    3    3    0    0 -0.72613235009E+01 -0.20131611579E+02 -0.18312826584E+02  0.28166792886E+02  0.51100000000E-03 0.  1.
         12    1    3    3    0    0  0.51490137266E+00 -0.37152899938E+00  0.41897573283E+00  0.76072195029E+00  0.00000000000E+00 0. -1.
</event>
<event>
 7    1  0.1541705E-008  0.4614232E+02  0.7816164E-02  0.1320468E+00
        -11   -1    0    0    0    0  0.00000000000E+00  0.00000000000E+00  0.45593999997E+02  0.45594000000E+02  0.51100000000E-03 0.  1.
         11   -1    0    0    0    0 -0.00000000000E+00 -0.00000000000E+00 -0.45593999997E+02  0.45594000000E+02  0.51100000000E-03 0. -1.
    9900012    2    1    2    0    0  0.15302275482E+02 -0.15764323872E+02 -0.39324801683E+02  0.46142316861E+02  0.99999917881E+01 0.  0.
        -12    1    1    2    0    0 -0.15302275482E+02  0.15764323872E+02  0.39324801683E+02  0.45045683139E+02  0.00000000000E+00 0.  1.
         11    1    3    3    0    0  0.60543918077E+01 -0.68281164726E+01 -0.17604181578E+02  0.19828919386E+02  0.51100000000E-03 0. -1.
        -11    1    3    3    0    0  0.73895580847E+01 -0.40032536609E+01 -0.79514262485E+01  0.11569649442E+02  0.51100000000E-03 0.  1.
         12    1    3    3    0    0  0.18583255891E+01 -0.49329537384E+01 -0.13769193857E+02  0.14743748032E+02  0.00000000000E+00 0. -1.
</event>
<event>
 7    1  0.1541705E-008  0.4614232E+02  0.7816164E-02  0.1320468E+00
        -11   -1    0    0    0    0  0.00000000000E+00  0.00000000000E+00  0.45593999997E+02  0.45594000000E+02  0.51100000000E-03 0.  1.
         11   -1    0    0    0    0 -0.00000000000E+00 -0.00000000000E+00 -0.45593999997E+02  0.45594000000E+02  0.51100000000E-03 0. -1.
    9900012    2    1    2    0    0  0.34274146081E+02 -0.29187621585E+02 -0.15745462779E+01  0.46142317195E+02  0.99999948360E+01 0.  0.
        -12    1    1    2    0    0 -0.34274146081E+02  0.29187621585E+02  0.15745462779E+01  0.45045682805E+02  0.00000000000E+00 0.  1.
         11    1    3    3    0    0  0.48227746722E+01 -0.42921917268E+01 -0.10694571130E+01  0.65441427350E+01  0.51100000000E-03 0. -1.
        -11    1    3    3    0    0  0.29819975228E+02 -0.23038916202E+02 -0.74311968124E+00  0.37690513521E+02  0.51100000000E-03 0.  1.
        -12    1    3    3    0    0 -0.36860381858E+00 -0.18565136563E+01  0.23803051629E+00  0.19076609389E+01  0.00000000000E+00 0.  1.
</event>
<event>
 7    1  0.1541705E-008  0.4614232E+02  0.7816164E-02  0.1320468E+00
        -11   -1    0    0    0    0  0.00000000000E+00  0.00000000000E+00  0.45593999997E+02  0.45594000000E+02  0.51100000000E-03 0. -1.
         11   -1    0    0    0    0 -0.00000000000E+00 -0.00000000000E+00 -0.45593999997E+02  0.45594000000E+02  0.51100000000E-03 0.  1.
    9900012    2    1    2    0    0  0.24808370861E+02 -0.18850066277E+02  0.32532030783E+02  0.46142319959E+02  0.10000020047E+02 0.  0.
        -12    1    1    2    0    0 -0.24808370861E+02  0.18850066277E+02 -0.32532030783E+02  0.45045680041E+02  0.00000000000E+00 0.  1.
         11    1    3    3    0    0  0.11303281054E+02 -0.49781533322E+01  0.11996869362E+02  0.17218334645E+02  0.51100000000E-03 0. -1.
        -11    1    3    3    0    0  0.15361858899E+01  0.49794651439E+00  0.11105752911E+01  0.19598968232E+01  0.51100000000E-03 0.  1.
        -12    1    3    3    0    0  0.11968903918E+02 -0.14369859460E+02  0.19424586129E+02  0.26964088491E+02  0.00000000000E+00 0.  1.
</event>
<event>
 7    1  0.1541705E-008  0.4614232E+02  0.7816164E-02  0.1320468E+00
        -11   -1    0    0    0    0  0.00000000000E+00  0.00000000000E+00  0.45593999997E+02  0.45594000000E+02  0.51100000000E-03 0.  1.
         11   -1    0    0    0    0 -0.00000000000E+00 -0.00000000000E+00 -0.45593999997E+02  0.45594000000E+02  0.51100000000E-03 0. -1.
    9900012    2    1    2    0    0  0.15561460516E+02  0.41868926392E+02  0.58264604063E+01  0.46142315507E+02  0.99999794449E+01 0.  0.
        -12    1    1    2    0    0 -0.15561460516E+02 -0.41868926392E+02 -0.58264604063E+01  0.45045684493E+02  0.00000000000E+00 0.  1.
         11    1    3    3    0    0  0.28651013270E+01  0.54650314769E+01 -0.10545092222E+01  0.62599811995E+01  0.51100000000E-03 0. -1.
        -11    1    3    3    0    0  0.30136790599E+01  0.44889662473E+01 -0.12601376274E+01  0.55516688073E+01  0.51100000000E-03 0.  1.
         12    1    3    3    0    0  0.96826801293E+01  0.31914928667E+02  0.81411072559E+01  0.34330665500E+02  0.00000000000E+00 0. -1.
</event>
<event>
 7    1  0.1541705E-008  0.4614232E+02  0.7816164E-02  0.1320468E+00
        -11   -1    0    0    0    0  0.00000000000E+00  0.00000000000E+00  0.45593999997E+02  0.45594000000E+02  0.51100000000E-03 0.  1.
         11   -1    0    0    0    0 -0.00000000000E+00 -0.00000000000E+00 -0.45593999997E+02  0.45594000000E+02  0.51100000000E-03 0. -1.
    9900012    2    1    2    0    0  0.48577073891E+01  0.21334459688E+02 -0.39374573124E+02  0.46142317632E+02  0.99999988263E+01 0.  0.
        -12    1    1    2    0    0 -0.48577073891E+01 -0.21334459688E+02  0.39374573124E+02  0.45045682368E+02  0.00000000000E+00 0.  1.
         11    1    3    3    0    0  0.38839578760E+01  0.90940996401E+01 -0.15117050356E+02  0.18064135429E+02  0.51100000000E-03 0. -1.
        -11    1    3    3    0    0 -0.21554524099E+00  0.30434681411E+01 -0.13657818873E+02  0.13994469433E+02  0.51100000000E-03 0.  1.
        -12    1    3    3    0    0  0.11892947540E+01  0.91968919070E+01 -0.10599703895E+02  0.14083712771E+02  0.00000000000E+00 0.  1.
</event>
<event>
 7    1  0.1541705E-008  0.4614232E+02  0.7816164E-02  0.1320468E+00
        -11   -1    0    0    0    0  0.00000000000E+00  0.00000000000E+00  0.45593999997E+02  0.45594000000E+02  0.51100000000E-03 0. -1.
         11   -1    0    0    0    0 -0.00000000000E+00 -0.00000000000E+00 -0.45593999997E+02  0.45594000000E+02  0.51100000000E-03 0.  1.
    9900012    2    1    2    0    0  0.37617643206E+01  0.10968318512E+02  0.43527676512E+02  0.46142317584E+02  0.99999983862E+01 0.  0.
        -12    1    1    2    0    0 -0.37617643206E+01 -0.10968318512E+02 -0.43527676512E+02  0.45045682416E+02  0.00000000000E+00 0.  1.
         11    1    3    3    0    0 -0.31011594169E+01  0.24075115788E+01  0.10445832300E+02  0.11159243453E+02  0.51100000000E-03 0. -1.
        -11    1    3    3    0    0  0.69162643761E+01  0.82287426257E+01  0.32876135330E+02  0.34588830460E+02  0.51100000000E-03 0.  1.
        -12    1    3    3    0    0 -0.53340638515E-01  0.33206430802E+00  0.20570888210E+00  0.39424367154E+00  0.00000000000E+00 0.  1.
</event>
<event>
 7    1  0.1541705E-008  0.4614231E+02  0.7816164E-02  0.1320468E+00
        -11   -1    0    0    0    0  0.00000000000E+00  0.00000000000E+00  0.45593999997E+02  0.45594000000E+02  0.51100000000E-03 0. -1.
         11   -1    0    0    0    0 -0.00000000000E+00 -0.00000000000E+00 -0.45593999997E+02  0.45594000000E+02  0.51100000000E-03 0.  1.
    9900012    2    1    2    0    0 -0.89455202864E+01 -0.80190615795E+01  0.43414123791E+02  0.46142314010E+02  0.99999657923E+01 0.  0.
        -12    1    1    2    0    0  0.89455202864E+01  0.80190615795E+01 -0.43414123791E+02  0.45045685990E+02  0.00000000000E+00 0.  1.
         11    1    3    3    0    0  0.79785268888E+00 -0.15623295545E+01  0.81042987146E+01  0.82919901391E+01  0.51100000000E-03 0. -1.
        -11    1    3    3    0    0 -0.75763385438E+01 -0.67072610088E+01  0.33564517759E+02  0.35056598646E+02  0.51100000000E-03 0.  1.
        -12    1    3    3    0    0 -0.21670344315E+01  0.25052898374E+00  0.17453073167E+01  0.27937252243E+01  0.00000000000E+00 0.  1.
</event>
<event>
 7    1  0.1541705E-008  0.4614232E+02  0.7816164E-02  0.1320468E+00
        -11   -1    0    0    0    0  0.00000000000E+00  0.00000000000E+00  0.45593999997E+02  0.45594000000E+02  0.51100000000E-03 0.  1.
         11   -1    0    0    0    0 -0.00000000000E+00 -0.00000000000E+00 -0.45593999997E+02  0.45594000000E+02  0.51100000000E-03 0. -1.
    9900012    2    1    2    0    0  0.28127671132E+02 -0.31644179283E+02 -0.15381595394E+02  0.46142318268E+02  0.10000004625E+02 0.  0.
        -12    1    1    2    0    0 -0.28127671132E+02  0.31644179283E+02  0.15381595394E+02  0.45045681732E+02  0.00000000000E+00 0.  1.
         11    1    3    3    0    0  0.16450640569E+02 -0.19486950034E+02 -0.46766597880E+01  0.25927513259E+02  0.51100000000E-03 0. -1.
        -11    1    3    3    0    0  0.34662002788E+01 -0.18373118326E+01 -0.19097336029E+01  0.43631802436E+01  0.51100000000E-03 0.  1.
         12    1    3    3    0    0  0.82108302843E+01 -0.10319917416E+02 -0.87952020035E+01  0.15851624765E+02  0.00000000000E+00 0. -1.
</event>
<event>
 7    1  0.1541705E-008  0.4614232E+02  0.7816164E-02  0.1320468E+00
        -11   -1    0    0    0    0  0.00000000000E+00  0.00000000000E+00  0.45593999997E+02  0.45594000000E+02  0.51100000000E-03 0. -1.
         11   -1    0    0    0    0 -0.00000000000E+00 -0.00000000000E+00 -0.45593999997E+02  0.45594000000E+02  0.51100000000E-03 0.  1.
    9900012    2    1    2    0    0  0.24354673781E+02  0.29048588581E+02  0.24333985518E+02  0.46142317802E+02  0.10000000369E+02 0.  0.
        -12    1    1    2    0    0 -0.24354673781E+02 -0.29048588581E+02 -0.24333985518E+02  0.45045682198E+02  0.00000000000E+00 0.  1.
         11    1    3    3    0    0  0.11132979919E+02  0.15658415074E+02  0.97763303131E+01  0.21557036883E+02  0.51100000000E-03 0. -1.
        -11    1    3    3    0    0  0.67793707527E+01  0.10465624469E+02  0.11170388604E+02  0.16741169169E+02  0.51100000000E-03 0.  1.
        -12    1    3    3    0    0  0.64423231084E+01  0.29245490383E+01  0.33872666012E+01  0.78441117495E+01  0.00000000000E+00 0.  1.
</event>
<event>
 7    1  0.1541705E-008  0.4614232E+02  0.7816164E-02  0.1320468E+00
        -11   -1    0    0    0    0  0.00000000000E+00  0.00000000000E+00  0.45593999997E+02  0.45594000000E+02  0.51100000000E-03 0.  1.
         11   -1    0    0    0    0 -0.00000000000E+00 -0.00000000000E+00 -0.45593999997E+02  0.45594000000E+02  0.51100000000E-03 0. -1.
    9900012    2    1    2    0    0  0.30183135991E+02  0.18922989377E+02 -0.27568320104E+02  0.46142317648E+02  0.99999989654E+01 0.  0.
        -12    1    1    2    0    0 -0.30183135991E+02 -0.18922989377E+02  0.27568320104E+02  0.45045682352E+02  0.00000000000E+00 0.  1.
         11    1    3    3    0    0  0.18277610776E+02  0.11380044260E+02 -0.17289413773E+02  0.27613407829E+02  0.51100000000E-03 0. -1.
        -11    1    3    3    0    0  0.80224386657E+00 -0.92541801429E+00 -0.18482055107E+01  0.22171733341E+01  0.51100000000E-03 0.  1.
         12    1    3    3    0    0  0.11103281349E+02  0.84683631306E+01 -0.84307008206E+01  0.16311736485E+02  0.00000000000E+00 0. -1.
</event>
<event>
 7    1  0.1541705E-008  0.4614232E+02  0.7816164E-02  0.1320468E+00
        -11   -1    0    0    0    0  0.00000000000E+00  0.00000000000E+00  0.45593999997E+02  0.45594000000E+02  0.51100000000E-03 0. -1.
         11   -1    0    0    0    0 -0.00000000000E+00 -0.00000000000E+00 -0.45593999997E+02  0.45594000000E+02  0.51100000000E-03 0.  1.
    9900012    2    1    2    0    0 -0.38781533340E+02  0.22147877219E+02  0.58802807964E+01  0.46142317679E+02  0.99999992514E+01 0.  0.
        -12    1    1    2    0    0  0.38781533340E+02 -0.22147877219E+02 -0.58802807964E+01  0.45045682321E+02  0.00000000000E+00 0.  1.
         11    1    3    3    0    0 -0.77212322900E+01  0.87700397570E+01  0.12236137046E+01  0.11748542726E+02  0.51100000000E-03 0. -1.
        -11    1    3    3    0    0 -0.10448133509E+02  0.53481843775E+01  0.34761857294E+01  0.12241341325E+02  0.51100000000E-03 0.  1.
         12    1    3    3    0    0 -0.20612167541E+02  0.80296530846E+01  0.11804813624E+01  0.22152433628E+02  0.00000000000E+00 0. -1.
</event>
<event>
 7    1  0.1541705E-008  0.4614232E+02  0.7816164E-02  0.1320468E+00
        -11   -1    0    0    0    0  0.00000000000E+00  0.00000000000E+00  0.45593999997E+02  0.45594000000E+02  0.51100000000E-03 0.  1.
         11   -1    0    0    0    0 -0.00000000000E+00 -0.00000000000E+00 -0.45593999997E+02  0.45594000000E+02  0.51100000000E-03 0. -1.
    9900012    2    1    2    0    0 -0.21872700617E+02  0.21285409885E+02 -0.33130495456E+02  0.46142318349E+02  0.10000005358E+02 0.  0.
        -12    1    1    2    0    0  0.21872700617E+02 -0.21285409885E+02  0.33130495456E+02  0.45045681651E+02  0.00000000000E+00 0.  1.
         11    1    3    3    0    0 -0.22128893562E+01  0.42977442181E+00 -0.74043021604E+00  0.23727247043E+01  0.51100000000E-03 0. -1.
        -11    1    3    3    0    0 -0.67659667224E+01  0.33444717592E+01 -0.65184458922E+01  0.99726593318E+01  0.51100000000E-03 0.  1.
         12    1    3    3    0    0 -0.12893844538E+02  0.17511163704E+02 -0.25871619348E+02  0.33796934313E+02  0.00000000000E+00 0. -1.
</event>
<event>
 7    1  0.1541705E-008  0.4614232E+02  0.7816164E-02  0.1320468E+00
        -11   -1    0    0    0    0  0.00000000000E+00  0.00000000000E+00  0.45593999997E+02  0.45594000000E+02  0.51100000000E-03 0. -1.
         11   -1    0    0    0    0 -0.00000000000E+00 -0.00000000000E+00 -0.45593999997E+02  0.45594000000E+02  0.51100000000E-03 0.  1.
    9900012    2    1    2    0    0 -0.14590523832E+02 -0.15622082565E+02  0.39650732888E+02  0.46142317989E+02  0.10000002075E+02 0.  0.
        -12    1    1    2    0    0  0.14590523832E+02  0.15622082565E+02 -0.39650732888E+02  0.45045682011E+02  0.00000000000E+00 0.  1.
         11    1    3    3    0    0 -0.27119661972E+01 -0.54778192474E+01  0.98822113865E+01  0.11619783411E+02  0.51100000000E-03 0.  1.
        -11    1    3    3    0    0 -0.11517608734E+02 -0.92936503692E+01  0.20918582173E+02  0.25624486892E+02  0.51100000000E-03 0. -1.
        -12    1    3    3    0    0 -0.36094890077E+00 -0.85061294809E+00  0.88499393285E+01  0.88980476856E+01  0.00000000000E+00 0.  1.
</event>
<event>
 7    1  0.1541705E-008  0.4614232E+02  0.7816164E-02  0.1320468E+00
        -11   -1    0    0    0    0  0.00000000000E+00  0.00000000000E+00  0.45593999997E+02  0.45594000000E+02  0.51100000000E-03 0.  1.
         11   -1    0    0    0    0 -0.00000000000E+00 -0.00000000000E+00 -0.45593999997E+02  0.45594000000E+02  0.51100000000E-03 0. -1.
    9900012    2    1    2    0    0 -0.17311582683E+02 -0.19596761602E+02 -0.36679552390E+02  0.46142317368E+02  0.99999964146E+01 0.  0.
        -12    1    1    2    0    0  0.17311582683E+02  0.19596761602E+02  0.36679552390E+02  0.45045682632E+02  0.00000000000E+00 0.  1.
         11    1    3    3    0    0 -0.12758883485E+01  0.58931769664E+00 -0.14053236071E+01  0.19874911641E+01  0.51100000000E-03 0. -1.
        -11    1    3    3    0    0 -0.10138588692E+02 -0.15502406716E+02 -0.28697995380E+02  0.34156851930E+02  0.51100000000E-03 0.  1.
        -12    1    3    3    0    0 -0.58971056427E+01 -0.46836725828E+01 -0.65762334026E+01  0.99979742743E+01  0.00000000000E+00 0.  1.
</event>
<event>
 7    1  0.1541705E-008  0.4614232E+02  0.7816164E-02  0.1320468E+00
        -11   -1    0    0    0    0  0.00000000000E+00  0.00000000000E+00  0.45593999997E+02  0.45594000000E+02  0.51100000000E-03 0.  1.
         11   -1    0    0    0    0 -0.00000000000E+00 -0.00000000000E+00 -0.45593999997E+02  0.45594000000E+02  0.51100000000E-03 0. -1.
    9900012    2    1    2    0    0  0.22088683025E+02 -0.19920570081E+02 -0.33828605553E+02  0.46142316702E+02  0.99999903409E+01 0.  0.
        -12    1    1    2    0    0 -0.22088683025E+02  0.19920570081E+02  0.33828605553E+02  0.45045683298E+02  0.00000000000E+00 0.  1.
         11    1    3    3    0    0  0.18701173441E+02 -0.12713849380E+02 -0.24402620026E+02  0.33269561442E+02  0.51100000000E-03 0. -1.
        -11    1    3    3    0    0  0.38497592617E+01 -0.66322787201E+01 -0.71665588561E+01  0.10496062762E+02  0.51100000000E-03 0.  1.
         12    1    3    3    0    0 -0.46224967709E+00 -0.57444198054E+00 -0.22594266705E+01  0.23766924985E+01  0.00000000000E+00 0. -1.
</event>
<event>
 7    1  0.1541705E-008  0.4614232E+02  0.7816164E-02  0.1320468E+00
        -11   -1    0    0    0    0  0.00000000000E+00  0.00000000000E+00  0.45593999997E+02  0.45594000000E+02  0.51100000000E-03 0.  1.
         11   -1    0    0    0    0 -0.00000000000E+00 -0.00000000000E+00 -0.45593999997E+02  0.45594000000E+02  0.51100000000E-03 0. -1.
    9900012    2    1    2    0    0 -0.17428277487E+02  0.31545344048E+02 -0.27023321612E+02  0.46142317652E+02  0.99999990034E+01 0.  0.
        -12    1    1    2    0    0  0.17428277487E+02 -0.31545344048E+02  0.27023321612E+02  0.45045682348E+02  0.00000000000E+00 0.  1.
         11    1    3    3    0    0 -0.79483655708E+01  0.16920470105E+02 -0.15718994819E+02  0.24424692878E+02  0.51100000000E-03 0. -1.
        -11    1    3    3    0    0 -0.55076891875E+01  0.39690266460E+01 -0.21573150784E+01  0.71233293699E+01  0.51100000000E-03 0.  1.
        -12    1    3    3    0    0 -0.39722227291E+01  0.10655847297E+02 -0.91470117150E+01  0.14594295404E+02  0.00000000000E+00 0.  1.
</event>
<event>
 7    1  0.1541705E-008  0.4614232E+02  0.7816164E-02  0.1320468E+00
        -11   -1    0    0    0    0  0.00000000000E+00  0.00000000000E+00  0.45593999997E+02  0.45594000000E+02  0.51100000000E-03 0. -1.
         11   -1    0    0    0    0 -0.00000000000E+00 -0.00000000000E+00 -0.45593999997E+02  0.45594000000E+02  0.51100000000E-03 0.  1.
    9900012    2    1    2    0    0 -0.41760227095E+02  0.23417466076E+01  0.16724626612E+02  0.46142317860E+02  0.10000000898E+02 0.  0.
        -12    1    1    2    0    0  0.41760227095E+02 -0.23417466076E+01 -0.16724626612E+02  0.45045682140E+02  0.00000000000E+00 0.  1.
         11    1    3    3    0    0 -0.31676305208E+02  0.28861538516E+01  0.11954771092E+02  0.33979916830E+02  0.51100000000E-03 0. -1.
        -11    1    3    3    0    0 -0.56462859210E+00  0.83842752700E+00  0.18528258263E+01  0.21106231233E+01  0.51100000000E-03 0.  1.
         12    1    3    3    0    0 -0.95192932945E+01 -0.13828347710E+01  0.29170296943E+01  0.10051777906E+02  0.00000000000E+00 0. -1.
</event>
<event>
 7    1  0.1541705E-008  0.4614232E+02  0.7816164E-02  0.1320468E+00
        -11   -1    0    0    0    0  0.00000000000E+00  0.00000000000E+00  0.45593999997E+02  0.45594000000E+02  0.51100000000E-03 0. -1.
         11   -1    0    0    0    0 -0.00000000000E+00 -0.00000000000E+00 -0.45593999997E+02  0.45594000000E+02  0.51100000000E-03 0.  1.
    9900012    2    1    2    0    0  0.31829198916E+02  0.29161928136E+02  0.12868470647E+02  0.46142317709E+02  0.99999995228E+01 0.  0.
        -12    1    1    2    0    0 -0.31829198916E+02 -0.29161928136E+02 -0.12868470647E+02  0.45045682291E+02  0.00000000000E+00 0.  1.
         11    1    3    3    0    0  0.65688584276E+01  0.10336557105E+02  0.13297643479E+01  0.12319195888E+02  0.51100000000E-03 0.  1.
        -11    1    3    3    0    0  0.20820459683E+02  0.15483064880E+02  0.76857504598E+01  0.27060812994E+02  0.51100000000E-03 0. -1.
        -12    1    3    3    0    0  0.44398808057E+01  0.33423061511E+01  0.38529558397E+01  0.67623088275E+01  0.00000000000E+00 0.  1.
</event>
<event>
 7    1  0.1541705E-008  0.4614232E+02  0.7816164E-02  0.1320468E+00
        -11   -1    0    0    0    0  0.00000000000E+00  0.00000000000E+00  0.45593999997E+02  0.45594000000E+02  0.51100000000E-03 0. -1.
         11   -1    0    0    0    0 -0.00000000000E+00 -0.00000000000E+00 -0.45593999997E+02  0.45594000000E+02  0.51100000000E-03 0.  1.
    9900012    2    1    2    0    0  0.56709947637E+01  0.42680848133E+02  0.13240027631E+02  0.46142319734E+02  0.10000017993E+02 0.  0.
        -12    1    1    2    0    0 -0.56709947637E+01 -0.42680848133E+02 -0.13240027631E+02  0.45045680266E+02  0.00000000000E+00 0.  1.
         11    1    3    3    0    0 -0.20176624909E+00  0.88732846399E+01  0.55765256403E+01  0.10482057451E+02  0.51100000000E-03 0. -1.
        -11    1    3    3    0    0  0.10687981747E+01  0.14836748561E+02  0.71048231812E+00  0.14892153060E+02  0.51100000000E-03 0.  1.
         12    1    3    3    0    0  0.48039628381E+01  0.18970814932E+02  0.69530196728E+01  0.20768109223E+02  0.00000000000E+00 0. -1.
</event>
<event>
 7    1  0.1541705E-008  0.4614233E+02  0.7816164E-02  0.1320468E+00
        -11   -1    0    0    0    0  0.00000000000E+00  0.00000000000E+00  0.45593999997E+02  0.45594000000E+02  0.51100000000E-03 0. -1.
         11   -1    0    0    0    0 -0.00000000000E+00 -0.00000000000E+00 -0.45593999997E+02  0.45594000000E+02  0.51100000000E-03 0.  1.
    9900012    2    1    2    0    0  0.31281039464E+02  0.25616327036E+02  0.19859832291E+02  0.46142327851E+02  0.10000092003E+02 0.  0.
        -12    1    1    2    0    0 -0.31281039464E+02 -0.25616327036E+02 -0.19859832291E+02  0.45045672149E+02  0.00000000000E+00 0.  1.
         11    1    3    3    0    0  0.27133996293E+02  0.19106485072E+02  0.15819206612E+02  0.36763552940E+02  0.51100000000E-03 0. -1.
        -11    1    3    3    0    0  0.27665755879E+01  0.65188797805E+01  0.34480578138E+01  0.78764736415E+01  0.51100000000E-03 0.  1.
         12    1    3    3    0    0  0.13804675831E+01 -0.90378162611E-02  0.59256786446E+00  0.15023012695E+01  0.00000000000E+00 0. -1.
</event>
<event>
 7    1  0.1541705E-008  0.4614232E+02  0.7816164E-02  0.1320468E+00
        -11   -1    0    0    0    0  0.00000000000E+00  0.00000000000E+00  0.45593999997E+02  0.45594000000E+02  0.51100000000E-03 0.  1.
         11   -1    0    0    0    0 -0.00000000000E+00 -0.00000000000E+00 -0.45593999997E+02  0.45594000000E+02  0.51100000000E-03 0. -1.
    9900012    2    1    2    0    0  0.10758380480E+02 -0.10437654465E+01 -0.43729638855E+02  0.46142317507E+02  0.99999976814E+01 0.  0.
        -12    1    1    2    0    0 -0.10758380480E+02  0.10437654465E+01  0.43729638855E+02  0.45045682493E+02  0.00000000000E+00 0.  1.
         11    1    3    3    0    0  0.77899322423E+01 -0.25588528285E+00 -0.29440799147E+02  0.30455035319E+02  0.51100000000E-03 0. -1.
        -11    1    3    3    0    0 -0.13312045967E+01  0.11418243933E+01 -0.35384945012E+01  0.39492799621E+01  0.51100000000E-03 0.  1.
         12    1    3    3    0    0  0.42996528346E+01 -0.19297045570E+01 -0.10750345207E+02  0.11738002226E+02  0.00000000000E+00 0. -1.
</event>
<event>
 7    1  0.1541705E-008  0.4614232E+02  0.7816164E-02  0.1320468E+00
        -11   -1    0    0    0    0  0.00000000000E+00  0.00000000000E+00  0.45593999997E+02  0.45594000000E+02  0.51100000000E-03 0. -1.
         11   -1    0    0    0    0 -0.00000000000E+00 -0.00000000000E+00 -0.45593999997E+02  0.45594000000E+02  0.51100000000E-03 0.  1.
    9900012    2    1    2    0    0 -0.85756957167E+01 -0.33021496900E+02  0.29413459438E+02  0.46142318624E+02  0.10000007866E+02 0.  0.
        -12    1    1    2    0    0  0.85756957167E+01  0.33021496900E+02 -0.29413459438E+02  0.45045681376E+02  0.00000000000E+00 0.  1.
         11    1    3    3    0    0 -0.71843342734E+01 -0.22540214719E+02  0.22496369566E+02  0.32646019397E+02  0.51100000000E-03 0. -1.
        -11    1    3    3    0    0 -0.27422072309E+01 -0.94548353242E+01  0.54442127895E+01  0.11249580644E+02  0.51100000000E-03 0.  1.
         12    1    3    3    0    0  0.13508457876E+01 -0.10264468566E+01  0.14728770822E+01  0.22467185829E+01  0.00000000000E+00 0. -1.
</event>
<event>
 7    1  0.1541705E-008  0.4614232E+02  0.7816164E-02  0.1320468E+00
        -11   -1    0    0    0    0  0.00000000000E+00  0.00000000000E+00  0.45593999997E+02  0.45594000000E+02  0.51100000000E-03 0.  1.
         11   -1    0    0    0    0 -0.00000000000E+00 -0.00000000000E+00 -0.45593999997E+02  0.45594000000E+02  0.51100000000E-03 0. -1.
    9900012    2    1    2    0    0  0.35687773062E+02 -0.27349659832E+02  0.27372231762E+01  0.46142318412E+02  0.10000005935E+02 0.  0.
        -12    1    1    2    0    0 -0.35687773062E+02  0.27349659832E+02 -0.27372231762E+01  0.45045681588E+02  0.00000000000E+00 0.  1.
         11    1    3    3    0    0  0.18031395408E+02 -0.13758479836E+02  0.51714549739E+01  0.23263080935E+02  0.51100000000E-03 0. -1.
        -11    1    3    3    0    0  0.16300941940E+02 -0.13209969415E+02 -0.32805639072E+01  0.21236433314E+02  0.51100000000E-03 0.  1.
        -12    1    3    3    0    0  0.13554357138E+01 -0.38121058070E+00  0.84633210943E+00  0.16428041638E+01  0.00000000000E+00 0.  1.
</event>
<event>
 7    1  0.1541705E-008  0.4614232E+02  0.7816164E-02  0.1320468E+00
        -11   -1    0    0    0    0  0.00000000000E+00  0.00000000000E+00  0.45593999997E+02  0.45594000000E+02  0.51100000000E-03 0.  1.
         11   -1    0    0    0    0 -0.00000000000E+00 -0.00000000000E+00 -0.45593999997E+02  0.45594000000E+02  0.51100000000E-03 0. -1.
    9900012    2    1    2    0    0  0.39927442029E+02 -0.12326842165E+02 -0.16821468722E+02  0.46142317913E+02  0.10000001382E+02 0.  0.
        -12    1    1    2    0    0 -0.39927442029E+02  0.12326842165E+02  0.16821468722E+02  0.45045682087E+02  0.00000000000E+00 0.  1.
         11    1    3    3    0    0  0.17740283141E+02 -0.61905569382E+01 -0.11115791603E+02  0.21831203915E+02  0.51100000000E-03 0. -1.
        -11    1    3    3    0    0 -0.30915764356E+00 -0.87478996174E-01  0.21773061805E-01  0.32203315153E+00  0.51100000000E-03 0.  1.
         12    1    3    3    0    0  0.22496316531E+02 -0.60488062302E+01 -0.57274501816E+01  0.23989080847E+02  0.00000000000E+00 0. -1.
</event>
<event>
 7    1  0.1541705E-008  0.4614232E+02  0.7816164E-02  0.1320468E+00
        -11   -1    0    0    0    0  0.00000000000E+00  0.00000000000E+00  0.45593999997E+02  0.45594000000E+02  0.51100000000E-03 0. -1.
         11   -1    0    0    0    0 -0.00000000000E+00 -0.00000000000E+00 -0.45593999997E+02  0.45594000000E+02  0.51100000000E-03 0.  1.
    9900012    2    1    2    0    0 -0.86106506883E+01 -0.44111330273E+02  0.30266726432E+01  0.46142317510E+02  0.99999977068E+01 0.  0.
        -12    1    1    2    0    0  0.86106506883E+01  0.44111330273E+02 -0.30266726432E+01  0.45045682490E+02  0.00000000000E+00 0.  1.
         11    1    3    3    0    0 -0.53215843517E+01 -0.26761349843E+02 -0.18444274261E+01  0.27347596205E+02  0.51100000000E-03 0. -1.
        -11    1    3    3    0    0  0.24971747156E+00  0.14275777534E+00  0.18729551043E+00  0.34324694809E+00  0.51100000000E-03 0.  1.
         12    1    3    3    0    0 -0.35387838082E+01 -0.17492738206E+02  0.46838045589E+01  0.18451474356E+02  0.00000000000E+00 0. -1.
</event>
<event>
 7    1  0.1541705E-008  0.4614232E+02  0.7816164E-02  0.1320468E+00
        -11   -1    0    0    0    0  0.00000000000E+00  0.00000000000E+00  0.45593999997E+02  0.45594000000E+02  0.51100000000E-03 0.  1.
         11   -1    0    0    0    0 -0.00000000000E+00 -0.00000000000E+00 -0.45593999997E+02  0.45594000000E+02  0.51100000000E-03 0. -1.
    9900012    2    1    2    0    0 -0.37838005054E+00  0.21473913291E+02 -0.39595976109E+02  0.46142318214E+02  0.10000004133E+02 0.  0.
        -12    1    1    2    0    0  0.37838005054E+00 -0.21473913291E+02  0.39595976109E+02  0.45045681786E+02  0.00000000000E+00 0.  1.
         11    1    3    3    0    0  0.21260611595E+01  0.30677052207E+01 -0.10406402508E+02  0.11055503823E+02  0.51100000000E-03 0.  1.
        -11    1    3    3    0    0  0.14139509708E+01  0.98570220257E+01 -0.13171517307E+02  0.16512086754E+02  0.51100000000E-03 0. -1.
        -12    1    3    3    0    0 -0.39183921809E+01  0.85491860446E+01 -0.16018056295E+02  0.18574727637E+02  0.00000000000E+00 0.  1.
</event>
<event>
 7    1  0.1541705E-008  0.4614232E+02  0.7816164E-02  0.1320468E+00
        -11   -1    0    0    0    0  0.00000000000E+00  0.00000000000E+00  0.45593999997E+02  0.45594000000E+02  0.51100000000E-03 0. -1.
         11   -1    0    0    0    0 -0.00000000000E+00 -0.00000000000E+00 -0.45593999997E+02  0.45594000000E+02  0.51100000000E-03 0.  1.
    9900012    2    1    2    0    0 -0.67599694080E+01 -0.37591311161E+02  0.23881156716E+02  0.46142317551E+02  0.99999980837E+01 0.  0.
        -12    1    1    2    0    0  0.67599694080E+01  0.37591311161E+02 -0.23881156716E+02  0.45045682449E+02  0.00000000000E+00 0.  1.
         11    1    3    3    0    0 -0.39265670007E+01 -0.28898093199E+02  0.21166268583E+02  0.36035102954E+02  0.51100000000E-03 0. -1.
        -11    1    3    3    0    0  0.62510628487E+00 -0.38370315203E+00  0.15403515686E+00  0.74947519434E+00  0.51100000000E-03 0.  1.
         12    1    3    3    0    0 -0.34585086921E+01 -0.83095148103E+01  0.25608529760E+01  0.93577394022E+01  0.00000000000E+00 0. -1.
</event>
<event>
 7    1  0.1541705E-008  0.4614232E+02  0.7816164E-02  0.1320468E+00
        -11   -1    0    0    0    0  0.00000000000E+00  0.00000000000E+00  0.45593999997E+02  0.45594000000E+02  0.51100000000E-03 0.  1.
         11   -1    0    0    0    0 -0.00000000000E+00 -0.00000000000E+00 -0.45593999997E+02  0.45594000000E+02  0.51100000000E-03 0. -1.
    9900012    2    1    2    0    0 -0.29937960756E+02  0.19920217601E+02 -0.27129632220E+02  0.46142317545E+02  0.99999980260E+01 0.  0.
        -12    1    1    2    0    0  0.29937960756E+02 -0.19920217601E+02  0.27129632220E+02  0.45045682455E+02  0.00000000000E+00 0.  1.
         11    1    3    3    0    0  0.28654663610E+00  0.57239175411E+00 -0.38105820142E+00  0.74494758797E+00  0.51100000000E-03 0. -1.
        -11    1    3    3    0    0 -0.25401018867E+02  0.14834682800E+02 -0.18187703561E+02  0.34584275825E+02  0.51100000000E-03 0.  1.
        -12    1    3    3    0    0 -0.48234885253E+01  0.45131430469E+01 -0.85608704575E+01  0.10813094132E+02  0.00000000000E+00 0.  1.
</event>
<event>
 7    1  0.1541705E-008  0.4614231E+02  0.7816164E-02  0.1320468E+00
        -11   -1    0    0    0    0  0.00000000000E+00  0.00000000000E+00  0.45593999997E+02  0.45594000000E+02  0.51100000000E-03 0. -1.
         11   -1    0    0    0    0 -0.00000000000E+00 -0.00000000000E+00 -0.45593999997E+02  0.45594000000E+02  0.51100000000E-03 0.  1.
    9900012    2    1    2    0    0  0.35229654372E+02 -0.13773366343E+02  0.24459754300E+02  0.46142314879E+02  0.99999737188E+01 0.  0.
        -12    1    1    2    0    0 -0.35229654372E+02  0.13773366343E+02 -0.24459754300E+02  0.45045685121E+02  0.00000000000E+00 0.  1.
         11    1    3    3    0    0  0.19415081148E+02 -0.95170715518E+01  0.16034169270E+02  0.26918666597E+02  0.51100000000E-03 0. -1.
        -11    1    3    3    0    0  0.10478937002E+02 -0.17898650542E+00  0.60458910286E+01  0.12099295659E+02  0.51100000000E-03 0.  1.
         12    1    3    3    0    0  0.53356362226E+01 -0.40773082861E+01  0.23796940006E+01  0.71243526230E+01  0.00000000000E+00 0. -1.
</event>
<event>
 7    1  0.1541705E-008  0.4614232E+02  0.7816164E-02  0.1320468E+00
        -11   -1    0    0    0    0  0.00000000000E+00  0.00000000000E+00  0.45593999997E+02  0.45594000000E+02  0.51100000000E-03 0.  1.
         11   -1    0    0    0    0 -0.00000000000E+00 -0.00000000000E+00 -0.45593999997E+02  0.45594000000E+02  0.51100000000E-03 0. -1.
    9900012    2    1    2    0    0 -0.21335476133E+02 -0.33704926380E+02 -0.20925796698E+02  0.46142316838E+02  0.99999915858E+01 0.  0.
        -12    1    1    2    0    0  0.21335476133E+02  0.33704926380E+02  0.20925796698E+02  0.45045683162E+02  0.00000000000E+00 0.  1.
         11    1    3    3    0    0 -0.93074305550E+01 -0.14292217376E+02 -0.60989371796E+01  0.18113331445E+02  0.51100000000E-03 0. -1.
        -11    1    3    3    0    0 -0.46663507727E+01 -0.58264468377E+01 -0.85504071561E+01  0.11350408587E+02  0.51100000000E-03 0.  1.
        -12    1    3    3    0    0 -0.73616948051E+01 -0.13586262166E+02 -0.62764523618E+01  0.16678576806E+02  0.00000000000E+00 0.  1.
</event>
<event>
 7    1  0.1541705E-008  0.4614231E+02  0.7816164E-02  0.1320468E+00
        -11   -1    0    0    0    0  0.00000000000E+00  0.00000000000E+00  0.45593999997E+02  0.45594000000E+02  0.51100000000E-03 0.  1.
         11   -1    0    0    0    0 -0.00000000000E+00 -0.00000000000E+00 -0.45593999997E+02  0.45594000000E+02  0.51100000000E-03 0. -1.
    9900012    2    1    2    0    0 -0.32333532984E+00 -0.33780177454E+02 -0.29797799615E+02  0.46142314341E+02  0.99999688152E+01 0.  0.
        -12    1    1    2    0    0  0.32333532984E+00  0.33780177454E+02  0.29797799615E+02  0.45045685659E+02  0.00000000000E+00 0.  1.
         11    1    3    3    0    0  0.29664893919E+01 -0.39220206463E+01 -0.28939937514E+01  0.57059184499E+01  0.51100000000E-03 0.  1.
        -11    1    3    3    0    0 -0.31346362006E+01 -0.14913750904E+02 -0.13312283867E+02  0.20235187475E+02  0.51100000000E-03 0. -1.
        -12    1    3    3    0    0 -0.15518852110E+00 -0.14944405904E+02 -0.13591521996E+02  0.20201208417E+02  0.00000000000E+00 0.  1.
</event>
<event>
 7    1  0.1541705E-008  0.4614232E+02  0.7816164E-02  0.1320468E+00
        -11   -1    0    0    0    0  0.00000000000E+00  0.00000000000E+00  0.45593999997E+02  0.45594000000E+02  0.51100000000E-03 0.  1.
         11   -1    0    0    0    0 -0.00000000000E+00 -0.00000000000E+00 -0.45593999997E+02  0.45594000000E+02  0.51100000000E-03 0. -1.
    9900012    2    1    2    0    0  0.35296919417E+02 -0.38073825235E+01 -0.27726246755E+02  0.46142318286E+02  0.10000004785E+02 0.  0.
        -12    1    1    2    0    0 -0.35296919417E+02  0.38073825235E+01  0.27726246755E+02  0.45045681714E+02  0.00000000000E+00 0.  1.
         11    1    3    3    0    0  0.58628423329E+01 -0.81327225059E+00 -0.38709663056E+01  0.70723908527E+01  0.51100000000E-03 0. -1.
        -11    1    3    3    0    0  0.18315770796E+02 -0.13230769398E+01 -0.20077838144E+02  0.27209145103E+02  0.51100000000E-03 0.  1.
        -12    1    3    3    0    0  0.11118306288E+02 -0.16710333331E+01 -0.37774423053E+01  0.11860782330E+02  0.00000000000E+00 0.  1.
</event>
<event>
 7    1  0.1541705E-008  0.4614232E+02  0.7816164E-02  0.1320468E+00
        -11   -1    0    0    0    0  0.00000000000E+00  0.00000000000E+00  0.45593999997E+02  0.45594000000E+02  0.51100000000E-03 0.  1.
         11   -1    0    0    0    0 -0.00000000000E+00 -0.00000000000E+00 -0.45593999997E+02  0.45594000000E+02  0.51100000000E-03 0. -1.
    9900012    2    1    2    0    0 -0.20396631416E+02 -0.14956221653E+00 -0.40163024774E+02  0.46142317621E+02  0.99999987261E+01 0.  0.
        -12    1    1    2    0    0  0.20396631416E+02  0.14956221653E+00  0.40163024774E+02  0.45045682379E+02  0.00000000000E+00 0.  1.
         11    1    3    3    0    0 -0.16746511211E+02  0.33490118708E+01 -0.33173042126E+02  0.37311020388E+02  0.51100000000E-03 0. -1.
        -11    1    3    3    0    0 -0.22006872233E+01 -0.98514849802E+00 -0.24057787540E+01  0.34060700950E+01  0.51100000000E-03 0.  1.
         12    1    3    3    0    0 -0.14494329813E+01 -0.25134255893E+01 -0.45842038940E+01  0.54252271383E+01  0.00000000000E+00 0. -1.
</event>
<event>
 7    1  0.1541705E-008  0.4614232E+02  0.7816164E-02  0.1320468E+00
        -11   -1    0    0    0    0  0.00000000000E+00  0.00000000000E+00  0.45593999997E+02  0.45594000000E+02  0.51100000000E-03 0.  1.
         11   -1    0    0    0    0 -0.00000000000E+00 -0.00000000000E+00 -0.45593999997E+02  0.45594000000E+02  0.51100000000E-03 0. -1.
    9900012    2    1    2    0    0  0.33199537071E+02 -0.70015599885E+01 -0.29629079576E+02  0.46142318070E+02  0.10000002819E+02 0.  0.
        -12    1    1    2    0    0 -0.33199537071E+02  0.70015599885E+01  0.29629079576E+02  0.45045681930E+02  0.00000000000E+00 0.  1.
         11    1    3    3    0    0  0.12436064710E+02 -0.69330542503E+01 -0.94826721495E+01  0.17106841265E+02  0.51100000000E-03 0. -1.
        -11    1    3    3    0    0  0.12880779281E+02  0.11197903935E+01 -0.12076521066E+02  0.17692110296E+02  0.51100000000E-03 0.  1.
         12    1    3    3    0    0  0.78826930794E+01 -0.11882961317E+01 -0.80698863606E+01  0.11343366509E+02  0.00000000000E+00 0. -1.
</event>
<event>
 7    1  0.1541705E-008  0.4614232E+02  0.7816164E-02  0.1320468E+00
        -11   -1    0    0    0    0  0.00000000000E+00  0.00000000000E+00  0.45593999997E+02  0.45594000000E+02  0.51100000000E-03 0.  1.
         11   -1    0    0    0    0 -0.00000000000E+00 -0.00000000000E+00 -0.45593999997E+02  0.45594000000E+02  0.51100000000E-03 0. -1.
    9900012    2    1    2    0    0  0.29637727447E+02  0.33919492435E+02 -0.43198138783E+00  0.46142318040E+02  0.10000002544E+02 0.  0.
        -12    1    1    2    0    0 -0.29637727447E+02 -0.33919492435E+02  0.43198138783E+00  0.45045681960E+02  0.00000000000E+00 0.  1.
         11    1    3    3    0    0  0.17686897980E+02  0.16705280753E+02 -0.33996519766E+01  0.24565227437E+02  0.51100000000E-03 0. -1.
        -11    1    3    3    0    0  0.91813484480E+01  0.14139451608E+02  0.39684935090E+01  0.17319647574E+02  0.51100000000E-03 0.  1.
        -12    1    3    3    0    0  0.27694810193E+01  0.30747600737E+01 -0.10008229202E+01  0.42574430289E+01  0.00000000000E+00 0.  1.
</event>
<event>
 7    1  0.1541705E-008  0.4614232E+02  0.7816164E-02  0.1320468E+00
        -11   -1    0    0    0    0  0.00000000000E+00  0.00000000000E+00  0.45593999997E+02  0.45594000000E+02  0.51100000000E-03 0.  1.
         11   -1    0    0    0    0 -0.00000000000E+00 -0.00000000000E+00 -0.45593999997E+02  0.45594000000E+02  0.51100000000E-03 0. -1.
    9900012    2    1    2    0    0 -0.26185488589E+02  0.18796290129E+02  0.31466377923E+02  0.46142320131E+02  0.10000021612E+02 0.  0.
        -12    1    1    2    0    0  0.26185488589E+02 -0.18796290129E+02 -0.31466377923E+02  0.45045679869E+02  0.00000000000E+00 0.  1.
         11    1    3    3    0    0 -0.19259542739E+02  0.17130676012E+02  0.26551292904E+02  0.37004880790E+02  0.51100000000E-03 0. -1.
        -11    1    3    3    0    0 -0.74522620514E+00 -0.61919434248E+00  0.95707244074E-01  0.97361381886E+00  0.51100000000E-03 0.  1.
         12    1    3    3    0    0 -0.61807196442E+01  0.22848084594E+01  0.48193777756E+01  0.81638255224E+01  0.00000000000E+00 0. -1.
</event>
<event>
 7    1  0.1541705E-008  0.4614232E+02  0.7816164E-02  0.1320468E+00
        -11   -1    0    0    0    0  0.00000000000E+00  0.00000000000E+00  0.45593999997E+02  0.45594000000E+02  0.51100000000E-03 0.  1.
         11   -1    0    0    0    0 -0.00000000000E+00 -0.00000000000E+00 -0.45593999997E+02  0.45594000000E+02  0.51100000000E-03 0. -1.
    9900012    2    1    2    0    0 -0.12473885213E+02  0.21184641249E+02 -0.37745551258E+02  0.46142317888E+02  0.10000001154E+02 0.  0.
        -12    1    1    2    0    0  0.12473885213E+02 -0.21184641249E+02  0.37745551258E+02  0.45045682112E+02  0.00000000000E+00 0.  1.
         11    1    3    3    0    0 -0.36462629516E+00 -0.63093097549E+00 -0.23301609099E+00  0.76506404355E+00  0.51100000000E-03 0. -1.
        -11    1    3    3    0    0 -0.61964583404E+01  0.72468683782E+01 -0.11039016375E+02  0.14586743298E+02  0.51100000000E-03 0.  1.
         12    1    3    3    0    0 -0.59128005772E+01  0.14568703847E+02 -0.26473518792E+02  0.30790510546E+02  0.00000000000E+00 0. -1.
</event>
<event>
 7    1  0.1541705E-008  0.4614232E+02  0.7816164E-02  0.1320468E+00
        -11   -1    0    0    0    0  0.00000000000E+00  0.00000000000E+00  0.45593999997E+02  0.45594000000E+02  0.51100000000E-03 0. -1.
         11   -1    0    0    0    0 -0.00000000000E+00 -0.00000000000E+00 -0.45593999997E+02  0.45594000000E+02  0.51100000000E-03 0.  1.
    9900012    2    1    2    0    0 -0.24580014664E+02 -0.85321735300E+01  0.36771434417E+02  0.46142317686E+02  0.99999993170E+01 0.  0.
        -12    1    1    2    0    0  0.24580014664E+02  0.85321735300E+01 -0.36771434417E+02  0.45045682314E+02  0.00000000000E+00 0.  1.
         11    1    3    3    0    0 -0.61489878071E+01  0.79500249442E+00  0.40486430692E+01  0.74049706941E+01  0.51100000000E-03 0. -1.
        -11    1    3    3    0    0 -0.15203362222E+02 -0.78610281605E+01  0.28246510596E+02  0.33027312148E+02  0.51100000000E-03 0.  1.
         12    1    3    3    0    0 -0.32276646347E+01 -0.14661478640E+01  0.44762807521E+01  0.57100348445E+01  0.00000000000E+00 0. -1.
</event>
<event>
 7    1  0.1541705E-008  0.4614231E+02  0.7816164E-02  0.1320468E+00
        -11   -1    0    0    0    0  0.00000000000E+00  0.00000000000E+00  0.45593999997E+02  0.45594000000E+02  0.51100000000E-03 0.  1.
         11   -1    0    0    0    0 -0.00000000000E+00 -0.00000000000E+00 -0.45593999997E+02  0.45594000000E+02  0.51100000000E-03 0. -1.
    9900012    2    1    2    0    0  0.29598070273E+02  0.33672594218E+02  0.43845973814E+01  0.46142311423E+02  0.99999421995E+01 0.  0.
        -12    1    1    2    0    0 -0.29598070273E+02 -0.33672594218E+02 -0.43845973814E+01  0.45045688577E+02  0.00000000000E+00 0.  1.
         11    1    3    3    0    0  0.16515310772E+02  0.20057240823E+02  0.56484922336E+01  0.26588604027E+02  0.51100000000E-03 0. -1.
        -11    1    3    3    0    0  0.46069723875E+01  0.83266151459E+01 -0.86309385667E+00  0.95551894609E+01  0.51100000000E-03 0.  1.
        -12    1    3    3    0    0  0.84757871129E+01  0.52887382489E+01 -0.40080099551E+00  0.99985179345E+01  0.00000000000E+00 0.  1.
</event>
<event>
 7    1  0.1541705E-008  0.4614232E+02  0.7816164E-02  0.1320468E+00
        -11   -1    0    0    0    0  0.00000000000E+00  0.00000000000E+00  0.45593999997E+02  0.45594000000E+02  0.51100000000E-03 0. -1.
         11   -1    0    0    0    0 -0.00000000000E+00 -0.00000000000E+00 -0.45593999997E+02  0.45594000000E+02  0.51100000000E-03 0.  1.
    9900012    2    1    2    0    0 -0.31925787723E+02  0.14921270872E+02  0.28057320779E+02  0.46142317683E+02  0.99999992832E+01 0.  0.
        -12    1    1    2    0    0  0.31925787723E+02 -0.14921270872E+02 -0.28057320779E+02  0.45045682317E+02  0.00000000000E+00 0.  1.
         11    1    3    3    0    0 -0.14133629561E+02  0.74377136411E+01  0.76308543248E+01  0.17700536906E+02  0.51100000000E-03 0. -1.
        -11    1    3    3    0    0 -0.37228731418E+01  0.31317066069E+01  0.69209953574E+01  0.84597604989E+01  0.51100000000E-03 0.  1.
         12    1    3    3    0    0 -0.14069285020E+02  0.43518506241E+01  0.13505471096E+02  0.19982020278E+02  0.00000000000E+00 0. -1.
</event>
<event>
 7    1  0.1541705E-008  0.4614232E+02  0.7816164E-02  0.1320468E+00
        -11   -1    0    0    0    0  0.00000000000E+00  0.00000000000E+00  0.45593999997E+02  0.45594000000E+02  0.51100000000E-03 0.  1.
         11   -1    0    0    0    0 -0.00000000000E+00 -0.00000000000E+00 -0.45593999997E+02  0.45594000000E+02  0.51100000000E-03 0. -1.
    9900012    2    1    2    0    0 -0.44756393330E+02  0.26383993021E+01 -0.43608945540E+01  0.46142319895E+02  0.10000019462E+02 0.  0.
        -12    1    1    2    0    0  0.44756393330E+02 -0.26383993021E+01  0.43608945540E+01  0.45045680105E+02  0.00000000000E+00 0.  1.
         11    1    3    3    0    0 -0.33145325332E+02  0.38944252066E+01  0.57217452840E-01  0.33373378809E+02  0.51100000000E-03 0. -1.
        -11    1    3    3    0    0 -0.52089605246E+01 -0.15908370867E+01 -0.11238153303E+01  0.55612043247E+01  0.51100000000E-03 0.  1.
         12    1    3    3    0    0 -0.64021074733E+01  0.33481118221E+00 -0.32942966766E+01  0.72077367614E+01  0.00000000000E+00 0. -1.
</event>
<event>
 7    1  0.1541705E-008  0.4614232E+02  0.7816164E-02  0.1320468E+00
        -11   -1    0    0    0    0  0.00000000000E+00  0.00000000000E+00  0.45593999997E+02  0.45594000000E+02  0.51100000000E-03 0. -1.
         11   -1    0    0    0    0 -0.00000000000E+00 -0.00000000000E+00 -0.45593999997E+02  0.45594000000E+02  0.51100000000E-03 0.  1.
    9900012    2    1    2    0    0 -0.90248770505E+01 -0.11929087850E+00  0.44132197574E+02  0.46142317646E+02  0.99999989465E+01 0.  0.
        -12    1    1    2    0    0  0.90248770505E+01  0.11929087850E+00 -0.44132197574E+02  0.45045682354E+02  0.00000000000E+00 0.  1.
         11    1    3    3    0    0 -0.36841991534E+01  0.13925651467E+01  0.67965948852E+01  0.78553334356E+01  0.51100000000E-03 0. -1.
        -11    1    3    3    0    0  0.13903936294E+01 -0.93176155092E+00  0.92515293607E+01  0.94017110041E+01  0.51100000000E-03 0.  1.
        -12    1    3    3    0    0 -0.67310715264E+01 -0.58009447424E+00  0.28084073328E+02  0.28885273206E+02  0.00000000000E+00 0.  1.
</event>
<event>
 7    1  0.1541705E-008  0.4614232E+02  0.7816164E-02  0.1320468E+00
        -11   -1    0    0    0    0  0.00000000000E+00  0.00000000000E+00  0.45593999997E+02  0.45594000000E+02  0.51100000000E-03 0. -1.
         11   -1    0    0    0    0 -0.00000000000E+00 -0.00000000000E+00 -0.45593999997E+02  0.45594000000E+02  0.51100000000E-03 0.  1.
    9900012    2    1    2    0    0 -0.22424592133E+02 -0.32135981379E+02  0.22215527184E+02  0.46142320079E+02  0.10000021138E+02 0.  0.
        -12    1    1    2    0    0  0.22424592133E+02  0.32135981379E+02 -0.22215527184E+02  0.45045679921E+02  0.00000000000E+00 0.  1.
         11    1    3    3    0    0 -0.10274508108E+02 -0.17760046152E+02  0.78784553337E+01  0.21978508022E+02  0.51100000000E-03 0. -1.
        -11    1    3    3    0    0 -0.56679958186E+00 -0.30825029006E+01  0.34660451912E+01  0.46729600283E+01  0.51100000000E-03 0.  1.
         12    1    3    3    0    0 -0.11583284442E+02 -0.11293432326E+02  0.10871026659E+02  0.19490852029E+02  0.00000000000E+00 0. -1.
</event>
<event>
 7    1  0.1541705E-008  0.4614232E+02  0.7816164E-02  0.1320468E+00
        -11   -1    0    0    0    0  0.00000000000E+00  0.00000000000E+00  0.45593999997E+02  0.45594000000E+02  0.51100000000E-03 0.  1.
         11   -1    0    0    0    0 -0.00000000000E+00 -0.00000000000E+00 -0.45593999997E+02  0.45594000000E+02  0.51100000000E-03 0. -1.
    9900012    2    1    2    0    0 -0.63080051127E+01 -0.44571961763E+02 -0.16317924896E+01  0.46142318180E+02  0.10000003815E+02 0.  0.
        -12    1    1    2    0    0  0.63080051127E+01  0.44571961763E+02  0.16317924896E+01  0.45045681820E+02  0.00000000000E+00 0.  1.
         11    1    3    3    0    0 -0.12558968484E+01 -0.15494228134E+01 -0.15402381687E+01  0.25199844892E+01  0.51100000000E-03 0. -1.
        -11    1    3    3    0    0 -0.22536760036E+01 -0.20064352952E+02  0.25202782230E+01  0.20347213998E+02  0.51100000000E-03 0.  1.
         12    1    3    3    0    0 -0.27984322607E+01 -0.22958185998E+02 -0.26118325438E+01  0.23275119692E+02  0.00000000000E+00 0. -1.
</event>
<event>
 7    1  0.1541705E-008  0.4614232E+02  0.7816164E-02  0.1320468E+00
        -11   -1    0    0    0    0  0.00000000000E+00  0.00000000000E+00  0.45593999997E+02  0.45594000000E+02  0.51100000000E-03 0.  1.
         11   -1    0    0    0    0 -0.00000000000E+00 -0.00000000000E+00 -0.45593999997E+02  0.45594000000E+02  0.51100000000E-03 0. -1.
    9900012    2    1    2    0    0  0.18263301345E+01 -0.66733983015E+01 -0.44511164906E+02  0.46142317322E+02  0.99999959936E+01 0.  0.
        -12    1    1    2    0    0 -0.18263301345E+01  0.66733983015E+01  0.44511164906E+02  0.45045682678E+02  0.00000000000E+00 0.  1.
         11    1    3    3    0    0  0.11613429914E+01 -0.39886269528E+01 -0.91013749887E+01  0.10004643395E+02  0.51100000000E-03 0.  1.
        -11    1    3    3    0    0  0.21871698451E+01 -0.41501307217E+01 -0.29292497264E+02  0.29665766350E+02  0.51100000000E-03 0. -1.
         12    1    3    3    0    0 -0.15221827021E+01  0.14653593730E+01 -0.61172926539E+01  0.64719075769E+01  0.00000000000E+00 0. -1.
</event>
<event>
 7    1  0.1541705E-008  0.4614231E+02  0.7816164E-02  0.1320468E+00
        -11   -1    0    0    0    0  0.00000000000E+00  0.00000000000E+00  0.45593999997E+02  0.45594000000E+02  0.51100000000E-03 0.  1.
         11   -1    0    0    0    0 -0.00000000000E+00 -0.00000000000E+00 -0.45593999997E+02  0.45594000000E+02  0.51100000000E-03 0. -1.
    9900012    2    1    2    0    0 -0.26499851892E+01  0.15425476866E+02 -0.42239153288E+02  0.46142313985E+02  0.99999655666E+01 0.  0.
        -12    1    1    2    0    0  0.26499851892E+01 -0.15425476866E+02  0.42239153288E+02  0.45045686015E+02  0.00000000000E+00 0.  1.
         11    1    3    3    0    0 -0.20159176087E+01  0.10583866797E+02 -0.21057365647E+02  0.23653642604E+02  0.51100000000E-03 0. -1.
        -11    1    3    3    0    0 -0.69349351166E+00  0.44339747368E+01 -0.70909902193E+01  0.83918536551E+01  0.51100000000E-03 0.  1.
         12    1    3    3    0    0  0.59425931129E-01  0.40763533161E+00 -0.14090797422E+02  0.14096817726E+02  0.00000000000E+00 0. -1.
</event>
<event>
 7    1  0.1541705E-008  0.4614232E+02  0.7816164E-02  0.1320468E+00
        -11   -1    0    0    0    0  0.00000000000E+00  0.00000000000E+00  0.45593999997E+02  0.45594000000E+02  0.51100000000E-03 0.  1.
         11   -1    0    0    0    0 -0.00000000000E+00 -0.00000000000E+00 -0.45593999997E+02  0.45594000000E+02  0.51100000000E-03 0. -1.
    9900012    2    1    2    0    0 -0.73644912625E+01 -0.35273959219E+01 -0.44299381266E+02  0.46142318363E+02  0.10000005489E+02 0.  0.
        -12    1    1    2    0    0  0.73644912625E+01  0.35273959219E+01  0.44299381266E+02  0.45045681637E+02  0.00000000000E+00 0.  1.
         11    1    3    3    0    0 -0.52711921155E+01  0.15439410188E+01 -0.16645208188E+02  0.17528039710E+02  0.51100000000E-03 0.  1.
        -11    1    3    3    0    0 -0.14107901698E+01 -0.41930675194E+01 -0.26921009095E+02  0.27282098070E+02  0.51100000000E-03 0. -1.
         12    1    3    3    0    0 -0.68250897714E+00 -0.87826942129E+00 -0.73316398298E+00  0.13321805832E+01  0.00000000000E+00 0. -1.
</event>
<event>
 7    1  0.1541705E-008  0.4614232E+02  0.7816164E-02  0.1320468E+00
        -11   -1    0    0    0    0  0.00000000000E+00  0.00000000000E+00  0.45593999997E+02  0.45594000000E+02  0.51100000000E-03 0.  1.
         11   -1    0    0    0    0 -0.00000000000E+00 -0.00000000000E+00 -0.45593999997E+02  0.45594000000E+02  0.51100000000E-03 0. -1.
    9900012    2    1    2    0    0 -0.21113083867E+02 -0.13150760265E+02 -0.37555406913E+02  0.46142318805E+02  0.10000009521E+02 0.  0.
        -12    1    1    2    0    0  0.21113083867E+02  0.13150760265E+02  0.37555406913E+02  0.45045681195E+02  0.00000000000E+00 0.  1.
         11    1    3    3    0    0 -0.54462215789E+01 -0.38914480877E+01 -0.17871134560E+02  0.19083557017E+02  0.51100000000E-03 0.  1.
        -11    1    3    3    0    0 -0.14798673175E+02 -0.86046158358E+01 -0.16837038509E+02  0.24010955988E+02  0.51100000000E-03 0. -1.
         12    1    3    3    0    0 -0.86818911243E+00 -0.65469634172E+00 -0.28472338443E+01  0.30478058007E+01  0.00000000000E+00 0. -1.
</event>
<event>
 7    1  0.1541705E-008  0.4614232E+02  0.7816164E-02  0.1320468E+00
        -11   -1    0    0    0    0  0.00000000000E+00  0.00000000000E+00  0.45593999997E+02  0.45594000000E+02  0.51100000000E-03 0.  1.
         11   -1    0    0    0    0 -0.00000000000E+00 -0.00000000000E+00 -0.45593999997E+02  0.45594000000E+02  0.51100000000E-03 0. -1.
    9900012    2    1    2    0    0 -0.43362243150E+02  0.52426213940E+01 -0.11015639976E+02  0.46142317253E+02  0.99999953654E+01 0.  0.
        -12    1    1    2    0    0  0.43362243150E+02 -0.52426213940E+01  0.11015639976E+02  0.45045682747E+02  0.00000000000E+00 0.  1.
         11    1    3    3    0    0 -0.28824673190E+02 -0.63908029935E+00 -0.61324429745E+01  0.29476720734E+02  0.51100000000E-03 0. -1.
        -11    1    3    3    0    0 -0.12711456558E+02  0.60077081143E+01 -0.39134790997E+01  0.14594142782E+02  0.51100000000E-03 0.  1.
        -12    1    3    3    0    0 -0.18261134014E+01 -0.12600642092E+00 -0.96971790190E+00  0.20714537364E+01  0.00000000000E+00 0.  1.
</event>
<event>
 7    1  0.1541705E-008  0.4614232E+02  0.7816164E-02  0.1320468E+00
        -11   -1    0    0    0    0  0.00000000000E+00  0.00000000000E+00  0.45593999997E+02  0.45594000000E+02  0.51100000000E-03 0.  1.
         11   -1    0    0    0    0 -0.00000000000E+00 -0.00000000000E+00 -0.45593999997E+02  0.45594000000E+02  0.51100000000E-03 0. -1.
    9900012    2    1    2    0    0  0.16046597290E+02 -0.41304400572E+02 -0.80973185246E+01  0.46142319203E+02  0.10000013145E+02 0.  0.
        -12    1    1    2    0    0 -0.16046597290E+02  0.41304400572E+02  0.80973185246E+01  0.45045680797E+02  0.00000000000E+00 0.  1.
         11    1    3    3    0    0  0.61863836186E+01 -0.10473383080E+02 -0.49244641833E+01  0.13123011970E+02  0.51100000000E-03 0. -1.
        -11    1    3    3    0    0  0.77336524287E+01 -0.23895993328E+02 -0.35897377405E-01  0.25116312745E+02  0.51100000000E-03 0.  1.
        -12    1    3    3    0    0  0.21265612424E+01 -0.69350241639E+01 -0.31369569640E+01  0.79029944872E+01  0.00000000000E+00 0.  1.
</event>
<event>
 7    1  0.1541705E-008  0.4614232E+02  0.7816164E-02  0.1320468E+00
        -11   -1    0    0    0    0  0.00000000000E+00  0.00000000000E+00  0.45593999997E+02  0.45594000000E+02  0.51100000000E-03 0.  1.
         11   -1    0    0    0    0 -0.00000000000E+00 -0.00000000000E+00 -0.45593999997E+02  0.45594000000E+02  0.51100000000E-03 0. -1.
    9900012    2    1    2    0    0 -0.67617025153E+01 -0.12979914243E+02 -0.42601816194E+02  0.46142317214E+02  0.99999950128E+01 0.  0.
        -12    1    1    2    0    0  0.67617025153E+01  0.12979914243E+02  0.42601816194E+02  0.45045682786E+02  0.00000000000E+00 0.  1.
         11    1    3    3    0    0 -0.69125980853E+00 -0.35088871413E+01 -0.16592873832E+02  0.16973909136E+02  0.51100000000E-03 0. -1.
        -11    1    3    3    0    0 -0.36725888386E+01 -0.33914304272E+01 -0.46330505240E+01  0.68157806992E+01  0.51100000000E-03 0.  1.
        -12    1    3    3    0    0 -0.23978538682E+01 -0.60795966742E+01 -0.21375891838E+02  0.22352627379E+02  0.00000000000E+00 0.  1.
</event>
<event>
 7    1  0.1541705E-008  0.4614232E+02  0.7816164E-02  0.1320468E+00
        -11   -1    0    0    0    0  0.00000000000E+00  0.00000000000E+00  0.45593999997E+02  0.45594000000E+02  0.51100000000E-03 0.  1.
         11   -1    0    0    0    0 -0.00000000000E+00 -0.00000000000E+00 -0.45593999997E+02  0.45594000000E+02  0.51100000000E-03 0. -1.
    9900012    2    1    2    0    0  0.23379805235E+02 -0.36916989000E+02  0.10937739058E+02  0.46142317573E+02  0.99999982830E+01 0.  0.
        -12    1    1    2    0    0 -0.23379805235E+02  0.36916989000E+02 -0.10937739058E+02  0.45045682427E+02  0.00000000000E+00 0.  1.
         11    1    3    3    0    0  0.11176197429E+02 -0.17728217130E+02  0.19422140364E+01  0.21046835088E+02  0.51100000000E-03 0. -1.
        -11    1    3    3    0    0  0.81330426671E+01 -0.14536468399E+02  0.89594559035E+01  0.18913676186E+02  0.51100000000E-03 0.  1.
        -12    1    3    3    0    0  0.40705651389E+01 -0.46523034708E+01  0.36069118115E-01  0.61818062988E+01  0.00000000000E+00 0.  1.
</event>
<event>
 7    1  0.1541705E-008  0.4614232E+02  0.7816164E-02  0.1320468E+00
        -11   -1    0    0    0    0  0.00000000000E+00  0.00000000000E+00  0.45593999997E+02  0.45594000000E+02  0.51100000000E-03 0.  1.
         11   -1    0    0    0    0 -0.00000000000E+00 -0.00000000000E+00 -0.45593999997E+02  0.45594000000E+02  0.51100000000E-03 0. -1.
    9900012    2    1    2    0    0  0.41174921651E+02  0.97292746594E+01 -0.15462226977E+02  0.46142318504E+02  0.10000006777E+02 0.  0.
        -12    1    1    2    0    0 -0.41174921651E+02 -0.97292746594E+01  0.15462226977E+02  0.45045681496E+02  0.00000000000E+00 0.  1.
         11    1    3    3    0    0  0.25064636988E+02  0.25572874317E+01 -0.12338845341E+02  0.28053927550E+02  0.51100000000E-03 0. -1.
        -11    1    3    3    0    0  0.13802957482E+02  0.61747989052E+01 -0.17445975031E+01  0.15221478163E+02  0.51100000000E-03 0.  1.
         12    1    3    3    0    0  0.23073271805E+01  0.99718832246E+00 -0.13787841325E+01  0.28669127912E+01  0.00000000000E+00 0. -1.
</event>
<event>
 7    1  0.1541705E-008  0.4614232E+02  0.7816164E-02  0.1320468E+00
        -11   -1    0    0    0    0  0.00000000000E+00  0.00000000000E+00  0.45593999997E+02  0.45594000000E+02  0.51100000000E-03 0. -1.
         11   -1    0    0    0    0 -0.00000000000E+00 -0.00000000000E+00 -0.45593999997E+02  0.45594000000E+02  0.51100000000E-03 0.  1.
    9900012    2    1    2    0    0 -0.92028749881E+01  0.34863432080E+02  0.26999290319E+02  0.46142317830E+02  0.10000000625E+02 0.  0.
        -12    1    1    2    0    0  0.92028749881E+01 -0.34863432080E+02 -0.26999290319E+02  0.45045682170E+02  0.00000000000E+00 0.  1.
         11    1    3    3    0    0 -0.17167577929E+01  0.33787579886E+01  0.21261277541E+00  0.37958486954E+01  0.51100000000E-03 0. -1.
        -11    1    3    3    0    0 -0.23714563681E+00  0.37790168310E+00 -0.23951000936E+00  0.50637243295E+00  0.51100000000E-03 0.  1.
         12    1    3    3    0    0 -0.72489715584E+01  0.31106772408E+02  0.27026187553E+02  0.41840096701E+02  0.00000000000E+00 0. -1.
</event>
<event>
 7    1  0.1541705E-008  0.4614230E+02  0.7816164E-02  0.1320468E+00
        -11   -1    0    0    0    0  0.00000000000E+00  0.00000000000E+00  0.45593999997E+02  0.45594000000E+02  0.51100000000E-03 0.  1.
         11   -1    0    0    0    0 -0.00000000000E+00 -0.00000000000E+00 -0.45593999997E+02  0.45594000000E+02  0.51100000000E-03 0. -1.
    9900012    2    1    2    0    0  0.16429574791E+02 -0.24629718375E+02 -0.33949387150E+02  0.46142302725E+02  0.99998628913E+01 0.  0.
        -12    1    1    2    0    0 -0.16429574791E+02  0.24629718375E+02  0.33949387150E+02  0.45045697275E+02  0.00000000000E+00 0.  1.
         11    1    3    3    0    0  0.97900957563E+01 -0.18809255038E+02 -0.22570400629E+02  0.30968645996E+02  0.51100000000E-03 0. -1.
        -11    1    3    3    0    0  0.11222020114E+01  0.11551472972E+00 -0.41941902945E+01  0.43432606984E+01  0.51100000000E-03 0.  1.
         12    1    3    3    0    0  0.55172770238E+01 -0.59359780673E+01 -0.71847962267E+01  0.10830396031E+02  0.00000000000E+00 0. -1.
</event>
<event>
 7    1  0.1541705E-008  0.4614232E+02  0.7816164E-02  0.1320468E+00
        -11   -1    0    0    0    0  0.00000000000E+00  0.00000000000E+00  0.45593999997E+02  0.45594000000E+02  0.51100000000E-03 0.  1.
         11   -1    0    0    0    0 -0.00000000000E+00 -0.00000000000E+00 -0.45593999997E+02  0.45594000000E+02  0.51100000000E-03 0. -1.
    9900012    2    1    2    0    0 -0.42641976452E+02  0.13538789271E+02  0.52418061046E+01  0.46142317611E+02  0.99999986357E+01 0.  0.
        -12    1    1    2    0    0  0.42641976452E+02 -0.13538789271E+02 -0.52418061046E+01  0.45045682389E+02  0.00000000000E+00 0.  1.
         11    1    3    3    0    0 -0.20604435938E+02  0.30909833319E+01 -0.81483314655E+00  0.20850921121E+02  0.51100000000E-03 0. -1.
        -11    1    3    3    0    0 -0.37504279595E+01  0.65731547183E+00  0.75747352106E+00  0.38822081224E+01  0.51100000000E-03 0.  1.
         12    1    3    3    0    0 -0.18287112554E+02  0.97904904668E+01  0.52991657300E+01  0.21409188368E+02  0.00000000000E+00 0. -1.
</event>
<event>
 7    1  0.1541705E-008  0.4614232E+02  0.7816164E-02  0.1320468E+00
        -11   -1    0    0    0    0  0.00000000000E+00  0.00000000000E+00  0.45593999997E+02  0.45594000000E+02  0.51100000000E-03 0.  1.
         11   -1    0    0    0    0 -0.00000000000E+00 -0.00000000000E+00 -0.45593999997E+02  0.45594000000E+02  0.51100000000E-03 0. -1.
    9900012    2    1    2    0    0 -0.25279190815E+02  0.17303822354E+02 -0.33025046472E+02  0.46142318178E+02  0.10000003802E+02 0.  0.
        -12    1    1    2    0    0  0.25279190815E+02 -0.17303822354E+02  0.33025046472E+02  0.45045681822E+02  0.00000000000E+00 0.  1.
         11    1    3    3    0    0 -0.14125507606E+02  0.38904354942E+01 -0.15882300887E+02  0.21608168252E+02  0.51100000000E-03 0. -1.
        -11    1    3    3    0    0 -0.66785439451E+01  0.89251691086E+01 -0.11933694677E+02  0.16330176415E+02  0.51100000000E-03 0.  1.
        -12    1    3    3    0    0 -0.44751392642E+01  0.44882177508E+01 -0.52090509083E+01  0.82039735116E+01  0.00000000000E+00 0.  1.
</event>
<event>
 7    1  0.1541705E-008  0.4614232E+02  0.7816164E-02  0.1320468E+00
        -11   -1    0    0    0    0  0.00000000000E+00  0.00000000000E+00  0.45593999997E+02  0.45594000000E+02  0.51100000000E-03 0.  1.
         11   -1    0    0    0    0 -0.00000000000E+00 -0.00000000000E+00 -0.45593999997E+02  0.45594000000E+02  0.51100000000E-03 0. -1.
    9900012    2    1    2    0    0 -0.19902273423E+02 -0.38820283727E+02 -0.11224903955E+02  0.46142318910E+02  0.10000010479E+02 0.  0.
        -12    1    1    2    0    0  0.19902273423E+02  0.38820283727E+02  0.11224903955E+02  0.45045681090E+02  0.00000000000E+00 0.  1.
         11    1    3    3    0    0 -0.10585717034E+02 -0.20879020137E+02 -0.12620457519E+01  0.23443200437E+02  0.51100000000E-03 0.  1.
        -11    1    3    3    0    0 -0.40190760170E+00 -0.21875356330E+01 -0.17093136522E+01  0.28051016539E+01  0.51100000000E-03 0. -1.
        -12    1    3    3    0    0 -0.89146487874E+01 -0.15753727957E+02 -0.82535445512E+01  0.19894016819E+02  0.00000000000E+00 0.  1.
</event>
<event>
 7    1  0.1541705E-008  0.4614232E+02  0.7816164E-02  0.1320468E+00
        -11   -1    0    0    0    0  0.00000000000E+00  0.00000000000E+00  0.45593999997E+02  0.45594000000E+02  0.51100000000E-03 0.  1.
         11   -1    0    0    0    0 -0.00000000000E+00 -0.00000000000E+00 -0.45593999997E+02  0.45594000000E+02  0.51100000000E-03 0. -1.
    9900012    2    1    2    0    0 -0.15255468669E+02  0.66577535916E+01 -0.41857597702E+02  0.46142317715E+02  0.99999995771E+01 0.  0.
        -12    1    1    2    0    0  0.15255468669E+02 -0.66577535916E+01  0.41857597702E+02  0.45045682285E+02  0.00000000000E+00 0.  1.
         11    1    3    3    0    0 -0.87623572870E+01  0.34394455923E+00 -0.12793157436E+02  0.15510063847E+02  0.51100000000E-03 0. -1.
        -11    1    3    3    0    0 -0.74970338673E+00  0.28419118742E+01 -0.78875699950E+01  0.84173795778E+01  0.51100000000E-03 0.  1.
        -12    1    3    3    0    0 -0.57434079955E+01  0.34718971582E+01 -0.21176870271E+02  0.22214874290E+02  0.00000000000E+00 0.  1.
</event>
<event>
 7    1  0.1541705E-008  0.4614232E+02  0.7816164E-02  0.1320468E+00
        -11   -1    0    0    0    0  0.00000000000E+00  0.00000000000E+00  0.45593999997E+02  0.45594000000E+02  0.51100000000E-03 0.  1.
         11   -1    0    0    0    0 -0.00000000000E+00 -0.00000000000E+00 -0.45593999997E+02  0.45594000000E+02  0.51100000000E-03 0. -1.
    9900012    2    1    2    0    0  0.27682390825E+02  0.19733794248E+02 -0.29552939331E+02  0.46142316297E+02  0.99999866465E+01 0.  0.
        -12    1    1    2    0    0 -0.27682390825E+02 -0.19733794248E+02  0.29552939331E+02  0.45045683703E+02  0.00000000000E+00 0.  1.
         11    1    3    3    0    0  0.16956808177E+02  0.90030145850E+01 -0.14030847008E+02  0.23779240593E+02  0.51100000000E-03 0. -1.
        -11    1    3    3    0    0  0.51387991133E+01  0.59302173795E+01 -0.11636581875E+02  0.14035126380E+02  0.51100000000E-03 0.  1.
        -12    1    3    3    0    0  0.55867835349E+01  0.48005622831E+01 -0.38855104477E+01  0.83279493237E+01  0.00000000000E+00 0.  1.
</event>
<event>
 7    1  0.1541705E-008  0.4614232E+02  0.7816164E-02  0.1320468E+00
        -11   -1    0    0    0    0  0.00000000000E+00  0.00000000000E+00  0.45593999997E+02  0.45594000000E+02  0.51100000000E-03 0.  1.
         11   -1    0    0    0    0 -0.00000000000E+00 -0.00000000000E+00 -0.45593999997E+02  0.45594000000E+02  0.51100000000E-03 0. -1.
    9900012    2    1    2    0    0  0.40364666187E+01 -0.30553888653E+00 -0.44863427716E+02  0.46142316931E+02  0.99999924288E+01 0.  0.
        -12    1    1    2    0    0 -0.40364666187E+01  0.30553888653E+00  0.44863427716E+02  0.45045683069E+02  0.00000000000E+00 0.  1.
         11    1    3    3    0    0  0.56338001215E+01  0.45822792751E+00 -0.22946160149E+02  0.23632095601E+02  0.51100000000E-03 0. -1.
        -11    1    3    3    0    0 -0.53061188435E+00  0.20420081508E+01 -0.10065079889E+02  0.10283830983E+02  0.51100000000E-03 0.  1.
        -12    1    3    3    0    0 -0.10667216184E+01 -0.28057749648E+01 -0.11852187678E+02  0.12226390347E+02  0.00000000000E+00 0.  1.
</event>
<event>
 7    1  0.1541705E-008  0.4614232E+02  0.7816164E-02  0.1320468E+00
        -11   -1    0    0    0    0  0.00000000000E+00  0.00000000000E+00  0.45593999997E+02  0.45594000000E+02  0.51100000000E-03 0. -1.
         11   -1    0    0    0    0 -0.00000000000E+00 -0.00000000000E+00 -0.45593999997E+02  0.45594000000E+02  0.51100000000E-03 0.  1.
    9900012    2    1    2    0    0  0.21596705776E+02 -0.16193582747E+02  0.36061941015E+02  0.46142318605E+02  0.10000007696E+02 0.  0.
        -12    1    1    2    0    0 -0.21596705776E+02  0.16193582747E+02 -0.36061941015E+02  0.45045681395E+02  0.00000000000E+00 0.  1.
         11    1    3    3    0    0  0.12184463032E+02 -0.10651565083E+02  0.23374476869E+02  0.28430320914E+02  0.51100000000E-03 0. -1.
        -11    1    3    3    0    0  0.75301293106E+01 -0.60195486751E+01  0.76297174862E+01  0.12294324010E+02  0.51100000000E-03 0.  1.
        -12    1    3    3    0    0  0.18821134337E+01  0.47753101069E+00  0.50577466597E+01  0.54176736813E+01  0.00000000000E+00 0.  1.
</event>
<event>
 7    1  0.1541705E-008  0.4614232E+02  0.7816164E-02  0.1320468E+00
        -11   -1    0    0    0    0  0.00000000000E+00  0.00000000000E+00  0.45593999997E+02  0.45594000000E+02  0.51100000000E-03 0.  1.
         11   -1    0    0    0    0 -0.00000000000E+00 -0.00000000000E+00 -0.45593999997E+02  0.45594000000E+02  0.51100000000E-03 0. -1.
    9900012    2    1    2    0    0 -0.19076772468E+02  0.29063879774E+02 -0.28644044294E+02  0.46142316201E+02  0.99999857782E+01 0.  0.
        -12    1    1    2    0    0  0.19076772468E+02 -0.29063879774E+02  0.28644044294E+02  0.45045683799E+02  0.00000000000E+00 0.  1.
         11    1    3    3    0    0 -0.59983397591E+01  0.11757161315E+02 -0.81495930838E+01  0.15512149746E+02  0.51100000000E-03 0. -1.
        -11    1    3    3    0    0 -0.10591792684E+02  0.10370574759E+02 -0.10295912477E+02  0.18048288204E+02  0.51100000000E-03 0.  1.
        -12    1    3    3    0    0 -0.24866400256E+01  0.69361437004E+01 -0.10198538733E+02  0.12581878252E+02  0.00000000000E+00 0.  1.
</event>
<event>
 7    1  0.1541705E-008  0.4614232E+02  0.7816164E-02  0.1320468E+00
        -11   -1    0    0    0    0  0.00000000000E+00  0.00000000000E+00  0.45593999997E+02  0.45594000000E+02  0.51100000000E-03 0.  1.
         11   -1    0    0    0    0 -0.00000000000E+00 -0.00000000000E+00 -0.45593999997E+02  0.45594000000E+02  0.51100000000E-03 0. -1.
    9900012    2    1    2    0    0  0.24665692910E+02  0.37532919949E+02  0.34636662932E+01  0.46142317956E+02  0.10000001778E+02 0.  0.
        -12    1    1    2    0    0 -0.24665692910E+02 -0.37532919949E+02 -0.34636662932E+01  0.45045682044E+02  0.00000000000E+00 0.  1.
         11    1    3    3    0    0  0.60787366331E+01  0.15562136255E+02 -0.92536650817E+00  0.16732824845E+02  0.51100000000E-03 0. -1.
        -11    1    3    3    0    0  0.11052721710E+02  0.15483493854E+02  0.16407536716E+01  0.19094326697E+02  0.51100000000E-03 0.  1.
        -12    1    3    3    0    0  0.75342345663E+01  0.64872898395E+01  0.27482791298E+01  0.10315166413E+02  0.00000000000E+00 0.  1.
</event>
<event>
 7    1  0.1541705E-008  0.4614232E+02  0.7816164E-02  0.1320468E+00
        -11   -1    0    0    0    0  0.00000000000E+00  0.00000000000E+00  0.45593999997E+02  0.45594000000E+02  0.51100000000E-03 0. -1.
         11   -1    0    0    0    0 -0.00000000000E+00 -0.00000000000E+00 -0.45593999997E+02  0.45594000000E+02  0.51100000000E-03 0.  1.
    9900012    2    1    2    0    0  0.31647299473E+02  0.57197060809E+01  0.31541193429E+02  0.46142317804E+02  0.10000000391E+02 0.  0.
        -12    1    1    2    0    0 -0.31647299473E+02 -0.57197060809E+01 -0.31541193429E+02  0.45045682196E+02  0.00000000000E+00 0.  1.
         11    1    3    3    0    0  0.16233412677E+02  0.56378023867E+01  0.17891125470E+02  0.24807274613E+02  0.51100000000E-03 0. -1.
        -11    1    3    3    0    0  0.24777898116E+01  0.21092860034E+01  0.34002553673E+01  0.47064069754E+01  0.51100000000E-03 0.  1.
         12    1    3    3    0    0  0.12936096985E+02 -0.20273823092E+01  0.10249812591E+02  0.16628636215E+02  0.00000000000E+00 0. -1.
</event>
<event>
 7    1  0.1541705E-008  0.4614232E+02  0.7816164E-02  0.1320468E+00
        -11   -1    0    0    0    0  0.00000000000E+00  0.00000000000E+00  0.45593999997E+02  0.45594000000E+02  0.51100000000E-03 0.  1.
         11   -1    0    0    0    0 -0.00000000000E+00 -0.00000000000E+00 -0.45593999997E+02  0.45594000000E+02  0.51100000000E-03 0. -1.
    9900012    2    1    2    0    0  0.49278087894E+01  0.44775226779E+02  0.95270227627E-01  0.46142319752E+02  0.10000018158E+02 0.  0.
        -12    1    1    2    0    0 -0.49278087894E+01 -0.44775226779E+02 -0.95270227627E-01  0.45045680248E+02  0.00000000000E+00 0.  1.
         11    1    3    3    0    0  0.11175378161E+01  0.26253255325E+02  0.31231446888E+01  0.26461979120E+02  0.51100000000E-03 0. -1.
        -11    1    3    3    0    0  0.38638508019E+01  0.10388323870E+02 -0.32278014528E+01  0.11544059872E+02  0.51100000000E-03 0.  1.
        -12    1    3    3    0    0 -0.53579828541E-01  0.81336475841E+01  0.19992699163E+00  0.81362807610E+01  0.00000000000E+00 0.  1.
</event>
<event>
 7    1  0.1541705E-008  0.4614232E+02  0.7816164E-02  0.1320468E+00
        -11   -1    0    0    0    0  0.00000000000E+00  0.00000000000E+00  0.45593999997E+02  0.45594000000E+02  0.51100000000E-03 0.  1.
         11   -1    0    0    0    0 -0.00000000000E+00 -0.00000000000E+00 -0.45593999997E+02  0.45594000000E+02  0.51100000000E-03 0. -1.
    9900012    2    1    2    0    0 -0.24062090189E+02  0.88914537898E+01 -0.37027981314E+02  0.46142317244E+02  0.99999952848E+01 0.  0.
        -12    1    1    2    0    0  0.24062090189E+02 -0.88914537898E+01  0.37027981314E+02  0.45045682756E+02  0.00000000000E+00 0.  1.
         11    1    3    3    0    0 -0.11726641777E+02  0.58116803208E+01 -0.18406108301E+02  0.22584830718E+02  0.51100000000E-03 0. -1.
        -11    1    3    3    0    0 -0.12397889355E+02  0.11057583875E+01 -0.16306599680E+02  0.20514276868E+02  0.51100000000E-03 0.  1.
        -12    1    3    3    0    0  0.62440941945E-01  0.19740150815E+01 -0.23152733332E+01  0.30432096577E+01  0.00000000000E+00 0.  1.
</event>
<event>
 7    1  0.1541705E-008  0.4614232E+02  0.7816164E-02  0.1320468E+00
        -11   -1    0    0    0    0  0.00000000000E+00  0.00000000000E+00  0.45593999997E+02  0.45594000000E+02  0.51100000000E-03 0. -1.
         11   -1    0    0    0    0 -0.00000000000E+00 -0.00000000000E+00 -0.45593999997E+02  0.45594000000E+02  0.51100000000E-03 0.  1.
    9900012    2    1    2    0    0 -0.19435973140E+02  0.40629270502E+02  0.78662631348E+00  0.46142318138E+02  0.10000003438E+02 0.  0.
        -12    1    1    2    0    0  0.19435973140E+02 -0.40629270502E+02 -0.78662631348E+00  0.45045681862E+02  0.00000000000E+00 0.  1.
         11    1    3    3    0    0 -0.52864673730E+01  0.15420989486E+02 -0.23147827398E+01  0.16465475195E+02  0.51100000000E-03 0. -1.
        -11    1    3    3    0    0 -0.11796519127E+02  0.20422769662E+02  0.48232915433E+01  0.24073045627E+02  0.51100000000E-03 0.  1.
        -12    1    3    3    0    0 -0.23529866398E+01  0.47855113541E+01 -0.17218824900E+01  0.56037973158E+01  0.00000000000E+00 0.  1.
</event>
<event>
 7    1  0.1541705E-008  0.4614232E+02  0.7816164E-02  0.1320468E+00
        -11   -1    0    0    0    0  0.00000000000E+00  0.00000000000E+00  0.45593999997E+02  0.45594000000E+02  0.51100000000E-03 0.  1.
         11   -1    0    0    0    0 -0.00000000000E+00 -0.00000000000E+00 -0.45593999997E+02  0.45594000000E+02  0.51100000000E-03 0. -1.
    9900012    2    1    2    0    0 -0.44890483521E+02  0.64071742413E+00 -0.36806826878E+01  0.46142318135E+02  0.10000003414E+02 0.  0.
        -12    1    1    2    0    0  0.44890483521E+02 -0.64071742413E+00  0.36806826878E+01  0.45045681865E+02  0.00000000000E+00 0.  1.
         11    1    3    3    0    0 -0.17090216358E+02  0.41451814479E+01 -0.26339088681E+01  0.17781886868E+02  0.51100000000E-03 0. -1.
        -11    1    3    3    0    0 -0.21084335781E+02 -0.40433891684E+01 -0.19753392988E+01  0.21559224868E+02  0.51100000000E-03 0.  1.
        -12    1    3    3    0    0 -0.67159313824E+01  0.53892514465E+00  0.92856547909E+00  0.68012063998E+01  0.00000000000E+00 0.  1.
</event>
<event>
 7    1  0.1541705E-008  0.4614232E+02  0.7816164E-02  0.1320468E+00
        -11   -1    0    0    0    0  0.00000000000E+00  0.00000000000E+00  0.45593999997E+02  0.45594000000E+02  0.51100000000E-03 0.  1.
         11   -1    0    0    0    0 -0.00000000000E+00 -0.00000000000E+00 -0.45593999997E+02  0.45594000000E+02  0.51100000000E-03 0. -1.
    9900012    2    1    2    0    0 -0.26126790703E+01 -0.35671890848E+02 -0.27382542282E+02  0.46142317516E+02  0.99999977684E+01 0.  0.
        -12    1    1    2    0    0  0.26126790703E+01  0.35671890848E+02  0.27382542282E+02  0.45045682484E+02  0.00000000000E+00 0.  1.
         11    1    3    3    0    0  0.21624844843E+01 -0.99405261717E+01 -0.97207149244E+01  0.14070632488E+02  0.51100000000E-03 0. -1.
        -11    1    3    3    0    0  0.36772423776E+00 -0.91768623104E+01 -0.40798869479E+01  0.10049651772E+02  0.51100000000E-03 0.  1.
        -12    1    3    3    0    0 -0.51428877924E+01 -0.16554502366E+02 -0.13581940409E+02  0.22022033256E+02  0.00000000000E+00 0.  1.
</event>
<event>
 7    1  0.1541705E-008  0.4614232E+02  0.7816164E-02  0.1320468E+00
        -11   -1    0    0    0    0  0.00000000000E+00  0.00000000000E+00  0.45593999997E+02  0.45594000000E+02  0.51100000000E-03 0.  1.
         11   -1    0    0    0    0 -0.00000000000E+00 -0.00000000000E+00 -0.45593999997E+02  0.45594000000E+02  0.51100000000E-03 0. -1.
    9900012    2    1    2    0    0  0.15486488950E+02 -0.65275997725E+01 -0.41793211530E+02  0.46142318422E+02  0.10000006027E+02 0.  0.
        -12    1    1    2    0    0 -0.15486488950E+02  0.65275997725E+01  0.41793211530E+02  0.45045681578E+02  0.00000000000E+00 0.  1.
         11    1    3    3    0    0  0.32200787568E+01 -0.28095749286E+01 -0.12267838728E+02  0.12990861627E+02  0.51100000000E-03 0. -1.
        -11    1    3    3    0    0  0.58995977660E+01  0.19052217140E+01 -0.89106027986E+01  0.10855135470E+02  0.51100000000E-03 0.  1.
        -12    1    3    3    0    0  0.63668124275E+01 -0.56232465578E+01 -0.20614770003E+02  0.22296321325E+02  0.00000000000E+00 0.  1.
</event>
<event>
 7    1  0.1541705E-008  0.4614232E+02  0.7816164E-02  0.1320468E+00
        -11   -1    0    0    0    0  0.00000000000E+00  0.00000000000E+00  0.45593999997E+02  0.45594000000E+02  0.51100000000E-03 0.  1.
         11   -1    0    0    0    0 -0.00000000000E+00 -0.00000000000E+00 -0.45593999997E+02  0.45594000000E+02  0.51100000000E-03 0. -1.
    9900012    2    1    2    0    0  0.20028861433E+02 -0.92516156642E+01 -0.39272965715E+02  0.46142317424E+02  0.99999969247E+01 0.  0.
        -12    1    1    2    0    0 -0.20028861433E+02  0.92516156642E+01  0.39272965715E+02  0.45045682576E+02  0.00000000000E+00 0.  1.
         11    1    3    3    0    0  0.91527315344E+01 -0.11101212606E+01 -0.19688096002E+02  0.21739962930E+02  0.51100000000E-03 0. -1.
        -11    1    3    3    0    0  0.10528879173E+02 -0.78290501186E+01 -0.19901962269E+02  0.23837773068E+02  0.51100000000E-03 0.  1.
         12    1    3    3    0    0  0.34725072584E+00 -0.31244428507E+00  0.31709255614E+00  0.56458142639E+00  0.00000000000E+00 0. -1.
</event>
<event>
 7    1  0.1541705E-008  0.4614232E+02  0.7816164E-02  0.1320468E+00
        -11   -1    0    0    0    0  0.00000000000E+00  0.00000000000E+00  0.45593999997E+02  0.45594000000E+02  0.51100000000E-03 0.  1.
         11   -1    0    0    0    0 -0.00000000000E+00 -0.00000000000E+00 -0.45593999997E+02  0.45594000000E+02  0.51100000000E-03 0. -1.
    9900012    2    1    2    0    0  0.21989554660E+02  0.34719234578E+02 -0.18443092767E+02  0.46142318358E+02  0.10000005441E+02 0.  0.
        -12    1    1    2    0    0 -0.21989554660E+02 -0.34719234578E+02  0.18443092767E+02  0.45045681642E+02  0.00000000000E+00 0.  1.
         11    1    3    3    0    0  0.13342260990E+02  0.26035079569E+02 -0.10279152009E+02  0.31008099954E+02  0.51100000000E-03 0. -1.
        -11    1    3    3    0    0  0.77877058403E+01  0.67060446465E+01 -0.53424596050E+01  0.11582800695E+02  0.51100000000E-03 0.  1.
         12    1    3    3    0    0  0.85958782948E+00  0.19781103622E+01 -0.28214811531E+01  0.35514177083E+01  0.00000000000E+00 0. -1.
</event>
<event>
 7    1  0.1541705E-008  0.4614232E+02  0.7816164E-02  0.1320468E+00
        -11   -1    0    0    0    0  0.00000000000E+00  0.00000000000E+00  0.45593999997E+02  0.45594000000E+02  0.51100000000E-03 0.  1.
         11   -1    0    0    0    0 -0.00000000000E+00 -0.00000000000E+00 -0.45593999997E+02  0.45594000000E+02  0.51100000000E-03 0. -1.
    9900012    2    1    2    0    0  0.46714088109E+01 -0.41461501998E+02 -0.16977495524E+02  0.46142316939E+02  0.99999925020E+01 0.  0.
        -12    1    1    2    0    0 -0.46714088109E+01  0.41461501998E+02  0.16977495524E+02  0.45045683061E+02  0.00000000000E+00 0.  1.
         11    1    3    3    0    0  0.43547961051E+01 -0.15757260589E+02 -0.10248709406E+02  0.19294858256E+02  0.51100000000E-03 0. -1.
        -11    1    3    3    0    0  0.25976513598E+00 -0.25057742861E+02 -0.71676361989E+01  0.26064016654E+02  0.51100000000E-03 0.  1.
         12    1    3    3    0    0  0.56847569828E-01 -0.64649854781E+00  0.43885008066E+00  0.78344202836E+00  0.00000000000E+00 0. -1.
</event>
<event>
 7    1  0.1541705E-008  0.4614232E+02  0.7816164E-02  0.1320468E+00
        -11   -1    0    0    0    0  0.00000000000E+00  0.00000000000E+00  0.45593999997E+02  0.45594000000E+02  0.51100000000E-03 0.  1.
         11   -1    0    0    0    0 -0.00000000000E+00 -0.00000000000E+00 -0.45593999997E+02  0.45594000000E+02  0.51100000000E-03 0. -1.
    9900012    2    1    2    0    0  0.33238553175E+01 -0.63268723332E+01 -0.44475118501E+02  0.46142317706E+02  0.99999994974E+01 0.  0.
        -12    1    1    2    0    0 -0.33238553175E+01  0.63268723332E+01  0.44475118501E+02  0.45045682294E+02  0.00000000000E+00 0.  1.
         11    1    3    3    0    0  0.32667684836E+01 -0.44462885476E+01 -0.25327693721E+02  0.25921676791E+02  0.51100000000E-03 0. -1.
        -11    1    3    3    0    0  0.48049878569E+00 -0.35154217936E+01 -0.60413460799E+01  0.70062066904E+01  0.51100000000E-03 0.  1.
        -12    1    3    3    0    0 -0.42341195177E+00  0.16348380080E+01 -0.13106078699E+02  0.13214434224E+02  0.00000000000E+00 0.  1.
</event>
<event>
 7    1  0.1541705E-008  0.4614232E+02  0.7816164E-02  0.1320468E+00
        -11   -1    0    0    0    0  0.00000000000E+00  0.00000000000E+00  0.45593999997E+02  0.45594000000E+02  0.51100000000E-03 0.  1.
         11   -1    0    0    0    0 -0.00000000000E+00 -0.00000000000E+00 -0.45593999997E+02  0.45594000000E+02  0.51100000000E-03 0. -1.
    9900012    2    1    2    0    0 -0.21476913412E+02  0.28420414031E+02 -0.27570558361E+02  0.46142318389E+02  0.10000005729E+02 0.  0.
        -12    1    1    2    0    0  0.21476913412E+02 -0.28420414031E+02  0.27570558361E+02  0.45045681611E+02  0.00000000000E+00 0.  1.
         11    1    3    3    0    0 -0.14852753907E+01  0.41029872734E+01 -0.65546994318E+01  0.78743020297E+01  0.51100000000E-03 0. -1.
        -11    1    3    3    0    0 -0.36825550784E+01  0.51143354245E+01 -0.17174485505E+01  0.65320187174E+01  0.51100000000E-03 0.  1.
         12    1    3    3    0    0 -0.16309082943E+02  0.19203091333E+02 -0.19298410379E+02  0.31735997642E+02  0.00000000000E+00 0. -1.
</event>
<event>
 7    1  0.1541705E-008  0.4614232E+02  0.7816164E-02  0.1320468E+00
        -11   -1    0    0    0    0  0.00000000000E+00  0.00000000000E+00  0.45593999997E+02  0.45594000000E+02  0.51100000000E-03 0.  1.
         11   -1    0    0    0    0 -0.00000000000E+00 -0.00000000000E+00 -0.45593999997E+02  0.45594000000E+02  0.51100000000E-03 0. -1.
    9900012    2    1    2    0    0  0.61275159687E+01  0.55986871207E+01 -0.44274390815E+02  0.46142318393E+02  0.10000005758E+02 0.  0.
        -12    1    1    2    0    0 -0.61275159687E+01 -0.55986871207E+01  0.44274390815E+02  0.45045681607E+02  0.00000000000E+00 0.  1.
         11    1    3    3    0    0  0.26091441881E+01  0.47518965304E+01 -0.90941238087E+01  0.10587315153E+02  0.51100000000E-03 0. -1.
        -11    1    3    3    0    0  0.67127041906E-01 -0.11271966382E+01 -0.60266081371E+01  0.61314830343E+01  0.51100000000E-03 0.  1.
         12    1    3    3    0    0  0.34512447387E+01  0.19739872284E+01 -0.29153658869E+02  0.29423520206E+02  0.00000000000E+00 0. -1.
</event>
<event>
 7    1  0.1541705E-008  0.4614231E+02  0.7816164E-02  0.1320468E+00
        -11   -1    0    0    0    0  0.00000000000E+00  0.00000000000E+00  0.45593999997E+02  0.45594000000E+02  0.51100000000E-03 0.  1.
         11   -1    0    0    0    0 -0.00000000000E+00 -0.00000000000E+00 -0.45593999997E+02  0.45594000000E+02  0.51100000000E-03 0. -1.
    9900012    2    1    2    0    0 -0.83270482545E-01  0.39900603046E+02  0.20905724778E+02  0.46142307798E+02  0.99999091498E+01 0.  0.
        -12    1    1    2    0    0  0.83270482545E-01 -0.39900603046E+02 -0.20905724778E+02  0.45045692202E+02  0.00000000000E+00 0.  1.
         11    1    3    3    0    0  0.23784749136E+01  0.25684939653E+02  0.11353336041E+02  0.28182822914E+02  0.51100000000E-03 0. -1.
        -11    1    3    3    0    0 -0.24920094191E+01  0.27107186586E+01  0.19157615809E+01  0.41506926274E+01  0.51100000000E-03 0.  1.
        -12    1    3    3    0    0  0.30264022921E-01  0.11504944735E+02  0.76366271565E+01  0.13808792257E+02  0.00000000000E+00 0.  1.
</event>
<event>
 7    1  0.1541705E-008  0.4614231E+02  0.7816164E-02  0.1320468E+00
        -11   -1    0    0    0    0  0.00000000000E+00  0.00000000000E+00  0.45593999997E+02  0.45594000000E+02  0.51100000000E-03 0.  1.
         11   -1    0    0    0    0 -0.00000000000E+00 -0.00000000000E+00 -0.45593999997E+02  0.45594000000E+02  0.51100000000E-03 0. -1.
    9900012    2    1    2    0    0 -0.42435212120E+02 -0.18941028930E+01 -0.14992629542E+02  0.46142314369E+02  0.99999690638E+01 0.  0.
        -12    1    1    2    0    0  0.42435212120E+02  0.18941028930E+01  0.14992629542E+02  0.45045685631E+02  0.00000000000E+00 0.  1.
         11    1    3    3    0    0 -0.24270409162E+01 -0.21323801820E+01  0.57157953570E-01  0.32312288904E+01  0.51100000000E-03 0.  1.
        -11    1    3    3    0    0 -0.39415593977E+02 -0.19025269790E+00 -0.14509253073E+02  0.42001710318E+02  0.51100000000E-03 0. -1.
         12    1    3    3    0    0 -0.59257722629E+00  0.42852998691E+00 -0.54053442314E+00  0.90937515987E+00  0.00000000000E+00 0. -1.
</event>
<event>
 7    1  0.1541705E-008  0.4614232E+02  0.7816164E-02  0.1320468E+00
        -11   -1    0    0    0    0  0.00000000000E+00  0.00000000000E+00  0.45593999997E+02  0.45594000000E+02  0.51100000000E-03 0.  1.
         11   -1    0    0    0    0 -0.00000000000E+00 -0.00000000000E+00 -0.45593999997E+02  0.45594000000E+02  0.51100000000E-03 0. -1.
    9900012    2    1    2    0    0 -0.35287842407E+02 -0.21546368641E+02 -0.17878355488E+02  0.46142318539E+02  0.10000007096E+02 0.  0.
        -12    1    1    2    0    0  0.35287842407E+02  0.21546368641E+02  0.17878355488E+02  0.45045681461E+02  0.00000000000E+00 0.  1.
         11    1    3    3    0    0 -0.16642034225E+02 -0.87076503458E+01 -0.40120883061E+01  0.19206179488E+02  0.51100000000E-03 0. -1.
        -11    1    3    3    0    0 -0.16547506967E+02 -0.11966398234E+02 -0.13830077509E+02  0.24663449022E+02  0.51100000000E-03 0.  1.
        -12    1    3    3    0    0 -0.20983012142E+01 -0.87232006096E+00 -0.36189673101E-01  0.22726900288E+01  0.00000000000E+00 0.  1.
</event>
<event>
 7    1  0.1541705E-008  0.4614232E+02  0.7816164E-02  0.1320468E+00
        -11   -1    0    0    0    0  0.00000000000E+00  0.00000000000E+00  0.45593999997E+02  0.45594000000E+02  0.51100000000E-03 0. -1.
         11   -1    0    0    0    0 -0.00000000000E+00 -0.00000000000E+00 -0.45593999997E+02  0.45594000000E+02  0.51100000000E-03 0.  1.
    9900012    2    1    2    0    0  0.44558286986E+02  0.57328843935E+01  0.32873288723E+01  0.46142318367E+02  0.10000005529E+02 0.  0.
        -12    1    1    2    0    0 -0.44558286986E+02 -0.57328843935E+01 -0.32873288723E+01  0.45045681633E+02  0.00000000000E+00 0.  1.
         11    1    3    3    0    0  0.31380006602E+02  0.26014765610E+01  0.92434055448E+00  0.31501220617E+02  0.51100000000E-03 0. -1.
        -11    1    3    3    0    0  0.40491740964E-01 -0.58013035002E+00 -0.40842758265E+00  0.71063644396E+00  0.51100000000E-03 0.  1.
        -12    1    3    3    0    0  0.13137788644E+02  0.37115381825E+01  0.27714159004E+01  0.13930461307E+02  0.00000000000E+00 0.  1.
</event>
<event>
 7    1  0.1541705E-008  0.4614232E+02  0.7816164E-02  0.1320468E+00
        -11   -1    0    0    0    0  0.00000000000E+00  0.00000000000E+00  0.45593999997E+02  0.45594000000E+02  0.51100000000E-03 0.  1.
         11   -1    0    0    0    0 -0.00000000000E+00 -0.00000000000E+00 -0.45593999997E+02  0.45594000000E+02  0.51100000000E-03 0. -1.
    9900012    2    1    2    0    0  0.17000907840E+02  0.94523266920E+01 -0.40629253458E+02  0.46142316701E+02  0.99999903325E+01 0.  0.
        -12    1    1    2    0    0 -0.17000907840E+02 -0.94523266920E+01  0.40629253458E+02  0.45045683299E+02  0.00000000000E+00 0.  1.
         11    1    3    3    0    0  0.13430068420E+02  0.59519194976E+01 -0.25131351149E+02  0.29109738822E+02  0.51100000000E-03 0. -1.
        -11    1    3    3    0    0 -0.45571636836E+00 -0.19904137932E+00  0.97157756455E-01  0.50669001355E+00  0.51100000000E-03 0.  1.
         12    1    3    3    0    0  0.40265557889E+01  0.36994485738E+01 -0.15595060066E+02  0.16525887865E+02  0.00000000000E+00 0. -1.
</event>
<event>
 7    1  0.1541705E-008  0.4614232E+02  0.7816164E-02  0.1320468E+00
        -11   -1    0    0    0    0  0.00000000000E+00  0.00000000000E+00  0.45593999997E+02  0.45594000000E+02  0.51100000000E-03 0.  1.
         11   -1    0    0    0    0 -0.00000000000E+00 -0.00000000000E+00 -0.45593999997E+02  0.45594000000E+02  0.51100000000E-03 0. -1.
    9900012    2    1    2    0    0  0.67299503533E+01  0.42537215681E+02 -0.13206308267E+02  0.46142317325E+02  0.99999960206E+01 0.  0.
        -12    1    1    2    0    0 -0.67299503533E+01 -0.42537215681E+02  0.13206308267E+02  0.45045682675E+02  0.00000000000E+00 0.  1.
         11    1    3    3    0    0  0.34071462551E+01  0.30368422694E+02 -0.61770685791E+01  0.31177009462E+02  0.51100000000E-03 0.  1.
        -11    1    3    3    0    0  0.10103744171E+01  0.25639372614E+01  0.13909185226E+00  0.27593436806E+01  0.51100000000E-03 0. -1.
         12    1    3    3    0    0  0.23124296810E+01  0.96048557256E+01 -0.71683315401E+01  0.12205964182E+02  0.00000000000E+00 0. -1.
</event>
<event>
 7    1  0.1541705E-008  0.4614232E+02  0.7816164E-02  0.1320468E+00
        -11   -1    0    0    0    0  0.00000000000E+00  0.00000000000E+00  0.45593999997E+02  0.45594000000E+02  0.51100000000E-03 0.  1.
         11   -1    0    0    0    0 -0.00000000000E+00 -0.00000000000E+00 -0.45593999997E+02  0.45594000000E+02  0.51100000000E-03 0. -1.
    9900012    2    1    2    0    0  0.11104832852E+02  0.36614772336E+02 -0.23772979795E+02  0.46142318362E+02  0.10000005479E+02 0.  0.
        -12    1    1    2    0    0 -0.11104832852E+02 -0.36614772336E+02  0.23772979795E+02  0.45045681638E+02  0.00000000000E+00 0.  1.
         11    1    3    3    0    0  0.95179517243E+00  0.25052711399E+01 -0.50520871127E+01  0.57189056637E+01  0.51100000000E-03 0. -1.
        -11    1    3    3    0    0  0.97092597897E+01  0.29017930935E+02 -0.17145108013E+02  0.35075130370E+02  0.51100000000E-03 0.  1.
        -12    1    3    3    0    0  0.44377789035E+00  0.50915702612E+01 -0.15757846688E+01  0.53482823283E+01  0.00000000000E+00 0.  1.
</event>
<event>
 7    1  0.1541705E-008  0.4614232E+02  0.7816164E-02  0.1320468E+00
        -11   -1    0    0    0    0  0.00000000000E+00  0.00000000000E+00  0.45593999997E+02  0.45594000000E+02  0.51100000000E-03 0.  1.
         11   -1    0    0    0    0 -0.00000000000E+00 -0.00000000000E+00 -0.45593999997E+02  0.45594000000E+02  0.51100000000E-03 0. -1.
    9900012    2    1    2    0    0 -0.70610082255E+01  0.42258464850E+02 -0.13909631234E+02  0.46142317302E+02  0.99999958146E+01 0.  0.
        -12    1    1    2    0    0  0.70610082255E+01 -0.42258464850E+02  0.13909631234E+02  0.45045682698E+02  0.00000000000E+00 0.  1.
         11    1    3    3    0    0 -0.57273260714E+00  0.38973205190E+01 -0.32936835562E+01  0.51347328554E+01  0.51100000000E-03 0. -1.
        -11    1    3    3    0    0 -0.12098853296E+01  0.13180042030E+02 -0.16191890448E+00  0.13236447727E+02  0.51100000000E-03 0.  1.
        -12    1    3    3    0    0 -0.52783902887E+01  0.25181102301E+02 -0.10454028773E+02  0.27771136720E+02  0.00000000000E+00 0.  1.
</event>
<event>
 7    1  0.1541705E-008  0.4614232E+02  0.7816164E-02  0.1320468E+00
        -11   -1    0    0    0    0  0.00000000000E+00  0.00000000000E+00  0.45593999997E+02  0.45594000000E+02  0.51100000000E-03 0. -1.
         11   -1    0    0    0    0 -0.00000000000E+00 -0.00000000000E+00 -0.45593999997E+02  0.45594000000E+02  0.51100000000E-03 0.  1.
    9900012    2    1    2    0    0  0.11716212327E+02  0.30290181498E+02  0.31214560992E+02  0.46142317139E+02  0.99999943277E+01 0.  0.
        -12    1    1    2    0    0 -0.11716212327E+02 -0.30290181498E+02 -0.31214560992E+02  0.45045682861E+02  0.00000000000E+00 0.  1.
         11    1    3    3    0    0  0.12940046925E+01  0.19771840404E+00  0.31002558619E+01  0.33652826600E+01  0.51100000000E-03 0. -1.
        -11    1    3    3    0    0  0.37000639200E+01  0.18070590854E+02  0.15319345719E+02  0.23977470266E+02  0.51100000000E-03 0.  1.
         12    1    3    3    0    0  0.67221437150E+01  0.12021872240E+02  0.12794959411E+02  0.18799564213E+02  0.00000000000E+00 0. -1.
</event>
<event>
 7    1  0.1541705E-008  0.4614232E+02  0.7816164E-02  0.1320468E+00
        -11   -1    0    0    0    0  0.00000000000E+00  0.00000000000E+00  0.45593999997E+02  0.45594000000E+02  0.51100000000E-03 0.  1.
         11   -1    0    0    0    0 -0.00000000000E+00 -0.00000000000E+00 -0.45593999997E+02  0.45594000000E+02  0.51100000000E-03 0. -1.
    9900012    2    1    2    0    0  0.24806926687E+02  0.25866917792E+02 -0.27287954337E+02  0.46142317636E+02  0.99999988581E+01 0.  0.
        -12    1    1    2    0    0 -0.24806926687E+02 -0.25866917792E+02  0.27287954337E+02  0.45045682364E+02  0.00000000000E+00 0.  1.
         11    1    3    3    0    0  0.10106453068E+02  0.14256773328E+02 -0.14473167685E+02  0.22690715336E+02  0.51100000000E-03 0. -1.
        -11    1    3    3    0    0  0.13202222689E+02  0.75504257236E+01 -0.10944373325E+02  0.18737313583E+02  0.51100000000E-03 0.  1.
        -12    1    3    3    0    0  0.14982509297E+01  0.40597187401E+01 -0.18704133274E+01  0.47142887175E+01  0.00000000000E+00 0.  1.
</event>
<event>
 7    1  0.1541705E-008  0.4614232E+02  0.7816164E-02  0.1320468E+00
        -11   -1    0    0    0    0  0.00000000000E+00  0.00000000000E+00  0.45593999997E+02  0.45594000000E+02  0.51100000000E-03 0.  1.
         11   -1    0    0    0    0 -0.00000000000E+00 -0.00000000000E+00 -0.45593999997E+02  0.45594000000E+02  0.51100000000E-03 0. -1.
    9900012    2    1    2    0    0 -0.87872684769E+01  0.15215719521E+02 -0.41477455312E+02  0.46142317555E+02  0.99999981160E+01 0.  0.
        -12    1    1    2    0    0  0.87872684769E+01 -0.15215719521E+02  0.41477455312E+02  0.45045682445E+02  0.00000000000E+00 0.  1.
         11    1    3    3    0    0 -0.25604131057E+01  0.62079035133E+01 -0.26741882820E+02  0.27572125024E+02  0.51100000000E-03 0. -1.
        -11    1    3    3    0    0 -0.78718941436E+00  0.21036771983E+00 -0.20256891239E+01  0.21834235594E+01  0.51100000000E-03 0.  1.
        -12    1    3    3    0    0 -0.54396659568E+01  0.87974482874E+01 -0.12709883368E+02  0.16386768971E+02  0.00000000000E+00 0.  1.
</event>
<event>
 7    1  0.1541705E-008  0.4614232E+02  0.7816164E-02  0.1320468E+00
        -11   -1    0    0    0    0  0.00000000000E+00  0.00000000000E+00  0.45593999997E+02  0.45594000000E+02  0.51100000000E-03 0. -1.
         11   -1    0    0    0    0 -0.00000000000E+00 -0.00000000000E+00 -0.45593999997E+02  0.45594000000E+02  0.51100000000E-03 0.  1.
    9900012    2    1    2    0    0  0.32695444250E+02  0.24591904940E+02  0.18850985342E+02  0.46142317503E+02  0.99999976439E+01 0.  0.
        -12    1    1    2    0    0 -0.32695444250E+02 -0.24591904940E+02 -0.18850985342E+02  0.45045682497E+02  0.00000000000E+00 0.  1.
         11    1    3    3    0    0  0.29950671589E+02  0.19592833792E+02  0.17296517995E+02  0.39750363516E+02  0.51100000000E-03 0. -1.
        -11    1    3    3    0    0  0.14192386834E+01  0.27979567669E+01 -0.40128199215E+00  0.31628828635E+01  0.51100000000E-03 0.  1.
         12    1    3    3    0    0  0.13255339784E+01  0.22011143803E+01  0.19557493394E+01  0.32290711236E+01  0.00000000000E+00 0. -1.
</event>
<event>
 7    1  0.1541705E-008  0.4614232E+02  0.7816164E-02  0.1320468E+00
        -11   -1    0    0    0    0  0.00000000000E+00  0.00000000000E+00  0.45593999997E+02  0.45594000000E+02  0.51100000000E-03 0.  1.
         11   -1    0    0    0    0 -0.00000000000E+00 -0.00000000000E+00 -0.45593999997E+02  0.45594000000E+02  0.51100000000E-03 0. -1.
    9900012    2    1    2    0    0 -0.93411310675E+01  0.37367435868E+02 -0.23356616295E+02  0.46142317435E+02  0.99999970289E+01 0.  0.
        -12    1    1    2    0    0  0.93411310675E+01 -0.37367435868E+02  0.23356616295E+02  0.45045682565E+02  0.00000000000E+00 0.  1.
         11    1    3    3    0    0 -0.98058964575E+01  0.30958254949E+02 -0.15918403526E+02  0.36165794971E+02  0.51100000000E-03 0. -1.
        -11    1    3    3    0    0  0.43499160926E+00  0.38446029416E+01 -0.31921365338E+01  0.50159670444E+01  0.51100000000E-03 0.  1.
         12    1    3    3    0    0  0.29773780671E-01  0.25645779777E+01 -0.42460762346E+01  0.49605554197E+01  0.00000000000E+00 0. -1.
</event>
<event>
 7    1  0.1541705E-008  0.4614232E+02  0.7816164E-02  0.1320468E+00
        -11   -1    0    0    0    0  0.00000000000E+00  0.00000000000E+00  0.45593999997E+02  0.45594000000E+02  0.51100000000E-03 0.  1.
         11   -1    0    0    0    0 -0.00000000000E+00 -0.00000000000E+00 -0.45593999997E+02  0.45594000000E+02  0.51100000000E-03 0. -1.
    9900012    2    1    2    0    0  0.39926250055E+02  0.11754112212E+02 -0.17229300185E+02  0.46142318939E+02  0.10000010743E+02 0.  0.
        -12    1    1    2    0    0 -0.39926250055E+02 -0.11754112212E+02  0.17229300185E+02  0.45045681061E+02  0.00000000000E+00 0.  1.
         11    1    3    3    0    0  0.56629783952E+01  0.60282108951E+00 -0.21422368724E+01  0.60845621576E+01  0.51100000000E-03 0. -1.
        -11    1    3    3    0    0  0.21105823172E+02  0.70564137886E+01 -0.13873553792E+02  0.26224496990E+02  0.51100000000E-03 0.  1.
        -12    1    3    3    0    0  0.13157448488E+02  0.40948773340E+01 -0.12135095207E+01  0.13833259791E+02  0.00000000000E+00 0.  1.
</event>
<event>
 7    1  0.1541705E-008  0.4614232E+02  0.7816164E-02  0.1320468E+00
        -11   -1    0    0    0    0  0.00000000000E+00  0.00000000000E+00  0.45593999997E+02  0.45594000000E+02  0.51100000000E-03 0. -1.
         11   -1    0    0    0    0 -0.00000000000E+00 -0.00000000000E+00 -0.45593999997E+02  0.45594000000E+02  0.51100000000E-03 0.  1.
    9900012    2    1    2    0    0  0.38901329409E+02 -0.10395273237E+02 -0.20192532627E+02  0.46142317528E+02  0.99999978739E+01 0.  0.
        -12    1    1    2    0    0 -0.38901329409E+02  0.10395273237E+02  0.20192532627E+02  0.45045682472E+02  0.00000000000E+00 0.  1.
         11    1    3    3    0    0  0.31228873147E+02 -0.78807628476E+01 -0.15089448456E+02  0.35567406373E+02  0.51100000000E-03 0. -1.
        -11    1    3    3    0    0 -0.55024173643E+00 -0.54453123603E+00 -0.19520280757E+00  0.79836372207E+00  0.51100000000E-03 0.  1.
        -12    1    3    3    0    0  0.82226979986E+01 -0.19699791538E+01 -0.49078813629E+01  0.97765474333E+01  0.00000000000E+00 0.  1.
</event>
<event>
 7    1  0.1541705E-008  0.4614232E+02  0.7816164E-02  0.1320468E+00
        -11   -1    0    0    0    0  0.00000000000E+00  0.00000000000E+00  0.45593999997E+02  0.45594000000E+02  0.51100000000E-03 0. -1.
         11   -1    0    0    0    0 -0.00000000000E+00 -0.00000000000E+00 -0.45593999997E+02  0.45594000000E+02  0.51100000000E-03 0.  1.
    9900012    2    1    2    0    0 -0.32505539244E+02 -0.14718948986E+02  0.27492829954E+02  0.46142320522E+02  0.10000025172E+02 0.  0.
        -12    1    1    2    0    0  0.32505539244E+02  0.14718948986E+02 -0.27492829954E+02  0.45045679478E+02  0.00000000000E+00 0.  1.
         11    1    3    3    0    0 -0.29041628516E+02 -0.13183307208E+02  0.26083458639E+02  0.41201487723E+02  0.51100000000E-03 0. -1.
        -11    1    3    3    0    0 -0.67595332313E+00  0.15803235792E-01  0.16077190230E+01  0.17441110501E+01  0.51100000000E-03 0.  1.
         12    1    3    3    0    0 -0.27879574049E+01 -0.15514450139E+01 -0.19834770761E+00  0.31967217482E+01  0.00000000000E+00 0. -1.
</event>
<event>
 7    1  0.1541705E-008  0.4614231E+02  0.7816164E-02  0.1320468E+00
        -11   -1    0    0    0    0  0.00000000000E+00  0.00000000000E+00  0.45593999997E+02  0.45594000000E+02  0.51100000000E-03 0.  1.
         11   -1    0    0    0    0 -0.00000000000E+00 -0.00000000000E+00 -0.45593999997E+02  0.45594000000E+02  0.51100000000E-03 0. -1.
    9900012    2    1    2    0    0  0.39832208869E+02  0.13481403114E+02 -0.16148101969E+02  0.46142308857E+02  0.99999188077E+01 0.  0.
        -12    1    1    2    0    0 -0.39832208869E+02 -0.13481403114E+02  0.16148101969E+02  0.45045691143E+02  0.00000000000E+00 0.  1.
         11    1    3    3    0    0  0.23307830936E+02  0.10822232599E+02 -0.13293417046E+02  0.28932518701E+02  0.51100000000E-03 0. -1.
        -11    1    3    3    0    0  0.53344436151E+01 -0.31562206665E+00 -0.29675098800E+00  0.53520059213E+01  0.51100000000E-03 0.  1.
         12    1    3    3    0    0  0.11189934318E+02  0.29747925826E+01 -0.25579339347E+01  0.11857784235E+02  0.00000000000E+00 0. -1.
</event>
<event>
 7    1  0.1541705E-008  0.4614232E+02  0.7816164E-02  0.1320468E+00
        -11   -1    0    0    0    0  0.00000000000E+00  0.00000000000E+00  0.45593999997E+02  0.45594000000E+02  0.51100000000E-03 0. -1.
         11   -1    0    0    0    0 -0.00000000000E+00 -0.00000000000E+00 -0.45593999997E+02  0.45594000000E+02  0.51100000000E-03 0.  1.
    9900012    2    1    2    0    0 -0.26629113990E+02  0.15694423398E+01  0.36297942313E+02  0.46142317884E+02  0.10000001117E+02 0.  0.
        -12    1    1    2    0    0  0.26629113990E+02 -0.15694423398E+01 -0.36297942313E+02  0.45045682116E+02  0.00000000000E+00 0.  1.
         11    1    3    3    0    0 -0.14583741848E+02  0.24246252633E+01  0.13659494255E+02  0.20128241789E+02  0.51100000000E-03 0. -1.
        -11    1    3    3    0    0 -0.10261396716E+02 -0.20503456085E+01  0.16790651035E+02  0.19784492466E+02  0.51100000000E-03 0.  1.
        -12    1    3    3    0    0 -0.17839754256E+01  0.11951626850E+01  0.58477970230E+01  0.62295836286E+01  0.00000000000E+00 0.  1.
</event>
<event>
 7    1  0.1541705E-008  0.4614232E+02  0.7816164E-02  0.1320468E+00
        -11   -1    0    0    0    0  0.00000000000E+00  0.00000000000E+00  0.45593999997E+02  0.45594000000E+02  0.51100000000E-03 0.  1.
         11   -1    0    0    0    0 -0.00000000000E+00 -0.00000000000E+00 -0.45593999997E+02  0.45594000000E+02  0.51100000000E-03 0. -1.
    9900012    2    1    2    0    0 -0.12945465326E+02 -0.35443372993E+02 -0.24602762247E+02  0.46142315725E+02  0.99999814356E+01 0.  0.
        -12    1    1    2    0    0  0.12945465326E+02  0.35443372993E+02  0.24602762247E+02  0.45045684275E+02  0.00000000000E+00 0.  1.
         11    1    3    3    0    0 -0.35233637883E+01 -0.12997824677E+02 -0.12471066378E+02  0.18354428228E+02  0.51100000000E-03 0. -1.
        -11    1    3    3    0    0 -0.72365761327E+01 -0.20149061703E+02 -0.86816441239E+01  0.23102460185E+02  0.51100000000E-03 0.  1.
        -12    1    3    3    0    0 -0.21855254046E+01 -0.22964866132E+01 -0.34500517450E+01  0.46854273126E+01  0.00000000000E+00 0.  1.
</event>
<event>
 7    1  0.1541705E-008  0.4614231E+02  0.7816164E-02  0.1320468E+00
        -11   -1    0    0    0    0  0.00000000000E+00  0.00000000000E+00  0.45593999997E+02  0.45594000000E+02  0.51100000000E-03 0. -1.
         11   -1    0    0    0    0 -0.00000000000E+00 -0.00000000000E+00 -0.45593999997E+02  0.45594000000E+02  0.51100000000E-03 0.  1.
    9900012    2    1    2    0    0 -0.52651177597E+01 -0.18138116114E+02  0.40895001198E+02  0.46142313811E+02  0.99999639833E+01 0.  0.
        -12    1    1    2    0    0  0.52651177597E+01  0.18138116114E+02 -0.40895001198E+02  0.45045686189E+02  0.00000000000E+00 0.  1.
         11    1    3    3    0    0  0.12590353318E+00 -0.35459382703E+01  0.22721568268E+01  0.42133391536E+01  0.51100000000E-03 0. -1.
        -11    1    3    3    0    0 -0.50073634474E+01 -0.11133317109E+02  0.34119825431E+02  0.36237921108E+02  0.51100000000E-03 0.  1.
        -12    1    3    3    0    0 -0.38365784545E+00 -0.34588607348E+01  0.45030189408E+01  0.56910535498E+01  0.00000000000E+00 0.  1.
</event>
<event>
 7    1  0.1541705E-008  0.4614232E+02  0.7816164E-02  0.1320468E+00
        -11   -1    0    0    0    0  0.00000000000E+00  0.00000000000E+00  0.45593999997E+02  0.45594000000E+02  0.51100000000E-03 0. -1.
         11   -1    0    0    0    0 -0.00000000000E+00 -0.00000000000E+00 -0.45593999997E+02  0.45594000000E+02  0.51100000000E-03 0.  1.
    9900012    2    1    2    0    0  0.43373370788E+02 -0.12132441201E+02  0.81743973870E+00  0.46142316181E+02  0.99999855930E+01 0.  0.
        -12    1    1    2    0    0 -0.43373370788E+02  0.12132441201E+02 -0.81743973870E+00  0.45045683819E+02  0.00000000000E+00 0.  1.
         11    1    3    3    0    0  0.19427064295E+02 -0.63684216504E+01  0.55817651490E+00  0.20451874797E+02  0.51100000000E-03 0.  1.
        -11    1    3    3    0    0  0.22709454126E+01 -0.28986834990E+01 -0.91734215812E+00  0.37948749637E+01  0.51100000000E-03 0. -1.
         12    1    3    3    0    0  0.21675361080E+02 -0.28653360521E+01  0.11766053819E+01  0.21895566421E+02  0.00000000000E+00 0. -1.
</event>
<event>
 7    1  0.1541705E-008  0.4614232E+02  0.7816164E-02  0.1320468E+00
        -11   -1    0    0    0    0  0.00000000000E+00  0.00000000000E+00  0.45593999997E+02  0.45594000000E+02  0.51100000000E-03 0. -1.
         11   -1    0    0    0    0 -0.00000000000E+00 -0.00000000000E+00 -0.45593999997E+02  0.45594000000E+02  0.51100000000E-03 0.  1.
    9900012    2    1    2    0    0  0.32388147046E+02  0.15963612185E+02  0.26931102843E+02  0.46142320036E+02  0.10000020743E+02 0.  0.
        -12    1    1    2    0    0 -0.32388147046E+02 -0.15963612185E+02 -0.26931102843E+02  0.45045679964E+02  0.00000000000E+00 0.  1.
         11    1    3    3    0    0  0.38019086838E+01  0.15444521041E+01  0.65801857794E+01  0.77549137387E+01  0.51100000000E-03 0. -1.
        -11    1    3    3    0    0  0.95227389222E+01  0.62872329798E+01  0.43820909606E+01  0.12223525538E+02  0.51100000000E-03 0.  1.
         12    1    3    3    0    0  0.19063499440E+02  0.81319271016E+01  0.15968826103E+02  0.26163880759E+02  0.00000000000E+00 0. -1.
</event>
<event>
 7    1  0.1541705E-008  0.4614233E+02  0.7816164E-02  0.1320468E+00
        -11   -1    0    0    0    0  0.00000000000E+00  0.00000000000E+00  0.45593999997E+02  0.45594000000E+02  0.51100000000E-03 0.  1.
         11   -1    0    0    0    0 -0.00000000000E+00 -0.00000000000E+00 -0.45593999997E+02  0.45594000000E+02  0.51100000000E-03 0. -1.
    9900012    2    1    2    0    0  0.44084903353E+02 -0.74927564125E+01 -0.54307106018E+01  0.46142326291E+02  0.10000077781E+02 0.  0.
        -12    1    1    2    0    0 -0.44084903353E+02  0.74927564125E+01  0.54307106018E+01  0.45045673709E+02  0.00000000000E+00 0.  1.
         11    1    3    3    0    0  0.12458597274E+02 -0.63019532157E+01 -0.35647315028E+01  0.14409669368E+02  0.51100000000E-03 0.  1.
        -11    1    3    3    0    0  0.19455264262E+02 -0.13918225422E+01 -0.11191504033E+01  0.19537066703E+02  0.51100000000E-03 0. -1.
        -12    1    3    3    0    0  0.12171041817E+02  0.20101934532E+00 -0.74682869583E+00  0.12195590219E+02  0.00000000000E+00 0.  1.
</event>
<event>
 7    1  0.1541705E-008  0.4614233E+02  0.7816164E-02  0.1320468E+00
        -11   -1    0    0    0    0  0.00000000000E+00  0.00000000000E+00  0.45593999997E+02  0.45594000000E+02  0.51100000000E-03 0. -1.
         11   -1    0    0    0    0 -0.00000000000E+00 -0.00000000000E+00 -0.45593999997E+02  0.45594000000E+02  0.51100000000E-03 0.  1.
    9900012    2    1    2    0    0  0.17617385154E+01 -0.42003132060E+02  0.16178565443E+02  0.46142325344E+02  0.10000069144E+02 0.  0.
        -12    1    1    2    0    0 -0.17617385154E+01  0.42003132060E+02 -0.16178565443E+02  0.45045674656E+02  0.00000000000E+00 0.  1.
         11    1    3    3    0    0  0.13256132708E+01 -0.35708993034E+01  0.45914424282E+01  0.59657284728E+01  0.51100000000E-03 0.  1.
        -11    1    3    3    0    0 -0.35792472578E+00 -0.17890964092E+02  0.47750889749E+01  0.18520696024E+02  0.51100000000E-03 0. -1.
        -12    1    3    3    0    0  0.79404997044E+00 -0.20541268664E+02  0.68120340402E+01  0.21655900846E+02  0.00000000000E+00 0.  1.
</event>
<event>
 7    1  0.1541705E-008  0.4614232E+02  0.7816164E-02  0.1320468E+00
        -11   -1    0    0    0    0  0.00000000000E+00  0.00000000000E+00  0.45593999997E+02  0.45594000000E+02  0.51100000000E-03 0. -1.
         11   -1    0    0    0    0 -0.00000000000E+00 -0.00000000000E+00 -0.45593999997E+02  0.45594000000E+02  0.51100000000E-03 0.  1.
    9900012    2    1    2    0    0  0.34276605478E+02  0.23922848343E+02  0.16790628331E+02  0.46142317014E+02  0.99999931898E+01 0.  0.
        -12    1    1    2    0    0 -0.34276605478E+02 -0.23922848343E+02 -0.16790628331E+02  0.45045682986E+02  0.00000000000E+00 0.  1.
         11    1    3    3    0    0  0.23002557115E+02  0.16495654202E+02  0.11520070564E+02  0.30560370866E+02  0.51100000000E-03 0. -1.
        -11    1    3    3    0    0  0.95194669438E+01  0.38156561904E+01  0.53472775615E+01  0.11566021816E+02  0.51100000000E-03 0.  1.
        -12    1    3    3    0    0  0.17545814189E+01  0.36115379502E+01 -0.76719794756E-01  0.40159243330E+01  0.00000000000E+00 0.  1.
</event>
<event>
 7    1  0.1541705E-008  0.4614232E+02  0.7816164E-02  0.1320468E+00
        -11   -1    0    0    0    0  0.00000000000E+00  0.00000000000E+00  0.45593999997E+02  0.45594000000E+02  0.51100000000E-03 0.  1.
         11   -1    0    0    0    0 -0.00000000000E+00 -0.00000000000E+00 -0.45593999997E+02  0.45594000000E+02  0.51100000000E-03 0. -1.
    9900012    2    1    2    0    0 -0.19520657938E+00 -0.27643850532E+02 -0.35565332760E+02  0.46142317940E+02  0.10000001635E+02 0.  0.
        -12    1    1    2    0    0  0.19520657938E+00  0.27643850532E+02  0.35565332760E+02  0.45045682060E+02  0.00000000000E+00 0.  1.
         11    1    3    3    0    0 -0.53850888531E+00 -0.38057845101E+01 -0.86288740545E+01  0.94462402715E+01  0.51100000000E-03 0. -1.
        -11    1    3    3    0    0 -0.15329282480E+00 -0.42577421258E+01 -0.13416695402E+01  0.44667599125E+01  0.51100000000E-03 0.  1.
        -12    1    3    3    0    0  0.49659513073E+00 -0.19580323896E+02 -0.25594789166E+02  0.32229317756E+02  0.00000000000E+00 0.  1.
</event>
<event>
 7    1  0.1541705E-008  0.4614232E+02  0.7816164E-02  0.1320468E+00
        -11   -1    0    0    0    0  0.00000000000E+00  0.00000000000E+00  0.45593999997E+02  0.45594000000E+02  0.51100000000E-03 0.  1.
         11   -1    0    0    0    0 -0.00000000000E+00 -0.00000000000E+00 -0.45593999997E+02  0.45594000000E+02  0.51100000000E-03 0. -1.
    9900012    2    1    2    0    0  0.33007720577E+02 -0.10052065596E+02 -0.28957898662E+02  0.46142317240E+02  0.99999952472E+01 0.  0.
        -12    1    1    2    0    0 -0.33007720577E+02  0.10052065596E+02  0.28957898662E+02  0.45045682760E+02  0.00000000000E+00 0.  1.
         11    1    3    3    0    0  0.71136126001E+00 -0.10772294588E+00  0.26105817355E+00  0.76536965344E+00  0.51100000000E-03 0. -1.
        -11    1    3    3    0    0  0.19036707964E+01 -0.24986955700E+01 -0.11627899445E+01  0.33495556077E+01  0.51100000000E-03 0.  1.
         12    1    3    3    0    0  0.30392688521E+02 -0.74456470800E+01 -0.28056166891E+02  0.42027391979E+02  0.00000000000E+00 0. -1.
</event>
<event>
 7    1  0.1541705E-008  0.4614232E+02  0.7816164E-02  0.1320468E+00
        -11   -1    0    0    0    0  0.00000000000E+00  0.00000000000E+00  0.45593999997E+02  0.45594000000E+02  0.51100000000E-03 0.  1.
         11   -1    0    0    0    0 -0.00000000000E+00 -0.00000000000E+00 -0.45593999997E+02  0.45594000000E+02  0.51100000000E-03 0. -1.
    9900012    2    1    2    0    0  0.79757042496E+01 -0.35075000008E+02 -0.27115419003E+02  0.46142318392E+02  0.10000005753E+02 0.  0.
        -12    1    1    2    0    0 -0.79757042496E+01  0.35075000008E+02  0.27115419003E+02  0.45045681608E+02  0.00000000000E+00 0.  1.
         11    1    3    3    0    0  0.59707021939E+00 -0.70253736077E+01 -0.15737567189E+01  0.72242008310E+01  0.51100000000E-03 0. -1.
        -11    1    3    3    0    0  0.20066364367E+01 -0.27214437362E+01 -0.39947666043E+01  0.52336417801E+01  0.51100000000E-03 0.  1.
         12    1    3    3    0    0  0.53719975936E+01 -0.25328182664E+02 -0.21546895680E+02  0.33684475781E+02  0.00000000000E+00 0. -1.
</event>
<event>
 7    1  0.1541705E-008  0.4614232E+02  0.7816164E-02  0.1320468E+00
        -11   -1    0    0    0    0  0.00000000000E+00  0.00000000000E+00  0.45593999997E+02  0.45594000000E+02  0.51100000000E-03 0. -1.
         11   -1    0    0    0    0 -0.00000000000E+00 -0.00000000000E+00 -0.45593999997E+02  0.45594000000E+02  0.51100000000E-03 0.  1.
    9900012    2    1    2    0    0 -0.32548554866E+02  0.95558338557E+01  0.29637663629E+02  0.46142317743E+02  0.99999998391E+01 0.  0.
        -12    1    1    2    0    0  0.32548554866E+02 -0.95558338557E+01 -0.29637663629E+02  0.45045682257E+02  0.00000000000E+00 0.  1.
         11    1    3    3    0    0 -0.46386790044E+01  0.26461403260E+01  0.63042177340E+01  0.82621161351E+01  0.51100000000E-03 0. -1.
        -11    1    3    3    0    0 -0.94967874097E+01 -0.99630670096E+00  0.52961227928E+01  0.10919272643E+02  0.51100000000E-03 0.  1.
        -12    1    3    3    0    0 -0.18413088452E+02  0.79060002306E+01  0.18037323102E+02  0.26960928966E+02  0.00000000000E+00 0.  1.
</event>
<event>
 7    1  0.1541705E-008  0.4614232E+02  0.7816164E-02  0.1320468E+00
        -11   -1    0    0    0    0  0.00000000000E+00  0.00000000000E+00  0.45593999997E+02  0.45594000000E+02  0.51100000000E-03 0.  1.
         11   -1    0    0    0    0 -0.00000000000E+00 -0.00000000000E+00 -0.45593999997E+02  0.45594000000E+02  0.51100000000E-03 0. -1.
    9900012    2    1    2    0    0  0.29404787326E+02  0.12122285321E+02 -0.31898623561E+02  0.46142317585E+02  0.99999983971E+01 0.  0.
        -12    1    1    2    0    0 -0.29404787326E+02 -0.12122285321E+02  0.31898623561E+02  0.45045682415E+02  0.00000000000E+00 0.  1.
         11    1    3    3    0    0  0.91102825295E+01  0.30463234161E+01 -0.66852326308E+01  0.11703404193E+02  0.51100000000E-03 0. -1.
        -11    1    3    3    0    0  0.94364667354E+01  0.69072249615E+01 -0.17081543309E+02  0.20701105845E+02  0.51100000000E-03 0.  1.
        -12    1    3    3    0    0  0.10858038061E+02  0.21687369439E+01 -0.81318476214E+01  0.13737807547E+02  0.00000000000E+00 0.  1.
</event>
<event>
 7    1  0.1541705E-008  0.4614232E+02  0.7816164E-02  0.1320468E+00
        -11   -1    0    0    0    0  0.00000000000E+00  0.00000000000E+00  0.45593999997E+02  0.45594000000E+02  0.51100000000E-03 0. -1.
         11   -1    0    0    0    0 -0.00000000000E+00 -0.00000000000E+00 -0.45593999997E+02  0.45594000000E+02  0.51100000000E-03 0.  1.
    9900012    2    1    2    0    0  0.17038791507E+02 -0.29297857174E+02  0.29672017433E+02  0.46142317970E+02  0.10000001904E+02 0.  0.
        -12    1    1    2    0    0 -0.17038791507E+02  0.29297857174E+02 -0.29672017433E+02  0.45045682030E+02  0.00000000000E+00 0.  1.
         11    1    3    3    0    0  0.46166246132E+01 -0.13324859029E+02  0.11493033308E+02  0.18192166058E+02  0.51100000000E-03 0.  1.
        -11    1    3    3    0    0  0.96771270590E+01 -0.76197496823E+01  0.12058101443E+02  0.17236739367E+02  0.51100000000E-03 0. -1.
         12    1    3    3    0    0  0.27450398346E+01 -0.83532484620E+01  0.61208826819E+01  0.10713412545E+02  0.00000000000E+00 0. -1.
</event>
<event>
 7    1  0.1541705E-008  0.4614232E+02  0.7816164E-02  0.1320468E+00
        -11   -1    0    0    0    0  0.00000000000E+00  0.00000000000E+00  0.45593999997E+02  0.45594000000E+02  0.51100000000E-03 0.  1.
         11   -1    0    0    0    0 -0.00000000000E+00 -0.00000000000E+00 -0.45593999997E+02  0.45594000000E+02  0.51100000000E-03 0. -1.
    9900012    2    1    2    0    0 -0.40470556985E+02  0.17487028831E+02 -0.92439887886E+01  0.46142317757E+02  0.99999999611E+01 0.  0.
        -12    1    1    2    0    0  0.40470556985E+02 -0.17487028831E+02  0.92439887886E+01  0.45045682243E+02  0.00000000000E+00 0.  1.
         11    1    3    3    0    0 -0.12003571149E+02  0.50909233592E+01 -0.51406476153E+01  0.14015330148E+02  0.51100000000E-03 0. -1.
        -11    1    3    3    0    0 -0.10873977152E+02  0.85259410807E+01 -0.10652565711E+01  0.13858925724E+02  0.51100000000E-03 0.  1.
        -12    1    3    3    0    0 -0.17593008684E+02  0.38701643909E+01 -0.30380846021E+01  0.18268061885E+02  0.00000000000E+00 0.  1.
</event>
<event>
 7    1  0.1541705E-008  0.4614232E+02  0.7816164E-02  0.1320468E+00
        -11   -1    0    0    0    0  0.00000000000E+00  0.00000000000E+00  0.45593999997E+02  0.45594000000E+02  0.51100000000E-03 0. -1.
         11   -1    0    0    0    0 -0.00000000000E+00 -0.00000000000E+00 -0.45593999997E+02  0.45594000000E+02  0.51100000000E-03 0.  1.
    9900012    2    1    2    0    0  0.39997566676E+02  0.17302579656E+01 -0.20647381344E+02  0.46142317755E+02  0.99999999406E+01 0.  0.
        -12    1    1    2    0    0 -0.39997566676E+02 -0.17302579656E+01  0.20647381344E+02  0.45045682245E+02  0.00000000000E+00 0.  1.
         11    1    3    3    0    0  0.25407709559E+02  0.29841200748E+01 -0.15732900912E+02  0.30032996005E+02  0.51100000000E-03 0. -1.
        -11    1    3    3    0    0  0.40074739615E+01 -0.18122286840E+01 -0.30429336081E+01  0.53482207845E+01  0.51100000000E-03 0.  1.
         12    1    3    3    0    0  0.10582383155E+02  0.55836657478E+00 -0.18715468237E+01  0.10761100965E+02  0.00000000000E+00 0. -1.
</event>
<event>
 7    1  0.1541705E-008  0.4614232E+02  0.7816164E-02  0.1320468E+00
        -11   -1    0    0    0    0  0.00000000000E+00  0.00000000000E+00  0.45593999997E+02  0.45594000000E+02  0.51100000000E-03 0.  1.
         11   -1    0    0    0    0 -0.00000000000E+00 -0.00000000000E+00 -0.45593999997E+02  0.45594000000E+02  0.51100000000E-03 0. -1.
    9900012    2    1    2    0    0  0.17741859404E+02  0.38205667961E+02 -0.15958285893E+02  0.46142317320E+02  0.99999959748E+01 0.  0.
        -12    1    1    2    0    0 -0.17741859404E+02 -0.38205667961E+02  0.15958285893E+02  0.45045682680E+02  0.00000000000E+00 0.  1.
         11    1    3    3    0    0  0.19305576941E+01  0.34941091558E+01 -0.23530972384E+01  0.46338880735E+01  0.51100000000E-03 0. -1.
        -11    1    3    3    0    0  0.14893815299E+02  0.23967659954E+02 -0.78707446636E+01  0.29295444691E+02  0.51100000000E-03 0.  1.
        -12    1    3    3    0    0  0.91748641025E+00  0.10743898852E+02 -0.57344439913E+01  0.12212984555E+02  0.00000000000E+00 0.  1.
</event>
<event>
 7    1  0.1541705E-008  0.4614232E+02  0.7816164E-02  0.1320468E+00
        -11   -1    0    0    0    0  0.00000000000E+00  0.00000000000E+00  0.45593999997E+02  0.45594000000E+02  0.51100000000E-03 0. -1.
         11   -1    0    0    0    0 -0.00000000000E+00 -0.00000000000E+00 -0.45593999997E+02  0.45594000000E+02  0.51100000000E-03 0.  1.
    9900012    2    1    2    0    0 -0.32826222243E+02  0.14904791371E+02  0.27007401695E+02  0.46142318532E+02  0.10000007031E+02 0.  0.
        -12    1    1    2    0    0  0.32826222243E+02 -0.14904791371E+02 -0.27007401695E+02  0.45045681468E+02  0.00000000000E+00 0.  1.
         11    1    3    3    0    0 -0.54876969039E+01  0.28998455749E+01  0.44057939492E+01  0.76115006570E+01  0.51100000000E-03 0. -1.
        -11    1    3    3    0    0 -0.22709182401E+02  0.60756326067E+01  0.18808459391E+02  0.30106119342E+02  0.51100000000E-03 0.  1.
        -12    1    3    3    0    0 -0.46293429382E+01  0.59293131889E+01  0.37931483551E+01  0.84246985332E+01  0.00000000000E+00 0.  1.
</event>
<event>
 7    1  0.1541705E-008  0.4614232E+02  0.7816164E-02  0.1320468E+00
        -11   -1    0    0    0    0  0.00000000000E+00  0.00000000000E+00  0.45593999997E+02  0.45594000000E+02  0.51100000000E-03 0.  1.
         11   -1    0    0    0    0 -0.00000000000E+00 -0.00000000000E+00 -0.45593999997E+02  0.45594000000E+02  0.51100000000E-03 0. -1.
    9900012    2    1    2    0    0 -0.26654676144E+01  0.39134082666E+02 -0.22147963789E+02  0.46142318256E+02  0.10000004514E+02 0.  0.
        -12    1    1    2    0    0  0.26654676144E+01 -0.39134082666E+02  0.22147963789E+02  0.45045681744E+02  0.00000000000E+00 0.  1.
         11    1    3    3    0    0 -0.65164449643E+00  0.91386638075E+01 -0.22772322847E+01  0.94406357771E+01  0.51100000000E-03 0. -1.
        -11    1    3    3    0    0  0.11660542925E+01  0.24281666721E+01 -0.37234147271E+01  0.45955950095E+01  0.51100000000E-03 0.  1.
         12    1    3    3    0    0 -0.31798774104E+01  0.27567252187E+02 -0.16147316778E+02  0.32106087470E+02  0.00000000000E+00 0. -1.
</event>
<event>
 7    1  0.1541705E-008  0.4614232E+02  0.7816164E-02  0.1320468E+00
        -11   -1    0    0    0    0  0.00000000000E+00  0.00000000000E+00  0.45593999997E+02  0.45594000000E+02  0.51100000000E-03 0.  1.
         11   -1    0    0    0    0 -0.00000000000E+00 -0.00000000000E+00 -0.45593999997E+02  0.45594000000E+02  0.51100000000E-03 0. -1.
    9900012    2    1    2    0    0 -0.12382059649E+01 -0.28196330319E+02 -0.35107652600E+02  0.46142317981E+02  0.10000002003E+02 0.  0.
        -12    1    1    2    0    0  0.12382059649E+01  0.28196330319E+02  0.35107652600E+02  0.45045682019E+02  0.00000000000E+00 0.  1.
         11    1    3    3    0    0 -0.39296853689E+01 -0.14480887580E+02 -0.20072954225E+02  0.25061165651E+02  0.51100000000E-03 0. -1.
        -11    1    3    3    0    0 -0.11530451300E+01 -0.12423002194E+01 -0.13199938109E+01  0.21483032442E+01  0.51100000000E-03 0.  1.
         12    1    3    3    0    0  0.38445245341E+01 -0.12473142519E+02 -0.13714704564E+02  0.18932849085E+02  0.00000000000E+00 0. -1.
</event>
<event>
 7    1  0.1541705E-008  0.4614232E+02  0.7816164E-02  0.1320468E+00
        -11   -1    0    0    0    0  0.00000000000E+00  0.00000000000E+00  0.45593999997E+02  0.45594000000E+02  0.51100000000E-03 0.  1.
         11   -1    0    0    0    0 -0.00000000000E+00 -0.00000000000E+00 -0.45593999997E+02  0.45594000000E+02  0.51100000000E-03 0. -1.
    9900012    2    1    2    0    0 -0.45150928661E+01  0.10025720858E+02 -0.43683090032E+02  0.46142317665E+02  0.99999991250E+01 0.  0.
        -12    1    1    2    0    0  0.45150928661E+01 -0.10025720858E+02  0.43683090032E+02  0.45045682335E+02  0.00000000000E+00 0.  1.
         11    1    3    3    0    0 -0.11478904581E+00 -0.38293036914E+00 -0.10354068635E+02  0.10361783136E+02  0.51100000000E-03 0. -1.
        -11    1    3    3    0    0  0.21208002767E+00  0.42615377810E+01 -0.58093025222E+01  0.72078900001E+01  0.51100000000E-03 0.  1.
        -12    1    3    3    0    0 -0.46123838480E+01  0.61471134460E+01 -0.27519718874E+02  0.28572644529E+02  0.00000000000E+00 0.  1.
</event>
<event>
 7    1  0.1541705E-008  0.4614232E+02  0.7816164E-02  0.1320468E+00
        -11   -1    0    0    0    0  0.00000000000E+00  0.00000000000E+00  0.45593999997E+02  0.45594000000E+02  0.51100000000E-03 0.  1.
         11   -1    0    0    0    0 -0.00000000000E+00 -0.00000000000E+00 -0.45593999997E+02  0.45594000000E+02  0.51100000000E-03 0. -1.
    9900012    2    1    2    0    0 -0.15951416848E+02  0.55342601358E+01 -0.41761677929E+02  0.46142317874E+02  0.10000001033E+02 0.  0.
        -12    1    1    2    0    0  0.15951416848E+02 -0.55342601358E+01  0.41761677929E+02  0.45045682126E+02  0.00000000000E+00 0.  1.
         11    1    3    3    0    0 -0.11250461759E+02  0.49708826195E+01 -0.21596805766E+02  0.24853663379E+02  0.51100000000E-03 0. -1.
        -11    1    3    3    0    0 -0.34234269366E+01  0.91501045463E-01 -0.19452587067E+02  0.19751743424E+02  0.51100000000E-03 0.  1.
        -12    1    3    3    0    0 -0.12775281518E+01  0.47187647078E+00 -0.71228509656E+00  0.15369110713E+01  0.00000000000E+00 0.  1.
</event>
<event>
 7    1  0.1541705E-008  0.4614232E+02  0.7816164E-02  0.1320468E+00
        -11   -1    0    0    0    0  0.00000000000E+00  0.00000000000E+00  0.45593999997E+02  0.45594000000E+02  0.51100000000E-03 0.  1.
         11   -1    0    0    0    0 -0.00000000000E+00 -0.00000000000E+00 -0.45593999997E+02  0.45594000000E+02  0.51100000000E-03 0. -1.
    9900012    2    1    2    0    0 -0.13402170083E+02  0.37844191079E+02 -0.20428229050E+02  0.46142317594E+02  0.99999984758E+01 0.  0.
        -12    1    1    2    0    0  0.13402170083E+02 -0.37844191079E+02  0.20428229050E+02  0.45045682406E+02  0.00000000000E+00 0.  1.
         11    1    3    3    0    0 -0.82766220914E+01  0.12884727064E+02 -0.97905190650E+01  0.18176163748E+02  0.51100000000E-03 0. -1.
        -11    1    3    3    0    0 -0.15516379902E+01  0.10686367768E+02 -0.22526579346E+01  0.11030888656E+02  0.51100000000E-03 0.  1.
         12    1    3    3    0    0 -0.35739100011E+01  0.14273096247E+02 -0.83850520502E+01  0.16935265190E+02  0.00000000000E+00 0. -1.
</event>
<event>
 7    1  0.1541705E-008  0.4614232E+02  0.7816164E-02  0.1320468E+00
        -11   -1    0    0    0    0  0.00000000000E+00  0.00000000000E+00  0.45593999997E+02  0.45594000000E+02  0.51100000000E-03 0.  1.
         11   -1    0    0    0    0 -0.00000000000E+00 -0.00000000000E+00 -0.45593999997E+02  0.45594000000E+02  0.51100000000E-03 0. -1.
    9900012    2    1    2    0    0 -0.40348653481E+01  0.90306766448E+01 -0.43946334856E+02  0.46142316452E+02  0.99999880584E+01 0.  0.
        -12    1    1    2    0    0  0.40348653481E+01 -0.90306766448E+01  0.43946334856E+02  0.45045683548E+02  0.00000000000E+00 0.  1.
         11    1    3    3    0    0 -0.36030694489E+01  0.57666431156E+01 -0.35064577624E+02  0.35717795096E+02  0.51100000000E-03 0. -1.
        -11    1    3    3    0    0  0.16844228729E+01  0.28321421579E+01 -0.52090515039E+01  0.61638078693E+01  0.51100000000E-03 0.  1.
         12    1    3    3    0    0 -0.21162187721E+01  0.43189137122E+00 -0.36727057280E+01  0.42607134863E+01  0.00000000000E+00 0. -1.
</event>
<event>
 7    1  0.1541705E-008  0.4614232E+02  0.7816164E-02  0.1320468E+00
        -11   -1    0    0    0    0  0.00000000000E+00  0.00000000000E+00  0.45593999997E+02  0.45594000000E+02  0.51100000000E-03 0.  1.
         11   -1    0    0    0    0 -0.00000000000E+00 -0.00000000000E+00 -0.45593999997E+02  0.45594000000E+02  0.51100000000E-03 0. -1.
    9900012    2    1    2    0    0  0.15688155829E+02 -0.49946909663E+01 -0.41929086067E+02  0.46142318414E+02  0.10000005949E+02 0.  0.
        -12    1    1    2    0    0 -0.15688155829E+02  0.49946909663E+01  0.41929086067E+02  0.45045681586E+02  0.00000000000E+00 0.  1.
         11    1    3    3    0    0  0.86326647381E+01 -0.36206185017E+01 -0.13124689391E+02  0.16121080940E+02  0.51100000000E-03 0. -1.
        -11    1    3    3    0    0  0.23494987948E+01  0.43493931634E+00 -0.17250958134E+02  0.17415650249E+02  0.51100000000E-03 0.  1.
         12    1    3    3    0    0  0.47059922957E+01 -0.18090117809E+01 -0.11553438543E+02  0.12605587224E+02  0.00000000000E+00 0. -1.
</event>
<event>
 7    1  0.1541705E-008  0.4614232E+02  0.7816164E-02  0.1320468E+00
        -11   -1    0    0    0    0  0.00000000000E+00  0.00000000000E+00  0.45593999997E+02  0.45594000000E+02  0.51100000000E-03 0. -1.
         11   -1    0    0    0    0 -0.00000000000E+00 -0.00000000000E+00 -0.45593999997E+02  0.45594000000E+02  0.51100000000E-03 0.  1.
    9900012    2    1    2    0    0  0.38359348700E+02 -0.12574774629E+02  0.19988719084E+02  0.46142317851E+02  0.10000000820E+02 0.  0.
        -12    1    1    2    0    0 -0.38359348700E+02  0.12574774629E+02 -0.19988719084E+02  0.45045682149E+02  0.00000000000E+00 0.  1.
         11    1    3    3    0    0  0.19907292381E+02 -0.78243796196E+01  0.11150651967E+02  0.24121738037E+02  0.51100000000E-03 0. -1.
        -11    1    3    3    0    0  0.15747477566E+02 -0.64031903606E+01  0.74534578204E+01  0.18561732954E+02  0.51100000000E-03 0.  1.
        -12    1    3    3    0    0  0.27045787529E+01  0.16527953510E+01  0.13846092962E+01  0.34588468607E+01  0.00000000000E+00 0.  1.
</event>
<event>
 7    1  0.1541705E-008  0.4614232E+02  0.7816164E-02  0.1320468E+00
        -11   -1    0    0    0    0  0.00000000000E+00  0.00000000000E+00  0.45593999997E+02  0.45594000000E+02  0.51100000000E-03 0.  1.
         11   -1    0    0    0    0 -0.00000000000E+00 -0.00000000000E+00 -0.45593999997E+02  0.45594000000E+02  0.51100000000E-03 0. -1.
    9900012    2    1    2    0    0 -0.24929515636E+01  0.10634538656E+02 -0.43701317572E+02  0.46142318992E+02  0.10000011223E+02 0.  0.
        -12    1    1    2    0    0  0.24929515636E+01 -0.10634538656E+02  0.43701317572E+02  0.45045681008E+02  0.00000000000E+00 0.  1.
         11    1    3    3    0    0  0.21356772535E+00  0.37155808574E+01 -0.13295691361E+02  0.13806757813E+02  0.51100000000E-03 0. -1.
        -11    1    3    3    0    0 -0.38976314927E+01  0.26821479190E+01 -0.65658530906E+01  0.80929522290E+01  0.51100000000E-03 0.  1.
        -12    1    3    3    0    0  0.11911122038E+01  0.42368098795E+01 -0.23839773120E+02  0.24242608949E+02  0.00000000000E+00 0.  1.
</event>
<event>
 7    1  0.1541705E-008  0.4614232E+02  0.7816164E-02  0.1320468E+00
        -11   -1    0    0    0    0  0.00000000000E+00  0.00000000000E+00  0.45593999997E+02  0.45594000000E+02  0.51100000000E-03 0. -1.
         11   -1    0    0    0    0 -0.00000000000E+00 -0.00000000000E+00 -0.45593999997E+02  0.45594000000E+02  0.51100000000E-03 0.  1.
    9900012    2    1    2    0    0 -0.24139971293E+01 -0.34265919739E+02  0.29139887645E+02  0.46142315527E+02  0.99999796267E+01 0.  0.
        -12    1    1    2    0    0  0.24139971293E+01  0.34265919739E+02 -0.29139887645E+02  0.45045684473E+02  0.00000000000E+00 0.  1.
         11    1    3    3    0    0  0.36014712722E+00 -0.65924092434E+01  0.94416206400E+01  0.11521014111E+02  0.51100000000E-03 0. -1.
        -11    1    3    3    0    0 -0.32259011583E+01 -0.22168598584E+02  0.12859592949E+02  0.25830647157E+02  0.51100000000E-03 0.  1.
        -12    1    3    3    0    0  0.45175690183E+00 -0.55049119115E+01  0.68386740561E+01  0.87906542588E+01  0.00000000000E+00 0.  1.
</event>
<event>
 7    1  0.1541705E-008  0.4614232E+02  0.7816164E-02  0.1320468E+00
        -11   -1    0    0    0    0  0.00000000000E+00  0.00000000000E+00  0.45593999997E+02  0.45594000000E+02  0.51100000000E-03 0.  1.
         11   -1    0    0    0    0 -0.00000000000E+00 -0.00000000000E+00 -0.45593999997E+02  0.45594000000E+02  0.51100000000E-03 0. -1.
    9900012    2    1    2    0    0  0.81331813520E+01 -0.40567707729E+02 -0.17810836563E+02  0.46142318205E+02  0.10000004046E+02 0.  0.
        -12    1    1    2    0    0 -0.81331813520E+01  0.40567707729E+02  0.17810836563E+02  0.45045681795E+02  0.00000000000E+00 0.  1.
         11    1    3    3    0    0  0.42035798229E+01 -0.13808746361E+02 -0.38876570894E+01  0.14948760393E+02  0.51100000000E-03 0. -1.
        -11    1    3    3    0    0  0.20829990716E+01 -0.11878447377E+02 -0.10071422717E+02  0.15712095755E+02  0.51100000000E-03 0.  1.
        -12    1    3    3    0    0  0.18466024575E+01 -0.14880513992E+02 -0.38517567568E+01  0.15481462057E+02  0.00000000000E+00 0.  1.
</event>
<event>
 7    1  0.1541705E-008  0.4614232E+02  0.7816164E-02  0.1320468E+00
        -11   -1    0    0    0    0  0.00000000000E+00  0.00000000000E+00  0.45593999997E+02  0.45594000000E+02  0.51100000000E-03 0.  1.
         11   -1    0    0    0    0 -0.00000000000E+00 -0.00000000000E+00 -0.45593999997E+02  0.45594000000E+02  0.51100000000E-03 0. -1.
    9900012    2    1    2    0    0  0.37291621474E+02  0.39698541401E+01 -0.24953730214E+02  0.46142318457E+02  0.10000006343E+02 0.  0.
        -12    1    1    2    0    0 -0.37291621474E+02 -0.39698541401E+01  0.24953730214E+02  0.45045681543E+02  0.00000000000E+00 0.  1.
         11    1    3    3    0    0  0.30450336119E+02  0.28708368095E+01 -0.15659531009E+02  0.34361105708E+02  0.51100000000E-03 0. -1.
        -11    1    3    3    0    0  0.48771151686E+01  0.17191912084E+01 -0.69040875566E+01  0.86260243467E+01  0.51100000000E-03 0.  1.
         12    1    3    3    0    0  0.19641701865E+01 -0.62017387783E+00 -0.23901116490E+01  0.31551884024E+01  0.00000000000E+00 0. -1.
</event>
<event>
 7    1  0.1541705E-008  0.4614231E+02  0.7816164E-02  0.1320468E+00
        -11   -1    0    0    0    0  0.00000000000E+00  0.00000000000E+00  0.45593999997E+02  0.45594000000E+02  0.51100000000E-03 0.  1.
         11   -1    0    0    0    0 -0.00000000000E+00 -0.00000000000E+00 -0.45593999997E+02  0.45594000000E+02  0.51100000000E-03 0. -1.
    9900012    2    1    2    0    0 -0.11504529645E+00 -0.41626341813E+02 -0.17214770458E+02  0.46142313302E+02  0.99999593427E+01 0.  0.
        -12    1    1    2    0    0  0.11504529645E+00  0.41626341813E+02  0.17214770458E+02  0.45045686698E+02  0.00000000000E+00 0.  1.
         11    1    3    3    0    0  0.19981605311E+01 -0.23090708212E+02 -0.74320505544E+01  0.24339450013E+02  0.51100000000E-03 0. -1.
        -11    1    3    3    0    0 -0.33304140153E+01 -0.11320051880E+02 -0.39442309418E+01  0.12441550951E+02  0.51100000000E-03 0.  1.
        -12    1    3    3    0    0  0.12172081878E+01 -0.72155817211E+01 -0.58384889621E+01  0.93613123390E+01  0.00000000000E+00 0.  1.
</event>
<event>
 7    1  0.1541705E-008  0.4614232E+02  0.7816164E-02  0.1320468E+00
        -11   -1    0    0    0    0  0.00000000000E+00  0.00000000000E+00  0.45593999997E+02  0.45594000000E+02  0.51100000000E-03 0.  1.
         11   -1    0    0    0    0 -0.00000000000E+00 -0.00000000000E+00 -0.45593999997E+02  0.45594000000E+02  0.51100000000E-03 0. -1.
    9900012    2    1    2    0    0  0.13115141930E+02  0.25369821747E+02 -0.34835021059E+02  0.46142317682E+02  0.99999992794E+01 0.  0.
        -12    1    1    2    0    0 -0.13115141930E+02 -0.25369821747E+02  0.34835021059E+02  0.45045682318E+02  0.00000000000E+00 0.  1.
         11    1    3    3    0    0  0.11514856948E+02  0.20398628479E+02 -0.22175482062E+02  0.32255975869E+02  0.51100000000E-03 0. -1.
        -11    1    3    3    0    0  0.21133375080E+01  0.45748637984E+01 -0.11545672091E+02  0.12597544145E+02  0.51100000000E-03 0.  1.
         12    1    3    3    0    0 -0.51305252623E+00  0.39632946980E+00 -0.11138669063E+01  0.12887976677E+01  0.00000000000E+00 0. -1.
</event>
<event>
 7    1  0.1541705E-008  0.4614232E+02  0.7816164E-02  0.1320468E+00
        -11   -1    0    0    0    0  0.00000000000E+00  0.00000000000E+00  0.45593999997E+02  0.45594000000E+02  0.51100000000E-03 0. -1.
         11   -1    0    0    0    0 -0.00000000000E+00 -0.00000000000E+00 -0.45593999997E+02  0.45594000000E+02  0.51100000000E-03 0.  1.
    9900012    2    1    2    0    0  0.20979471069E+02  0.24727112482E+02  0.31265718983E+02  0.46142317837E+02  0.10000000692E+02 0.  0.
        -12    1    1    2    0    0 -0.20979471069E+02 -0.24727112482E+02 -0.31265718983E+02  0.45045682163E+02  0.00000000000E+00 0.  1.
         11    1    3    3    0    0  0.32097107656E+01  0.82861575469E+01  0.91985431575E+01  0.12789677344E+02  0.51100000000E-03 0. -1.
        -11    1    3    3    0    0  0.85943417464E+01  0.53037892422E+01  0.12360712360E+02  0.15961832623E+02  0.51100000000E-03 0.  1.
        -12    1    3    3    0    0  0.91754185567E+01  0.11137165693E+02  0.97064634659E+01  0.17390807870E+02  0.00000000000E+00 0.  1.
</event>
<event>
 7    1  0.1541705E-008  0.4614232E+02  0.7816164E-02  0.1320468E+00
        -11   -1    0    0    0    0  0.00000000000E+00  0.00000000000E+00  0.45593999997E+02  0.45594000000E+02  0.51100000000E-03 0. -1.
         11   -1    0    0    0    0 -0.00000000000E+00 -0.00000000000E+00 -0.45593999997E+02  0.45594000000E+02  0.51100000000E-03 0.  1.
    9900012    2    1    2    0    0 -0.15112117514E+02 -0.38565209301E+02 -0.17704859189E+02  0.46142317598E+02  0.99999985103E+01 0.  0.
        -12    1    1    2    0    0  0.15112117514E+02  0.38565209301E+02  0.17704859189E+02  0.45045682402E+02  0.00000000000E+00 0.  1.
         11    1    3    3    0    0 -0.65268354662E+01 -0.15164548568E+02 -0.59583868434E+01  0.17551794453E+02  0.51100000000E-03 0. -1.
        -11    1    3    3    0    0 -0.56944030391E+01 -0.13502352704E+02 -0.27583614865E+01  0.14911348459E+02  0.51100000000E-03 0.  1.
        -12    1    3    3    0    0 -0.28908790086E+01 -0.98983080291E+01 -0.89881108587E+01  0.13679174686E+02  0.00000000000E+00 0.  1.
</event>
<event>
 7    1  0.1541705E-008  0.4614232E+02  0.7816164E-02  0.1320468E+00
        -11   -1    0    0    0    0  0.00000000000E+00  0.00000000000E+00  0.45593999997E+02  0.45594000000E+02  0.51100000000E-03 0.  1.
         11   -1    0    0    0    0 -0.00000000000E+00 -0.00000000000E+00 -0.45593999997E+02  0.45594000000E+02  0.51100000000E-03 0. -1.
    9900012    2    1    2    0    0 -0.29267932066E+02  0.25554285178E+02 -0.22792105605E+02  0.46142318561E+02  0.10000007294E+02 0.  0.
        -12    1    1    2    0    0  0.29267932066E+02 -0.25554285178E+02  0.22792105605E+02  0.45045681439E+02  0.00000000000E+00 0.  1.
         11    1    3    3    0    0 -0.23456208280E+02  0.16274282140E+02 -0.17967873626E+02  0.33732631812E+02  0.51100000000E-03 0. -1.
        -11    1    3    3    0    0 -0.33594174983E+01  0.51470959879E+01 -0.91366496536E+00  0.62139413392E+01  0.51100000000E-03 0.  1.
         12    1    3    3    0    0 -0.24523062874E+01  0.41329070510E+01 -0.39105670136E+01  0.61957454102E+01  0.00000000000E+00 0. -1.
</event>
<event>
 7    1  0.1541705E-008  0.4614232E+02  0.7816164E-02  0.1320468E+00
        -11   -1    0    0    0    0  0.00000000000E+00  0.00000000000E+00  0.45593999997E+02  0.45594000000E+02  0.51100000000E-03 0.  1.
         11   -1    0    0    0    0 -0.00000000000E+00 -0.00000000000E+00 -0.45593999997E+02  0.45594000000E+02  0.51100000000E-03 0. -1.
    9900012    2    1    2    0    0  0.10760164013E+02 -0.43716986741E+02  0.14688394926E+01  0.46142317091E+02  0.99999938880E+01 0.  0.
        -12    1    1    2    0    0 -0.10760164013E+02  0.43716986741E+02 -0.14688394926E+01  0.45045682909E+02  0.00000000000E+00 0.  1.
         11    1    3    3    0    0  0.21836428361E+00 -0.20622845426E+01  0.18223199766E+01  0.27607156415E+01  0.51100000000E-03 0. -1.
        -11    1    3    3    0    0  0.56614736907E+01 -0.11405275868E+02  0.23681542948E+00  0.12735332104E+02  0.51100000000E-03 0.  1.
         12    1    3    3    0    0  0.48803260386E+01 -0.30249426330E+02 -0.59029591349E+00  0.30646269345E+02  0.00000000000E+00 0. -1.
</event>
<event>
 7    1  0.1541705E-008  0.4614232E+02  0.7816164E-02  0.1320468E+00
        -11   -1    0    0    0    0  0.00000000000E+00  0.00000000000E+00  0.45593999997E+02  0.45594000000E+02  0.51100000000E-03 0. -1.
         11   -1    0    0    0    0 -0.00000000000E+00 -0.00000000000E+00 -0.45593999997E+02  0.45594000000E+02  0.51100000000E-03 0.  1.
    9900012    2    1    2    0    0  0.26945838268E+02  0.36095087827E+02 -0.42413316394E+00  0.46142318141E+02  0.10000003466E+02 0.  0.
        -12    1    1    2    0    0 -0.26945838268E+02 -0.36095087827E+02  0.42413316394E+00  0.45045681859E+02  0.00000000000E+00 0.  1.
         11    1    3    3    0    0  0.79727347827E+01  0.14828914722E+02  0.25037853867E-01  0.16836324982E+02  0.51100000000E-03 0. -1.
        -11    1    3    3    0    0 -0.57410186695E+00  0.62619336776E+00  0.19472384042E+00  0.87156682050E+00  0.51100000000E-03 0.  1.
         12    1    3    3    0    0  0.19547205352E+02  0.20639979737E+02 -0.64389485823E+00  0.28434426339E+02  0.00000000000E+00 0. -1.
</event>
<event>
 7    1  0.1541705E-008  0.4614232E+02  0.7816164E-02  0.1320468E+00
        -11   -1    0    0    0    0  0.00000000000E+00  0.00000000000E+00  0.45593999997E+02  0.45594000000E+02  0.51100000000E-03 0.  1.
         11   -1    0    0    0    0 -0.00000000000E+00 -0.00000000000E+00 -0.45593999997E+02  0.45594000000E+02  0.51100000000E-03 0. -1.
    9900012    2    1    2    0    0  0.16591826453E+02  0.33991249055E+01 -0.41740516547E+02  0.46142317890E+02  0.10000001173E+02 0.  0.
        -12    1    1    2    0    0 -0.16591826453E+02 -0.33991249055E+01  0.41740516547E+02  0.45045682110E+02  0.00000000000E+00 0.  1.
         11    1    3    3    0    0  0.18016069018E+01  0.23736195123E+01 -0.20016843820E+01  0.35897907521E+01  0.51100000000E-03 0. -1.
        -11    1    3    3    0    0  0.98195652014E+00  0.93348241967E+00 -0.46848811532E+01  0.48768575657E+01  0.51100000000E-03 0.  1.
         12    1    3    3    0    0  0.13808263031E+02  0.92022973603E-01 -0.35053951012E+02  0.37675669572E+02  0.00000000000E+00 0. -1.
</event>
<event>
 7    1  0.1541705E-008  0.4614232E+02  0.7816164E-02  0.1320468E+00
        -11   -1    0    0    0    0  0.00000000000E+00  0.00000000000E+00  0.45593999997E+02  0.45594000000E+02  0.51100000000E-03 0.  1.
         11   -1    0    0    0    0 -0.00000000000E+00 -0.00000000000E+00 -0.45593999997E+02  0.45594000000E+02  0.51100000000E-03 0. -1.
    9900012    2    1    2    0    0  0.71902098775E+01 -0.42488409884E+02 -0.13120570748E+02  0.46142317972E+02  0.10000001926E+02 0.  0.
        -12    1    1    2    0    0 -0.71902098775E+01  0.42488409884E+02  0.13120570748E+02  0.45045682028E+02  0.00000000000E+00 0.  1.
         11    1    3    3    0    0  0.11051992497E+01 -0.12476133954E+01  0.14787351830E-02  0.16667354360E+01  0.51100000000E-03 0. -1.
        -11    1    3    3    0    0  0.11737416393E+01 -0.10742912056E+01  0.66667103758E+00  0.17251729083E+01  0.51100000000E-03 0.  1.
         12    1    3    3    0    0  0.49112689885E+01 -0.40166505283E+02 -0.13788720521E+02  0.42750409628E+02  0.00000000000E+00 0. -1.
</event>
<event>
 7    1  0.1541705E-008  0.4614232E+02  0.7816164E-02  0.1320468E+00
        -11   -1    0    0    0    0  0.00000000000E+00  0.00000000000E+00  0.45593999997E+02  0.45594000000E+02  0.51100000000E-03 0. -1.
         11   -1    0    0    0    0 -0.00000000000E+00 -0.00000000000E+00 -0.45593999997E+02  0.45594000000E+02  0.51100000000E-03 0.  1.
    9900012    2    1    2    0    0  0.11398109482E+02 -0.12252485294E+02  0.41821922354E+02  0.46142317798E+02  0.10000000334E+02 0.  0.
        -12    1    1    2    0    0 -0.11398109482E+02  0.12252485294E+02 -0.41821922354E+02  0.45045682202E+02  0.00000000000E+00 0.  1.
         11    1    3    3    0    0  0.80579518764E+01 -0.75541845432E+01  0.14794483158E+02  0.18462746945E+02  0.51100000000E-03 0. -1.
        -11    1    3    3    0    0  0.77155434318E+00 -0.18563157892E+01  0.12241069448E+02  0.12405038730E+02  0.51100000000E-03 0.  1.
         12    1    3    3    0    0  0.25686032624E+01 -0.28419849618E+01  0.14786369748E+02  0.15274532123E+02  0.00000000000E+00 0. -1.
</event>
<event>
 7    1  0.1541705E-008  0.4614232E+02  0.7816164E-02  0.1320468E+00
        -11   -1    0    0    0    0  0.00000000000E+00  0.00000000000E+00  0.45593999997E+02  0.45594000000E+02  0.51100000000E-03 0. -1.
         11   -1    0    0    0    0 -0.00000000000E+00 -0.00000000000E+00 -0.45593999997E+02  0.45594000000E+02  0.51100000000E-03 0.  1.
    9900012    2    1    2    0    0 -0.18061998263E+02  0.41231560361E+02  0.16840758004E+01  0.46142318050E+02  0.10000002631E+02 0.  0.
        -12    1    1    2    0    0  0.18061998263E+02 -0.41231560361E+02 -0.16840758004E+01  0.45045681950E+02  0.00000000000E+00 0.  1.
         11    1    3    3    0    0 -0.83270492202E+01  0.26682451270E+02 -0.86761680955E-01  0.27951752760E+02  0.51100000000E-03 0. -1.
        -11    1    3    3    0    0 -0.45256681503E+01  0.35891221397E+01 -0.66260185864E+00  0.58139927266E+01  0.51100000000E-03 0.  1.
        -12    1    3    3    0    0 -0.52092808925E+01  0.10959986952E+02  0.24334393399E+01  0.12376572563E+02  0.00000000000E+00 0.  1.
</event>
<event>
 7    1  0.1541705E-008  0.4614232E+02  0.7816164E-02  0.1320468E+00
        -11   -1    0    0    0    0  0.00000000000E+00  0.00000000000E+00  0.45593999997E+02  0.45594000000E+02  0.51100000000E-03 0. -1.
         11   -1    0    0    0    0 -0.00000000000E+00 -0.00000000000E+00 -0.45593999997E+02  0.45594000000E+02  0.51100000000E-03 0.  1.
    9900012    2    1    2    0    0  0.26972263943E+02  0.25223428848E+02  0.25795136872E+02  0.46142317951E+02  0.10000001731E+02 0.  0.
        -12    1    1    2    0    0 -0.26972263943E+02 -0.25223428848E+02 -0.25795136872E+02  0.45045682049E+02  0.00000000000E+00 0.  1.
         11    1    3    3    0    0  0.14288956257E+02  0.13208506451E+02  0.10341027616E+02  0.22035783762E+02  0.51100000000E-03 0.  1.
        -11    1    3    3    0    0  0.56074375528E+01  0.66659675862E+01  0.11417813819E+02  0.14361230882E+02  0.51100000000E-03 0. -1.
         12    1    3    3    0    0  0.70758701329E+01  0.53489548102E+01  0.40362954369E+01  0.97453033074E+01  0.00000000000E+00 0. -1.
</event>
<event>
 7    1  0.1541705E-008  0.4614233E+02  0.7816164E-02  0.1320468E+00
        -11   -1    0    0    0    0  0.00000000000E+00  0.00000000000E+00  0.45593999997E+02  0.45594000000E+02  0.51100000000E-03 0.  1.
         11   -1    0    0    0    0 -0.00000000000E+00 -0.00000000000E+00 -0.45593999997E+02  0.45594000000E+02  0.51100000000E-03 0. -1.
    9900012    2    1    2    0    0 -0.71965736508E+01  0.37510699073E+02 -0.23880314478E+02  0.46142327213E+02  0.10000086194E+02 0.  0.
        -12    1    1    2    0    0  0.71965736508E+01 -0.37510699073E+02  0.23880314478E+02  0.45045672787E+02  0.00000000000E+00 0.  1.
         11    1    3    3    0    0 -0.69869177512E+01  0.21245603090E+02 -0.13409942168E+02  0.26077178136E+02  0.51100000000E-03 0. -1.
        -11    1    3    3    0    0  0.25477062806E+01  0.86564462174E+01 -0.55746814035E+01  0.10606693237E+02  0.51100000000E-03 0.  1.
        -12    1    3    3    0    0 -0.27573621802E+01  0.76086497651E+01 -0.48956909062E+01  0.94584558407E+01  0.00000000000E+00 0.  1.
</event>
<event>
 7    1  0.1541705E-008  0.4614232E+02  0.7816164E-02  0.1320468E+00
        -11   -1    0    0    0    0  0.00000000000E+00  0.00000000000E+00  0.45593999997E+02  0.45594000000E+02  0.51100000000E-03 0.  1.
         11   -1    0    0    0    0 -0.00000000000E+00 -0.00000000000E+00 -0.45593999997E+02  0.45594000000E+02  0.51100000000E-03 0. -1.
    9900012    2    1    2    0    0 -0.42094633241E+02 -0.14399570963E+02  0.70574567579E+01  0.46142317771E+02  0.10000000089E+02 0.  0.
        -12    1    1    2    0    0  0.42094633241E+02  0.14399570963E+02 -0.70574567579E+01  0.45045682229E+02  0.00000000000E+00 0.  1.
         11    1    3    3    0    0 -0.85524949243E+01  0.36649150521E+00  0.14709600639E+01  0.86858050418E+01  0.51100000000E-03 0. -1.
        -11    1    3    3    0    0 -0.61899854820E+01 -0.24537298029E+01 -0.10356950282E+01  0.67386478366E+01  0.51100000000E-03 0.  1.
         12    1    3    3    0    0 -0.27352152835E+02 -0.12312332665E+02  0.66221917223E+01  0.30717864892E+02  0.00000000000E+00 0. -1.
</event>
<event>
 7    1  0.1541705E-008  0.4614232E+02  0.7816164E-02  0.1320468E+00
        -11   -1    0    0    0    0  0.00000000000E+00  0.00000000000E+00  0.45593999997E+02  0.45594000000E+02  0.51100000000E-03 0. -1.
         11   -1    0    0    0    0 -0.00000000000E+00 -0.00000000000E+00 -0.45593999997E+02  0.45594000000E+02  0.51100000000E-03 0.  1.
    9900012    2    1    2    0    0  0.13903904177E+02 -0.41617862597E+02  0.10185698836E+02  0.46142317640E+02  0.99999988946E+01 0.  0.
        -12    1    1    2    0    0 -0.13903904177E+02  0.41617862597E+02 -0.10185698836E+02  0.45045682360E+02  0.00000000000E+00 0.  1.
         11    1    3    3    0    0  0.56543533219E+01 -0.17913069186E+02  0.26586467766E+01  0.18971509220E+02  0.51100000000E-03 0. -1.
        -11    1    3    3    0    0  0.15830877817E+01 -0.13137389783E+02  0.61784121021E+01  0.14603765049E+02  0.51100000000E-03 0.  1.
        -12    1    3    3    0    0  0.66664630738E+01 -0.10567403628E+02  0.13486399570E+01  0.12567043371E+02  0.00000000000E+00 0.  1.
</event>
<event>
 7    1  0.1541705E-008  0.4614232E+02  0.7816164E-02  0.1320468E+00
        -11   -1    0    0    0    0  0.00000000000E+00  0.00000000000E+00  0.45593999997E+02  0.45594000000E+02  0.51100000000E-03 0. -1.
         11   -1    0    0    0    0 -0.00000000000E+00 -0.00000000000E+00 -0.45593999997E+02  0.45594000000E+02  0.51100000000E-03 0.  1.
    9900012    2    1    2    0    0 -0.19287518832E+02 -0.35065698410E+02 -0.20676117505E+02  0.46142318489E+02  0.10000006639E+02 0.  0.
        -12    1    1    2    0    0  0.19287518832E+02  0.35065698410E+02  0.20676117505E+02  0.45045681511E+02  0.00000000000E+00 0.  1.
         11    1    3    3    0    0 -0.91489384438E+01 -0.18913381416E+02 -0.14908890875E+02  0.25762261131E+02  0.51100000000E-03 0. -1.
        -11    1    3    3    0    0 -0.95538423510E+00 -0.34169942350E+01  0.27026184861E+00  0.35583212849E+01  0.51100000000E-03 0.  1.
         12    1    3    3    0    0 -0.91831961531E+01 -0.12735322759E+02 -0.60374884791E+01  0.16821736073E+02  0.00000000000E+00 0. -1.
</event>
<event>
 7    1  0.1541705E-008  0.4614232E+02  0.7816164E-02  0.1320468E+00
        -11   -1    0    0    0    0  0.00000000000E+00  0.00000000000E+00  0.45593999997E+02  0.45594000000E+02  0.51100000000E-03 0.  1.
         11   -1    0    0    0    0 -0.00000000000E+00 -0.00000000000E+00 -0.45593999997E+02  0.45594000000E+02  0.51100000000E-03 0. -1.
    9900012    2    1    2    0    0  0.27899940255E+01 -0.13648381890E+02 -0.42837495609E+02  0.46142318465E+02  0.10000006417E+02 0.  0.
        -12    1    1    2    0    0 -0.27899940255E+01  0.13648381890E+02  0.42837495609E+02  0.45045681535E+02  0.00000000000E+00 0.  1.
         11    1    3    3    0    0  0.47074634072E+01 -0.30237979604E+01 -0.19284642593E+02  0.20079865688E+02  0.51100000000E-03 0. -1.
        -11    1    3    3    0    0 -0.75124680012E+00 -0.23167970995E+01 -0.30054418669E+01  0.38684107371E+01  0.51100000000E-03 0.  1.
         12    1    3    3    0    0 -0.11662225815E+01 -0.83077868301E+01 -0.20547411149E+02  0.22194042040E+02  0.00000000000E+00 0. -1.
</event>
<event>
 7    1  0.1541705E-008  0.4614232E+02  0.7816164E-02  0.1320468E+00
        -11   -1    0    0    0    0  0.00000000000E+00  0.00000000000E+00  0.45593999997E+02  0.45594000000E+02  0.51100000000E-03 0. -1.
         11   -1    0    0    0    0 -0.00000000000E+00 -0.00000000000E+00 -0.45593999997E+02  0.45594000000E+02  0.51100000000E-03 0.  1.
    9900012    2    1    2    0    0  0.21900670075E+02 -0.15603552173E+02  0.36138667743E+02  0.46142317672E+02  0.99999991842E+01 0.  0.
        -12    1    1    2    0    0 -0.21900670075E+02  0.15603552173E+02 -0.36138667743E+02  0.45045682328E+02  0.00000000000E+00 0.  1.
         11    1    3    3    0    0  0.67550711975E+01 -0.34120435480E+01  0.13658080208E+02  0.15614614414E+02  0.51100000000E-03 0. -1.
        -11    1    3    3    0    0  0.11776311390E+02 -0.11389261978E+02  0.21293319838E+02  0.26866378028E+02  0.51100000000E-03 0.  1.
        -12    1    3    3    0    0  0.33692874873E+01 -0.80224664698E+00  0.11872676978E+01  0.36613252302E+01  0.00000000000E+00 0.  1.
</event>
<event>
 7    1  0.1541705E-008  0.4614232E+02  0.7816164E-02  0.1320468E+00
        -11   -1    0    0    0    0  0.00000000000E+00  0.00000000000E+00  0.45593999997E+02  0.45594000000E+02  0.51100000000E-03 0. -1.
         11   -1    0    0    0    0 -0.00000000000E+00 -0.00000000000E+00 -0.45593999997E+02  0.45594000000E+02  0.51100000000E-03 0.  1.
    9900012    2    1    2    0    0  0.79015694842E+01  0.44322781340E+02  0.14730089915E+01  0.46142317615E+02  0.99999986670E+01 0.  0.
        -12    1    1    2    0    0 -0.79015694842E+01 -0.44322781340E+02 -0.14730089915E+01  0.45045682385E+02  0.00000000000E+00 0.  1.
         11    1    3    3    0    0  0.60853102513E+01  0.24212753570E+02  0.17132463115E+01  0.25024461023E+02  0.51100000000E-03 0. -1.
        -11    1    3    3    0    0 -0.21146960549E+01  0.39652182339E+01 -0.25966711135E+00  0.45013689381E+01  0.51100000000E-03 0.  1.
        -12    1    3    3    0    0  0.39309552878E+01  0.16144809536E+02  0.19429791441E-01  0.16616487654E+02  0.00000000000E+00 0.  1.
</event>
<event>
 7    1  0.1541705E-008  0.4614232E+02  0.7816164E-02  0.1320468E+00
        -11   -1    0    0    0    0  0.00000000000E+00  0.00000000000E+00  0.45593999997E+02  0.45594000000E+02  0.51100000000E-03 0. -1.
         11   -1    0    0    0    0 -0.00000000000E+00 -0.00000000000E+00 -0.45593999997E+02  0.45594000000E+02  0.51100000000E-03 0.  1.
    9900012    2    1    2    0    0  0.11940308645E+02 -0.33695592552E+02  0.27407112105E+02  0.46142315169E+02  0.99999763589E+01 0.  0.
        -12    1    1    2    0    0 -0.11940308645E+02  0.33695592552E+02 -0.27407112105E+02  0.45045684831E+02  0.00000000000E+00 0.  1.
         11    1    3    3    0    0  0.11206326820E+02 -0.27904090269E+02  0.22939344099E+02  0.37821072466E+02  0.51100000000E-03 0. -1.
        -11    1    3    3    0    0 -0.41588063538E+00 -0.13977529909E+01 -0.54515749656E+00  0.15568773502E+01  0.51100000000E-03 0.  1.
         12    1    3    3    0    0  0.11498624603E+01 -0.43937492926E+01  0.50129255025E+01  0.67643653521E+01  0.00000000000E+00 0. -1.
</event>
<event>
 7    1  0.1541705E-008  0.4614232E+02  0.7816164E-02  0.1320468E+00
        -11   -1    0    0    0    0  0.00000000000E+00  0.00000000000E+00  0.45593999997E+02  0.45594000000E+02  0.51100000000E-03 0. -1.
         11   -1    0    0    0    0 -0.00000000000E+00 -0.00000000000E+00 -0.45593999997E+02  0.45594000000E+02  0.51100000000E-03 0.  1.
    9900012    2    1    2    0    0 -0.65206325855E+01 -0.42699190591E+02  0.12781784351E+02  0.46142317214E+02  0.99999950103E+01 0.  0.
        -12    1    1    2    0    0  0.65206325855E+01  0.42699190591E+02 -0.12781784351E+02  0.45045682786E+02  0.00000000000E+00 0.  1.
         11    1    3    3    0    0  0.15061212789E+01 -0.15505554844E+02  0.26001836071E+01  0.15794036450E+02  0.51100000000E-03 0. -1.
        -11    1    3    3    0    0 -0.77298225519E+01 -0.20864673746E+02  0.81058904861E+01  0.23681009861E+02  0.51100000000E-03 0.  1.
        -12    1    3    3    0    0 -0.29693131252E+00 -0.63289620015E+01  0.20757102577E+01  0.66672709030E+01  0.00000000000E+00 0.  1.
</event>
<event>
 7    1  0.1541705E-008  0.4614232E+02  0.7816164E-02  0.1320468E+00
        -11   -1    0    0    0    0  0.00000000000E+00  0.00000000000E+00  0.45593999997E+02  0.45594000000E+02  0.51100000000E-03 0. -1.
         11   -1    0    0    0    0 -0.00000000000E+00 -0.00000000000E+00 -0.45593999997E+02  0.45594000000E+02  0.51100000000E-03 0.  1.
    9900012    2    1    2    0    0 -0.35416752286E+02  0.27351881046E+02  0.51615603279E+01  0.46142318251E+02  0.10000004465E+02 0.  0.
        -12    1    1    2    0    0  0.35416752286E+02 -0.27351881046E+02 -0.51615603279E+01  0.45045681749E+02  0.00000000000E+00 0.  1.
         11    1    3    3    0    0 -0.21533727029E+02  0.17701732454E+02  0.48635595286E+00  0.27879908070E+02  0.51100000000E-03 0. -1.
        -11    1    3    3    0    0 -0.76755970435E+01  0.53530919915E+01  0.51800046012E+01  0.10695925943E+02  0.51100000000E-03 0.  1.
        -12    1    3    3    0    0 -0.62074282135E+01  0.42970566003E+01 -0.50480022613E+00  0.75664842378E+01  0.00000000000E+00 0.  1.
</event>
<event>
 7    1  0.1541705E-008  0.4614232E+02  0.7816164E-02  0.1320468E+00
        -11   -1    0    0    0    0  0.00000000000E+00  0.00000000000E+00  0.45593999997E+02  0.45594000000E+02  0.51100000000E-03 0.  1.
         11   -1    0    0    0    0 -0.00000000000E+00 -0.00000000000E+00 -0.45593999997E+02  0.45594000000E+02  0.51100000000E-03 0. -1.
    9900012    2    1    2    0    0 -0.29494490706E+02 -0.22508711071E+01 -0.33972372123E+02  0.46142317961E+02  0.10000001821E+02 0.  0.
        -12    1    1    2    0    0  0.29494490706E+02  0.22508711071E+01  0.33972372123E+02  0.45045682039E+02  0.00000000000E+00 0.  1.
         11    1    3    3    0    0 -0.11128517108E+02  0.21662113869E+00 -0.18796670728E+02  0.21845037159E+02  0.51100000000E-03 0. -1.
        -11    1    3    3    0    0 -0.27929008248E+01 -0.14193638645E+01 -0.12276017394E+01  0.33648023848E+01  0.51100000000E-03 0.  1.
         12    1    3    3    0    0 -0.15573072773E+02 -0.10481283813E+01 -0.13948099655E+02  0.20932478417E+02  0.00000000000E+00 0. -1.
</event>
<event>
 7    1  0.1541705E-008  0.4614232E+02  0.7816164E-02  0.1320468E+00
        -11   -1    0    0    0    0  0.00000000000E+00  0.00000000000E+00  0.45593999997E+02  0.45594000000E+02  0.51100000000E-03 0. -1.
         11   -1    0    0    0    0 -0.00000000000E+00 -0.00000000000E+00 -0.45593999997E+02  0.45594000000E+02  0.51100000000E-03 0.  1.
    9900012    2    1    2    0    0 -0.35453686975E+02 -0.19106344498E+02  0.20176649871E+02  0.46142317408E+02  0.99999967756E+01 0.  0.
        -12    1    1    2    0    0  0.35453686975E+02  0.19106344498E+02 -0.20176649871E+02  0.45045682592E+02  0.00000000000E+00 0.  1.
         11    1    3    3    0    0 -0.20150735559E+02 -0.12925777158E+02  0.11568476971E+02  0.26588672747E+02  0.51100000000E-03 0. -1.
        -11    1    3    3    0    0 -0.63578304937E+01 -0.47941774733E+01  0.64515840340E+01  0.10248369775E+02  0.51100000000E-03 0.  1.
         12    1    3    3    0    0 -0.89451209218E+01 -0.13863898663E+01  0.21565888661E+01  0.93052748861E+01  0.00000000000E+00 0. -1.
</event>
<event>
 7    1  0.1541705E-008  0.4614232E+02  0.7816164E-02  0.1320468E+00
        -11   -1    0    0    0    0  0.00000000000E+00  0.00000000000E+00  0.45593999997E+02  0.45594000000E+02  0.51100000000E-03 0.  1.
         11   -1    0    0    0    0 -0.00000000000E+00 -0.00000000000E+00 -0.45593999997E+02  0.45594000000E+02  0.51100000000E-03 0. -1.
    9900012    2    1    2    0    0 -0.12973550669E+02 -0.40556057820E+02 -0.14697146027E+02  0.46142323801E+02  0.10000055077E+02 0.  0.
        -12    1    1    2    0    0  0.12973550669E+02  0.40556057820E+02  0.14697146027E+02  0.45045676199E+02  0.00000000000E+00 0.  1.
         11    1    3    3    0    0 -0.32791179891E+01 -0.16673559274E+02 -0.60310687501E+01  0.18031472047E+02  0.51100000000E-03 0. -1.
        -11    1    3    3    0    0 -0.40669537756E+01 -0.33954893285E+01 -0.39835649456E+00  0.53130169349E+01  0.51100000000E-03 0.  1.
        -12    1    3    3    0    0 -0.56274789041E+01 -0.20487009218E+02 -0.82677207823E+01  0.22797834819E+02  0.00000000000E+00 0.  1.
</event>
<event>
 7    1  0.1541705E-008  0.4614232E+02  0.7816164E-02  0.1320468E+00
        -11   -1    0    0    0    0  0.00000000000E+00  0.00000000000E+00  0.45593999997E+02  0.45594000000E+02  0.51100000000E-03 0. -1.
         11   -1    0    0    0    0 -0.00000000000E+00 -0.00000000000E+00 -0.45593999997E+02  0.45594000000E+02  0.51100000000E-03 0.  1.
    9900012    2    1    2    0    0  0.31779860887E+02 -0.30190902337E+02 -0.10376095580E+02  0.46142317617E+02  0.99999986815E+01 0.  0.
        -12    1    1    2    0    0 -0.31779860887E+02  0.30190902337E+02  0.10376095580E+02  0.45045682383E+02  0.00000000000E+00 0.  1.
         11    1    3    3    0    0  0.16053409901E+02 -0.18231250442E+02 -0.37605097858E+01  0.24581128865E+02  0.51100000000E-03 0. -1.
        -11    1    3    3    0    0  0.11361467182E+02 -0.60412877044E+01 -0.59511475648E+01  0.14177314670E+02  0.51100000000E-03 0.  1.
        -12    1    3    3    0    0  0.43649838034E+01 -0.59183641905E+01 -0.66443822925E+00  0.73838740818E+01  0.00000000000E+00 0.  1.
</event>
<event>
 7    1  0.1541705E-008  0.4614232E+02  0.7816164E-02  0.1320468E+00
        -11   -1    0    0    0    0  0.00000000000E+00  0.00000000000E+00  0.45593999997E+02  0.45594000000E+02  0.51100000000E-03 0. -1.
         11   -1    0    0    0    0 -0.00000000000E+00 -0.00000000000E+00 -0.45593999997E+02  0.45594000000E+02  0.51100000000E-03 0.  1.
    9900012    2    1    2    0    0 -0.13764949757E+02  0.16678803977E+02  0.39515276460E+02  0.46142318547E+02  0.10000007164E+02 0.  0.
        -12    1    1    2    0    0  0.13764949757E+02 -0.16678803977E+02 -0.39515276460E+02  0.45045681453E+02  0.00000000000E+00 0.  1.
         11    1    3    3    0    0 -0.59415065788E+01  0.72094953546E+01  0.18518986481E+02  0.20742014952E+02  0.51100000000E-03 0. -1.
        -11    1    3    3    0    0 -0.77765089424E+01  0.38543485261E+01  0.12750370492E+02  0.15424073451E+02  0.51100000000E-03 0.  1.
        -12    1    3    3    0    0 -0.46934235346E-01  0.56149600963E+01  0.82459194865E+01  0.99762301439E+01  0.00000000000E+00 0.  1.
</event>
<event>
 7    1  0.1541705E-008  0.4614232E+02  0.7816164E-02  0.1320468E+00
        -11   -1    0    0    0    0  0.00000000000E+00  0.00000000000E+00  0.45593999997E+02  0.45594000000E+02  0.51100000000E-03 0.  1.
         11   -1    0    0    0    0 -0.00000000000E+00 -0.00000000000E+00 -0.45593999997E+02  0.45594000000E+02  0.51100000000E-03 0. -1.
    9900012    2    1    2    0    0 -0.27442633957E+02  0.35368219884E+02 -0.50104302854E+01  0.46142317100E+02  0.99999939735E+01 0.  0.
        -12    1    1    2    0    0  0.27442633957E+02 -0.35368219884E+02  0.50104302854E+01  0.45045682900E+02  0.00000000000E+00 0.  1.
         11    1    3    3    0    0 -0.10168623576E+02  0.19925828405E+02 -0.52066683250E+01  0.22968433520E+02  0.51100000000E-03 0. -1.
        -11    1    3    3    0    0 -0.88157992011E+01  0.79886575905E+01  0.26326937444E+00  0.11899843557E+02  0.51100000000E-03 0.  1.
         12    1    3    3    0    0 -0.84582111805E+01  0.74537338883E+01 -0.67031334866E-01  0.11274040023E+02  0.00000000000E+00 0. -1.
</event>
<event>
 7    1  0.1541705E-008  0.4614232E+02  0.7816164E-02  0.1320468E+00
        -11   -1    0    0    0    0  0.00000000000E+00  0.00000000000E+00  0.45593999997E+02  0.45594000000E+02  0.51100000000E-03 0. -1.
         11   -1    0    0    0    0 -0.00000000000E+00 -0.00000000000E+00 -0.45593999997E+02  0.45594000000E+02  0.51100000000E-03 0.  1.
    9900012    2    1    2    0    0 -0.37911031258E+02  0.59117449424E+01  0.23599120089E+02  0.46142317762E+02  0.10000000010E+02 0.  0.
        -12    1    1    2    0    0  0.37911031258E+02 -0.59117449424E+01 -0.23599120089E+02  0.45045682238E+02  0.00000000000E+00 0.  1.
         11    1    3    3    0    0 -0.21328899664E+02  0.38282601872E+01  0.10539155063E+02  0.24096707797E+02  0.51100000000E-03 0. -1.
        -11    1    3    3    0    0 -0.52320068292E+01 -0.14081595151E+01  0.18778867831E+01  0.57343934040E+01  0.51100000000E-03 0.  1.
        -12    1    3    3    0    0 -0.11350124764E+02  0.34916442702E+01  0.11182078243E+02  0.16311216561E+02  0.00000000000E+00 0.  1.
</event>
<event>
 7    1  0.1541705E-008  0.4614232E+02  0.7816164E-02  0.1320468E+00
        -11   -1    0    0    0    0  0.00000000000E+00  0.00000000000E+00  0.45593999997E+02  0.45594000000E+02  0.51100000000E-03 0. -1.
         11   -1    0    0    0    0 -0.00000000000E+00 -0.00000000000E+00 -0.45593999997E+02  0.45594000000E+02  0.51100000000E-03 0.  1.
    9900012    2    1    2    0    0  0.12035946836E+02  0.40695091124E+02 -0.15104934969E+02  0.46142317429E+02  0.99999969727E+01 0.  0.
        -12    1    1    2    0    0 -0.12035946836E+02 -0.40695091124E+02  0.15104934969E+02  0.45045682571E+02  0.00000000000E+00 0.  1.
         11    1    3    3    0    0  0.24849121948E+01  0.96848053245E+01 -0.59927532014E+01  0.11656900702E+02  0.51100000000E-03 0. -1.
        -11    1    3    3    0    0  0.83807902134E+00 -0.12609218916E+00 -0.63812392630E+00  0.10608855229E+01  0.51100000000E-03 0.  1.
         12    1    3    3    0    0  0.87129556195E+01  0.31136377989E+02 -0.84740578415E+01  0.33424531204E+02  0.00000000000E+00 0. -1.
</event>
<event>
 7    1  0.1541705E-008  0.4614232E+02  0.7816164E-02  0.1320468E+00
        -11   -1    0    0    0    0  0.00000000000E+00  0.00000000000E+00  0.45593999997E+02  0.45594000000E+02  0.51100000000E-03 0. -1.
         11   -1    0    0    0    0 -0.00000000000E+00 -0.00000000000E+00 -0.45593999997E+02  0.45594000000E+02  0.51100000000E-03 0.  1.
    9900012    2    1    2    0    0  0.36700012125E+02 -0.26044232252E+02 -0.19800581831E+01  0.46142317033E+02  0.99999933622E+01 0.  0.
        -12    1    1    2    0    0 -0.36700012125E+02  0.26044232252E+02  0.19800581831E+01  0.45045682967E+02  0.00000000000E+00 0.  1.
         11    1    3    3    0    0  0.13475432037E+02 -0.13515100751E+02  0.91345617848E+00  0.19107056794E+02  0.51100000000E-03 0. -1.
        -11    1    3    3    0    0  0.12002420678E+02 -0.53606244673E+01 -0.38137362531E+01  0.13687183103E+02  0.51100000000E-03 0.  1.
        -12    1    3    3    0    0  0.11222159410E+02 -0.71685070335E+01  0.92022189149E+00  0.13348077136E+02  0.00000000000E+00 0.  1.
</event>
<event>
 7    1  0.1541705E-008  0.4614232E+02  0.7816164E-02  0.1320468E+00
        -11   -1    0    0    0    0  0.00000000000E+00  0.00000000000E+00  0.45593999997E+02  0.45594000000E+02  0.51100000000E-03 0.  1.
         11   -1    0    0    0    0 -0.00000000000E+00 -0.00000000000E+00 -0.45593999997E+02  0.45594000000E+02  0.51100000000E-03 0. -1.
    9900012    2    1    2    0    0 -0.14348156819E+01  0.16302860405E+02 -0.41967505055E+02  0.46142318365E+02  0.10000005506E+02 0.  0.
        -12    1    1    2    0    0  0.14348156819E+01 -0.16302860405E+02  0.41967505055E+02  0.45045681635E+02  0.00000000000E+00 0.  1.
         11    1    3    3    0    0 -0.85502527549E+00  0.11755978531E+01 -0.75333490050E+01  0.76723168617E+01  0.51100000000E-03 0. -1.
        -11    1    3    3    0    0 -0.28035939130E+00  0.41840870533E+01 -0.29236861942E+01  0.51120570303E+01  0.51100000000E-03 0.  1.
        -12    1    3    3    0    0 -0.29943101507E+00  0.10943175499E+02 -0.31510469856E+02  0.33357944473E+02  0.00000000000E+00 0.  1.
</event>
<event>
 7    1  0.1541705E-008  0.4614232E+02  0.7816164E-02  0.1320468E+00
        -11   -1    0    0    0    0  0.00000000000E+00  0.00000000000E+00  0.45593999997E+02  0.45594000000E+02  0.51100000000E-03 0.  1.
         11   -1    0    0    0    0 -0.00000000000E+00 -0.00000000000E+00 -0.45593999997E+02  0.45594000000E+02  0.51100000000E-03 0. -1.
    9900012    2    1    2    0    0 -0.43367735833E+02 -0.98299784344E+01 -0.71919731641E+01  0.46142318017E+02  0.10000002335E+02 0.  0.
        -12    1    1    2    0    0  0.43367735833E+02  0.98299784344E+01  0.71919731641E+01  0.45045681983E+02  0.00000000000E+00 0.  1.
         11    1    3    3    0    0 -0.59425955469E+01 -0.25309571595E+01 -0.56328443506E-01  0.64593621304E+01  0.51100000000E-03 0. -1.
        -11    1    3    3    0    0 -0.34682026873E+02 -0.59075807065E+01 -0.86867740356E+01  0.36238136558E+02  0.51100000000E-03 0.  1.
        -12    1    3    3    0    0 -0.27431134134E+01 -0.13914405685E+01  0.15511293151E+01  0.34448193286E+01  0.00000000000E+00 0.  1.
</event>
<event>
 7    1  0.1541705E-008  0.4614232E+02  0.7816164E-02  0.1320468E+00
        -11   -1    0    0    0    0  0.00000000000E+00  0.00000000000E+00  0.45593999997E+02  0.45594000000E+02  0.51100000000E-03 0.  1.
         11   -1    0    0    0    0 -0.00000000000E+00 -0.00000000000E+00 -0.45593999997E+02  0.45594000000E+02  0.51100000000E-03 0. -1.
    9900012    2    1    2    0    0  0.32971350353E+02 -0.11075050613E+02 -0.28624234681E+02  0.46142317618E+02  0.99999986927E+01 0.  0.
        -12    1    1    2    0    0 -0.32971350353E+02  0.11075050613E+02  0.28624234681E+02  0.45045682382E+02  0.00000000000E+00 0.  1.
         11    1    3    3    0    0  0.14977476827E+02 -0.26785770523E+01 -0.81584967002E+01  0.17264433260E+02  0.51100000000E-03 0. -1.
        -11    1    3    3    0    0  0.15395089687E+02 -0.87485278889E+01 -0.17156082848E+02  0.24655155762E+02  0.51100000000E-03 0.  1.
         12    1    3    3    0    0  0.25987838396E+01  0.35205432809E+00 -0.33096551334E+01  0.42227285962E+01  0.00000000000E+00 0. -1.
</event>
<event>
 7    1  0.1541705E-008  0.4614232E+02  0.7816164E-02  0.1320468E+00
        -11   -1    0    0    0    0  0.00000000000E+00  0.00000000000E+00  0.45593999997E+02  0.45594000000E+02  0.51100000000E-03 0. -1.
         11   -1    0    0    0    0 -0.00000000000E+00 -0.00000000000E+00 -0.45593999997E+02  0.45594000000E+02  0.51100000000E-03 0.  1.
    9900012    2    1    2    0    0  0.95812786427E+01  0.20540163446E+01  0.43966960246E+02  0.46142317889E+02  0.10000001162E+02 0.  0.
        -12    1    1    2    0    0 -0.95812786427E+01 -0.20540163446E+01 -0.43966960246E+02  0.45045682111E+02  0.00000000000E+00 0.  1.
         11    1    3    3    0    0  0.59315210133E+01 -0.12423499632E+01  0.30915369810E+02  0.31503753200E+02  0.51100000000E-03 0. -1.
        -11    1    3    3    0    0  0.66102822933E+00 -0.11071437664E+01  0.21441000499E+01  0.25019774029E+01  0.51100000000E-03 0.  1.
         12    1    3    3    0    0  0.29887294001E+01  0.44035100743E+01  0.10907490387E+02  0.12136587285E+02  0.00000000000E+00 0. -1.
</event>
<event>
 7    1  0.1541705E-008  0.4614232E+02  0.7816164E-02  0.1320468E+00
        -11   -1    0    0    0    0  0.00000000000E+00  0.00000000000E+00  0.45593999997E+02  0.45594000000E+02  0.51100000000E-03 0.  1.
         11   -1    0    0    0    0 -0.00000000000E+00 -0.00000000000E+00 -0.45593999997E+02  0.45594000000E+02  0.51100000000E-03 0. -1.
    9900012    2    1    2    0    0 -0.13450738645E+02 -0.23861214596E+02 -0.35760783388E+02  0.46142316959E+02  0.99999926840E+01 0.  0.
        -12    1    1    2    0    0  0.13450738645E+02  0.23861214596E+02  0.35760783388E+02  0.45045683041E+02  0.00000000000E+00 0.  1.
         11    1    3    3    0    0 -0.47064064298E+01 -0.61492045134E+01 -0.14698195395E+02  0.16613245492E+02  0.51100000000E-03 0. -1.
        -11    1    3    3    0    0  0.72368955230E+00 -0.11744550466E+01 -0.28646697851E+01  0.31795289688E+01  0.51100000000E-03 0.  1.
         12    1    3    3    0    0 -0.94680217673E+01 -0.16537555036E+02 -0.18197918208E+02  0.26349542498E+02  0.00000000000E+00 0. -1.
</event>
<event>
 7    1  0.1541705E-008  0.4614232E+02  0.7816164E-02  0.1320468E+00
        -11   -1    0    0    0    0  0.00000000000E+00  0.00000000000E+00  0.45593999997E+02  0.45594000000E+02  0.51100000000E-03 0.  1.
         11   -1    0    0    0    0 -0.00000000000E+00 -0.00000000000E+00 -0.45593999997E+02  0.45594000000E+02  0.51100000000E-03 0. -1.
    9900012    2    1    2    0    0  0.41703193224E+02  0.25268758213E+01 -0.16839597672E+02  0.46142317896E+02  0.10000001227E+02 0.  0.
        -12    1    1    2    0    0 -0.41703193224E+02 -0.25268758213E+01  0.16839597672E+02  0.45045682104E+02  0.00000000000E+00 0.  1.
         11    1    3    3    0    0  0.10383734699E+02  0.73382890943E+00 -0.55945878917E+01  0.11817777503E+02  0.51100000000E-03 0. -1.
        -11    1    3    3    0    0  0.18068643602E+02 -0.29673768704E+01 -0.71960374984E+01  0.19673946300E+02  0.51100000000E-03 0.  1.
        -12    1    3    3    0    0  0.13250814923E+02  0.47604237822E+01 -0.40489722823E+01  0.14650594093E+02  0.00000000000E+00 0.  1.
</event>
<event>
 7    1  0.1541705E-008  0.4614232E+02  0.7816164E-02  0.1320468E+00
        -11   -1    0    0    0    0  0.00000000000E+00  0.00000000000E+00  0.45593999997E+02  0.45594000000E+02  0.51100000000E-03 0.  1.
         11   -1    0    0    0    0 -0.00000000000E+00 -0.00000000000E+00 -0.45593999997E+02  0.45594000000E+02  0.51100000000E-03 0. -1.
    9900012    2    1    2    0    0 -0.76393204030E+01 -0.40884020156E+01 -0.44204511869E+02  0.46142321885E+02  0.10000037608E+02 0.  0.
        -12    1    1    2    0    0  0.76393204030E+01  0.40884020156E+01  0.44204511869E+02  0.45045678115E+02  0.00000000000E+00 0.  1.
         11    1    3    3    0    0 -0.82647569069E+01 -0.36490328973E+01 -0.28448288769E+02  0.29848396640E+02  0.51100000000E-03 0. -1.
        -11    1    3    3    0    0 -0.29830876426E+00  0.23117659583E+00 -0.14800151687E+02  0.14804962714E+02  0.51100000000E-03 0.  1.
        -12    1    3    3    0    0  0.92374526814E+00 -0.67054571421E+00 -0.95607141250E+00  0.14889625318E+01  0.00000000000E+00 0.  1.
</event>
<event>
 7    1  0.1541705E-008  0.4614233E+02  0.7816164E-02  0.1320468E+00
        -11   -1    0    0    0    0  0.00000000000E+00  0.00000000000E+00  0.45593999997E+02  0.45594000000E+02  0.51100000000E-03 0. -1.
         11   -1    0    0    0    0 -0.00000000000E+00 -0.00000000000E+00 -0.45593999997E+02  0.45594000000E+02  0.51100000000E-03 0.  1.
    9900012    2    1    2    0    0  0.70671592625E+01  0.41030464520E+02  0.17195024614E+02  0.46142327286E+02  0.10000086851E+02 0.  0.
        -12    1    1    2    0    0 -0.70671592625E+01 -0.41030464520E+02 -0.17195024614E+02  0.45045672714E+02  0.00000000000E+00 0.  1.
         11    1    3    3    0    0  0.58901421524E+01  0.26633808747E+02  0.93647407308E+01  0.28840109434E+02  0.51100000000E-03 0. -1.
        -11    1    3    3    0    0  0.23135652225E+01  0.22644294701E+01  0.18471154406E+01  0.37272054647E+01  0.51100000000E-03 0.  1.
        -12    1    3    3    0    0 -0.11365481123E+01  0.12132226304E+02  0.59831684430E+01  0.13575012387E+02  0.00000000000E+00 0.  1.
</event>
<event>
 7    1  0.1541705E-008  0.4614232E+02  0.7816164E-02  0.1320468E+00
        -11   -1    0    0    0    0  0.00000000000E+00  0.00000000000E+00  0.45593999997E+02  0.45594000000E+02  0.51100000000E-03 0. -1.
         11   -1    0    0    0    0 -0.00000000000E+00 -0.00000000000E+00 -0.45593999997E+02  0.45594000000E+02  0.51100000000E-03 0.  1.
    9900012    2    1    2    0    0  0.16246630915E+02  0.46564222949E+00  0.42011232637E+02  0.46142317560E+02  0.99999981692E+01 0.  0.
        -12    1    1    2    0    0 -0.16246630915E+02 -0.46564222949E+00 -0.42011232637E+02  0.45045682440E+02  0.00000000000E+00 0.  1.
         11    1    3    3    0    0  0.10843886717E+02 -0.63834205776E+00  0.21563992725E+02  0.24145458004E+02  0.51100000000E-03 0. -1.
        -11    1    3    3    0    0 -0.77374454867E+00  0.13631041735E+01  0.73324757990E+01  0.74981287811E+01  0.51100000000E-03 0.  1.
        -12    1    3    3    0    0  0.61764887470E+01 -0.25911988630E+00  0.13114764113E+02  0.14498730775E+02  0.00000000000E+00 0.  1.
</event>
<event>
 7    1  0.1541705E-008  0.4614232E+02  0.7816164E-02  0.1320468E+00
        -11   -1    0    0    0    0  0.00000000000E+00  0.00000000000E+00  0.45593999997E+02  0.45594000000E+02  0.51100000000E-03 0. -1.
         11   -1    0    0    0    0 -0.00000000000E+00 -0.00000000000E+00 -0.45593999997E+02  0.45594000000E+02  0.51100000000E-03 0.  1.
    9900012    2    1    2    0    0 -0.39450910685E+02  0.19288140558E+02  0.10035270758E+02  0.46142318972E+02  0.10000011039E+02 0.  0.
        -12    1    1    2    0    0  0.39450910685E+02 -0.19288140558E+02 -0.10035270758E+02  0.45045681028E+02  0.00000000000E+00 0.  1.
         11    1    3    3    0    0 -0.66645618356E+01  0.13906135848E+01  0.33540259517E+01  0.75894453650E+01  0.51100000000E-03 0. -1.
        -11    1    3    3    0    0 -0.10964289112E+02  0.97430271444E+01  0.22502030815E+01  0.14839327068E+02  0.51100000000E-03 0.  1.
        -12    1    3    3    0    0 -0.21822059737E+02  0.81544998293E+01  0.44310417250E+01  0.23713546538E+02  0.00000000000E+00 0.  1.
</event>
<event>
 7    1  0.1541705E-008  0.4614232E+02  0.7816164E-02  0.1320468E+00
        -11   -1    0    0    0    0  0.00000000000E+00  0.00000000000E+00  0.45593999997E+02  0.45594000000E+02  0.51100000000E-03 0.  1.
         11   -1    0    0    0    0 -0.00000000000E+00 -0.00000000000E+00 -0.45593999997E+02  0.45594000000E+02  0.51100000000E-03 0. -1.
    9900012    2    1    2    0    0 -0.12152693819E+01  0.93796753564E+01 -0.44041551130E+02  0.46142318571E+02  0.10000007382E+02 0.  0.
        -12    1    1    2    0    0  0.12152693819E+01 -0.93796753564E+01  0.44041551130E+02  0.45045681429E+02  0.00000000000E+00 0.  1.
         11    1    3    3    0    0  0.47279967274E+00 -0.10947573535E+01 -0.65432719742E+00  0.13602123128E+01  0.51100000000E-03 0. -1.
        -11    1    3    3    0    0 -0.43808341740E+00  0.11366914126E+01 -0.20475896393E+01  0.23825633340E+01  0.51100000000E-03 0.  1.
         12    1    3    3    0    0 -0.12499856372E+01  0.93377412973E+01 -0.41339634294E+02  0.42399542924E+02  0.00000000000E+00 0. -1.
</event>
<event>
 7    1  0.1541705E-008  0.4614232E+02  0.7816164E-02  0.1320468E+00
        -11   -1    0    0    0    0  0.00000000000E+00  0.00000000000E+00  0.45593999997E+02  0.45594000000E+02  0.51100000000E-03 0. -1.
         11   -1    0    0    0    0 -0.00000000000E+00 -0.00000000000E+00 -0.45593999997E+02  0.45594000000E+02  0.51100000000E-03 0.  1.
    9900012    2    1    2    0    0  0.31770323613E+02 -0.29861217183E+02  0.11316702618E+02  0.46142317496E+02  0.99999975782E+01 0.  0.
        -12    1    1    2    0    0 -0.31770323613E+02  0.29861217183E+02 -0.11316702618E+02  0.45045682504E+02  0.00000000000E+00 0.  1.
         11    1    3    3    0    0  0.20647644292E+02 -0.14766937383E+02  0.99316324684E+01  0.27258484518E+02  0.51100000000E-03 0. -1.
        -11    1    3    3    0    0  0.35227102006E+01 -0.60639295119E+01  0.12589056895E+00  0.70140271584E+01  0.51100000000E-03 0.  1.
         12    1    3    3    0    0  0.75999691212E+01 -0.90303502880E+01  0.12591795807E+01  0.11869805819E+02  0.00000000000E+00 0. -1.
</event>
<event>
 7    1  0.1541705E-008  0.4614232E+02  0.7816164E-02  0.1320468E+00
        -11   -1    0    0    0    0  0.00000000000E+00  0.00000000000E+00  0.45593999997E+02  0.45594000000E+02  0.51100000000E-03 0. -1.
         11   -1    0    0    0    0 -0.00000000000E+00 -0.00000000000E+00 -0.45593999997E+02  0.45594000000E+02  0.51100000000E-03 0.  1.
    9900012    2    1    2    0    0 -0.19872775641E+02 -0.40414763799E+02  0.91282828175E+00  0.46142316521E+02  0.99999886908E+01 0.  0.
        -12    1    1    2    0    0  0.19872775641E+02  0.40414763799E+02 -0.91282828175E+00  0.45045683479E+02  0.00000000000E+00 0.  1.
         11    1    3    3    0    0 -0.11653429390E+02 -0.22122411163E+02  0.11970346819E+00  0.25004356049E+02  0.51100000000E-03 0. -1.
        -11    1    3    3    0    0 -0.33811127655E+00 -0.31990789565E+01 -0.21350670064E+01  0.38609502442E+01  0.51100000000E-03 0.  1.
        -12    1    3    3    0    0 -0.78812349750E+01 -0.15093273679E+02  0.29281918200E+01  0.17277010228E+02  0.00000000000E+00 0.  1.
</event>
<event>
 7    1  0.1541705E-008  0.4614232E+02  0.7816164E-02  0.1320468E+00
        -11   -1    0    0    0    0  0.00000000000E+00  0.00000000000E+00  0.45593999997E+02  0.45594000000E+02  0.51100000000E-03 0.  1.
         11   -1    0    0    0    0 -0.00000000000E+00 -0.00000000000E+00 -0.45593999997E+02  0.45594000000E+02  0.51100000000E-03 0. -1.
    9900012    2    1    2    0    0 -0.26866131003E+02 -0.26321445212E+02 -0.24789233176E+02  0.46142317026E+02  0.99999932989E+01 0.  0.
        -12    1    1    2    0    0  0.26866131003E+02  0.26321445212E+02  0.24789233176E+02  0.45045682974E+02  0.00000000000E+00 0.  1.
         11    1    3    3    0    0 -0.16954732239E+02 -0.16068567340E+02 -0.95134638196E+01  0.25222366974E+02  0.51100000000E-03 0. -1.
        -11    1    3    3    0    0 -0.52605424038E+01 -0.47492016247E+01 -0.74981059851E+01  0.10317452015E+02  0.51100000000E-03 0.  1.
         12    1    3    3    0    0 -0.46508563605E+01 -0.55036762470E+01 -0.77776633716E+01  0.10602498038E+02  0.00000000000E+00 0. -1.
</event>
<event>
 7    1  0.1541705E-008  0.4614232E+02  0.7816164E-02  0.1320468E+00
        -11   -1    0    0    0    0  0.00000000000E+00  0.00000000000E+00  0.45593999997E+02  0.45594000000E+02  0.51100000000E-03 0.  1.
         11   -1    0    0    0    0 -0.00000000000E+00 -0.00000000000E+00 -0.45593999997E+02  0.45594000000E+02  0.51100000000E-03 0. -1.
    9900012    2    1    2    0    0  0.16369948336E+02 -0.39487723764E+02 -0.14207670450E+02  0.46142318340E+02  0.10000005278E+02 0.  0.
        -12    1    1    2    0    0 -0.16369948336E+02  0.39487723764E+02  0.14207670450E+02  0.45045681660E+02  0.00000000000E+00 0.  1.
         11    1    3    3    0    0  0.62318590276E+01 -0.15877511711E+02 -0.83901815996E+01  0.19008592599E+02  0.51100000000E-03 0. -1.
        -11    1    3    3    0    0  0.11072218146E+02 -0.21479210111E+02 -0.50837744912E+01  0.24694032579E+02  0.51100000000E-03 0.  1.
        -12    1    3    3    0    0 -0.93412883737E+00 -0.21310019420E+01 -0.73371435930E+00  0.24396931616E+01  0.00000000000E+00 0.  1.
</event>
<event>
 7    1  0.1541705E-008  0.4614232E+02  0.7816164E-02  0.1320468E+00
        -11   -1    0    0    0    0  0.00000000000E+00  0.00000000000E+00  0.45593999997E+02  0.45594000000E+02  0.51100000000E-03 0.  1.
         11   -1    0    0    0    0 -0.00000000000E+00 -0.00000000000E+00 -0.45593999997E+02  0.45594000000E+02  0.51100000000E-03 0. -1.
    9900012    2    1    2    0    0 -0.15154174219E+02 -0.39298169152E+02 -0.15972420875E+02  0.46142319590E+02  0.10000016677E+02 0.  0.
        -12    1    1    2    0    0  0.15154174219E+02  0.39298169152E+02  0.15972420875E+02  0.45045680410E+02  0.00000000000E+00 0.  1.
         11    1    3    3    0    0 -0.79051537793E+01 -0.16897090229E+02 -0.12061183837E+02  0.22214303282E+02  0.51100000000E-03 0. -1.
        -11    1    3    3    0    0 -0.29560881517E+01 -0.11885821981E+02 -0.19538574245E+01  0.12402773094E+02  0.51100000000E-03 0.  1.
         12    1    3    3    0    0 -0.42929322885E+01 -0.10515256942E+02 -0.19573796131E+01  0.11525243214E+02  0.00000000000E+00 0. -1.
</event>
<event>
 7    1  0.1541705E-008  0.4614232E+02  0.7816164E-02  0.1320468E+00
        -11   -1    0    0    0    0  0.00000000000E+00  0.00000000000E+00  0.45593999997E+02  0.45594000000E+02  0.51100000000E-03 0.  1.
         11   -1    0    0    0    0 -0.00000000000E+00 -0.00000000000E+00 -0.45593999997E+02  0.45594000000E+02  0.51100000000E-03 0. -1.
    9900012    2    1    2    0    0  0.15571135199E+02 -0.74960968572E+01 -0.41598820058E+02  0.46142317080E+02  0.99999937925E+01 0.  0.
        -12    1    1    2    0    0 -0.15571135199E+02  0.74960968572E+01  0.41598820058E+02  0.45045682920E+02  0.00000000000E+00 0.  1.
         11    1    3    3    0    0  0.23620189957E+01 -0.16589785716E+01 -0.19418986998E+02  0.19632330477E+02  0.51100000000E-03 0.  1.
        -11    1    3    3    0    0  0.10291810810E+02 -0.38723058528E+01 -0.17144115868E+02  0.20367543581E+02  0.51100000000E-03 0. -1.
        -12    1    3    3    0    0  0.29173053938E+01 -0.19648124328E+01 -0.50357171914E+01  0.61424430228E+01  0.00000000000E+00 0.  1.
</event>
<event>
 7    1  0.1541705E-008  0.4614232E+02  0.7816164E-02  0.1320468E+00
        -11   -1    0    0    0    0  0.00000000000E+00  0.00000000000E+00  0.45593999997E+02  0.45594000000E+02  0.51100000000E-03 0.  1.
         11   -1    0    0    0    0 -0.00000000000E+00 -0.00000000000E+00 -0.45593999997E+02  0.45594000000E+02  0.51100000000E-03 0. -1.
    9900012    2    1    2    0    0 -0.13666806949E+02 -0.16658473322E+01 -0.42890055008E+02  0.46142317875E+02  0.10000001039E+02 0.  0.
        -12    1    1    2    0    0  0.13666806949E+02  0.16658473322E+01  0.42890055008E+02  0.45045682125E+02  0.00000000000E+00 0.  1.
         11    1    3    3    0    0 -0.29197677201E+01 -0.10805652402E+01 -0.23587538920E+02  0.23792113343E+02  0.51100000000E-03 0. -1.
        -11    1    3    3    0    0 -0.47790204363E+01  0.28119881501E-01 -0.54157916495E+01  0.72229236816E+01  0.51100000000E-03 0.  1.
         12    1    3    3    0    0 -0.59680187930E+01 -0.61340197353E+00 -0.13886724439E+02  0.15127280850E+02  0.00000000000E+00 0. -1.
</event>
<event>
 7    1  0.1541705E-008  0.4614232E+02  0.7816164E-02  0.1320468E+00
        -11   -1    0    0    0    0  0.00000000000E+00  0.00000000000E+00  0.45593999997E+02  0.45594000000E+02  0.51100000000E-03 0.  1.
         11   -1    0    0    0    0 -0.00000000000E+00 -0.00000000000E+00 -0.45593999997E+02  0.45594000000E+02  0.51100000000E-03 0. -1.
    9900012    2    1    2    0    0  0.23452310115E+01  0.91824982294E-02 -0.44984590322E+02  0.46142316975E+02  0.99999928294E+01 0.  0.
        -12    1    1    2    0    0 -0.23452310115E+01 -0.91824982294E-02  0.44984590322E+02  0.45045683025E+02  0.00000000000E+00 0.  1.
         11    1    3    3    0    0  0.24035444391E+01  0.30981309563E+01 -0.23115299028E+02  0.23445521762E+02  0.51100000000E-03 0. -1.
        -11    1    3    3    0    0 -0.23734307138E+01 -0.21410327602E+01 -0.82097620545E+01  0.88100730920E+01  0.51100000000E-03 0.  1.
         12    1    3    3    0    0  0.23151172862E+01 -0.94791569783E+00 -0.13659529239E+02  0.13886722120E+02  0.00000000000E+00 0. -1.
</event>
<event>
 7    1  0.1541705E-008  0.4614232E+02  0.7816164E-02  0.1320468E+00
        -11   -1    0    0    0    0  0.00000000000E+00  0.00000000000E+00  0.45593999997E+02  0.45594000000E+02  0.51100000000E-03 0. -1.
         11   -1    0    0    0    0 -0.00000000000E+00 -0.00000000000E+00 -0.45593999997E+02  0.45594000000E+02  0.51100000000E-03 0.  1.
    9900012    2    1    2    0    0 -0.17272558279E+02 -0.41543107844E+02 -0.22231156883E+01  0.46142319605E+02  0.10000016818E+02 0.  0.
        -12    1    1    2    0    0  0.17272558279E+02  0.41543107844E+02  0.22231156883E+01  0.45045680395E+02  0.00000000000E+00 0.  1.
         11    1    3    3    0    0  0.49403928141E+00 -0.27444862920E+01 -0.11236819957E+01  0.30064832125E+01  0.51100000000E-03 0.  1.
        -11    1    3    3    0    0 -0.80302874760E+01 -0.24813103478E+02 -0.79338882803E+00  0.26092241897E+02  0.51100000000E-03 0. -1.
        -12    1    3    3    0    0 -0.97363100840E+01 -0.13985518075E+02 -0.30604486459E+00  0.17043594496E+02  0.00000000000E+00 0.  1.
</event>
<event>
 7    1  0.1541705E-008  0.4614232E+02  0.7816164E-02  0.1320468E+00
        -11   -1    0    0    0    0  0.00000000000E+00  0.00000000000E+00  0.45593999997E+02  0.45594000000E+02  0.51100000000E-03 0. -1.
         11   -1    0    0    0    0 -0.00000000000E+00 -0.00000000000E+00 -0.45593999997E+02  0.45594000000E+02  0.51100000000E-03 0.  1.
    9900012    2    1    2    0    0 -0.11331908627E+02 -0.40773099242E+02  0.15435534045E+02  0.46142317785E+02  0.10000000218E+02 0.  0.
        -12    1    1    2    0    0  0.11331908627E+02  0.40773099242E+02 -0.15435534045E+02  0.45045682215E+02  0.00000000000E+00 0.  1.
         11    1    3    3    0    0 -0.33603444430E+01 -0.15709016164E+02  0.63470215310E+01  0.17272804815E+02  0.51100000000E-03 0. -1.
        -11    1    3    3    0    0  0.14507820504E+01 -0.35686620917E+01  0.20672991505E+01  0.43719382111E+01  0.51100000000E-03 0.  1.
        -12    1    3    3    0    0 -0.94223462346E+01 -0.21495420987E+02  0.70212133633E+01  0.24497574759E+02  0.00000000000E+00 0.  1.
</event>
<event>
 7    1  0.1541705E-008  0.4614232E+02  0.7816164E-02  0.1320468E+00
        -11   -1    0    0    0    0  0.00000000000E+00  0.00000000000E+00  0.45593999997E+02  0.45594000000E+02  0.51100000000E-03 0.  1.
         11   -1    0    0    0    0 -0.00000000000E+00 -0.00000000000E+00 -0.45593999997E+02  0.45594000000E+02  0.51100000000E-03 0. -1.
    9900012    2    1    2    0    0 -0.26678175572E+02  0.27931347385E+01 -0.36188213487E+02  0.46142318199E+02  0.10000003998E+02 0.  0.
        -12    1    1    2    0    0  0.26678175572E+02 -0.27931347385E+01  0.36188213487E+02  0.45045681801E+02  0.00000000000E+00 0.  1.
         11    1    3    3    0    0 -0.70238750063E+01 -0.16942074466E+01 -0.12005908458E+02  0.14012387275E+02  0.51100000000E-03 0. -1.
        -11    1    3    3    0    0 -0.14243796452E+02  0.61006655545E+01 -0.18236505935E+02  0.23930608153E+02  0.51100000000E-03 0.  1.
        -12    1    3    3    0    0 -0.54105041139E+01 -0.16133233694E+01 -0.59457990934E+01  0.81993227720E+01  0.00000000000E+00 0.  1.
</event>
<event>
 7    1  0.1541705E-008  0.4614232E+02  0.7816164E-02  0.1320468E+00
        -11   -1    0    0    0    0  0.00000000000E+00  0.00000000000E+00  0.45593999997E+02  0.45594000000E+02  0.51100000000E-03 0. -1.
         11   -1    0    0    0    0 -0.00000000000E+00 -0.00000000000E+00 -0.45593999997E+02  0.45594000000E+02  0.51100000000E-03 0.  1.
    9900012    2    1    2    0    0 -0.14516626559E+01 -0.18928540107E+02  0.40849928371E+02  0.46142316489E+02  0.99999884030E+01 0.  0.
        -12    1    1    2    0    0  0.14516626559E+01  0.18928540107E+02 -0.40849928371E+02  0.45045683511E+02  0.00000000000E+00 0.  1.
         11    1    3    3    0    0  0.22251245781E+00 -0.48668069674E+01  0.11837934849E+02  0.12801250861E+02  0.51100000000E-03 0. -1.
        -11    1    3    3    0    0 -0.99720606707E+00 -0.14289219157E+02  0.21743607631E+02  0.26037678029E+02  0.51100000000E-03 0.  1.
        -12    1    3    3    0    0 -0.67696904666E+00  0.22748601700E+00  0.72683858911E+01  0.73033876003E+01  0.00000000000E+00 0.  1.
</event>
<event>
 7    1  0.1541705E-008  0.4614233E+02  0.7816164E-02  0.1320468E+00
        -11   -1    0    0    0    0  0.00000000000E+00  0.00000000000E+00  0.45593999997E+02  0.45594000000E+02  0.51100000000E-03 0. -1.
         11   -1    0    0    0    0 -0.00000000000E+00 -0.00000000000E+00 -0.45593999997E+02  0.45594000000E+02  0.51100000000E-03 0.  1.
    9900012    2    1    2    0    0  0.28792238393E+02 -0.99000464044E+01  0.33198022923E+02  0.46142327217E+02  0.10000086225E+02 0.  0.
        -12    1    1    2    0    0 -0.28792238393E+02  0.99000464044E+01 -0.33198022923E+02  0.45045672783E+02  0.00000000000E+00 0.  1.
         11    1    3    3    0    0  0.23385364853E+02 -0.56066515910E+01  0.24420280534E+02  0.34273312256E+02  0.51100000000E-03 0. -1.
        -11    1    3    3    0    0  0.51499020915E+01 -0.40658995366E+01  0.92155015485E+01  0.11312758269E+02  0.51100000000E-03 0.  1.
         12    1    3    3    0    0  0.25697144788E+00 -0.22749527684E+00 -0.43775915929E+00  0.55625669214E+00  0.00000000000E+00 0. -1.
</event>
<event>
 7    1  0.1541705E-008  0.4614232E+02  0.7816164E-02  0.1320468E+00
        -11   -1    0    0    0    0  0.00000000000E+00  0.00000000000E+00  0.45593999997E+02  0.45594000000E+02  0.51100000000E-03 0.  1.
         11   -1    0    0    0    0 -0.00000000000E+00 -0.00000000000E+00 -0.45593999997E+02  0.45594000000E+02  0.51100000000E-03 0. -1.
    9900012    2    1    2    0    0 -0.13323044123E+02  0.41059566163E+02  0.12873306894E+02  0.46142317537E+02  0.99999979564E+01 0.  0.
        -12    1    1    2    0    0  0.13323044123E+02 -0.41059566163E+02 -0.12873306894E+02  0.45045682463E+02  0.00000000000E+00 0.  1.
         11    1    3    3    0    0 -0.13954291753E+02  0.37414746142E+02  0.10873766045E+02  0.41386281247E+02  0.51100000000E-03 0. -1.
        -11    1    3    3    0    0  0.33030679220E+00 -0.21258237995E+00  0.42522009379E+00  0.57888361051E+00  0.51100000000E-03 0.  1.
        -12    1    3    3    0    0  0.30094083743E+00  0.38574024004E+01  0.15743207552E+01  0.41771526794E+01  0.00000000000E+00 0.  1.
</event>
<event>
 7    1  0.1541705E-008  0.4614232E+02  0.7816164E-02  0.1320468E+00
        -11   -1    0    0    0    0  0.00000000000E+00  0.00000000000E+00  0.45593999997E+02  0.45594000000E+02  0.51100000000E-03 0.  1.
         11   -1    0    0    0    0 -0.00000000000E+00 -0.00000000000E+00 -0.45593999997E+02  0.45594000000E+02  0.51100000000E-03 0. -1.
    9900012    2    1    2    0    0  0.32316843473E+02 -0.25473756565E+02 -0.18325473491E+02  0.46142316252E+02  0.99999862420E+01 0.  0.
        -12    1    1    2    0    0 -0.32316843473E+02  0.25473756565E+02  0.18325473491E+02  0.45045683748E+02  0.00000000000E+00 0.  1.
         11    1    3    3    0    0  0.16114123912E+02 -0.16217696137E+02 -0.74140014033E+01  0.24034268754E+02  0.51100000000E-03 0. -1.
        -11    1    3    3    0    0  0.10194690516E+02 -0.58204175795E+01 -0.93633340526E+01  0.15016024785E+02  0.51100000000E-03 0.  1.
         12    1    3    3    0    0  0.60080290452E+01 -0.34356428487E+01 -0.15481380354E+01  0.70920227134E+01  0.00000000000E+00 0. -1.
</event>
<event>
 7    1  0.1541705E-008  0.4614233E+02  0.7816164E-02  0.1320468E+00
        -11   -1    0    0    0    0  0.00000000000E+00  0.00000000000E+00  0.45593999997E+02  0.45594000000E+02  0.51100000000E-03 0. -1.
         11   -1    0    0    0    0 -0.00000000000E+00 -0.00000000000E+00 -0.45593999997E+02  0.45594000000E+02  0.51100000000E-03 0.  1.
    9900012    2    1    2    0    0 -0.42428466082E+01  0.19193056118E+02  0.40530691279E+02  0.46142333326E+02  0.10000141934E+02 0.  0.
        -12    1    1    2    0    0  0.42428466082E+01 -0.19193056118E+02 -0.40530691279E+02  0.45045666674E+02  0.00000000000E+00 0.  1.
         11    1    3    3    0    0 -0.28957640994E+01  0.36241588090E+01  0.15530827578E+02  0.16208842719E+02  0.51100000000E-03 0. -1.
        -11    1    3    3    0    0 -0.18923615138E+01  0.15220735191E+02  0.21715333295E+02  0.26585851731E+02  0.51100000000E-03 0.  1.
        -12    1    3    3    0    0  0.54527900504E+00  0.34816211764E+00  0.32845304065E+01  0.33476388761E+01  0.00000000000E+00 0.  1.
</event>
<event>
 7    1  0.1541705E-008  0.4614232E+02  0.7816164E-02  0.1320468E+00
        -11   -1    0    0    0    0  0.00000000000E+00  0.00000000000E+00  0.45593999997E+02  0.45594000000E+02  0.51100000000E-03 0.  1.
         11   -1    0    0    0    0 -0.00000000000E+00 -0.00000000000E+00 -0.45593999997E+02  0.45594000000E+02  0.51100000000E-03 0. -1.
    9900012    2    1    2    0    0  0.20889694870E+02  0.32651032025E+02 -0.22948729296E+02  0.46142318516E+02  0.10000006886E+02 0.  0.
        -12    1    1    2    0    0 -0.20889694870E+02 -0.32651032025E+02  0.22948729296E+02  0.45045681484E+02  0.00000000000E+00 0.  1.
         11    1    3    3    0    0  0.80863458461E+01  0.77667523030E+01 -0.10087759888E+02  0.15082252163E+02  0.51100000000E-03 0. -1.
        -11    1    3    3    0    0  0.37444967403E+00  0.49583482448E+00  0.29729392477E+00  0.68880234492E+00  0.51100000000E-03 0.  1.
         12    1    3    3    0    0  0.12428899350E+02  0.24388444897E+02 -0.13158263332E+02  0.30371264009E+02  0.00000000000E+00 0. -1.
</event>
<event>
 7    1  0.1541705E-008  0.4614232E+02  0.7816164E-02  0.1320468E+00
        -11   -1    0    0    0    0  0.00000000000E+00  0.00000000000E+00  0.45593999997E+02  0.45594000000E+02  0.51100000000E-03 0.  1.
         11   -1    0    0    0    0 -0.00000000000E+00 -0.00000000000E+00 -0.45593999997E+02  0.45594000000E+02  0.51100000000E-03 0. -1.
    9900012    2    1    2    0    0 -0.17644204318E+02  0.40561028194E+02 -0.85204794160E+01  0.46142317370E+02  0.99999964311E+01 0.  0.
        -12    1    1    2    0    0  0.17644204318E+02 -0.40561028194E+02  0.85204794160E+01  0.45045682630E+02  0.00000000000E+00 0.  1.
         11    1    3    3    0    0 -0.86561756035E+01  0.20630532757E+02 -0.86617014413E+01  0.23991109395E+02  0.51100000000E-03 0. -1.
        -11    1    3    3    0    0 -0.25473976754E+01  0.52410925459E+01  0.16073984869E+01  0.60449992678E+01  0.51100000000E-03 0.  1.
         12    1    3    3    0    0 -0.64406310386E+01  0.14689402891E+02 -0.14661764616E+01  0.16106208707E+02  0.00000000000E+00 0. -1.
</event>
<event>
 7    1  0.1541705E-008  0.4614232E+02  0.7816164E-02  0.1320468E+00
        -11   -1    0    0    0    0  0.00000000000E+00  0.00000000000E+00  0.45593999997E+02  0.45594000000E+02  0.51100000000E-03 0. -1.
         11   -1    0    0    0    0 -0.00000000000E+00 -0.00000000000E+00 -0.45593999997E+02  0.45594000000E+02  0.51100000000E-03 0.  1.
    9900012    2    1    2    0    0 -0.27195642534E+02  0.29080679659E+01  0.35791809575E+02  0.46142318023E+02  0.10000002384E+02 0.  0.
        -12    1    1    2    0    0  0.27195642534E+02 -0.29080679659E+01 -0.35791809575E+02  0.45045681977E+02  0.00000000000E+00 0.  1.
         11    1    3    3    0    0 -0.19348362682E+02  0.35473445059E+01  0.24730585632E+02  0.31599757238E+02  0.51100000000E-03 0. -1.
        -11    1    3    3    0    0 -0.56546770171E+01 -0.25051237306E+01  0.92960776113E+01  0.11165485941E+02  0.51100000000E-03 0.  1.
        -12    1    3    3    0    0 -0.21926028345E+01  0.18658471905E+01  0.17651463319E+01  0.33770748439E+01  0.00000000000E+00 0.  1.
</event>
<event>
 7    1  0.1541705E-008  0.4614232E+02  0.7816164E-02  0.1320468E+00
        -11   -1    0    0    0    0  0.00000000000E+00  0.00000000000E+00  0.45593999997E+02  0.45594000000E+02  0.51100000000E-03 0.  1.
         11   -1    0    0    0    0 -0.00000000000E+00 -0.00000000000E+00 -0.45593999997E+02  0.45594000000E+02  0.51100000000E-03 0. -1.
    9900012    2    1    2    0    0  0.32524188686E+02  0.15989541135E+01 -0.31124490480E+02  0.46142318614E+02  0.10000007773E+02 0.  0.
        -12    1    1    2    0    0 -0.32524188686E+02 -0.15989541135E+01  0.31124490480E+02  0.45045681386E+02  0.00000000000E+00 0.  1.
         11    1    3    3    0    0  0.11819495227E+01  0.80407257913E+00 -0.40487503529E+01  0.42937066816E+01  0.51100000000E-03 0.  1.
        -11    1    3    3    0    0  0.84284784783E+01 -0.23349759359E+01 -0.65452119688E+01  0.10923880357E+02  0.51100000000E-03 0. -1.
         12    1    3    3    0    0  0.22913760685E+02  0.31298574703E+01 -0.20530528159E+02  0.30924731575E+02  0.00000000000E+00 0. -1.
</event>
<event>
 7    1  0.1541705E-008  0.4614232E+02  0.7816164E-02  0.1320468E+00
        -11   -1    0    0    0    0  0.00000000000E+00  0.00000000000E+00  0.45593999997E+02  0.45594000000E+02  0.51100000000E-03 0. -1.
         11   -1    0    0    0    0 -0.00000000000E+00 -0.00000000000E+00 -0.45593999997E+02  0.45594000000E+02  0.51100000000E-03 0.  1.
    9900012    2    1    2    0    0 -0.10648675423E+02  0.40237990816E+02  0.17222754900E+02  0.46142317859E+02  0.10000000895E+02 0.  0.
        -12    1    1    2    0    0  0.10648675423E+02 -0.40237990816E+02 -0.17222754900E+02  0.45045682141E+02  0.00000000000E+00 0.  1.
         11    1    3    3    0    0 -0.35387208748E+01  0.23052110198E+02  0.12427586123E+02  0.26426638589E+02  0.51100000000E-03 0. -1.
        -11    1    3    3    0    0 -0.40362284907E+01  0.46086914141E+01  0.87875405693E+00  0.61889729304E+01  0.51100000000E-03 0.  1.
        -12    1    3    3    0    0 -0.30737260578E+01  0.12577189204E+02  0.39164147208E+01  0.13526706340E+02  0.00000000000E+00 0.  1.
</event>
<event>
 7    1  0.1541705E-008  0.4614232E+02  0.7816164E-02  0.1320468E+00
        -11   -1    0    0    0    0  0.00000000000E+00  0.00000000000E+00  0.45593999997E+02  0.45594000000E+02  0.51100000000E-03 0.  1.
         11   -1    0    0    0    0 -0.00000000000E+00 -0.00000000000E+00 -0.45593999997E+02  0.45594000000E+02  0.51100000000E-03 0. -1.
    9900012    2    1    2    0    0 -0.77412477659E+01 -0.10728051236E+00 -0.44375389869E+02  0.46142315944E+02  0.99999834279E+01 0.  0.
        -12    1    1    2    0    0  0.77412477659E+01  0.10728051236E+00  0.44375389869E+02  0.45045684056E+02  0.00000000000E+00 0.  1.
         11    1    3    3    0    0  0.13010036308E+01  0.24517628187E-01 -0.19682892615E+02  0.19725857992E+02  0.51100000000E-03 0. -1.
        -11    1    3    3    0    0 -0.59543187699E+01  0.10478243270E+01 -0.14842435372E+02  0.16026532247E+02  0.51100000000E-03 0.  1.
         12    1    3    3    0    0 -0.30879326269E+01 -0.11796224675E+01 -0.98500618811E+01  0.10389925704E+02  0.00000000000E+00 0. -1.
</event>
<event>
 7    1  0.1541705E-008  0.4614232E+02  0.7816164E-02  0.1320468E+00
        -11   -1    0    0    0    0  0.00000000000E+00  0.00000000000E+00  0.45593999997E+02  0.45594000000E+02  0.51100000000E-03 0. -1.
         11   -1    0    0    0    0 -0.00000000000E+00 -0.00000000000E+00 -0.45593999997E+02  0.45594000000E+02  0.51100000000E-03 0.  1.
    9900012    2    1    2    0    0  0.27007488631E+01  0.44964055554E+02  0.23037849405E+00  0.46142318625E+02  0.10000007881E+02 0.  0.
        -12    1    1    2    0    0 -0.27007488631E+01 -0.44964055554E+02 -0.23037849405E+00  0.45045681375E+02  0.00000000000E+00 0.  1.
         11    1    3    3    0    0  0.13861969380E+01  0.12764940467E+02  0.23606318393E+01  0.13055184028E+02  0.51100000000E-03 0. -1.
        -11    1    3    3    0    0 -0.19011477197E+01  0.22508932717E+02  0.30406114864E+00  0.22591123658E+02  0.51100000000E-03 0.  1.
        -12    1    3    3    0    0  0.32156996448E+01  0.96901823698E+01 -0.24343144939E+01  0.10496010938E+02  0.00000000000E+00 0.  1.
</event>
<event>
 7    1  0.1541705E-008  0.4614232E+02  0.7816164E-02  0.1320468E+00
        -11   -1    0    0    0    0  0.00000000000E+00  0.00000000000E+00  0.45593999997E+02  0.45594000000E+02  0.51100000000E-03 0.  1.
         11   -1    0    0    0    0 -0.00000000000E+00 -0.00000000000E+00 -0.45593999997E+02  0.45594000000E+02  0.51100000000E-03 0. -1.
    9900012    2    1    2    0    0 -0.62439056957E+01 -0.38510168951E+02 -0.22518743861E+02  0.46142319896E+02  0.10000019466E+02 0.  0.
        -12    1    1    2    0    0  0.62439056957E+01  0.38510168951E+02  0.22518743861E+02  0.45045680104E+02  0.00000000000E+00 0.  1.
         11    1    3    3    0    0 -0.35815268530E+01 -0.25624749844E+02 -0.12198679544E+02  0.28605295350E+02  0.51100000000E-03 0. -1.
        -11    1    3    3    0    0 -0.34467120284E+01 -0.40899053634E+01 -0.38917436993E+01  0.66145913684E+01  0.51100000000E-03 0.  1.
        -12    1    3    3    0    0  0.78433318576E+00 -0.87955137436E+01 -0.64283206170E+01  0.10922433177E+02  0.00000000000E+00 0.  1.
</event>
<event>
 7    1  0.1541705E-008  0.4614232E+02  0.7816164E-02  0.1320468E+00
        -11   -1    0    0    0    0  0.00000000000E+00  0.00000000000E+00  0.45593999997E+02  0.45594000000E+02  0.51100000000E-03 0.  1.
         11   -1    0    0    0    0 -0.00000000000E+00 -0.00000000000E+00 -0.45593999997E+02  0.45594000000E+02  0.51100000000E-03 0. -1.
    9900012    2    1    2    0    0  0.14087523985E+02 -0.11965344081E+02 -0.41079017276E+02  0.46142318172E+02  0.10000003748E+02 0.  0.
        -12    1    1    2    0    0 -0.14087523985E+02  0.11965344081E+02  0.41079017276E+02  0.45045681828E+02  0.00000000000E+00 0.  1.
         11    1    3    3    0    0  0.68004553016E+01 -0.44082277669E+01 -0.19448475350E+02  0.21069453198E+02  0.51100000000E-03 0. -1.
        -11    1    3    3    0    0  0.30243500271E+01  0.89546099750E+00 -0.65006973812E+01  0.72254833878E+01  0.51100000000E-03 0.  1.
         12    1    3    3    0    0  0.42627186562E+01 -0.84525773116E+01 -0.15129844545E+02  0.17847381587E+02  0.00000000000E+00 0. -1.
</event>
<event>
 7    1  0.1541705E-008  0.4614232E+02  0.7816164E-02  0.1320468E+00
        -11   -1    0    0    0    0  0.00000000000E+00  0.00000000000E+00  0.45593999997E+02  0.45594000000E+02  0.51100000000E-03 0. -1.
         11   -1    0    0    0    0 -0.00000000000E+00 -0.00000000000E+00 -0.45593999997E+02  0.45594000000E+02  0.51100000000E-03 0.  1.
    9900012    2    1    2    0    0  0.34437193981E+02  0.20880624964E+02  0.20179015923E+02  0.46142317501E+02  0.99999976284E+01 0.  0.
        -12    1    1    2    0    0 -0.34437193981E+02 -0.20880624964E+02 -0.20179015923E+02  0.45045682499E+02  0.00000000000E+00 0.  1.
         11    1    3    3    0    0  0.18347675110E+02  0.13113354755E+02  0.12545965007E+02  0.25806946606E+02  0.51100000000E-03 0. -1.
        -11    1    3    3    0    0  0.11568681428E+01 -0.33438822479E-01 -0.88506684979E+00  0.14569851216E+01  0.51100000000E-03 0.  1.
        -12    1    3    3    0    0  0.14932650728E+02  0.78007090312E+01  0.85181177660E+01  0.18878385774E+02  0.00000000000E+00 0.  1.
</event>
<event>
 7    1  0.1541705E-008  0.4614232E+02  0.7816164E-02  0.1320468E+00
        -11   -1    0    0    0    0  0.00000000000E+00  0.00000000000E+00  0.45593999997E+02  0.45594000000E+02  0.51100000000E-03 0. -1.
         11   -1    0    0    0    0 -0.00000000000E+00 -0.00000000000E+00 -0.45593999997E+02  0.45594000000E+02  0.51100000000E-03 0.  1.
    9900012    2    1    2    0    0 -0.31568839898E+02 -0.90608425770E+01  0.30828929804E+02  0.46142318369E+02  0.10000005544E+02 0.  0.
        -12    1    1    2    0    0  0.31568839898E+02  0.90608425770E+01 -0.30828929804E+02  0.45045681631E+02  0.00000000000E+00 0.  1.
         11    1    3    3    0    0 -0.74713010440E+01 -0.23271183269E+00  0.81170600538E+01  0.11034543863E+02  0.51100000000E-03 0. -1.
        -11    1    3    3    0    0 -0.21457546295E+02 -0.72192606226E+01  0.22636983067E+02  0.32015262291E+02  0.51100000000E-03 0.  1.
        -12    1    3    3    0    0 -0.26399925597E+01 -0.16088701217E+01  0.74886682826E-01  0.30925122148E+01  0.00000000000E+00 0.  1.
</event>
<event>
 7    1  0.1541705E-008  0.4614232E+02  0.7816164E-02  0.1320468E+00
        -11   -1    0    0    0    0  0.00000000000E+00  0.00000000000E+00  0.45593999997E+02  0.45594000000E+02  0.51100000000E-03 0.  1.
         11   -1    0    0    0    0 -0.00000000000E+00 -0.00000000000E+00 -0.45593999997E+02  0.45594000000E+02  0.51100000000E-03 0. -1.
    9900012    2    1    2    0    0  0.22952093395E+02 -0.38334917433E+02 -0.57226866203E+01  0.46142316212E+02  0.99999858753E+01 0.  0.
        -12    1    1    2    0    0 -0.22952093395E+02  0.38334917433E+02  0.57226866203E+01  0.45045683788E+02  0.00000000000E+00 0.  1.
         11    1    3    3    0    0  0.49772622536E+01 -0.10656338742E+02 -0.50855546966E+01  0.12813803563E+02  0.51100000000E-03 0. -1.
        -11    1    3    3    0    0  0.15593663034E+02 -0.23584731891E+02 -0.21537764376E+01  0.28355610704E+02  0.51100000000E-03 0.  1.
        -12    1    3    3    0    0  0.23811681074E+01 -0.40938467997E+01  0.15166445139E+01  0.49729019452E+01  0.00000000000E+00 0.  1.
</event>
<event>
 7    1  0.1541705E-008  0.4614232E+02  0.7816164E-02  0.1320468E+00
        -11   -1    0    0    0    0  0.00000000000E+00  0.00000000000E+00  0.45593999997E+02  0.45594000000E+02  0.51100000000E-03 0.  1.
         11   -1    0    0    0    0 -0.00000000000E+00 -0.00000000000E+00 -0.45593999997E+02  0.45594000000E+02  0.51100000000E-03 0. -1.
    9900012    2    1    2    0    0 -0.17468468526E+02 -0.15019177870E+02 -0.38709047615E+02  0.46142318034E+02  0.10000002485E+02 0.  0.
        -12    1    1    2    0    0  0.17468468526E+02  0.15019177870E+02  0.38709047615E+02  0.45045681966E+02  0.00000000000E+00 0.  1.
         11    1    3    3    0    0 -0.50054149124E+01  0.44095469249E+00 -0.98831381008E+01  0.11087156464E+02  0.51100000000E-03 0. -1.
        -11    1    3    3    0    0 -0.60477043556E+01 -0.76526442727E+01 -0.12504536777E+02  0.15858787237E+02  0.51100000000E-03 0.  1.
         12    1    3    3    0    0 -0.64153492575E+01 -0.78074882899E+01 -0.16321372737E+02  0.19196374333E+02  0.00000000000E+00 0. -1.
</event>
<event>
 7    1  0.1541705E-008  0.4614232E+02  0.7816164E-02  0.1320468E+00
        -11   -1    0    0    0    0  0.00000000000E+00  0.00000000000E+00  0.45593999997E+02  0.45594000000E+02  0.51100000000E-03 0. -1.
         11   -1    0    0    0    0 -0.00000000000E+00 -0.00000000000E+00 -0.45593999997E+02  0.45594000000E+02  0.51100000000E-03 0.  1.
    9900012    2    1    2    0    0 -0.22724115471E+02  0.50901528524E+01  0.38559284007E+02  0.46142318042E+02  0.10000002558E+02 0.  0.
        -12    1    1    2    0    0  0.22724115471E+02 -0.50901528524E+01 -0.38559284007E+02  0.45045681958E+02  0.00000000000E+00 0.  1.
         11    1    3    3    0    0 -0.15948441143E+02  0.67651176100E+01  0.30513843792E+02  0.35088662762E+02  0.51100000000E-03 0. -1.
        -11    1    3    3    0    0 -0.58209602141E+01 -0.46325214083E+00  0.52100300194E+01  0.78257647181E+01  0.51100000000E-03 0.  1.
         12    1    3    3    0    0 -0.95471411378E+00 -0.12117126168E+01  0.28354101951E+01  0.32278905618E+01  0.00000000000E+00 0. -1.
</event>
<event>
 7    1  0.1541705E-008  0.4614232E+02  0.7816164E-02  0.1320468E+00
        -11   -1    0    0    0    0  0.00000000000E+00  0.00000000000E+00  0.45593999997E+02  0.45594000000E+02  0.51100000000E-03 0.  1.
         11   -1    0    0    0    0 -0.00000000000E+00 -0.00000000000E+00 -0.45593999997E+02  0.45594000000E+02  0.51100000000E-03 0. -1.
    9900012    2    1    2    0    0 -0.57677313823E+01  0.82220637590E+01 -0.43911779066E+02  0.46142318759E+02  0.10000009099E+02 0.  0.
        -12    1    1    2    0    0  0.57677313823E+01 -0.82220637590E+01  0.43911779066E+02  0.45045681241E+02  0.00000000000E+00 0.  1.
         11    1    3    3    0    0 -0.30257942961E+01  0.63053134755E+01 -0.33474277333E+02  0.34197070815E+02  0.51100000000E-03 0. -1.
        -11    1    3    3    0    0 -0.32806969052E+01  0.27920242159E+01 -0.59759517766E+01  0.73668426957E+01  0.51100000000E-03 0.  1.
         12    1    3    3    0    0  0.53875981895E+00 -0.87527393240E+00 -0.44615499565E+01  0.45784052478E+01  0.00000000000E+00 0. -1.
</event>
<event>
 7    1  0.1541705E-008  0.4614232E+02  0.7816164E-02  0.1320468E+00
        -11   -1    0    0    0    0  0.00000000000E+00  0.00000000000E+00  0.45593999997E+02  0.45594000000E+02  0.51100000000E-03 0.  1.
         11   -1    0    0    0    0 -0.00000000000E+00 -0.00000000000E+00 -0.45593999997E+02  0.45594000000E+02  0.51100000000E-03 0. -1.
    9900012    2    1    2    0    0 -0.73042024276E+01 -0.34176941176E+02 -0.28420043202E+02  0.46142317223E+02  0.99999950973E+01 0.  0.
        -12    1    1    2    0    0  0.73042024276E+01  0.34176941176E+02  0.28420043202E+02  0.45045682777E+02  0.00000000000E+00 0.  1.
         11    1    3    3    0    0 -0.89092675722E+00 -0.12787913921E+02 -0.15266927064E+02  0.19934983200E+02  0.51100000000E-03 0. -1.
        -11    1    3    3    0    0 -0.58379059479E+01 -0.12912258304E+02 -0.81257341866E+01  0.16335088512E+02  0.51100000000E-03 0.  1.
        -12    1    3    3    0    0 -0.57536972250E+00 -0.84767689502E+01 -0.50273819507E+01  0.98722455110E+01  0.00000000000E+00 0.  1.
</event>
<event>
 7    1  0.1541705E-008  0.4614232E+02  0.7816164E-02  0.1320468E+00
        -11   -1    0    0    0    0  0.00000000000E+00  0.00000000000E+00  0.45593999997E+02  0.45594000000E+02  0.51100000000E-03 0.  1.
         11   -1    0    0    0    0 -0.00000000000E+00 -0.00000000000E+00 -0.45593999997E+02  0.45594000000E+02  0.51100000000E-03 0. -1.
    9900012    2    1    2    0    0 -0.33631123098E+02  0.10798040836E+02 -0.27954663508E+02  0.46142319424E+02  0.10000015163E+02 0.  0.
        -12    1    1    2    0    0  0.33631123098E+02 -0.10798040836E+02  0.27954663508E+02  0.45045680576E+02  0.00000000000E+00 0.  1.
         11    1    3    3    0    0 -0.26889773133E+02  0.51120905611E+01 -0.21177408718E+02  0.34607455979E+02  0.51100000000E-03 0. -1.
        -11    1    3    3    0    0 -0.76918384919E+00  0.18510959842E+01 -0.26565158649E+01  0.33279538666E+01  0.51100000000E-03 0.  1.
        -12    1    3    3    0    0 -0.59721661159E+01  0.38348542903E+01 -0.41207389248E+01  0.82069095785E+01  0.00000000000E+00 0.  1.
</event>
<event>
 7    1  0.1541705E-008  0.4614232E+02  0.7816164E-02  0.1320468E+00
        -11   -1    0    0    0    0  0.00000000000E+00  0.00000000000E+00  0.45593999997E+02  0.45594000000E+02  0.51100000000E-03 0. -1.
         11   -1    0    0    0    0 -0.00000000000E+00 -0.00000000000E+00 -0.45593999997E+02  0.45594000000E+02  0.51100000000E-03 0.  1.
    9900012    2    1    2    0    0 -0.10104338772E+02 -0.41591276335E+02 -0.14042133418E+02  0.46142318297E+02  0.10000004885E+02 0.  0.
        -12    1    1    2    0    0  0.10104338772E+02  0.41591276335E+02  0.14042133418E+02  0.45045681703E+02  0.00000000000E+00 0.  1.
         11    1    3    3    0    0 -0.34012203078E+01 -0.64229935933E+01 -0.17719067064E+01  0.74808288256E+01  0.51100000000E-03 0. -1.
        -11    1    3    3    0    0  0.16568255304E+01 -0.78771703520E+01 -0.17200687143E+01  0.82312526528E+01  0.51100000000E-03 0.  1.
        -12    1    3    3    0    0 -0.83599439948E+01 -0.27291112389E+02 -0.10550157997E+02  0.30430236818E+02  0.00000000000E+00 0.  1.
</event>
<event>
 7    1  0.1541705E-008  0.4614232E+02  0.7816164E-02  0.1320468E+00
        -11   -1    0    0    0    0  0.00000000000E+00  0.00000000000E+00  0.45593999997E+02  0.45594000000E+02  0.51100000000E-03 0.  1.
         11   -1    0    0    0    0 -0.00000000000E+00 -0.00000000000E+00 -0.45593999997E+02  0.45594000000E+02  0.51100000000E-03 0. -1.
    9900012    2    1    2    0    0 -0.34461433027E+02 -0.28681410243E+02 -0.43474137870E+01  0.46142315785E+02  0.99999819787E+01 0.  0.
        -12    1    1    2    0    0  0.34461433027E+02  0.28681410243E+02  0.43474137870E+01  0.45045684215E+02  0.00000000000E+00 0.  1.
         11    1    3    3    0    0 -0.36882691132E+01 -0.24833602878E+01 -0.35226401369E+01  0.56726890595E+01  0.51100000000E-03 0. -1.
        -11    1    3    3    0    0 -0.27395930592E+02 -0.24082230311E+02 -0.76341300169E+00  0.36483881775E+02  0.51100000000E-03 0.  1.
         12    1    3    3    0    0 -0.33772333216E+01 -0.21158196444E+01 -0.61360648390E-01  0.39857449499E+01  0.00000000000E+00 0. -1.
</event>
<event>
 7    1  0.1541705E-008  0.4614232E+02  0.7816164E-02  0.1320468E+00
        -11   -1    0    0    0    0  0.00000000000E+00  0.00000000000E+00  0.45593999997E+02  0.45594000000E+02  0.51100000000E-03 0. -1.
         11   -1    0    0    0    0 -0.00000000000E+00 -0.00000000000E+00 -0.45593999997E+02  0.45594000000E+02  0.51100000000E-03 0.  1.
    9900012    2    1    2    0    0 -0.34293278558E+02  0.24717996198E+02  0.15559734656E+02  0.46142316158E+02  0.99999853789E+01 0.  0.
        -12    1    1    2    0    0  0.34293278558E+02 -0.24717996198E+02 -0.15559734656E+02  0.45045683842E+02  0.00000000000E+00 0.  1.
         11    1    3    3    0    0 -0.20830147653E+02  0.19754329981E+02  0.87364434182E+01  0.30007566514E+02  0.51100000000E-03 0. -1.
        -11    1    3    3    0    0 -0.28454964045E+01  0.12679704054E+01  0.28239117361E+00  0.31279935698E+01  0.51100000000E-03 0.  1.
         12    1    3    3    0    0 -0.10617634500E+02  0.36956958110E+01  0.65409000642E+01  0.13006756074E+02  0.00000000000E+00 0. -1.
</event>
<event>
 7    1  0.1541705E-008  0.4614232E+02  0.7816164E-02  0.1320468E+00
        -11   -1    0    0    0    0  0.00000000000E+00  0.00000000000E+00  0.45593999997E+02  0.45594000000E+02  0.51100000000E-03 0.  1.
         11   -1    0    0    0    0 -0.00000000000E+00 -0.00000000000E+00 -0.45593999997E+02  0.45594000000E+02  0.51100000000E-03 0. -1.
    9900012    2    1    2    0    0 -0.34835941857E+02  0.22215977227E+02 -0.17944942853E+02  0.46142318040E+02  0.10000002546E+02 0.  0.
        -12    1    1    2    0    0  0.34835941857E+02 -0.22215977227E+02  0.17944942853E+02  0.45045681960E+02  0.00000000000E+00 0.  1.
         11    1    3    3    0    0 -0.31394934916E+02  0.15680852840E+02 -0.14826207332E+02  0.38096555071E+02  0.51100000000E-03 0. -1.
        -11    1    3    3    0    0 -0.32798764112E+01  0.57923339847E+01 -0.27821652040E+01  0.72145107767E+01  0.51100000000E-03 0.  1.
         12    1    3    3    0    0 -0.16113052974E+00  0.74279040229E+00 -0.33657031704E+00  0.83125219257E+00  0.00000000000E+00 0. -1.
</event>
<event>
 7    1  0.1541705E-008  0.4614232E+02  0.7816164E-02  0.1320468E+00
        -11   -1    0    0    0    0  0.00000000000E+00  0.00000000000E+00  0.45593999997E+02  0.45594000000E+02  0.51100000000E-03 0. -1.
         11   -1    0    0    0    0 -0.00000000000E+00 -0.00000000000E+00 -0.45593999997E+02  0.45594000000E+02  0.51100000000E-03 0.  1.
    9900012    2    1    2    0    0  0.29546152210E+02  0.14197733935E+02  0.30895998307E+02  0.46142317957E+02  0.10000001791E+02 0.  0.
        -12    1    1    2    0    0 -0.29546152210E+02 -0.14197733935E+02 -0.30895998307E+02  0.45045682043E+02  0.00000000000E+00 0.  1.
         11    1    3    3    0    0  0.15060873929E+02  0.38602616774E+01  0.12230851822E+02  0.19781943289E+02  0.51100000000E-03 0. -1.
        -11    1    3    3    0    0  0.94993702807E+01  0.45251933091E+01  0.13531279087E+02  0.17140913751E+02  0.51100000000E-03 0.  1.
         12    1    3    3    0    0  0.49859079997E+01  0.58122789484E+01  0.51338673973E+01  0.92194609174E+01  0.00000000000E+00 0. -1.
</event>
<event>
 7    1  0.1541705E-008  0.4614232E+02  0.7816164E-02  0.1320468E+00
        -11   -1    0    0    0    0  0.00000000000E+00  0.00000000000E+00  0.45593999997E+02  0.45594000000E+02  0.51100000000E-03 0.  1.
         11   -1    0    0    0    0 -0.00000000000E+00 -0.00000000000E+00 -0.45593999997E+02  0.45594000000E+02  0.51100000000E-03 0. -1.
    9900012    2    1    2    0    0 -0.38775201262E+01 -0.20794658715E+02 -0.39770093903E+02  0.46142319159E+02  0.10000012746E+02 0.  0.
        -12    1    1    2    0    0  0.38775201262E+01  0.20794658715E+02  0.39770093903E+02  0.45045680841E+02  0.00000000000E+00 0.  1.
         11    1    3    3    0    0  0.70336280338E+00 -0.32823420132E+01 -0.25291078746E+01  0.42029602933E+01  0.51100000000E-03 0. -1.
        -11    1    3    3    0    0 -0.11800237164E+00 -0.84121162237E+00  0.47468269461E-01  0.85077320776E+00  0.51100000000E-03 0.  1.
         12    1    3    3    0    0 -0.44628805579E+01 -0.16671105080E+02 -0.37288454298E+02  0.41088585658E+02  0.00000000000E+00 0. -1.
</event>
<event>
 7    1  0.1541705E-008  0.4614232E+02  0.7816164E-02  0.1320468E+00
        -11   -1    0    0    0    0  0.00000000000E+00  0.00000000000E+00  0.45593999997E+02  0.45594000000E+02  0.51100000000E-03 0. -1.
         11   -1    0    0    0    0 -0.00000000000E+00 -0.00000000000E+00 -0.45593999997E+02  0.45594000000E+02  0.51100000000E-03 0.  1.
    9900012    2    1    2    0    0 -0.96795794198E+01 -0.43912432177E+02  0.26678649278E+01  0.46142318068E+02  0.10000002799E+02 0.  0.
        -12    1    1    2    0    0  0.96795794198E+01  0.43912432177E+02 -0.26678649278E+01  0.45045681932E+02  0.00000000000E+00 0.  1.
         11    1    3    3    0    0 -0.48359831690E+01 -0.15556567069E+02  0.31774374367E+01  0.16597880019E+02  0.51100000000E-03 0. -1.
        -11    1    3    3    0    0 -0.24588199802E+01 -0.12727329704E+02 -0.35616960996E+01  0.13443079873E+02  0.51100000000E-03 0.  1.
        -12    1    3    3    0    0 -0.23847762706E+01 -0.15628535404E+02  0.30521235907E+01  0.16101358177E+02  0.00000000000E+00 0.  1.
</event>
<event>
 7    1  0.1541705E-008  0.4614232E+02  0.7816164E-02  0.1320468E+00
        -11   -1    0    0    0    0  0.00000000000E+00  0.00000000000E+00  0.45593999997E+02  0.45594000000E+02  0.51100000000E-03 0.  1.
         11   -1    0    0    0    0 -0.00000000000E+00 -0.00000000000E+00 -0.45593999997E+02  0.45594000000E+02  0.51100000000E-03 0. -1.
    9900012    2    1    2    0    0 -0.37657168583E+02  0.21335197102E+02  0.12484407373E+02  0.46142318647E+02  0.10000008076E+02 0.  0.
        -12    1    1    2    0    0  0.37657168583E+02 -0.21335197102E+02 -0.12484407373E+02  0.45045681353E+02  0.00000000000E+00 0.  1.
         11    1    3    3    0    0 -0.15531344789E+02  0.11881821321E+02  0.97512172238E+01  0.21851466460E+02  0.51100000000E-03 0. -1.
        -11    1    3    3    0    0 -0.20839820086E+02  0.90649222366E+01  0.29940291436E+01  0.22922371761E+02  0.51100000000E-03 0.  1.
         12    1    3    3    0    0 -0.12860037077E+01  0.38845354467E+00 -0.26083899398E+00  0.13684804249E+01  0.00000000000E+00 0. -1.
</event>
<event>
 7    1  0.1541705E-008  0.4614232E+02  0.7816164E-02  0.1320468E+00
        -11   -1    0    0    0    0  0.00000000000E+00  0.00000000000E+00  0.45593999997E+02  0.45594000000E+02  0.51100000000E-03 0. -1.
         11   -1    0    0    0    0 -0.00000000000E+00 -0.00000000000E+00 -0.45593999997E+02  0.45594000000E+02  0.51100000000E-03 0.  1.
    9900012    2    1    2    0    0  0.44431109864E+02 -0.24784845523E+01 -0.69890713834E+01  0.46142317319E+02  0.99999959668E+01 0.  0.
        -12    1    1    2    0    0 -0.44431109864E+02  0.24784845523E+01  0.69890713834E+01  0.45045682681E+02  0.00000000000E+00 0.  1.
         11    1    3    3    0    0  0.24422565788E+02 -0.52066980181E+01 -0.52022503425E+01  0.25507544625E+02  0.51100000000E-03 0. -1.
        -11    1    3    3    0    0  0.50174616990E+01  0.16619689158E+01  0.91708382481E+00  0.53645228661E+01  0.51100000000E-03 0.  1.
         12    1    3    3    0    0  0.14991082377E+02  0.10662445499E+01 -0.27039048657E+01  0.15270249827E+02  0.00000000000E+00 0. -1.
</event>
<event>
 7    1  0.1541705E-008  0.4614232E+02  0.7816164E-02  0.1320468E+00
        -11   -1    0    0    0    0  0.00000000000E+00  0.00000000000E+00  0.45593999997E+02  0.45594000000E+02  0.51100000000E-03 0. -1.
         11   -1    0    0    0    0 -0.00000000000E+00 -0.00000000000E+00 -0.45593999997E+02  0.45594000000E+02  0.51100000000E-03 0.  1.
    9900012    2    1    2    0    0 -0.61583297523E+01  0.22070839463E+02  0.38782295724E+02  0.46142318280E+02  0.10000004733E+02 0.  0.
        -12    1    1    2    0    0  0.61583297523E+01 -0.22070839463E+02 -0.38782295724E+02  0.45045681720E+02  0.00000000000E+00 0.  1.
         11    1    3    3    0    0 -0.31666758413E+01  0.63658183087E+01  0.12616503577E+02  0.14481976433E+02  0.51100000000E-03 0. -1.
        -11    1    3    3    0    0  0.11237057865E+01  0.46652344968E+01  0.29687840246E+01  0.56427658511E+01  0.51100000000E-03 0.  1.
        -12    1    3    3    0    0 -0.41153596974E+01  0.11039786658E+02  0.23197008123E+02  0.26017575996E+02  0.00000000000E+00 0.  1.
</event>
<event>
 7    1  0.1541705E-008  0.4614232E+02  0.7816164E-02  0.1320468E+00
        -11   -1    0    0    0    0  0.00000000000E+00  0.00000000000E+00  0.45593999997E+02  0.45594000000E+02  0.51100000000E-03 0. -1.
         11   -1    0    0    0    0 -0.00000000000E+00 -0.00000000000E+00 -0.45593999997E+02  0.45594000000E+02  0.51100000000E-03 0.  1.
    9900012    2    1    2    0    0  0.89594940542E+01  0.41476404341E+02  0.15117832070E+02  0.46142317663E+02  0.99999991044E+01 0.  0.
        -12    1    1    2    0    0 -0.89594940542E+01 -0.41476404341E+02 -0.15117832070E+02  0.45045682337E+02  0.00000000000E+00 0.  1.
         11    1    3    3    0    0 -0.13083499940E+01  0.73634316081E+01  0.28857376414E+01  0.80161952789E+01  0.51100000000E-03 0.  1.
        -11    1    3    3    0    0  0.10382692306E+02  0.28531426019E+02  0.89653670260E+01  0.31657864368E+02  0.51100000000E-03 0. -1.
         12    1    3    3    0    0 -0.11484825733E+00  0.55815467140E+01  0.32667274022E+01  0.64682580161E+01  0.00000000000E+00 0. -1.
</event>
<event>
 7    1  0.1541705E-008  0.4614232E+02  0.7816164E-02  0.1320468E+00
        -11   -1    0    0    0    0  0.00000000000E+00  0.00000000000E+00  0.45593999997E+02  0.45594000000E+02  0.51100000000E-03 0.  1.
         11   -1    0    0    0    0 -0.00000000000E+00 -0.00000000000E+00 -0.45593999997E+02  0.45594000000E+02  0.51100000000E-03 0. -1.
    9900012    2    1    2    0    0 -0.42053569769E+02 -0.15985811688E+02 -0.22504190897E+01  0.46142319944E+02  0.10000019902E+02 0.  0.
        -12    1    1    2    0    0  0.42053569769E+02  0.15985811688E+02  0.22504190897E+01  0.45045680056E+02  0.00000000000E+00 0.  1.
         11    1    3    3    0    0 -0.16962944884E+02 -0.65415978526E+01  0.35675455344E+01  0.18527314511E+02  0.51100000000E-03 0. -1.
        -11    1    3    3    0    0 -0.37727192738E+01 -0.17123439851E+01 -0.20670198627E+01  0.46301300215E+01  0.51100000000E-03 0.  1.
         12    1    3    3    0    0 -0.21317905612E+02 -0.77318698505E+01 -0.37509447614E+01  0.22984875411E+02  0.00000000000E+00 0. -1.
</event>
<event>
 7    1  0.1541705E-008  0.4614232E+02  0.7816164E-02  0.1320468E+00
        -11   -1    0    0    0    0  0.00000000000E+00  0.00000000000E+00  0.45593999997E+02  0.45594000000E+02  0.51100000000E-03 0.  1.
         11   -1    0    0    0    0 -0.00000000000E+00 -0.00000000000E+00 -0.45593999997E+02  0.45594000000E+02  0.51100000000E-03 0. -1.
    9900012    2    1    2    0    0 -0.12667579450E+02  0.15252717691E+02 -0.40447503730E+02  0.46142317365E+02  0.99999963866E+01 0.  0.
        -12    1    1    2    0    0  0.12667579450E+02 -0.15252717691E+02  0.40447503730E+02  0.45045682635E+02  0.00000000000E+00 0.  1.
         11    1    3    3    0    0 -0.11174286235E+02  0.13417610796E+02 -0.29057922801E+02  0.33900734949E+02  0.51100000000E-03 0. -1.
        -11    1    3    3    0    0  0.26525480439E+00  0.15986202465E+01 -0.95470030923E+01  0.96835538471E+01  0.51100000000E-03 0.  1.
         12    1    3    3    0    0 -0.17585480202E+01  0.23648664888E+00 -0.18425778360E+01  0.25580285683E+01  0.00000000000E+00 0. -1.
</event>
<event>
 7    1  0.1541705E-008  0.4614232E+02  0.7816164E-02  0.1320468E+00
        -11   -1    0    0    0    0  0.00000000000E+00  0.00000000000E+00  0.45593999997E+02  0.45594000000E+02  0.51100000000E-03 0.  1.
         11   -1    0    0    0    0 -0.00000000000E+00 -0.00000000000E+00 -0.45593999997E+02  0.45594000000E+02  0.51100000000E-03 0. -1.
    9900012    2    1    2    0    0  0.32823743530E+02  0.28573020299E+02 -0.11631759979E+02  0.46142317981E+02  0.10000002009E+02 0.  0.
        -12    1    1    2    0    0 -0.32823743530E+02 -0.28573020299E+02  0.11631759979E+02  0.45045682019E+02  0.00000000000E+00 0.  1.
         11    1    3    3    0    0  0.11167088899E+02  0.12976757126E+02 -0.76708914259E+01  0.18760135274E+02  0.51100000000E-03 0. -1.
        -11    1    3    3    0    0  0.12290317104E+02  0.81981949737E+01  0.10179431936E+00  0.14774053530E+02  0.51100000000E-03 0.  1.
         12    1    3    3    0    0  0.93663375260E+01  0.73980681999E+01 -0.40626628722E+01  0.12608129177E+02  0.00000000000E+00 0. -1.
</event>
<event>
 7    1  0.1541705E-008  0.4614232E+02  0.7816164E-02  0.1320468E+00
        -11   -1    0    0    0    0  0.00000000000E+00  0.00000000000E+00  0.45593999997E+02  0.45594000000E+02  0.51100000000E-03 0.  1.
         11   -1    0    0    0    0 -0.00000000000E+00 -0.00000000000E+00 -0.45593999997E+02  0.45594000000E+02  0.51100000000E-03 0. -1.
    9900012    2    1    2    0    0  0.50046731464E+01 -0.44764313218E+02  0.47220975515E+00  0.46142317929E+02  0.10000001528E+02 0.  0.
        -12    1    1    2    0    0 -0.50046731464E+01  0.44764313218E+02 -0.47220975515E+00  0.45045682071E+02  0.00000000000E+00 0.  1.
         11    1    3    3    0    0 -0.11865578043E+01 -0.38152282377E+00  0.28776855154E+00  0.12791755503E+01  0.51100000000E-03 0. -1.
        -11    1    3    3    0    0  0.78692024249E-01 -0.13253588739E+01  0.35244064800E+00  0.13736750892E+01  0.51100000000E-03 0.  1.
         12    1    3    3    0    0  0.61125389265E+01 -0.43057431521E+02 -0.16799944439E+00  0.43489467289E+02  0.00000000000E+00 0. -1.
</event>
<event>
 7    1  0.1541705E-008  0.4614232E+02  0.7816164E-02  0.1320468E+00
        -11   -1    0    0    0    0  0.00000000000E+00  0.00000000000E+00  0.45593999997E+02  0.45594000000E+02  0.51100000000E-03 0.  1.
         11   -1    0    0    0    0 -0.00000000000E+00 -0.00000000000E+00 -0.45593999997E+02  0.45594000000E+02  0.51100000000E-03 0. -1.
    9900012    2    1    2    0    0 -0.26712924066E+00 -0.44279239074E+02 -0.82698918894E+01  0.46142317822E+02  0.10000000557E+02 0.  0.
        -12    1    1    2    0    0  0.26712924066E+00  0.44279239074E+02  0.82698918894E+01  0.45045682178E+02  0.00000000000E+00 0.  1.
         11    1    3    3    0    0  0.11309422162E+00  0.64518551420E-02  0.36225749960E-01  0.11893063306E+00  0.51100000000E-03 0.  1.
        -11    1    3    3    0    0  0.21636833509E+01 -0.23787278805E+02 -0.34887087558E+00  0.23888027749E+02  0.51100000000E-03 0. -1.
         12    1    3    3    0    0 -0.25439068131E+01 -0.20498412124E+02 -0.79572467638E+01  0.22135359440E+02  0.00000000000E+00 0. -1.
</event>
<event>
 7    1  0.1541705E-008  0.4614232E+02  0.7816164E-02  0.1320468E+00
        -11   -1    0    0    0    0  0.00000000000E+00  0.00000000000E+00  0.45593999997E+02  0.45594000000E+02  0.51100000000E-03 0. -1.
         11   -1    0    0    0    0 -0.00000000000E+00 -0.00000000000E+00 -0.45593999997E+02  0.45594000000E+02  0.51100000000E-03 0.  1.
    9900012    2    1    2    0    0 -0.24223288002E+01 -0.15492825070E+02  0.42228167922E+02  0.46142317948E+02  0.10000001708E+02 0.  0.
        -12    1    1    2    0    0  0.24223288002E+01  0.15492825070E+02 -0.42228167922E+02  0.45045682052E+02  0.00000000000E+00 0.  1.
         11    1    3    3    0    0  0.11216983916E+01 -0.97540962766E+01  0.22715179022E+02  0.24746312042E+02  0.51100000000E-03 0. -1.
        -11    1    3    3    0    0  0.94614024029E+00 -0.30454492845E+01  0.46564743233E+01  0.56438192816E+01  0.51100000000E-03 0.  1.
        -12    1    3    3    0    0 -0.44901674320E+01 -0.26932795091E+01  0.14856514577E+02  0.15752186624E+02  0.00000000000E+00 0.  1.
</event>
<event>
 7    1  0.1541705E-008  0.4614232E+02  0.7816164E-02  0.1320468E+00
        -11   -1    0    0    0    0  0.00000000000E+00  0.00000000000E+00  0.45593999997E+02  0.45594000000E+02  0.51100000000E-03 0.  1.
         11   -1    0    0    0    0 -0.00000000000E+00 -0.00000000000E+00 -0.45593999997E+02  0.45594000000E+02  0.51100000000E-03 0. -1.
    9900012    2    1    2    0    0  0.91155578694E+01  0.23765472260E+02 -0.37164802612E+02  0.46142316298E+02  0.99999866543E+01 0.  0.
        -12    1    1    2    0    0 -0.91155578694E+01 -0.23765472260E+02  0.37164802612E+02  0.45045683702E+02  0.00000000000E+00 0.  1.
         11    1    3    3    0    0  0.54723415957E+01  0.12818003716E+02 -0.19862019789E+02  0.24264121088E+02  0.51100000000E-03 0. -1.
        -11    1    3    3    0    0  0.29897559665E+01  0.88227210717E+00 -0.57602389886E+01  0.65496105439E+01  0.51100000000E-03 0.  1.
        -12    1    3    3    0    0  0.65346030714E+00  0.10065196436E+02 -0.11542543835E+02  0.15328584666E+02  0.00000000000E+00 0.  1.
</event>
<event>
 7    1  0.1541705E-008  0.4614232E+02  0.7816164E-02  0.1320468E+00
        -11   -1    0    0    0    0  0.00000000000E+00  0.00000000000E+00  0.45593999997E+02  0.45594000000E+02  0.51100000000E-03 0.  1.
         11   -1    0    0    0    0 -0.00000000000E+00 -0.00000000000E+00 -0.45593999997E+02  0.45594000000E+02  0.51100000000E-03 0. -1.
    9900012    2    1    2    0    0  0.18906725907E+02 -0.10506525283E+02 -0.39512810276E+02  0.46142317255E+02  0.99999953865E+01 0.  0.
        -12    1    1    2    0    0 -0.18906725907E+02  0.10506525283E+02  0.39512810276E+02  0.45045682745E+02  0.00000000000E+00 0.  1.
         11    1    3    3    0    0  0.91055682404E+01 -0.63457013386E+01 -0.21301545113E+02  0.24019473827E+02  0.51100000000E-03 0. -1.
        -11    1    3    3    0    0  0.59801119428E+01  0.98739536087E+00 -0.10162254618E+02  0.11832502171E+02  0.51100000000E-03 0.  1.
         12    1    3    3    0    0  0.38210457237E+01 -0.51482193051E+01 -0.80490105458E+01  0.10290341258E+02  0.00000000000E+00 0. -1.
</event>
<event>
 7    1  0.1541705E-008  0.4614232E+02  0.7816164E-02  0.1320468E+00
        -11   -1    0    0    0    0  0.00000000000E+00  0.00000000000E+00  0.45593999997E+02  0.45594000000E+02  0.51100000000E-03 0.  1.
         11   -1    0    0    0    0 -0.00000000000E+00 -0.00000000000E+00 -0.45593999997E+02  0.45594000000E+02  0.51100000000E-03 0. -1.
    9900012    2    1    2    0    0 -0.35232998174E+02  0.21226194632E+02  0.18362953175E+02  0.46142317097E+02  0.99999939483E+01 0.  0.
        -12    1    1    2    0    0  0.35232998174E+02 -0.21226194632E+02 -0.18362953175E+02  0.45045682903E+02  0.00000000000E+00 0.  1.
         11    1    3    3    0    0 -0.32003943961E+01  0.24624573216E+01  0.20137300891E+01  0.45123529875E+01  0.51100000000E-03 0. -1.
        -11    1    3    3    0    0 -0.31962986931E+02  0.16412978317E+02  0.15225775603E+02  0.39023616360E+02  0.51100000000E-03 0.  1.
        -12    1    3    3    0    0 -0.69616846450E-01  0.23507589935E+01  0.11234474820E+01  0.26063477503E+01  0.00000000000E+00 0.  1.
</event>
<event>
 7    1  0.1541705E-008  0.4614232E+02  0.7816164E-02  0.1320468E+00
        -11   -1    0    0    0    0  0.00000000000E+00  0.00000000000E+00  0.45593999997E+02  0.45594000000E+02  0.51100000000E-03 0.  1.
         11   -1    0    0    0    0 -0.00000000000E+00 -0.00000000000E+00 -0.45593999997E+02  0.45594000000E+02  0.51100000000E-03 0. -1.
    9900012    2    1    2    0    0  0.11767439426E+02  0.16822848568E+02 -0.40095294675E+02  0.46142317414E+02  0.99999968343E+01 0.  0.
        -12    1    1    2    0    0 -0.11767439426E+02 -0.16822848568E+02  0.40095294675E+02  0.45045682586E+02  0.00000000000E+00 0.  1.
         11    1    3    3    0    0  0.55957906141E+01  0.43563392943E+01 -0.11841442628E+02  0.13802547896E+02  0.51100000000E-03 0. -1.
        -11    1    3    3    0    0 -0.19822722313E+00 -0.89079106392E+00 -0.12614275462E+01  0.15569208287E+01  0.51100000000E-03 0.  1.
         12    1    3    3    0    0  0.63698760347E+01  0.13357300338E+02 -0.26992424501E+02  0.30782848689E+02  0.00000000000E+00 0. -1.
</event>
<event>
 7    1  0.1541705E-008  0.4614232E+02  0.7816164E-02  0.1320468E+00
        -11   -1    0    0    0    0  0.00000000000E+00  0.00000000000E+00  0.45593999997E+02  0.45594000000E+02  0.51100000000E-03 0. -1.
         11   -1    0    0    0    0 -0.00000000000E+00 -0.00000000000E+00 -0.45593999997E+02  0.45594000000E+02  0.51100000000E-03 0.  1.
    9900012    2    1    2    0    0  0.38384952173E+01  0.10842028210E+02  0.43552610701E+02  0.46142317409E+02  0.99999967874E+01 0.  0.
        -12    1    1    2    0    0 -0.38384952173E+01 -0.10842028210E+02 -0.43552610701E+02  0.45045682591E+02  0.00000000000E+00 0.  1.
         11    1    3    3    0    0  0.26807412663E+01  0.42577584157E+01  0.20243015045E+02  0.20858919887E+02  0.51100000000E-03 0. -1.
        -11    1    3    3    0    0  0.24912010862E+01  0.44798706581E+01  0.64406617769E+01  0.82314912592E+01  0.51100000000E-03 0.  1.
        -12    1    3    3    0    0 -0.13334471353E+01  0.21043991365E+01  0.16868933879E+02  0.17051906263E+02  0.00000000000E+00 0.  1.
</event>
<event>
 7    1  0.1541705E-008  0.4614232E+02  0.7816164E-02  0.1320468E+00
        -11   -1    0    0    0    0  0.00000000000E+00  0.00000000000E+00  0.45593999997E+02  0.45594000000E+02  0.51100000000E-03 0.  1.
         11   -1    0    0    0    0 -0.00000000000E+00 -0.00000000000E+00 -0.45593999997E+02  0.45594000000E+02  0.51100000000E-03 0. -1.
    9900012    2    1    2    0    0 -0.23109738789E+02 -0.33028195571E+02 -0.20104519854E+02  0.46142318208E+02  0.10000004073E+02 0.  0.
        -12    1    1    2    0    0  0.23109738789E+02  0.33028195571E+02  0.20104519854E+02  0.45045681792E+02  0.00000000000E+00 0.  1.
         11    1    3    3    0    0 -0.10797165646E+02 -0.22355273209E+02 -0.12267084243E+02  0.27691485737E+02  0.51100000000E-03 0. -1.
        -11    1    3    3    0    0 -0.11753917290E+02 -0.96742342579E+01 -0.61644853059E+01  0.16423953832E+02  0.51100000000E-03 0.  1.
         12    1    3    3    0    0 -0.55865585344E+00 -0.99868810359E+00 -0.16729503054E+01  0.20268786385E+01  0.00000000000E+00 0. -1.
</event>
<event>
 7    1  0.1541705E-008  0.4614232E+02  0.7816164E-02  0.1320468E+00
        -11   -1    0    0    0    0  0.00000000000E+00  0.00000000000E+00  0.45593999997E+02  0.45594000000E+02  0.51100000000E-03 0.  1.
         11   -1    0    0    0    0 -0.00000000000E+00 -0.00000000000E+00 -0.45593999997E+02  0.45594000000E+02  0.51100000000E-03 0. -1.
    9900012    2    1    2    0    0 -0.88393899404E+01 -0.29982524262E+02 -0.32434964755E+02  0.46142317474E+02  0.99999973777E+01 0.  0.
        -12    1    1    2    0    0  0.88393899404E+01  0.29982524262E+02  0.32434964755E+02  0.45045682526E+02  0.00000000000E+00 0.  1.
         11    1    3    3    0    0 -0.74844664347E+01 -0.24249708564E+02 -0.24947189531E+02  0.35586905864E+02  0.51100000000E-03 0. -1.
        -11    1    3    3    0    0 -0.80644698995E+00 -0.29002302445E+01 -0.57499092388E+00  0.30646871035E+01  0.51100000000E-03 0.  1.
         12    1    3    3    0    0 -0.54847651571E+00 -0.28325854533E+01 -0.69127843006E+01  0.74907245060E+01  0.00000000000E+00 0. -1.
</event>
<event>
 7    1  0.1541705E-008  0.4614232E+02  0.7816164E-02  0.1320468E+00
        -11   -1    0    0    0    0  0.00000000000E+00  0.00000000000E+00  0.45593999997E+02  0.45594000000E+02  0.51100000000E-03 0. -1.
         11   -1    0    0    0    0 -0.00000000000E+00 -0.00000000000E+00 -0.45593999997E+02  0.45594000000E+02  0.51100000000E-03 0.  1.
    9900012    2    1    2    0    0  0.41736642849E+02  0.16714386148E+02 -0.27920246925E+01  0.46142318048E+02  0.10000002618E+02 0.  0.
        -12    1    1    2    0    0 -0.41736642849E+02 -0.16714386148E+02  0.27920246925E+01  0.45045681952E+02  0.00000000000E+00 0.  1.
         11    1    3    3    0    0  0.21954778027E+02  0.62034061048E+01  0.28222100918E+00  0.22816094637E+02  0.51100000000E-03 0. -1.
        -11    1    3    3    0    0  0.87079140889E+01  0.67111605074E+01 -0.37050699565E+01  0.11601507953E+02  0.51100000000E-03 0.  1.
        -12    1    3    3    0    0  0.11073950733E+02  0.37998195357E+01  0.63082425478E+00  0.11724715459E+02  0.00000000000E+00 0.  1.
</event>
<event>
 7    1  0.1541705E-008  0.4614232E+02  0.7816164E-02  0.1320468E+00
        -11   -1    0    0    0    0  0.00000000000E+00  0.00000000000E+00  0.45593999997E+02  0.45594000000E+02  0.51100000000E-03 0.  1.
         11   -1    0    0    0    0 -0.00000000000E+00 -0.00000000000E+00 -0.45593999997E+02  0.45594000000E+02  0.51100000000E-03 0. -1.
    9900012    2    1    2    0    0  0.17419877610E+02 -0.21240364081E+02 -0.35700254986E+02  0.46142318649E+02  0.10000008098E+02 0.  0.
        -12    1    1    2    0    0 -0.17419877610E+02  0.21240364081E+02  0.35700254986E+02  0.45045681351E+02  0.00000000000E+00 0.  1.
         11    1    3    3    0    0  0.95807593750E+01 -0.10730184584E+02 -0.26018580340E+02  0.29730360485E+02  0.51100000000E-03 0. -1.
        -11    1    3    3    0    0  0.46246724374E+01 -0.45933907499E+01 -0.47062082091E+01  0.80396038275E+01  0.51100000000E-03 0.  1.
         12    1    3    3    0    0  0.32144457979E+01 -0.59167887470E+01 -0.49754664373E+01  0.83723543364E+01  0.00000000000E+00 0. -1.
</event>
<event>
 7    1  0.1541705E-008  0.4614232E+02  0.7816164E-02  0.1320468E+00
        -11   -1    0    0    0    0  0.00000000000E+00  0.00000000000E+00  0.45593999997E+02  0.45594000000E+02  0.51100000000E-03 0.  1.
         11   -1    0    0    0    0 -0.00000000000E+00 -0.00000000000E+00 -0.45593999997E+02  0.45594000000E+02  0.51100000000E-03 0. -1.
    9900012    2    1    2    0    0  0.22533255922E+02  0.28706335973E+02 -0.26406668225E+02  0.46142317918E+02  0.10000001434E+02 0.  0.
        -12    1    1    2    0    0 -0.22533255922E+02 -0.28706335973E+02  0.26406668225E+02  0.45045682082E+02  0.00000000000E+00 0.  1.
         11    1    3    3    0    0  0.22354029518E+01  0.81045568603E+01 -0.68501368848E+01  0.10844595145E+02  0.51100000000E-03 0. -1.
        -11    1    3    3    0    0  0.12948453423E+02  0.96058198336E+01 -0.98659203735E+01  0.18901603260E+02  0.51100000000E-03 0.  1.
         12    1    3    3    0    0  0.73493995464E+01  0.10995959279E+02 -0.96906109670E+01  0.16396119513E+02  0.00000000000E+00 0. -1.
</event>
<event>
 7    1  0.1541705E-008  0.4614232E+02  0.7816164E-02  0.1320468E+00
        -11   -1    0    0    0    0  0.00000000000E+00  0.00000000000E+00  0.45593999997E+02  0.45594000000E+02  0.51100000000E-03 0.  1.
         11   -1    0    0    0    0 -0.00000000000E+00 -0.00000000000E+00 -0.45593999997E+02  0.45594000000E+02  0.51100000000E-03 0. -1.
    9900012    2    1    2    0    0  0.20612836312E+02  0.32936253525E+02 -0.22790954638E+02  0.46142318405E+02  0.10000005871E+02 0.  0.
        -12    1    1    2    0    0 -0.20612836312E+02 -0.32936253525E+02  0.22790954638E+02  0.45045681595E+02  0.00000000000E+00 0.  1.
         11    1    3    3    0    0  0.58489676640E+01  0.13504443530E+02 -0.10457235378E+02  0.18053647549E+02  0.51100000000E-03 0. -1.
        -11    1    3    3    0    0  0.37860729982E+00  0.11137652525E+00  0.62294657477E+00  0.73743536258E+00  0.51100000000E-03 0.  1.
         12    1    3    3    0    0  0.14385261348E+02  0.19320433469E+02 -0.12956665834E+02  0.27351235494E+02  0.00000000000E+00 0. -1.
</event>
<event>
 7    1  0.1541705E-008  0.4614232E+02  0.7816164E-02  0.1320468E+00
        -11   -1    0    0    0    0  0.00000000000E+00  0.00000000000E+00  0.45593999997E+02  0.45594000000E+02  0.51100000000E-03 0.  1.
         11   -1    0    0    0    0 -0.00000000000E+00 -0.00000000000E+00 -0.45593999997E+02  0.45594000000E+02  0.51100000000E-03 0. -1.
    9900012    2    1    2    0    0  0.88492760016E+01 -0.42364185656E+02 -0.12493180552E+02  0.46142317939E+02  0.10000001622E+02 0.  0.
        -12    1    1    2    0    0 -0.88492760016E+01  0.42364185656E+02  0.12493180552E+02  0.45045682061E+02  0.00000000000E+00 0.  1.
         11    1    3    3    0    0  0.92647269562E+00 -0.67830902481E+01  0.10643632195E+01  0.69283139575E+01  0.51100000000E-03 0. -1.
        -11    1    3    3    0    0  0.78895224084E+00 -0.14331502047E+02 -0.60340640887E+01  0.15569981575E+02  0.51100000000E-03 0.  1.
         12    1    3    3    0    0  0.71338510651E+01 -0.21249593361E+02 -0.75234796828E+01  0.23644022406E+02  0.00000000000E+00 0. -1.
</event>
<event>
 7    1  0.1541705E-008  0.4614232E+02  0.7816164E-02  0.1320468E+00
        -11   -1    0    0    0    0  0.00000000000E+00  0.00000000000E+00  0.45593999997E+02  0.45594000000E+02  0.51100000000E-03 0.  1.
         11   -1    0    0    0    0 -0.00000000000E+00 -0.00000000000E+00 -0.45593999997E+02  0.45594000000E+02  0.51100000000E-03 0. -1.
    9900012    2    1    2    0    0  0.25541806625E+02  0.28904628577E+02 -0.23264824576E+02  0.46142317617E+02  0.99999986818E+01 0.  0.
        -12    1    1    2    0    0 -0.25541806625E+02 -0.28904628577E+02  0.23264824576E+02  0.45045682383E+02  0.00000000000E+00 0.  1.
         11    1    3    3    0    0  0.17229589029E+02  0.17266088231E+02 -0.12771941113E+02  0.27533598039E+02  0.51100000000E-03 0. -1.
        -11    1    3    3    0    0  0.61554392290E+00  0.17168837713E-01 -0.24277724857E+01  0.25046493953E+01  0.51100000000E-03 0.  1.
         12    1    3    3    0    0  0.76966736726E+01  0.11621371508E+02 -0.80651109768E+01  0.16104070182E+02  0.00000000000E+00 0. -1.
</event>
<event>
 7    1  0.1541705E-008  0.4614232E+02  0.7816164E-02  0.1320468E+00
        -11   -1    0    0    0    0  0.00000000000E+00  0.00000000000E+00  0.45593999997E+02  0.45594000000E+02  0.51100000000E-03 0.  1.
         11   -1    0    0    0    0 -0.00000000000E+00 -0.00000000000E+00 -0.45593999997E+02  0.45594000000E+02  0.51100000000E-03 0. -1.
    9900012    2    1    2    0    0  0.38402082285E+02  0.10523848924E+02 -0.21062809991E+02  0.46142320021E+02  0.10000020610E+02 0.  0.
        -12    1    1    2    0    0 -0.38402082285E+02 -0.10523848924E+02  0.21062809991E+02  0.45045679979E+02  0.00000000000E+00 0.  1.
         11    1    3    3    0    0  0.11190682018E+02  0.48374493533E+01 -0.54291583642E+01  0.13345712461E+02  0.51100000000E-03 0. -1.
        -11    1    3    3    0    0  0.81547298247E+01  0.30606206230E+01 -0.88011327646E+01  0.12382526209E+02  0.51100000000E-03 0.  1.
        -12    1    3    3    0    0  0.19056670442E+02  0.26257789477E+01 -0.68325188620E+01  0.20414081352E+02  0.00000000000E+00 0.  1.
</event>
<event>
 7    1  0.1802566E-008  0.4614232E+02  0.7816164E-02  0.1320468E+00
        -11   -1    0    0    0    0  0.00000000000E+00  0.00000000000E+00  0.45593999997E+02  0.45594000000E+02  0.51100000000E-03 0. -1.
         11   -1    0    0    0    0 -0.00000000000E+00 -0.00000000000E+00 -0.45593999997E+02  0.45594000000E+02  0.51100000000E-03 0.  1.
    9900012    2    1    2    0    0 -0.25226525706E+02 -0.24636909920E+02  0.28031384897E+02  0.46142317978E+02  0.10000001978E+02 0.  0.
        -12    1    1    2    0    0  0.25226525706E+02  0.24636909920E+02 -0.28031384897E+02  0.45045682022E+02  0.00000000000E+00 0.  1.
         11    1    3    3    0    0 -0.15098702377E+02 -0.14624859736E+02  0.22068242879E+02  0.30477281372E+02  0.51100000000E-03 0. -1.
        -11    1    3    3    0    0 -0.36493578021E+01 -0.29864582097E+01  0.73726415111E+00  0.47728716404E+01  0.51100000000E-03 0.  1.
         12    1    3    3    0    0 -0.64784655264E+01 -0.70255919744E+01  0.52258778664E+01  0.10892164966E+02  0.00000000000E+00 0. -1.
</event>
<event>
 7    1  0.1541705E-008  0.4614232E+02  0.7816164E-02  0.1320468E+00
        -11   -1    0    0    0    0  0.00000000000E+00  0.00000000000E+00  0.45593999997E+02  0.45594000000E+02  0.51100000000E-03 0.  1.
         11   -1    0    0    0    0 -0.00000000000E+00 -0.00000000000E+00 -0.45593999997E+02  0.45594000000E+02  0.51100000000E-03 0. -1.
    9900012    2    1    2    0    0 -0.26810836228E+02  0.17403831376E+01 -0.36156100318E+02  0.46142318044E+02  0.10000002582E+02 0.  0.
        -12    1    1    2    0    0  0.26810836228E+02 -0.17403831376E+01  0.36156100318E+02  0.45045681956E+02  0.00000000000E+00 0.  1.
         11    1    3    3    0    0 -0.15743111789E+02  0.38174677039E+01 -0.23899775327E+02  0.28872441695E+02  0.51100000000E-03 0. -1.
        -11    1    3    3    0    0 -0.92076433098E+01 -0.30599243843E+01 -0.11471155157E+02  0.15024354677E+02  0.51100000000E-03 0.  1.
         12    1    3    3    0    0 -0.18600811291E+01  0.98283981805E+00 -0.78516983283E+00  0.22455216723E+01  0.00000000000E+00 0. -1.
</event>
<event>
 7    1  0.1541705E-008  0.4614232E+02  0.7816164E-02  0.1320468E+00
        -11   -1    0    0    0    0  0.00000000000E+00  0.00000000000E+00  0.45593999997E+02  0.45594000000E+02  0.51100000000E-03 0. -1.
         11   -1    0    0    0    0 -0.00000000000E+00 -0.00000000000E+00 -0.45593999997E+02  0.45594000000E+02  0.51100000000E-03 0.  1.
    9900012    2    1    2    0    0  0.12295613328E+02  0.42492835145E+02 -0.85023740261E+01  0.46142317523E+02  0.99999978281E+01 0.  0.
        -12    1    1    2    0    0 -0.12295613328E+02 -0.42492835145E+02  0.85023740261E+01  0.45045682477E+02  0.00000000000E+00 0.  1.
         11    1    3    3    0    0  0.50765358934E+01  0.22344078181E+02 -0.44735883710E+01  0.23346135432E+02  0.51100000000E-03 0. -1.
        -11    1    3    3    0    0  0.75333496843E+01  0.12432258827E+02 -0.39859732233E+01  0.15073168207E+02  0.51100000000E-03 0.  1.
        -12    1    3    3    0    0 -0.31427224983E+00  0.77164981372E+01 -0.42812431684E-01  0.77230138840E+01  0.00000000000E+00 0.  1.
</event>
<event>
 7    1  0.1541705E-008  0.4614232E+02  0.7816164E-02  0.1320468E+00
        -11   -1    0    0    0    0  0.00000000000E+00  0.00000000000E+00  0.45593999997E+02  0.45594000000E+02  0.51100000000E-03 0.  1.
         11   -1    0    0    0    0 -0.00000000000E+00 -0.00000000000E+00 -0.45593999997E+02  0.45594000000E+02  0.51100000000E-03 0. -1.
    9900012    2    1    2    0    0  0.29920809682E+02  0.51609363586E+01 -0.33274965133E+02  0.46142318512E+02  0.10000006846E+02 0.  0.
        -12    1    1    2    0    0 -0.29920809682E+02 -0.51609363586E+01  0.33274965133E+02  0.45045681488E+02  0.00000000000E+00 0.  1.
         11    1    3    3    0    0  0.25544814414E+02  0.90441386411E+00 -0.24673522816E+02  0.35526584923E+02  0.51100000000E-03 0. -1.
        -11    1    3    3    0    0  0.32789923859E+01  0.34827312910E+01 -0.58697402493E+01  0.75719917570E+01  0.51100000000E-03 0.  1.
         12    1    3    3    0    0  0.10970028814E+01  0.77379120348E+00 -0.27317020679E+01  0.30437418314E+01  0.00000000000E+00 0. -1.
</event>
<event>
 7    1  0.1541705E-008  0.4614232E+02  0.7816164E-02  0.1320468E+00
        -11   -1    0    0    0    0  0.00000000000E+00  0.00000000000E+00  0.45593999997E+02  0.45594000000E+02  0.51100000000E-03 0. -1.
         11   -1    0    0    0    0 -0.00000000000E+00 -0.00000000000E+00 -0.45593999997E+02  0.45594000000E+02  0.51100000000E-03 0.  1.
    9900012    2    1    2    0    0 -0.20861064520E+01 -0.39465388592E+02  0.21615848149E+02  0.46142316211E+02  0.99999858630E+01 0.  0.
        -12    1    1    2    0    0  0.20861064520E+01  0.39465388592E+02 -0.21615848149E+02  0.45045683789E+02  0.00000000000E+00 0.  1.
         11    1    3    3    0    0 -0.65345535288E+00 -0.57070869368E+01  0.35755548098E+01  0.67662720653E+01  0.51100000000E-03 0. -1.
        -11    1    3    3    0    0  0.34255579738E+01 -0.17038454471E+02  0.11163068538E+02  0.20655688747E+02  0.51100000000E-03 0.  1.
        -12    1    3    3    0    0 -0.48582090730E+01 -0.16719847185E+02  0.68772248008E+01  0.18720355398E+02  0.00000000000E+00 0.  1.
</event>
<event>
 7    1  0.1541705E-008  0.4614232E+02  0.7816164E-02  0.1320468E+00
        -11   -1    0    0    0    0  0.00000000000E+00  0.00000000000E+00  0.45593999997E+02  0.45594000000E+02  0.51100000000E-03 0. -1.
         11   -1    0    0    0    0 -0.00000000000E+00 -0.00000000000E+00 -0.45593999997E+02  0.45594000000E+02  0.51100000000E-03 0.  1.
    9900012    2    1    2    0    0  0.48636875350E+01 -0.10865951621E+00  0.44782204840E+02  0.46142321699E+02  0.10000035904E+02 0.  0.
        -12    1    1    2    0    0 -0.48636875350E+01  0.10865951621E+00 -0.44782204840E+02  0.45045678301E+02  0.00000000000E+00 0.  1.
         11    1    3    3    0    0 -0.10524102615E+01  0.10991336818E+01  0.11550144411E+02  0.11649957012E+02  0.51100000000E-03 0. -1.
        -11    1    3    3    0    0  0.25648474466E+01 -0.26510906199E+01  0.27152196941E+02  0.27401615333E+02  0.51100000000E-03 0.  1.
        -12    1    3    3    0    0  0.33512503498E+01  0.14432974219E+01  0.60798634876E+01  0.70907493527E+01  0.00000000000E+00 0.  1.
</event>
<event>
 7    1  0.1541705E-008  0.4614232E+02  0.7816164E-02  0.1320468E+00
        -11   -1    0    0    0    0  0.00000000000E+00  0.00000000000E+00  0.45593999997E+02  0.45594000000E+02  0.51100000000E-03 0.  1.
         11   -1    0    0    0    0 -0.00000000000E+00 -0.00000000000E+00 -0.45593999997E+02  0.45594000000E+02  0.51100000000E-03 0. -1.
    9900012    2    1    2    0    0 -0.19961495680E+02  0.54732525953E+01 -0.40008689207E+02  0.46142323007E+02  0.10000047832E+02 0.  0.
        -12    1    1    2    0    0  0.19961495680E+02 -0.54732525953E+01  0.40008689207E+02  0.45045676993E+02  0.00000000000E+00 0.  1.
         11    1    3    3    0    0 -0.84458992682E+01  0.41322344199E+01 -0.13198832032E+02  0.16205484967E+02  0.51100000000E-03 0. -1.
        -11    1    3    3    0    0 -0.11443050660E+01 -0.19441698080E+01 -0.67471125851E+01  0.71142644611E+01  0.51100000000E-03 0.  1.
         12    1    3    3    0    0 -0.10371291346E+02  0.32851879835E+01 -0.20062744589E+02  0.22822573578E+02  0.00000000000E+00 0. -1.
</event>
<event>
 7    1  0.1541705E-008  0.4614232E+02  0.7816164E-02  0.1320468E+00
        -11   -1    0    0    0    0  0.00000000000E+00  0.00000000000E+00  0.45593999997E+02  0.45594000000E+02  0.51100000000E-03 0. -1.
         11   -1    0    0    0    0 -0.00000000000E+00 -0.00000000000E+00 -0.45593999997E+02  0.45594000000E+02  0.51100000000E-03 0.  1.
    9900012    2    1    2    0    0  0.29887712442E+02 -0.33173621034E+02 -0.59455039027E+01  0.46142317585E+02  0.99999983973E+01 0.  0.
        -12    1    1    2    0    0 -0.29887712442E+02  0.33173621034E+02  0.59455039027E+01  0.45045682415E+02  0.00000000000E+00 0.  1.
         11    1    3    3    0    0  0.19070285943E+02 -0.18475759687E+02 -0.60929916311E+01  0.27242504460E+02  0.51100000000E-03 0. -1.
        -11    1    3    3    0    0  0.95434028851E+01 -0.14746070202E+02 -0.24271112842E+00  0.17566503180E+02  0.51100000000E-03 0.  1.
        -12    1    3    3    0    0  0.12740236140E+01  0.48208854722E-01  0.39019885687E+00  0.13333099455E+01  0.00000000000E+00 0.  1.
</event>
<event>
 7    1  0.1541705E-008  0.4614232E+02  0.7816164E-02  0.1320468E+00
        -11   -1    0    0    0    0  0.00000000000E+00  0.00000000000E+00  0.45593999997E+02  0.45594000000E+02  0.51100000000E-03 0. -1.
         11   -1    0    0    0    0 -0.00000000000E+00 -0.00000000000E+00 -0.45593999997E+02  0.45594000000E+02  0.51100000000E-03 0.  1.
    9900012    2    1    2    0    0 -0.17087365190E+02  0.23326482783E+02  0.34539985423E+02  0.46142318285E+02  0.10000004776E+02 0.  0.
        -12    1    1    2    0    0  0.17087365190E+02 -0.23326482783E+02 -0.34539985423E+02  0.45045681715E+02  0.00000000000E+00 0.  1.
         11    1    3    3    0    0 -0.57174147289E+01  0.49782916775E+01  0.66242156515E+01  0.10067395516E+02  0.51100000000E-03 0. -1.
        -11    1    3    3    0    0 -0.21892507713E+01  0.94227045917E+00  0.68253167685E+01  0.72294980330E+01  0.51100000000E-03 0.  1.
        -12    1    3    3    0    0 -0.91806996898E+01  0.17405920646E+02  0.21090453003E+02  0.28845424736E+02  0.00000000000E+00 0.  1.
</event>
<event>
 7    1  0.1541705E-008  0.4614232E+02  0.7816164E-02  0.1320468E+00
        -11   -1    0    0    0    0  0.00000000000E+00  0.00000000000E+00  0.45593999997E+02  0.45594000000E+02  0.51100000000E-03 0.  1.
         11   -1    0    0    0    0 -0.00000000000E+00 -0.00000000000E+00 -0.45593999997E+02  0.45594000000E+02  0.51100000000E-03 0. -1.
    9900012    2    1    2    0    0 -0.20511080069E+02  0.26521237131E+02 -0.30083764880E+02  0.46142319475E+02  0.10000015632E+02 0.  0.
        -12    1    1    2    0    0  0.20511080069E+02 -0.26521237131E+02  0.30083764880E+02  0.45045680525E+02  0.00000000000E+00 0.  1.
         11    1    3    3    0    0 -0.12031267064E+02  0.17428197020E+02 -0.18436701093E+02  0.28078557406E+02  0.51100000000E-03 0. -1.
        -11    1    3    3    0    0 -0.64507225442E+01  0.27268236219E+01 -0.47588659801E+01  0.84672424133E+01  0.51100000000E-03 0.  1.
        -12    1    3    3    0    0 -0.20290904608E+01  0.63662164897E+01 -0.68881978066E+01  0.95965196563E+01  0.00000000000E+00 0.  1.
</event>
<event>
 7    1  0.1541705E-008  0.4614232E+02  0.7816164E-02  0.1320468E+00
        -11   -1    0    0    0    0  0.00000000000E+00  0.00000000000E+00  0.45593999997E+02  0.45594000000E+02  0.51100000000E-03 0.  1.
         11   -1    0    0    0    0 -0.00000000000E+00 -0.00000000000E+00 -0.45593999997E+02  0.45594000000E+02  0.51100000000E-03 0. -1.
    9900012    2    1    2    0    0  0.23730754112E+02 -0.28200178637E+02 -0.25898156273E+02  0.46142320249E+02  0.10000022691E+02 0.  0.
        -12    1    1    2    0    0 -0.23730754112E+02  0.28200178637E+02  0.25898156273E+02  0.45045679751E+02  0.00000000000E+00 0.  1.
         11    1    3    3    0    0  0.10132296963E+02 -0.89197204429E+01 -0.48623011601E+01  0.14348060056E+02  0.51100000000E-03 0. -1.
        -11    1    3    3    0    0  0.90159677424E+01 -0.10139171372E+02 -0.12976438249E+02  0.18774408655E+02  0.51100000000E-03 0.  1.
         12    1    3    3    0    0  0.45824894063E+01 -0.91412868218E+01 -0.80594168633E+01  0.13019851539E+02  0.00000000000E+00 0. -1.
</event>
<event>
 7    1  0.1541705E-008  0.4614232E+02  0.7816164E-02  0.1320468E+00
        -11   -1    0    0    0    0  0.00000000000E+00  0.00000000000E+00  0.45593999997E+02  0.45594000000E+02  0.51100000000E-03 0.  1.
         11   -1    0    0    0    0 -0.00000000000E+00 -0.00000000000E+00 -0.45593999997E+02  0.45594000000E+02  0.51100000000E-03 0. -1.
    9900012    2    1    2    0    0 -0.27682603581E+02  0.29633927330E+02 -0.19611665272E+02  0.46142316469E+02  0.99999882147E+01 0.  0.
        -12    1    1    2    0    0  0.27682603581E+02 -0.29633927330E+02  0.19611665272E+02  0.45045683531E+02  0.00000000000E+00 0.  1.
         11    1    3    3    0    0 -0.14091772318E+02  0.17730463552E+02 -0.64770712606E+01  0.23556312046E+02  0.51100000000E-03 0. -1.
        -11    1    3    3    0    0 -0.57330309970E+01  0.35962411151E+01 -0.34248412175E+01  0.75848620421E+01  0.51100000000E-03 0.  1.
         12    1    3    3    0    0 -0.78578002662E+01  0.83072226628E+01 -0.97097527943E+01  0.15001142380E+02  0.00000000000E+00 0. -1.
</event>
<event>
 7    1  0.1541705E-008  0.4614232E+02  0.7816164E-02  0.1320468E+00
        -11   -1    0    0    0    0  0.00000000000E+00  0.00000000000E+00  0.45593999997E+02  0.45594000000E+02  0.51100000000E-03 0.  1.
         11   -1    0    0    0    0 -0.00000000000E+00 -0.00000000000E+00 -0.45593999997E+02  0.45594000000E+02  0.51100000000E-03 0. -1.
    9900012    2    1    2    0    0 -0.14251696714E+02 -0.11257654143E+02 -0.41222177075E+02  0.46142317423E+02  0.99999969208E+01 0.  0.
        -12    1    1    2    0    0  0.14251696714E+02  0.11257654143E+02  0.41222177075E+02  0.45045682577E+02  0.00000000000E+00 0.  1.
         11    1    3    3    0    0 -0.47121505167E+01 -0.12763059024E+01 -0.12702607828E+02  0.13608437278E+02  0.51100000000E-03 0. -1.
        -11    1    3    3    0    0 -0.95702578017E+01 -0.10554380364E+02 -0.28602114521E+02  0.31954119212E+02  0.51100000000E-03 0.  1.
        -12    1    3    3    0    0  0.30711604533E-01  0.57303212409E+00  0.82545274664E-01  0.57976093371E+00  0.00000000000E+00 0.  1.
</event>
<event>
 7    1  0.1541705E-008  0.4614232E+02  0.7816164E-02  0.1320468E+00
        -11   -1    0    0    0    0  0.00000000000E+00  0.00000000000E+00  0.45593999997E+02  0.45594000000E+02  0.51100000000E-03 0. -1.
         11   -1    0    0    0    0 -0.00000000000E+00 -0.00000000000E+00 -0.45593999997E+02  0.45594000000E+02  0.51100000000E-03 0.  1.
    9900012    2    1    2    0    0  0.23643006131E+01 -0.35539789477E+02  0.27576201775E+02  0.46142318100E+02  0.10000003093E+02 0.  0.
        -12    1    1    2    0    0 -0.23643006131E+01  0.35539789477E+02 -0.27576201775E+02  0.45045681900E+02  0.00000000000E+00 0.  1.
         11    1    3    3    0    0  0.22269302414E+01 -0.27912985657E+02  0.16549442550E+02  0.32526574298E+02  0.51100000000E-03 0. -1.
        -11    1    3    3    0    0  0.30935705474E+00 -0.24318578468E+01  0.55384509351E+01  0.60567378510E+01  0.51100000000E-03 0.  1.
        -12    1    3    3    0    0 -0.17198668313E+00 -0.51949459737E+01  0.54883082900E+01  0.75590059515E+01  0.00000000000E+00 0.  1.
</event>
<event>
 7    1  0.1541705E-008  0.4614233E+02  0.7816164E-02  0.1320468E+00
        -11   -1    0    0    0    0  0.00000000000E+00  0.00000000000E+00  0.45593999997E+02  0.45594000000E+02  0.51100000000E-03 0.  1.
         11   -1    0    0    0    0 -0.00000000000E+00 -0.00000000000E+00 -0.45593999997E+02  0.45594000000E+02  0.51100000000E-03 0. -1.
    9900012    2    1    2    0    0 -0.28287066114E+02 -0.16365378004E+02 -0.31002079622E+02  0.46142327095E+02  0.10000085111E+02 0.  0.
        -12    1    1    2    0    0  0.28287066114E+02  0.16365378004E+02  0.31002079622E+02  0.45045672905E+02  0.00000000000E+00 0.  1.
         11    1    3    3    0    0 -0.20612371672E+02 -0.10616954730E+02 -0.20725952603E+02  0.31099111004E+02  0.51100000000E-03 0. -1.
        -11    1    3    3    0    0 -0.46785724365E+01 -0.14533007645E+01 -0.78925132327E+01  0.92893965652E+01  0.51100000000E-03 0.  1.
        -12    1    3    3    0    0 -0.29961220058E+01 -0.42951225096E+01 -0.23836137867E+01  0.57538195254E+01  0.00000000000E+00 0.  1.
</event>
<event>
 7    1  0.1541705E-008  0.4614232E+02  0.7816164E-02  0.1320468E+00
        -11   -1    0    0    0    0  0.00000000000E+00  0.00000000000E+00  0.45593999997E+02  0.45594000000E+02  0.51100000000E-03 0.  1.
         11   -1    0    0    0    0 -0.00000000000E+00 -0.00000000000E+00 -0.45593999997E+02  0.45594000000E+02  0.51100000000E-03 0. -1.
    9900012    2    1    2    0    0  0.18086320493E+02  0.11023375637E+02 -0.39755298357E+02  0.46142317112E+02  0.99999940807E+01 0.  0.
        -12    1    1    2    0    0 -0.18086320493E+02 -0.11023375637E+02  0.39755298357E+02  0.45045682888E+02  0.00000000000E+00 0.  1.
         11    1    3    3    0    0  0.15680532488E+02  0.10970484842E+02 -0.35084915816E+02  0.39964758911E+02  0.51100000000E-03 0. -1.
        -11    1    3    3    0    0 -0.67441438671E+00 -0.13902348382E+00 -0.15098897183E+00  0.70495405864E+00  0.51100000000E-03 0.  1.
        -12    1    3    3    0    0  0.30802023913E+01  0.19191427934E+00 -0.45193935690E+01  0.54726041419E+01  0.00000000000E+00 0.  1.
</event>
<event>
 7    1  0.1541705E-008  0.4614232E+02  0.7816164E-02  0.1320468E+00
        -11   -1    0    0    0    0  0.00000000000E+00  0.00000000000E+00  0.45593999997E+02  0.45594000000E+02  0.51100000000E-03 0.  1.
         11   -1    0    0    0    0 -0.00000000000E+00 -0.00000000000E+00 -0.45593999997E+02  0.45594000000E+02  0.51100000000E-03 0. -1.
    9900012    2    1    2    0    0  0.44018348899E+02  0.46384253515E+01 -0.83656099113E+01  0.46142318090E+02  0.10000003000E+02 0.  0.
        -12    1    1    2    0    0 -0.44018348899E+02 -0.46384253515E+01  0.83656099113E+01  0.45045681910E+02  0.00000000000E+00 0.  1.
         11    1    3    3    0    0  0.13764448961E+02  0.27165069992E+01 -0.63303774593E+01  0.15391983125E+02  0.51100000000E-03 0. -1.
        -11    1    3    3    0    0  0.46477968268E+01 -0.14182175765E+01 -0.25706089145E+00  0.48661521760E+01  0.51100000000E-03 0.  1.
         12    1    3    3    0    0  0.25606103111E+02  0.33401359288E+01 -0.17781715605E+01  0.25884182789E+02  0.00000000000E+00 0. -1.
</event>
<event>
 7    1  0.1541705E-008  0.4614232E+02  0.7816164E-02  0.1320468E+00
        -11   -1    0    0    0    0  0.00000000000E+00  0.00000000000E+00  0.45593999997E+02  0.45594000000E+02  0.51100000000E-03 0.  1.
         11   -1    0    0    0    0 -0.00000000000E+00 -0.00000000000E+00 -0.45593999997E+02  0.45594000000E+02  0.51100000000E-03 0. -1.
    9900012    2    1    2    0    0 -0.40343883131E+02 -0.18894120891E+02 -0.66705895112E+01  0.46142317912E+02  0.10000001377E+02 0.  0.
        -12    1    1    2    0    0  0.40343883131E+02  0.18894120891E+02  0.66705895112E+01  0.45045682088E+02  0.00000000000E+00 0.  1.
         11    1    3    3    0    0 -0.18008824680E+02 -0.50654590683E+01 -0.46519911782E+01  0.19277387378E+02  0.51100000000E-03 0. -1.
        -11    1    3    3    0    0 -0.58220719064E+01 -0.64868518610E+01 -0.76712940056E+00  0.87501003497E+01  0.51100000000E-03 0.  1.
        -12    1    3    3    0    0 -0.16512986544E+02 -0.73418099617E+01 -0.12514689325E+01  0.18114830185E+02  0.00000000000E+00 0.  1.
</event>
<event>
 7    1  0.1541705E-008  0.4614232E+02  0.7816164E-02  0.1320468E+00
        -11   -1    0    0    0    0  0.00000000000E+00  0.00000000000E+00  0.45593999997E+02  0.45594000000E+02  0.51100000000E-03 0.  1.
         11   -1    0    0    0    0 -0.00000000000E+00 -0.00000000000E+00 -0.45593999997E+02  0.45594000000E+02  0.51100000000E-03 0. -1.
    9900012    2    1    2    0    0 -0.12300537544E+02  0.37342939893E+02 -0.21984427558E+02  0.46142318311E+02  0.10000005019E+02 0.  0.
        -12    1    1    2    0    0  0.12300537544E+02 -0.37342939893E+02  0.21984427558E+02  0.45045681689E+02  0.00000000000E+00 0.  1.
         11    1    3    3    0    0 -0.51348162274E+01  0.84555821965E+01 -0.65985364669E+01  0.11891336836E+02  0.51100000000E-03 0. -1.
        -11    1    3    3    0    0 -0.79459611685E+01  0.18123308470E+02 -0.93654459733E+01  0.21893016862E+02  0.51100000000E-03 0.  1.
         12    1    3    3    0    0  0.78023985151E+00  0.10764049227E+02 -0.60204451174E+01  0.12357964614E+02  0.00000000000E+00 0. -1.
</event>
<event>
 7    1  0.1541705E-008  0.4614232E+02  0.7816164E-02  0.1320468E+00
        -11   -1    0    0    0    0  0.00000000000E+00  0.00000000000E+00  0.45593999997E+02  0.45594000000E+02  0.51100000000E-03 0.  1.
         11   -1    0    0    0    0 -0.00000000000E+00 -0.00000000000E+00 -0.45593999997E+02  0.45594000000E+02  0.51100000000E-03 0. -1.
    9900012    2    1    2    0    0  0.33104425309E+02 -0.13051030371E+01 -0.30520606725E+02  0.46142315370E+02  0.99999781930E+01 0.  0.
        -12    1    1    2    0    0 -0.33104425309E+02  0.13051030371E+01  0.30520606725E+02  0.45045684630E+02  0.00000000000E+00 0.  1.
         11    1    3    3    0    0  0.20207559449E+02 -0.18549196049E+01 -0.19659183910E+02  0.28253666982E+02  0.51100000000E-03 0. -1.
        -11    1    3    3    0    0  0.49020583303E+00  0.84734532789E-02 -0.33277812992E+01  0.33637036425E+01  0.51100000000E-03 0.  1.
         12    1    3    3    0    0  0.12406660026E+02  0.54134311451E+00 -0.75336415159E+01  0.14524944746E+02  0.00000000000E+00 0. -1.
</event>
<event>
 7    1  0.1541705E-008  0.4614232E+02  0.7816164E-02  0.1320468E+00
        -11   -1    0    0    0    0  0.00000000000E+00  0.00000000000E+00  0.45593999997E+02  0.45594000000E+02  0.51100000000E-03 0.  1.
         11   -1    0    0    0    0 -0.00000000000E+00 -0.00000000000E+00 -0.45593999997E+02  0.45594000000E+02  0.51100000000E-03 0. -1.
    9900012    2    1    2    0    0  0.43655064488E+02  0.14099234092E+01 -0.11016398717E+02  0.46142316743E+02  0.99999907116E+01 0.  0.
        -12    1    1    2    0    0 -0.43655064488E+02 -0.14099234092E+01  0.11016398717E+02  0.45045683257E+02  0.00000000000E+00 0.  1.
         11    1    3    3    0    0  0.36755748452E+02  0.29885697263E+01 -0.89970748455E+01  0.37958713747E+02  0.51100000000E-03 0. -1.
        -11    1    3    3    0    0  0.66089274063E+00 -0.64283310925E+00  0.84951876340E+00  0.12536730082E+01  0.51100000000E-03 0.  1.
         12    1    3    3    0    0  0.62384232948E+01 -0.93581320784E+00 -0.28688426348E+01  0.69299299872E+01  0.00000000000E+00 0. -1.
</event>
<event>
 7    1  0.1541705E-008  0.4614232E+02  0.7816164E-02  0.1320468E+00
        -11   -1    0    0    0    0  0.00000000000E+00  0.00000000000E+00  0.45593999997E+02  0.45594000000E+02  0.51100000000E-03 0.  1.
         11   -1    0    0    0    0 -0.00000000000E+00 -0.00000000000E+00 -0.45593999997E+02  0.45594000000E+02  0.51100000000E-03 0. -1.
    9900012    2    1    2    0    0  0.44962977863E+02 -0.20621781474E+01  0.17864975317E+01  0.46142317294E+02  0.99999957360E+01 0.  0.
        -12    1    1    2    0    0 -0.44962977863E+02  0.20621781474E+01 -0.17864975317E+01  0.45045682706E+02  0.00000000000E+00 0.  1.
         11    1    3    3    0    0  0.34779152699E+02 -0.17062581556E+01 -0.14244986193E+01  0.34850107259E+02  0.51100000000E-03 0. -1.
        -11    1    3    3    0    0  0.10075115849E+02 -0.95958266843E+00  0.33547292997E+01  0.10662221495E+02  0.51100000000E-03 0.  1.
        -12    1    3    3    0    0  0.10870931520E+00  0.60366267666E+00 -0.14373314870E+00  0.62998853993E+00  0.00000000000E+00 0.  1.
</event>
<event>
 7    1  0.1541705E-008  0.4614232E+02  0.7816164E-02  0.1320468E+00
        -11   -1    0    0    0    0  0.00000000000E+00  0.00000000000E+00  0.45593999997E+02  0.45594000000E+02  0.51100000000E-03 0. -1.
         11   -1    0    0    0    0 -0.00000000000E+00 -0.00000000000E+00 -0.45593999997E+02  0.45594000000E+02  0.51100000000E-03 0.  1.
    9900012    2    1    2    0    0  0.36275072842E+02 -0.50827166028E+01  0.26218286594E+02  0.46142317968E+02  0.10000001888E+02 0.  0.
        -12    1    1    2    0    0 -0.36275072842E+02  0.50827166028E+01 -0.26218286594E+02  0.45045682032E+02  0.00000000000E+00 0.  1.
         11    1    3    3    0    0  0.35182790008E+02 -0.39993592342E+01  0.23365442562E+02  0.42423666666E+02  0.51100000000E-03 0. -1.
        -11    1    3    3    0    0 -0.37779809312E+00  0.70683529974E-01  0.11034633464E+00  0.39988015112E+00  0.51100000000E-03 0.  1.
         12    1    3    3    0    0  0.14700809270E+01 -0.11540408987E+01  0.27424976977E+01  0.33187711505E+01  0.00000000000E+00 0. -1.
</event>
<event>
 7    1  0.1541705E-008  0.4614232E+02  0.7816164E-02  0.1320468E+00
        -11   -1    0    0    0    0  0.00000000000E+00  0.00000000000E+00  0.45593999997E+02  0.45594000000E+02  0.51100000000E-03 0. -1.
         11   -1    0    0    0    0 -0.00000000000E+00 -0.00000000000E+00 -0.45593999997E+02  0.45594000000E+02  0.51100000000E-03 0.  1.
    9900012    2    1    2    0    0  0.94324821276E+01  0.16972655088E+02  0.40645673567E+02  0.46142317415E+02  0.99999968473E+01 0.  0.
        -12    1    1    2    0    0 -0.94324821276E+01 -0.16972655088E+02 -0.40645673567E+02  0.45045682585E+02  0.00000000000E+00 0.  1.
         11    1    3    3    0    0  0.54823532734E+01  0.22973808039E+01  0.13532717894E+02  0.14780683673E+02  0.51100000000E-03 0. -1.
        -11    1    3    3    0    0  0.12184023098E+01  0.87412904391E+01  0.18966601494E+02  0.20919527605E+02  0.51100000000E-03 0.  1.
        -12    1    3    3    0    0  0.27317265444E+01  0.59339838445E+01  0.81463541792E+01  0.10442106138E+02  0.00000000000E+00 0.  1.
</event>
<event>
 7    1  0.1541705E-008  0.4614232E+02  0.7816164E-02  0.1320468E+00
        -11   -1    0    0    0    0  0.00000000000E+00  0.00000000000E+00  0.45593999997E+02  0.45594000000E+02  0.51100000000E-03 0. -1.
         11   -1    0    0    0    0 -0.00000000000E+00 -0.00000000000E+00 -0.45593999997E+02  0.45594000000E+02  0.51100000000E-03 0.  1.
    9900012    2    1    2    0    0  0.41453001189E+02  0.14898863401E+02  0.94226388770E+01  0.46142316948E+02  0.99999925829E+01 0.  0.
        -12    1    1    2    0    0 -0.41453001189E+02 -0.14898863401E+02 -0.94226388770E+01  0.45045683052E+02  0.00000000000E+00 0.  1.
         11    1    3    3    0    0  0.87911241537E+01  0.38531913735E+01  0.34868002515E+01  0.10212185070E+02  0.51100000000E-03 0. -1.
        -11    1    3    3    0    0  0.61405546789E+01 -0.59440370019E+00 -0.72232603957E+00  0.62113994149E+01  0.51100000000E-03 0.  1.
        -12    1    3    3    0    0  0.26521322357E+02  0.11640075728E+02  0.66581646650E+01  0.29718732463E+02  0.00000000000E+00 0.  1.
</event>
<event>
 7    1  0.1541705E-008  0.4614232E+02  0.7816164E-02  0.1320468E+00
        -11   -1    0    0    0    0  0.00000000000E+00  0.00000000000E+00  0.45593999997E+02  0.45594000000E+02  0.51100000000E-03 0.  1.
         11   -1    0    0    0    0 -0.00000000000E+00 -0.00000000000E+00 -0.45593999997E+02  0.45594000000E+02  0.51100000000E-03 0. -1.
    9900012    2    1    2    0    0 -0.17372266595E+02 -0.10397331722E+02 -0.40239451722E+02  0.46142316206E+02  0.99999858235E+01 0.  0.
        -12    1    1    2    0    0  0.17372266595E+02  0.10397331722E+02  0.40239451722E+02  0.45045683794E+02  0.00000000000E+00 0.  1.
         11    1    3    3    0    0 -0.18166399158E+02 -0.92816572657E+01 -0.35691328554E+02  0.41110073634E+02  0.51100000000E-03 0. -1.
        -11    1    3    3    0    0  0.96493852557E+00 -0.51216473625E+00 -0.11873790098E+01  0.16134708703E+01  0.51100000000E-03 0.  1.
         12    1    3    3    0    0 -0.17080596232E+00 -0.60350971974E+00 -0.33607441581E+01  0.34187717027E+01  0.00000000000E+00 0. -1.
</event>
<event>
 7    1  0.1541705E-008  0.4614232E+02  0.7816164E-02  0.1320468E+00
        -11   -1    0    0    0    0  0.00000000000E+00  0.00000000000E+00  0.45593999997E+02  0.45594000000E+02  0.51100000000E-03 0.  1.
         11   -1    0    0    0    0 -0.00000000000E+00 -0.00000000000E+00 -0.45593999997E+02  0.45594000000E+02  0.51100000000E-03 0. -1.
    9900012    2    1    2    0    0 -0.39767086942E+02 -0.21158718845E+02 -0.29113061577E-01  0.46142318358E+02  0.10000005442E+02 0.  0.
        -12    1    1    2    0    0  0.39767086942E+02  0.21158718845E+02  0.29113061577E-01  0.45045681642E+02  0.00000000000E+00 0.  1.
         11    1    3    3    0    0 -0.16826840574E+02 -0.81264424336E+01  0.46597370721E+01  0.19258628720E+02  0.51100000000E-03 0. -1.
        -11    1    3    3    0    0 -0.21098481533E+02 -0.12611610631E+02 -0.44387211371E+01  0.24978008153E+02  0.51100000000E-03 0.  1.
        -12    1    3    3    0    0 -0.18417648353E+01 -0.42066578056E+00 -0.25012899657E+00  0.19056814851E+01  0.00000000000E+00 0.  1.
</event>
<event>
 7    1  0.1541705E-008  0.4614232E+02  0.7816164E-02  0.1320468E+00
        -11   -1    0    0    0    0  0.00000000000E+00  0.00000000000E+00  0.45593999997E+02  0.45594000000E+02  0.51100000000E-03 0.  1.
         11   -1    0    0    0    0 -0.00000000000E+00 -0.00000000000E+00 -0.45593999997E+02  0.45594000000E+02  0.51100000000E-03 0. -1.
    9900012    2    1    2    0    0  0.11317728318E+02 -0.38773423513E+02 -0.19941018790E+02  0.46142316793E+02  0.99999911710E+01 0.  0.
        -12    1    1    2    0    0 -0.11317728318E+02  0.38773423513E+02  0.19941018790E+02  0.45045683207E+02  0.00000000000E+00 0.  1.
         11    1    3    3    0    0  0.51949433662E+00 -0.65646268937E+01 -0.63351978326E+01  0.91377750278E+01  0.51100000000E-03 0. -1.
        -11    1    3    3    0    0  0.29270693557E+01 -0.31320537287E+01 -0.15549349723E+01  0.45601884393E+01  0.51100000000E-03 0.  1.
        -12    1    3    3    0    0  0.78711646252E+01 -0.29076742891E+02 -0.12050885985E+02  0.32444353326E+02  0.00000000000E+00 0.  1.
</event>
<event>
 7    1  0.1541705E-008  0.4614232E+02  0.7816164E-02  0.1320468E+00
        -11   -1    0    0    0    0  0.00000000000E+00  0.00000000000E+00  0.45593999997E+02  0.45594000000E+02  0.51100000000E-03 0. -1.
         11   -1    0    0    0    0 -0.00000000000E+00 -0.00000000000E+00 -0.45593999997E+02  0.45594000000E+02  0.51100000000E-03 0.  1.
    9900012    2    1    2    0    0 -0.42946408151E+02  0.13013826327E+02  0.39191170246E+01  0.46142321773E+02  0.10000036581E+02 0.  0.
        -12    1    1    2    0    0  0.42946408151E+02 -0.13013826327E+02 -0.39191170246E+01  0.45045678227E+02  0.00000000000E+00 0.  1.
         11    1    3    3    0    0 -0.13509489955E+02  0.18306081741E+01 -0.23276739335E+01  0.13830239020E+02  0.51100000000E-03 0. -1.
        -11    1    3    3    0    0 -0.54449364078E+01  0.23007007707E+01  0.26467201343E+01  0.64765487917E+01  0.51100000000E-03 0.  1.
         12    1    3    3    0    0 -0.23991981787E+02  0.88825173818E+01  0.36000708238E+01  0.25835533961E+02  0.00000000000E+00 0. -1.
</event>
<event>
 7    1  0.1541705E-008  0.4614232E+02  0.7816164E-02  0.1320468E+00
        -11   -1    0    0    0    0  0.00000000000E+00  0.00000000000E+00  0.45593999997E+02  0.45594000000E+02  0.51100000000E-03 0.  1.
         11   -1    0    0    0    0 -0.00000000000E+00 -0.00000000000E+00 -0.45593999997E+02  0.45594000000E+02  0.51100000000E-03 0. -1.
    9900012    2    1    2    0    0  0.21334870928E+02 -0.37595724206E+01 -0.39494332618E+02  0.46142318617E+02  0.10000007803E+02 0.  0.
        -12    1    1    2    0    0 -0.21334870928E+02  0.37595724206E+01  0.39494332618E+02  0.45045681383E+02  0.00000000000E+00 0.  1.
         11    1    3    3    0    0  0.16224289984E+02 -0.23923776742E+01 -0.19851245903E+02  0.25749233398E+02  0.51100000000E-03 0. -1.
        -11    1    3    3    0    0  0.45155555560E+01 -0.16639866932E+01 -0.17447992470E+02  0.18099489915E+02  0.51100000000E-03 0.  1.
         12    1    3    3    0    0  0.59502538836E+00  0.29679194677E+00 -0.21950942448E+01  0.22935953034E+01  0.00000000000E+00 0. -1.
</event>
<event>
 7    1  0.1541705E-008  0.4614232E+02  0.7816164E-02  0.1320468E+00
        -11   -1    0    0    0    0  0.00000000000E+00  0.00000000000E+00  0.45593999997E+02  0.45594000000E+02  0.51100000000E-03 0. -1.
         11   -1    0    0    0    0 -0.00000000000E+00 -0.00000000000E+00 -0.45593999997E+02  0.45594000000E+02  0.51100000000E-03 0.  1.
    9900012    2    1    2    0    0 -0.28894969478E+02  0.55152317906E+01  0.34114165040E+02  0.46142319861E+02  0.10000019149E+02 0.  0.
        -12    1    1    2    0    0  0.28894969478E+02 -0.55152317906E+01 -0.34114165040E+02  0.45045680139E+02  0.00000000000E+00 0.  1.
         11    1    3    3    0    0 -0.11184650348E+02  0.50679274697E+01  0.15408721519E+02  0.19703019853E+02  0.51100000000E-03 0. -1.
        -11    1    3    3    0    0 -0.36773754478E+01  0.41621523642E+00  0.97429112732E+00  0.38269529353E+01  0.51100000000E-03 0.  1.
         12    1    3    3    0    0 -0.14032943682E+02  0.31089084440E-01  0.17731152394E+02  0.22612347072E+02  0.00000000000E+00 0. -1.
</event>
<event>
 7    1  0.1541705E-008  0.4614232E+02  0.7816164E-02  0.1320468E+00
        -11   -1    0    0    0    0  0.00000000000E+00  0.00000000000E+00  0.45593999997E+02  0.45594000000E+02  0.51100000000E-03 0. -1.
         11   -1    0    0    0    0 -0.00000000000E+00 -0.00000000000E+00 -0.45593999997E+02  0.45594000000E+02  0.51100000000E-03 0.  1.
    9900012    2    1    2    0    0 -0.58288463965E+01 -0.38619152599E+02  0.22443243255E+02  0.46142316904E+02  0.99999921830E+01 0.  0.
        -12    1    1    2    0    0  0.58288463965E+01  0.38619152599E+02 -0.22443243255E+02  0.45045683096E+02  0.00000000000E+00 0.  1.
         11    1    3    3    0    0 -0.96580349358E+00 -0.14951254855E+02  0.76744930440E+01  0.16833616423E+02  0.51100000000E-03 0. -1.
        -11    1    3    3    0    0 -0.61611212575E+01 -0.21143173118E+02  0.14682969700E+02  0.26468524404E+02  0.51100000000E-03 0.  1.
        -12    1    3    3    0    0  0.12980783547E+01 -0.25247246261E+01  0.85780510922E-01  0.28401760770E+01  0.00000000000E+00 0.  1.
</event>
<event>
 7    1  0.1541705E-008  0.4614232E+02  0.7816164E-02  0.1320468E+00
        -11   -1    0    0    0    0  0.00000000000E+00  0.00000000000E+00  0.45593999997E+02  0.45594000000E+02  0.51100000000E-03 0.  1.
         11   -1    0    0    0    0 -0.00000000000E+00 -0.00000000000E+00 -0.45593999997E+02  0.45594000000E+02  0.51100000000E-03 0. -1.
    9900012    2    1    2    0    0 -0.20154116832E+02 -0.16738161854E+02 -0.36643675559E+02  0.46142318232E+02  0.10000004291E+02 0.  0.
        -12    1    1    2    0    0  0.20154116832E+02  0.16738161854E+02  0.36643675559E+02  0.45045681768E+02  0.00000000000E+00 0.  1.
         11    1    3    3    0    0 -0.53468129651E+01 -0.50624683966E+01 -0.12594474863E+02  0.14588961323E+02  0.51100000000E-03 0. -1.
        -11    1    3    3    0    0 -0.25412185691E+01 -0.13748116891E+01 -0.94462256322E+01  0.98782122852E+01  0.51100000000E-03 0.  1.
        -12    1    3    3    0    0 -0.12266085297E+02 -0.10300881768E+02 -0.14602975063E+02  0.21675144623E+02  0.00000000000E+00 0.  1.
</event>
<event>
 7    1  0.1541705E-008  0.4614232E+02  0.7816164E-02  0.1320468E+00
        -11   -1    0    0    0    0  0.00000000000E+00  0.00000000000E+00  0.45593999997E+02  0.45594000000E+02  0.51100000000E-03 0. -1.
         11   -1    0    0    0    0 -0.00000000000E+00 -0.00000000000E+00 -0.45593999997E+02  0.45594000000E+02  0.51100000000E-03 0.  1.
    9900012    2    1    2    0    0  0.26836483037E+02  0.30815288540E+02  0.18956124040E+02  0.46142317985E+02  0.10000002041E+02 0.  0.
        -12    1    1    2    0    0 -0.26836483037E+02 -0.30815288540E+02 -0.18956124040E+02  0.45045682015E+02  0.00000000000E+00 0.  1.
         11    1    3    3    0    0  0.49629860207E+01  0.11875380862E+02  0.78431897058E+01  0.15072210385E+02  0.51100000000E-03 0. -1.
        -11    1    3    3    0    0  0.11026534899E+02  0.88900628034E+01  0.44084193801E+01  0.14834144742E+02  0.51100000000E-03 0.  1.
         12    1    3    3    0    0  0.10846962117E+02  0.10049844874E+02  0.67045149543E+01  0.16235962858E+02  0.00000000000E+00 0. -1.
</event>
<event>
 7    1  0.1541705E-008  0.4614232E+02  0.7816164E-02  0.1320468E+00
        -11   -1    0    0    0    0  0.00000000000E+00  0.00000000000E+00  0.45593999997E+02  0.45594000000E+02  0.51100000000E-03 0.  1.
         11   -1    0    0    0    0 -0.00000000000E+00 -0.00000000000E+00 -0.45593999997E+02  0.45594000000E+02  0.51100000000E-03 0. -1.
    9900012    2    1    2    0    0 -0.18231697571E+02  0.13121076871E+02 -0.39045563257E+02  0.46142318024E+02  0.10000002401E+02 0.  0.
        -12    1    1    2    0    0  0.18231697571E+02 -0.13121076871E+02  0.39045563257E+02  0.45045681976E+02  0.00000000000E+00 0.  1.
         11    1    3    3    0    0 -0.13374409269E+02  0.51626630953E+01 -0.21971433508E+02  0.26234934805E+02  0.51100000000E-03 0. -1.
        -11    1    3    3    0    0 -0.46398624386E+01  0.76920475052E+01 -0.12902768910E+02  0.15721875336E+02  0.51100000000E-03 0.  1.
        -12    1    3    3    0    0 -0.21742586274E+00  0.26636627065E+00 -0.41713608395E+01  0.41855078843E+01  0.00000000000E+00 0.  1.
</event>
<event>
 7    1  0.1541705E-008  0.4614233E+02  0.7816164E-02  0.1320468E+00
        -11   -1    0    0    0    0  0.00000000000E+00  0.00000000000E+00  0.45593999997E+02  0.45594000000E+02  0.51100000000E-03 0.  1.
         11   -1    0    0    0    0 -0.00000000000E+00 -0.00000000000E+00 -0.45593999997E+02  0.45594000000E+02  0.51100000000E-03 0. -1.
    9900012    2    1    2    0    0  0.17393166517E+02 -0.33505400481E+02 -0.24575973960E+02  0.46142327634E+02  0.10000090029E+02 0.  0.
        -12    1    1    2    0    0 -0.17393166517E+02  0.33505400481E+02  0.24575973960E+02  0.45045672366E+02  0.00000000000E+00 0.  1.
         11    1    3    3    0    0  0.14080396786E+02 -0.25228194530E+02 -0.14183443901E+02  0.32185236585E+02  0.51100000000E-03 0. -1.
        -11    1    3    3    0    0  0.30961803532E+01 -0.41477184660E+01 -0.60116466261E+01  0.79328303065E+01  0.51100000000E-03 0.  1.
         12    1    3    3    0    0  0.21658937798E+00 -0.41294874841E+01 -0.43808834326E+01  0.60242607422E+01  0.00000000000E+00 0. -1.
</event>
<event>
 7    1  0.1541705E-008  0.4614232E+02  0.7816164E-02  0.1320468E+00
        -11   -1    0    0    0    0  0.00000000000E+00  0.00000000000E+00  0.45593999997E+02  0.45594000000E+02  0.51100000000E-03 0.  1.
         11   -1    0    0    0    0 -0.00000000000E+00 -0.00000000000E+00 -0.45593999997E+02  0.45594000000E+02  0.51100000000E-03 0. -1.
    9900012    2    1    2    0    0 -0.18529758278E+02 -0.37782303011E+02 -0.16070442840E+02  0.46142317679E+02  0.99999992527E+01 0.  0.
        -12    1    1    2    0    0  0.18529758278E+02  0.37782303011E+02  0.16070442840E+02  0.45045682321E+02  0.00000000000E+00 0.  1.
         11    1    3    3    0    0 -0.11951370883E+02 -0.24689189928E+02 -0.98238995864E+01  0.29135894849E+02  0.51100000000E-03 0. -1.
        -11    1    3    3    0    0 -0.28349465920E+01 -0.41961120016E+01 -0.52635221413E+01  0.73040361241E+01  0.51100000000E-03 0.  1.
        -12    1    3    3    0    0 -0.37434408032E+01 -0.88970010818E+01 -0.98302111207E+00  0.97023867065E+01  0.00000000000E+00 0.  1.
</event>
<event>
 7    1  0.1541705E-008  0.4614232E+02  0.7816164E-02  0.1320468E+00
        -11   -1    0    0    0    0  0.00000000000E+00  0.00000000000E+00  0.45593999997E+02  0.45594000000E+02  0.51100000000E-03 0.  1.
         11   -1    0    0    0    0 -0.00000000000E+00 -0.00000000000E+00 -0.45593999997E+02  0.45594000000E+02  0.51100000000E-03 0. -1.
    9900012    2    1    2    0    0 -0.79060061897E+01 -0.71136634372E+01 -0.43772186490E+02  0.46142318171E+02  0.10000003735E+02 0.  0.
        -12    1    1    2    0    0  0.79060061897E+01  0.71136634372E+01  0.43772186490E+02  0.45045681829E+02  0.00000000000E+00 0.  1.
         11    1    3    3    0    0 -0.11687719547E-01 -0.50492016381E+01 -0.13987450613E+02  0.14870889304E+02  0.51100000000E-03 0. -1.
        -11    1    3    3    0    0 -0.36505300185E+01 -0.16224262195E+01 -0.67392774804E+01  0.78343153799E+01  0.51100000000E-03 0.  1.
         12    1    3    3    0    0 -0.42437884516E+01 -0.44203557961E+00 -0.23045458397E+02  0.23437113487E+02  0.00000000000E+00 0. -1.
</event>
<event>
 7    1  0.1541705E-008  0.4614232E+02  0.7816164E-02  0.1320468E+00
        -11   -1    0    0    0    0  0.00000000000E+00  0.00000000000E+00  0.45593999997E+02  0.45594000000E+02  0.51100000000E-03 0. -1.
         11   -1    0    0    0    0 -0.00000000000E+00 -0.00000000000E+00 -0.45593999997E+02  0.45594000000E+02  0.51100000000E-03 0.  1.
    9900012    2    1    2    0    0  0.40893618248E+02 -0.22891661356E+01 -0.18750603951E+02  0.46142318259E+02  0.10000004539E+02 0.  0.
        -12    1    1    2    0    0 -0.40893618248E+02  0.22891661356E+01  0.18750603951E+02  0.45045681741E+02  0.00000000000E+00 0.  1.
         11    1    3    3    0    0  0.20446765069E+02  0.12708563663E+01 -0.79746701816E+01  0.21983644886E+02  0.51100000000E-03 0. -1.
        -11    1    3    3    0    0  0.11576910563E+02 -0.40725878764E+01 -0.37527451032E+01  0.12833313144E+02  0.51100000000E-03 0.  1.
        -12    1    3    3    0    0  0.88699426158E+01  0.51256537442E+00 -0.70231886659E+01  0.11325360229E+02  0.00000000000E+00 0.  1.
</event>
<event>
 7    1  0.1541705E-008  0.4614232E+02  0.7816164E-02  0.1320468E+00
        -11   -1    0    0    0    0  0.00000000000E+00  0.00000000000E+00  0.45593999997E+02  0.45594000000E+02  0.51100000000E-03 0.  1.
         11   -1    0    0    0    0 -0.00000000000E+00 -0.00000000000E+00 -0.45593999997E+02  0.45594000000E+02  0.51100000000E-03 0. -1.
    9900012    2    1    2    0    0  0.36114669931E+01  0.22489223071E+02 -0.38862651208E+02  0.46142317554E+02  0.99999981075E+01 0.  0.
        -12    1    1    2    0    0 -0.36114669931E+01 -0.22489223071E+02  0.38862651208E+02  0.45045682446E+02  0.00000000000E+00 0.  1.
         11    1    3    3    0    0 -0.11582400385E+01  0.86584291803E+01 -0.11582627793E+02  0.14507487126E+02  0.51100000000E-03 0. -1.
        -11    1    3    3    0    0  0.57757388689E+01  0.10266121240E+02 -0.23786204836E+02  0.26543096006E+02  0.51100000000E-03 0.  1.
        -12    1    3    3    0    0 -0.10060318373E+01  0.35646726506E+01 -0.34938185779E+01  0.50917344215E+01  0.00000000000E+00 0.  1.
</event>
<event>
 7    1  0.1541705E-008  0.4614232E+02  0.7816164E-02  0.1320468E+00
        -11   -1    0    0    0    0  0.00000000000E+00  0.00000000000E+00  0.45593999997E+02  0.45594000000E+02  0.51100000000E-03 0.  1.
         11   -1    0    0    0    0 -0.00000000000E+00 -0.00000000000E+00 -0.45593999997E+02  0.45594000000E+02  0.51100000000E-03 0. -1.
    9900012    2    1    2    0    0 -0.39149209667E+02 -0.17368951363E+02 -0.13956084658E+02  0.46142318875E+02  0.10000010159E+02 0.  0.
        -12    1    1    2    0    0  0.39149209667E+02  0.17368951363E+02  0.13956084658E+02  0.45045681125E+02  0.00000000000E+00 0.  1.
         11    1    3    3    0    0 -0.16495167624E+02 -0.64606016887E+01 -0.95784959176E+00  0.17741121870E+02  0.51100000000E-03 0. -1.
        -11    1    3    3    0    0 -0.84781886681E+01 -0.32448846117E+01 -0.56285575715E+01  0.10681274261E+02  0.51100000000E-03 0.  1.
         12    1    3    3    0    0 -0.14175853375E+02 -0.76634650631E+01 -0.73696774943E+01  0.17719922744E+02  0.00000000000E+00 0. -1.
</event>
<event>
 7    1  0.1541705E-008  0.4614232E+02  0.7816164E-02  0.1320468E+00
        -11   -1    0    0    0    0  0.00000000000E+00  0.00000000000E+00  0.45593999997E+02  0.45594000000E+02  0.51100000000E-03 0.  1.
         11   -1    0    0    0    0 -0.00000000000E+00 -0.00000000000E+00 -0.45593999997E+02  0.45594000000E+02  0.51100000000E-03 0. -1.
    9900012    2    1    2    0    0 -0.40919081724E+02 -0.65231539211E+01 -0.17668921034E+02  0.46142317002E+02  0.99999930807E+01 0.  0.
        -12    1    1    2    0    0  0.40919081724E+02  0.65231539211E+01  0.17668921034E+02  0.45045682998E+02  0.00000000000E+00 0.  1.
         11    1    3    3    0    0 -0.26131726343E+02 -0.21793567956E+01 -0.13173182938E+02  0.29345348297E+02  0.51100000000E-03 0. -1.
        -11    1    3    3    0    0 -0.15153743034E+02 -0.39828349125E+01 -0.43135608319E+01  0.16251329459E+02  0.51100000000E-03 0.  1.
         12    1    3    3    0    0  0.36638765270E+00 -0.36096221304E+00 -0.18217726502E+00  0.54563924638E+00  0.00000000000E+00 0. -1.
</event>
<event>
 7    1  0.1541705E-008  0.4614232E+02  0.7816164E-02  0.1320468E+00
        -11   -1    0    0    0    0  0.00000000000E+00  0.00000000000E+00  0.45593999997E+02  0.45594000000E+02  0.51100000000E-03 0.  1.
         11   -1    0    0    0    0 -0.00000000000E+00 -0.00000000000E+00 -0.45593999997E+02  0.45594000000E+02  0.51100000000E-03 0. -1.
    9900012    2    1    2    0    0 -0.83181658576E+01  0.40338860302E+02 -0.18240002998E+02  0.46142320484E+02  0.10000024833E+02 0.  0.
        -12    1    1    2    0    0  0.83181658576E+01 -0.40338860302E+02  0.18240002998E+02  0.45045679516E+02  0.00000000000E+00 0.  1.
         11    1    3    3    0    0 -0.10707219307E+01  0.57468346407E+00 -0.18023179487E+01  0.21737195740E+01  0.51100000000E-03 0. -1.
        -11    1    3    3    0    0 -0.20240669531E+01  0.44242906762E+01 -0.63843573657E+00  0.49070149245E+01  0.51100000000E-03 0.  1.
         12    1    3    3    0    0 -0.52233769737E+01  0.35339886161E+02 -0.15799249312E+02  0.39061585986E+02  0.00000000000E+00 0. -1.
</event>
<event>
 7    1  0.1541705E-008  0.4614232E+02  0.7816164E-02  0.1320468E+00
        -11   -1    0    0    0    0  0.00000000000E+00  0.00000000000E+00  0.45593999997E+02  0.45594000000E+02  0.51100000000E-03 0.  1.
         11   -1    0    0    0    0 -0.00000000000E+00 -0.00000000000E+00 -0.45593999997E+02  0.45594000000E+02  0.51100000000E-03 0. -1.
    9900012    2    1    2    0    0 -0.36880441363E+02  0.26115270605E+01 -0.25731819785E+02  0.46142316764E+02  0.99999909083E+01 0.  0.
        -12    1    1    2    0    0  0.36880441363E+02 -0.26115270605E+01  0.25731819785E+02  0.45045683236E+02  0.00000000000E+00 0.  1.
         11    1    3    3    0    0 -0.57156612403E+01  0.66454214802E+00 -0.36950991896E+01  0.68384324200E+01  0.51100000000E-03 0. -1.
        -11    1    3    3    0    0 -0.22720715215E+02  0.52308464475E+01 -0.17621666518E+02  0.29225259375E+02  0.51100000000E-03 0.  1.
        -12    1    3    3    0    0 -0.84440649080E+01 -0.32838615350E+01 -0.44150540783E+01  0.10078624969E+02  0.00000000000E+00 0.  1.
</event>
<event>
 7    1  0.1541705E-008  0.4614232E+02  0.7816164E-02  0.1320468E+00
        -11   -1    0    0    0    0  0.00000000000E+00  0.00000000000E+00  0.45593999997E+02  0.45594000000E+02  0.51100000000E-03 0. -1.
         11   -1    0    0    0    0 -0.00000000000E+00 -0.00000000000E+00 -0.45593999997E+02  0.45594000000E+02  0.51100000000E-03 0.  1.
    9900012    2    1    2    0    0  0.26704394438E+02  0.27879491532E+02  0.23210401154E+02  0.46142318164E+02  0.10000003674E+02 0.  0.
        -12    1    1    2    0    0 -0.26704394438E+02 -0.27879491532E+02 -0.23210401154E+02  0.45045681836E+02  0.00000000000E+00 0.  1.
         11    1    3    3    0    0  0.10073050515E+02  0.16492201371E+02  0.85683400500E+01  0.21139430083E+02  0.51100000000E-03 0. -1.
        -11    1    3    3    0    0  0.18591005488E+01  0.54816662919E+00  0.12172055755E+01  0.22887400852E+01  0.51100000000E-03 0.  1.
         12    1    3    3    0    0  0.14772243374E+02  0.10839123531E+02  0.13424855528E+02  0.22714147996E+02  0.00000000000E+00 0. -1.
</event>
<event>
 7    1  0.1541705E-008  0.4614232E+02  0.7816164E-02  0.1320468E+00
        -11   -1    0    0    0    0  0.00000000000E+00  0.00000000000E+00  0.45593999997E+02  0.45594000000E+02  0.51100000000E-03 0.  1.
         11   -1    0    0    0    0 -0.00000000000E+00 -0.00000000000E+00 -0.45593999997E+02  0.45594000000E+02  0.51100000000E-03 0. -1.
    9900012    2    1    2    0    0  0.20811377387E+02 -0.21587551550E+01 -0.39891601491E+02  0.46142317387E+02  0.99999965908E+01 0.  0.
        -12    1    1    2    0    0 -0.20811377387E+02  0.21587551550E+01  0.39891601491E+02  0.45045682613E+02  0.00000000000E+00 0.  1.
         11    1    3    3    0    0  0.10334834300E+02  0.18329562709E+01 -0.14804593529E+02  0.18147851623E+02  0.51100000000E-03 0. -1.
        -11    1    3    3    0    0  0.10421359061E+01  0.43320504016E+00 -0.39848816886E+00  0.11968738177E+01  0.51100000000E-03 0.  1.
         12    1    3    3    0    0  0.94344071804E+01 -0.44249164661E+01 -0.24688519793E+02  0.26797591947E+02  0.00000000000E+00 0. -1.
</event>
<event>
 7    1  0.1541705E-008  0.4614232E+02  0.7816164E-02  0.1320468E+00
        -11   -1    0    0    0    0  0.00000000000E+00  0.00000000000E+00  0.45593999997E+02  0.45594000000E+02  0.51100000000E-03 0.  1.
         11   -1    0    0    0    0 -0.00000000000E+00 -0.00000000000E+00 -0.45593999997E+02  0.45594000000E+02  0.51100000000E-03 0. -1.
    9900012    2    1    2    0    0 -0.54741944161E+01  0.11800240847E+02 -0.43126570173E+02  0.46142317150E+02  0.99999944274E+01 0.  0.
        -12    1    1    2    0    0  0.54741944161E+01 -0.11800240847E+02  0.43126570173E+02  0.45045682850E+02  0.00000000000E+00 0.  1.
         11    1    3    3    0    0 -0.20567948408E+01  0.72448063860E+01 -0.12247353128E+02  0.14377596582E+02  0.51100000000E-03 0. -1.
        -11    1    3    3    0    0  0.23191711115E+00  0.13604370364E+01 -0.17121778613E+02  0.17177307053E+02  0.51100000000E-03 0.  1.
        -12    1    3    3    0    0 -0.36493166865E+01  0.31949974246E+01 -0.13757438432E+02  0.14587413514E+02  0.00000000000E+00 0.  1.
</event>
<event>
 7    1  0.1541705E-008  0.4614232E+02  0.7816164E-02  0.1320468E+00
        -11   -1    0    0    0    0  0.00000000000E+00  0.00000000000E+00  0.45593999997E+02  0.45594000000E+02  0.51100000000E-03 0. -1.
         11   -1    0    0    0    0 -0.00000000000E+00 -0.00000000000E+00 -0.45593999997E+02  0.45594000000E+02  0.51100000000E-03 0.  1.
    9900012    2    1    2    0    0  0.16496500111E+01 -0.43089031020E+02 -0.13027947029E+02  0.46142319373E+02  0.10000014697E+02 0.  0.
        -12    1    1    2    0    0 -0.16496500111E+01  0.43089031020E+02  0.13027947029E+02  0.45045680627E+02  0.00000000000E+00 0.  1.
         11    1    3    3    0    0  0.89420224009E+00 -0.22740269598E+01  0.12698210667E+01  0.27537687018E+01  0.51100000000E-03 0. -1.
        -11    1    3    3    0    0  0.29751047551E+00 -0.40161549371E+02 -0.14106888281E+02  0.42568096711E+02  0.51100000000E-03 0.  1.
        -12    1    3    3    0    0  0.45793729547E+00 -0.65345468888E+00 -0.19087981434E+00  0.82045396003E+00  0.00000000000E+00 0.  1.
</event>
<event>
 7    1  0.1541705E-008  0.4614232E+02  0.7816164E-02  0.1320468E+00
        -11   -1    0    0    0    0  0.00000000000E+00  0.00000000000E+00  0.45593999997E+02  0.45594000000E+02  0.51100000000E-03 0. -1.
         11   -1    0    0    0    0 -0.00000000000E+00 -0.00000000000E+00 -0.45593999997E+02  0.45594000000E+02  0.51100000000E-03 0.  1.
    9900012    2    1    2    0    0 -0.39156388266E+02  0.22185572608E+02  0.19212392741E+01  0.46142317251E+02  0.99999953518E+01 0.  0.
        -12    1    1    2    0    0  0.39156388266E+02 -0.22185572608E+02 -0.19212392741E+01  0.45045682749E+02  0.00000000000E+00 0.  1.
         11    1    3    3    0    0 -0.19237545070E+02  0.12749449098E+02 -0.37251599677E+00  0.23081818842E+02  0.51100000000E-03 0. -1.
        -11    1    3    3    0    0 -0.90747473376E+01  0.36235474871E+01 -0.21023333920E+01  0.99950458521E+01  0.51100000000E-03 0.  1.
        -12    1    3    3    0    0 -0.10844095858E+02  0.58125760226E+01  0.43960886629E+01  0.13065452557E+02  0.00000000000E+00 0.  1.
</event>
<event>
 7    1  0.1541705E-008  0.4614232E+02  0.7816164E-02  0.1320468E+00
        -11   -1    0    0    0    0  0.00000000000E+00  0.00000000000E+00  0.45593999997E+02  0.45594000000E+02  0.51100000000E-03 0.  1.
         11   -1    0    0    0    0 -0.00000000000E+00 -0.00000000000E+00 -0.45593999997E+02  0.45594000000E+02  0.51100000000E-03 0. -1.
    9900012    2    1    2    0    0 -0.65585569779E+01  0.16558389793E+02 -0.41375337011E+02  0.46142318132E+02  0.10000003383E+02 0.  0.
        -12    1    1    2    0    0  0.65585569779E+01 -0.16558389793E+02  0.41375337011E+02  0.45045681868E+02  0.00000000000E+00 0.  1.
         11    1    3    3    0    0 -0.81064892931E+00  0.89524371264E+01 -0.24514532183E+02  0.26110640946E+02  0.51100000000E-03 0. -1.
        -11    1    3    3    0    0 -0.61417264265E+01  0.45031406617E+01 -0.12957646117E+02  0.15029959164E+02  0.51100000000E-03 0.  1.
        -12    1    3    3    0    0  0.39381837797E+00  0.31028120046E+01 -0.39031587117E+01  0.50017180228E+01  0.00000000000E+00 0.  1.
</event>
<event>
 7    1  0.1541705E-008  0.4614232E+02  0.7816164E-02  0.1320468E+00
        -11   -1    0    0    0    0  0.00000000000E+00  0.00000000000E+00  0.45593999997E+02  0.45594000000E+02  0.51100000000E-03 0.  1.
         11   -1    0    0    0    0 -0.00000000000E+00 -0.00000000000E+00 -0.45593999997E+02  0.45594000000E+02  0.51100000000E-03 0. -1.
    9900012    2    1    2    0    0 -0.18575192078E+02  0.11117590121E+02 -0.39502847589E+02  0.46142317206E+02  0.99999949345E+01 0.  0.
        -12    1    1    2    0    0  0.18575192078E+02 -0.11117590121E+02  0.39502847589E+02  0.45045682794E+02  0.00000000000E+00 0.  1.
         11    1    3    3    0    0 -0.50226533067E+01  0.58964578533E+00 -0.13745947957E+02  0.14646699761E+02  0.51100000000E-03 0. -1.
        -11    1    3    3    0    0 -0.11631220440E+02  0.10949154349E+02 -0.21303743628E+02  0.26627406234E+02  0.51100000000E-03 0.  1.
        -12    1    3    3    0    0 -0.19213183305E+01 -0.42121001412E+00 -0.44531560032E+01  0.48682112107E+01  0.00000000000E+00 0.  1.
</event>
<event>
 7    1  0.1541705E-008  0.4614232E+02  0.7816164E-02  0.1320468E+00
        -11   -1    0    0    0    0  0.00000000000E+00  0.00000000000E+00  0.45593999997E+02  0.45594000000E+02  0.51100000000E-03 0.  1.
         11   -1    0    0    0    0 -0.00000000000E+00 -0.00000000000E+00 -0.45593999997E+02  0.45594000000E+02  0.51100000000E-03 0. -1.
    9900012    2    1    2    0    0 -0.19586195588E+02 -0.11862038196E+02 -0.38791577423E+02  0.46142317779E+02  0.10000000160E+02 0.  0.
        -12    1    1    2    0    0  0.19586195588E+02  0.11862038196E+02  0.38791577423E+02  0.45045682221E+02  0.00000000000E+00 0.  1.
         11    1    3    3    0    0 -0.41403211660E+01 -0.51822941023E+01 -0.12336966813E+02  0.14007111834E+02  0.51100000000E-03 0. -1.
        -11    1    3    3    0    0 -0.34736374384E+01 -0.35238361392E+01 -0.35213069228E+01  0.60731524676E+01  0.51100000000E-03 0.  1.
         12    1    3    3    0    0 -0.11972236984E+02 -0.31559079548E+01 -0.22933303688E+02  0.26062053477E+02  0.00000000000E+00 0. -1.
</event>
<event>
 7    1  0.1541705E-008  0.4614232E+02  0.7816164E-02  0.1320468E+00
        -11   -1    0    0    0    0  0.00000000000E+00  0.00000000000E+00  0.45593999997E+02  0.45594000000E+02  0.51100000000E-03 0.  1.
         11   -1    0    0    0    0 -0.00000000000E+00 -0.00000000000E+00 -0.45593999997E+02  0.45594000000E+02  0.51100000000E-03 0. -1.
    9900012    2    1    2    0    0 -0.12251020275E+02  0.30528930183E+02 -0.30773533813E+02  0.46142318084E+02  0.10000002948E+02 0.  0.
        -12    1    1    2    0    0  0.12251020275E+02 -0.30528930183E+02  0.30773533813E+02  0.45045681916E+02  0.00000000000E+00 0.  1.
         11    1    3    3    0    0 -0.68704475734E+00  0.40313864422E+01 -0.74604386096E+01  0.85077759523E+01  0.51100000000E-03 0. -1.
        -11    1    3    3    0    0 -0.12250444717E+02  0.24758663472E+02 -0.21258260604E+02  0.34856541092E+02  0.51100000000E-03 0.  1.
         12    1    3    3    0    0  0.68646919950E+00  0.17388802682E+01 -0.20548345991E+01  0.27780010401E+01  0.00000000000E+00 0. -1.
</event>
<event>
 7    1  0.1541705E-008  0.4614232E+02  0.7816164E-02  0.1320468E+00
        -11   -1    0    0    0    0  0.00000000000E+00  0.00000000000E+00  0.45593999997E+02  0.45594000000E+02  0.51100000000E-03 0. -1.
         11   -1    0    0    0    0 -0.00000000000E+00 -0.00000000000E+00 -0.45593999997E+02  0.45594000000E+02  0.51100000000E-03 0.  1.
    9900012    2    1    2    0    0  0.25642080846E+02 -0.12944714056E+02  0.34699157774E+02  0.46142317828E+02  0.10000000612E+02 0.  0.
        -12    1    1    2    0    0 -0.25642080846E+02  0.12944714056E+02 -0.34699157774E+02  0.45045682172E+02  0.00000000000E+00 0.  1.
         11    1    3    3    0    0  0.22836671576E+02 -0.11142870767E+02  0.29333394041E+02  0.38808828168E+02  0.51100000000E-03 0. -1.
        -11    1    3    3    0    0  0.29371309770E+00 -0.17669731528E+01  0.41964101969E+01  0.45627097550E+01  0.51100000000E-03 0.  1.
         12    1    3    3    0    0  0.25116961721E+01 -0.34870135987E-01  0.11693535367E+01  0.27707799048E+01  0.00000000000E+00 0. -1.
</event>
<event>
 7    1  0.1541705E-008  0.4614232E+02  0.7816164E-02  0.1320468E+00
        -11   -1    0    0    0    0  0.00000000000E+00  0.00000000000E+00  0.45593999997E+02  0.45594000000E+02  0.51100000000E-03 0. -1.
         11   -1    0    0    0    0 -0.00000000000E+00 -0.00000000000E+00 -0.45593999997E+02  0.45594000000E+02  0.51100000000E-03 0.  1.
    9900012    2    1    2    0    0 -0.99435676533E+01  0.28925408281E+02 -0.33069015670E+02  0.46142316752E+02  0.99999907971E+01 0.  0.
        -12    1    1    2    0    0  0.99435676533E+01 -0.28925408281E+02  0.33069015670E+02  0.45045683248E+02  0.00000000000E+00 0.  1.
         11    1    3    3    0    0 -0.36260511156E+01  0.10621074012E+02 -0.58872809563E+01  0.12673418527E+02  0.51100000000E-03 0. -1.
        -11    1    3    3    0    0 -0.60097506046E+00  0.48710916620E+01 -0.75170397995E+01  0.89774491150E+01  0.51100000000E-03 0.  1.
         12    1    3    3    0    0 -0.57165414772E+01  0.13433242608E+02 -0.19664694914E+02  0.24491449109E+02  0.00000000000E+00 0. -1.
</event>
<event>
 7    1  0.1541705E-008  0.4614232E+02  0.7816164E-02  0.1320468E+00
        -11   -1    0    0    0    0  0.00000000000E+00  0.00000000000E+00  0.45593999997E+02  0.45594000000E+02  0.51100000000E-03 0.  1.
         11   -1    0    0    0    0 -0.00000000000E+00 -0.00000000000E+00 -0.45593999997E+02  0.45594000000E+02  0.51100000000E-03 0. -1.
    9900012    2    1    2    0    0  0.33469603828E+02  0.24602830174E+02  0.17424115842E+02  0.46142318233E+02  0.10000004304E+02 0.  0.
        -12    1    1    2    0    0 -0.33469603828E+02 -0.24602830174E+02 -0.17424115842E+02  0.45045681767E+02  0.00000000000E+00 0.  1.
         11    1    3    3    0    0  0.16701793811E+02  0.13021931916E+02  0.53883057531E+01  0.21853019620E+02  0.51100000000E-03 0. -1.
        -11    1    3    3    0    0  0.32735561719E+01  0.30286231463E+00  0.32786740242E+01  0.46430161759E+01  0.51100000000E-03 0.  1.
        -12    1    3    3    0    0  0.13494253845E+02  0.11278035942E+02  0.87571360646E+01  0.19646282438E+02  0.00000000000E+00 0.  1.
</event>
<event>
 7    1  0.1541705E-008  0.4614232E+02  0.7816164E-02  0.1320468E+00
        -11   -1    0    0    0    0  0.00000000000E+00  0.00000000000E+00  0.45593999997E+02  0.45594000000E+02  0.51100000000E-03 0.  1.
         11   -1    0    0    0    0 -0.00000000000E+00 -0.00000000000E+00 -0.45593999997E+02  0.45594000000E+02  0.51100000000E-03 0. -1.
    9900012    2    1    2    0    0  0.32853998928E+02  0.14875400395E+02 -0.26989822272E+02  0.46142319977E+02  0.10000020206E+02 0.  0.
        -12    1    1    2    0    0 -0.32853998928E+02 -0.14875400395E+02  0.26989822272E+02  0.45045680023E+02  0.00000000000E+00 0.  1.
         11    1    3    3    0    0  0.55462195864E+01  0.40096590668E+01 -0.57099783958E+01  0.89130113359E+01  0.51100000000E-03 0. -1.
        -11    1    3    3    0    0  0.26454382589E+02  0.98350580928E+01 -0.21929651969E+02  0.35741745363E+02  0.51100000000E-03 0.  1.
        -12    1    3    3    0    0  0.85339675248E+00  0.10306832352E+01  0.64980809291E+00  0.14875632780E+01  0.00000000000E+00 0.  1.
</event>
<event>
 7    1  0.1541705E-008  0.4614232E+02  0.7816164E-02  0.1320468E+00
        -11   -1    0    0    0    0  0.00000000000E+00  0.00000000000E+00  0.45593999997E+02  0.45594000000E+02  0.51100000000E-03 0.  1.
         11   -1    0    0    0    0 -0.00000000000E+00 -0.00000000000E+00 -0.45593999997E+02  0.45594000000E+02  0.51100000000E-03 0. -1.
    9900012    2    1    2    0    0 -0.47246660282E+01 -0.31337507231E+02 -0.32011742761E+02  0.46142317597E+02  0.99999985063E+01 0.  0.
        -12    1    1    2    0    0  0.47246660282E+01  0.31337507231E+02  0.32011742761E+02  0.45045682403E+02  0.00000000000E+00 0.  1.
         11    1    3    3    0    0 -0.55595345753E+00 -0.26628431736E+00 -0.19679521458E+01  0.20622384668E+01  0.51100000000E-03 0. -1.
        -11    1    3    3    0    0 -0.57354035952E+01 -0.28018018277E+02 -0.25035982795E+02  0.38009270413E+02  0.51100000000E-03 0.  1.
         12    1    3    3    0    0  0.15666910246E+01 -0.30532046367E+01 -0.50078078197E+01  0.60708087171E+01  0.00000000000E+00 0. -1.
</event>
<event>
 7    1  0.1541705E-008  0.4614230E+02  0.7816164E-02  0.1320468E+00
        -11   -1    0    0    0    0  0.00000000000E+00  0.00000000000E+00  0.45593999997E+02  0.45594000000E+02  0.51100000000E-03 0.  1.
         11   -1    0    0    0    0 -0.00000000000E+00 -0.00000000000E+00 -0.45593999997E+02  0.45594000000E+02  0.51100000000E-03 0. -1.
    9900012    2    1    2    0    0 -0.23428185314E+02  0.20516777705E+02 -0.32546839590E+02  0.46142303182E+02  0.99998670556E+01 0.  0.
        -12    1    1    2    0    0  0.23428185314E+02 -0.20516777705E+02  0.32546839590E+02  0.45045696818E+02  0.00000000000E+00 0.  1.
         11    1    3    3    0    0 -0.93858468277E+01  0.64446634842E+01 -0.17826557105E+02  0.21152161747E+02  0.51100000000E-03 0. -1.
        -11    1    3    3    0    0 -0.13852003648E+02  0.12764266170E+02 -0.13357211245E+02  0.23091547987E+02  0.51100000000E-03 0.  1.
         12    1    3    3    0    0 -0.19033483823E+00  0.13078480512E+01 -0.13630712396E+01  0.18985934478E+01  0.00000000000E+00 0. -1.
</event>
<event>
 7    1  0.1541705E-008  0.4614232E+02  0.7816164E-02  0.1320468E+00
        -11   -1    0    0    0    0  0.00000000000E+00  0.00000000000E+00  0.45593999997E+02  0.45594000000E+02  0.51100000000E-03 0.  1.
         11   -1    0    0    0    0 -0.00000000000E+00 -0.00000000000E+00 -0.45593999997E+02  0.45594000000E+02  0.51100000000E-03 0. -1.
    9900012    2    1    2    0    0 -0.20369865076E+02 -0.71116522346E+01 -0.39542459666E+02  0.46142321882E+02  0.10000037573E+02 0.  0.
        -12    1    1    2    0    0  0.20369865076E+02  0.71116522346E+01  0.39542459666E+02  0.45045678118E+02  0.00000000000E+00 0.  1.
         11    1    3    3    0    0 -0.33901699827E+01 -0.17495755361E+01 -0.16201390902E+02  0.16644498625E+02  0.51100000000E-03 0. -1.
        -11    1    3    3    0    0 -0.53171495965E+01 -0.30887604186E+01 -0.76235236555E+01  0.97944185097E+01  0.51100000000E-03 0.  1.
         12    1    3    3    0    0 -0.11662545496E+02 -0.22733162799E+01 -0.15717545108E+02  0.19703404746E+02  0.00000000000E+00 0. -1.
</event>
<event>
 7    1  0.1541705E-008  0.4614233E+02  0.7816164E-02  0.1320468E+00
        -11   -1    0    0    0    0  0.00000000000E+00  0.00000000000E+00  0.45593999997E+02  0.45594000000E+02  0.51100000000E-03 0. -1.
         11   -1    0    0    0    0 -0.00000000000E+00 -0.00000000000E+00 -0.45593999997E+02  0.45594000000E+02  0.51100000000E-03 0.  1.
    9900012    2    1    2    0    0  0.41434847409E+02 -0.17443713357E+02 -0.28253704899E+01  0.46142329466E+02  0.10000106730E+02 0.  0.
        -12    1    1    2    0    0 -0.41434847409E+02  0.17443713357E+02  0.28253704899E+01  0.45045670534E+02  0.00000000000E+00 0.  1.
         11    1    3    3    0    0  0.92642972564E+01 -0.13593678411E+01  0.10683654968E+01  0.94242500857E+01  0.51100000000E-03 0. -1.
        -11    1    3    3    0    0  0.48270663329E+01 -0.21077369705E+01 -0.28569154074E+01  0.59920856490E+01  0.51100000000E-03 0.  1.
        -12    1    3    3    0    0  0.27343483820E+02 -0.13976608545E+02 -0.10368205793E+01  0.30725993731E+02  0.00000000000E+00 0.  1.
</event>
<event>
 7    1  0.1541705E-008  0.4614232E+02  0.7816164E-02  0.1320468E+00
        -11   -1    0    0    0    0  0.00000000000E+00  0.00000000000E+00  0.45593999997E+02  0.45594000000E+02  0.51100000000E-03 0. -1.
         11   -1    0    0    0    0 -0.00000000000E+00 -0.00000000000E+00 -0.45593999997E+02  0.45594000000E+02  0.51100000000E-03 0.  1.
    9900012    2    1    2    0    0  0.10876599739E+02  0.17740488226E+02  0.39951071853E+02  0.46142317781E+02  0.10000000183E+02 0.  0.
        -12    1    1    2    0    0 -0.10876599739E+02 -0.17740488226E+02 -0.39951071853E+02  0.45045682219E+02  0.00000000000E+00 0.  1.
         11    1    3    3    0    0  0.20985121259E+01  0.95883794592E+01  0.18013938022E+02  0.20514451909E+02  0.51100000000E-03 0. -1.
        -11    1    3    3    0    0  0.69640329675E+01  0.43161453754E+01  0.98188078628E+01  0.12788113785E+02  0.51100000000E-03 0.  1.
        -12    1    3    3    0    0  0.18140546452E+01  0.38359633911E+01  0.12118325968E+02  0.12839752087E+02  0.00000000000E+00 0.  1.
</event>
<event>
 7    1  0.1541705E-008  0.4614232E+02  0.7816164E-02  0.1320468E+00
        -11   -1    0    0    0    0  0.00000000000E+00  0.00000000000E+00  0.45593999997E+02  0.45594000000E+02  0.51100000000E-03 0. -1.
         11   -1    0    0    0    0 -0.00000000000E+00 -0.00000000000E+00 -0.45593999997E+02  0.45594000000E+02  0.51100000000E-03 0.  1.
    9900012    2    1    2    0    0  0.26510043890E+02 -0.25556691177E+01  0.36329043365E+02  0.46142320257E+02  0.10000022762E+02 0.  0.
        -12    1    1    2    0    0 -0.26510043890E+02  0.25556691177E+01 -0.36329043365E+02  0.45045679743E+02  0.00000000000E+00 0.  1.
         11    1    3    3    0    0  0.14674832486E+02 -0.38615559417E+01  0.15122196005E+02  0.21422958131E+02  0.51100000000E-03 0. -1.
        -11    1    3    3    0    0  0.11077936184E+02  0.17437171792E+01  0.16618223860E+02  0.20048106749E+02  0.51100000000E-03 0.  1.
        -12    1    3    3    0    0  0.75727521924E+00 -0.43783035517E+00  0.45886235002E+01  0.46712553777E+01  0.00000000000E+00 0.  1.
</event>
<event>
 7    1  0.1541705E-008  0.4614232E+02  0.7816164E-02  0.1320468E+00
        -11   -1    0    0    0    0  0.00000000000E+00  0.00000000000E+00  0.45593999997E+02  0.45594000000E+02  0.51100000000E-03 0.  1.
         11   -1    0    0    0    0 -0.00000000000E+00 -0.00000000000E+00 -0.45593999997E+02  0.45594000000E+02  0.51100000000E-03 0. -1.
    9900012    2    1    2    0    0 -0.12444584116E+02 -0.44151754185E+00 -0.43290308879E+02  0.46142318138E+02  0.10000003435E+02 0.  0.
        -12    1    1    2    0    0  0.12444584116E+02  0.44151754185E+00  0.43290308879E+02  0.45045681862E+02  0.00000000000E+00 0.  1.
         11    1    3    3    0    0 -0.39927505798E+01 -0.33976456028E+01 -0.12351377792E+02  0.13417994874E+02  0.51100000000E-03 0. -1.
        -11    1    3    3    0    0 -0.60618460471E+00  0.27177198944E+01 -0.91739780984E+01  0.95872485944E+01  0.51100000000E-03 0.  1.
         12    1    3    3    0    0 -0.78456489316E+01  0.23840816655E+00 -0.21764952989E+02  0.23137074669E+02  0.00000000000E+00 0. -1.
</event>
<event>
 7    1  0.1541705E-008  0.4614232E+02  0.7816164E-02  0.1320468E+00
        -11   -1    0    0    0    0  0.00000000000E+00  0.00000000000E+00  0.45593999997E+02  0.45594000000E+02  0.51100000000E-03 0.  1.
         11   -1    0    0    0    0 -0.00000000000E+00 -0.00000000000E+00 -0.45593999997E+02  0.45594000000E+02  0.51100000000E-03 0. -1.
    9900012    2    1    2    0    0  0.21221808938E+02  0.18276368465E+02 -0.35280627536E+02  0.46142317652E+02  0.99999990065E+01 0.  0.
        -12    1    1    2    0    0 -0.21221808938E+02 -0.18276368465E+02  0.35280627536E+02  0.45045682348E+02  0.00000000000E+00 0.  1.
         11    1    3    3    0    0 -0.52259726694E+00  0.18127506512E+01 -0.24921192889E+01  0.31256729897E+01  0.51100000000E-03 0. -1.
        -11    1    3    3    0    0  0.21498169330E+00  0.66227468330E+00 -0.26887028051E+01  0.27773994887E+01  0.51100000000E-03 0.  1.
         12    1    3    3    0    0  0.21529424512E+02  0.15801343131E+02 -0.30099805442E+02  0.40239245174E+02  0.00000000000E+00 0. -1.
</event>
<event>
 7    1  0.1541705E-008  0.4614232E+02  0.7816164E-02  0.1320468E+00
        -11   -1    0    0    0    0  0.00000000000E+00  0.00000000000E+00  0.45593999997E+02  0.45594000000E+02  0.51100000000E-03 0.  1.
         11   -1    0    0    0    0 -0.00000000000E+00 -0.00000000000E+00 -0.45593999997E+02  0.45594000000E+02  0.51100000000E-03 0. -1.
    9900012    2    1    2    0    0  0.44134707000E+02 -0.13184638654E+00 -0.90124318873E+01  0.46142315701E+02  0.99999812153E+01 0.  0.
        -12    1    1    2    0    0 -0.44134707000E+02  0.13184638654E+00  0.90124318873E+01  0.45045684299E+02  0.00000000000E+00 0.  1.
         11    1    3    3    0    0  0.31994706867E+02  0.27195451374E+01 -0.55302996723E+01  0.32582839164E+02  0.51100000000E-03 0. -1.
        -11    1    3    3    0    0  0.70376882281E+01 -0.23025265864E+01 -0.85149374044E-01  0.74052640029E+01  0.51100000000E-03 0.  1.
         12    1    3    3    0    0  0.51023119045E+01 -0.54886493762E+00 -0.33969828410E+01  0.61542125339E+01  0.00000000000E+00 0. -1.
</event>
<event>
 7    1  0.1541705E-008  0.4614232E+02  0.7816164E-02  0.1320468E+00
        -11   -1    0    0    0    0  0.00000000000E+00  0.00000000000E+00  0.45593999997E+02  0.45594000000E+02  0.51100000000E-03 0.  1.
         11   -1    0    0    0    0 -0.00000000000E+00 -0.00000000000E+00 -0.45593999997E+02  0.45594000000E+02  0.51100000000E-03 0. -1.
    9900012    2    1    2    0    0  0.68579402179E+00  0.21042877478E+02 -0.39822611775E+02  0.46142318580E+02  0.10000007470E+02 0.  0.
        -12    1    1    2    0    0 -0.68579402179E+00 -0.21042877478E+02  0.39822611775E+02  0.45045681420E+02  0.00000000000E+00 0.  1.
         11    1    3    3    0    0  0.75312946155E-01  0.82622190899E+01 -0.12603485860E+02  0.15070427745E+02  0.51100000000E-03 0. -1.
        -11    1    3    3    0    0  0.17561695210E+01  0.14000072685E+01 -0.10989184361E+02  0.11216341869E+02  0.51100000000E-03 0.  1.
        -12    1    3    3    0    0 -0.11456884454E+01  0.11380651120E+02 -0.16229941554E+02  0.19855548966E+02  0.00000000000E+00 0.  1.
</event>
<event>
 7    1  0.1541705E-008  0.4614233E+02  0.7816164E-02  0.1320468E+00
        -11   -1    0    0    0    0  0.00000000000E+00  0.00000000000E+00  0.45593999997E+02  0.45594000000E+02  0.51100000000E-03 0.  1.
         11   -1    0    0    0    0 -0.00000000000E+00 -0.00000000000E+00 -0.45593999997E+02  0.45594000000E+02  0.51100000000E-03 0. -1.
    9900012    2    1    2    0    0  0.13468656247E+02 -0.24560878632E+02 -0.35277063779E+02  0.46142326633E+02  0.10000080897E+02 0.  0.
        -12    1    1    2    0    0 -0.13468656247E+02  0.24560878632E+02  0.35277063779E+02  0.45045673367E+02  0.00000000000E+00 0.  1.
         11    1    3    3    0    0 -0.13338222384E+00 -0.21199611906E+01 -0.32056372184E+01  0.38455346188E+01  0.51100000000E-03 0. -1.
        -11    1    3    3    0    0  0.11512380894E+02 -0.14504416809E+02 -0.17010737306E+02  0.25145142767E+02  0.51100000000E-03 0.  1.
        -12    1    3    3    0    0  0.20896575766E+01 -0.79365006332E+01 -0.15060689254E+02  0.17151649247E+02  0.00000000000E+00 0.  1.
</event>
<event>
 7    1  0.1541705E-008  0.4614232E+02  0.7816164E-02  0.1320468E+00
        -11   -1    0    0    0    0  0.00000000000E+00  0.00000000000E+00  0.45593999997E+02  0.45594000000E+02  0.51100000000E-03 0.  1.
         11   -1    0    0    0    0 -0.00000000000E+00 -0.00000000000E+00 -0.45593999997E+02  0.45594000000E+02  0.51100000000E-03 0. -1.
    9900012    2    1    2    0    0 -0.22009251910E+02  0.79936570113E+01 -0.38481265238E+02  0.46142317672E+02  0.99999991855E+01 0.  0.
        -12    1    1    2    0    0  0.22009251910E+02 -0.79936570113E+01  0.38481265238E+02  0.45045682328E+02  0.00000000000E+00 0.  1.
         11    1    3    3    0    0 -0.41956851090E+01  0.34721225711E+01 -0.12895027303E+02  0.13997897631E+02  0.51100000000E-03 0. -1.
        -11    1    3    3    0    0 -0.17921254452E+02  0.43003419504E+01 -0.25873398429E+02  0.31766287925E+02  0.51100000000E-03 0.  1.
        -12    1    3    3    0    0  0.10768765074E+00  0.22119248988E+00  0.28716049357E+00  0.37813211549E+00  0.00000000000E+00 0.  1.
</event>
<event>
 7    1  0.1541705E-008  0.4614232E+02  0.7816164E-02  0.1320468E+00
        -11   -1    0    0    0    0  0.00000000000E+00  0.00000000000E+00  0.45593999997E+02  0.45594000000E+02  0.51100000000E-03 0.  1.
         11   -1    0    0    0    0 -0.00000000000E+00 -0.00000000000E+00 -0.45593999997E+02  0.45594000000E+02  0.51100000000E-03 0. -1.
    9900012    2    1    2    0    0  0.30066112326E+02 -0.27236849273E+02 -0.19577956130E+02  0.46142318354E+02  0.10000005407E+02 0.  0.
        -12    1    1    2    0    0 -0.30066112326E+02  0.27236849273E+02  0.19577956130E+02  0.45045681646E+02  0.00000000000E+00 0.  1.
         11    1    3    3    0    0  0.25947596863E+02 -0.20025690740E+02 -0.15250408142E+02  0.36150809415E+02  0.51100000000E-03 0. -1.
        -11    1    3    3    0    0 -0.33922261192E+00  0.14078144577E+00 -0.28283515504E-02  0.36728688597E+00  0.51100000000E-03 0.  1.
         12    1    3    3    0    0  0.44577380744E+01 -0.73519399794E+01 -0.43247196366E+01  0.96242220536E+01  0.00000000000E+00 0. -1.
</event>
<event>
 7    1  0.1541705E-008  0.4614232E+02  0.7816164E-02  0.1320468E+00
        -11   -1    0    0    0    0  0.00000000000E+00  0.00000000000E+00  0.45593999997E+02  0.45594000000E+02  0.51100000000E-03 0.  1.
         11   -1    0    0    0    0 -0.00000000000E+00 -0.00000000000E+00 -0.45593999997E+02  0.45594000000E+02  0.51100000000E-03 0. -1.
    9900012    2    1    2    0    0  0.16768149139E+02 -0.24164457066E+02 -0.34117761013E+02  0.46142318438E+02  0.10000006173E+02 0.  0.
        -12    1    1    2    0    0 -0.16768149139E+02  0.24164457066E+02  0.34117761013E+02  0.45045681562E+02  0.00000000000E+00 0.  1.
         11    1    3    3    0    0  0.44997052334E+01 -0.48172098881E+01 -0.68943467044E+01  0.95385992177E+01  0.51100000000E-03 0. -1.
        -11    1    3    3    0    0 -0.12974592289E+01 -0.24051477455E+01 -0.36610917499E+01  0.45685587652E+01  0.51100000000E-03 0.  1.
        -12    1    3    3    0    0  0.13565903134E+02 -0.16942099433E+02 -0.23562322559E+02  0.32035160455E+02  0.00000000000E+00 0.  1.
</event>
<event>
 7    1  0.1541705E-008  0.4614232E+02  0.7816164E-02  0.1320468E+00
        -11   -1    0    0    0    0  0.00000000000E+00  0.00000000000E+00  0.45593999997E+02  0.45594000000E+02  0.51100000000E-03 0.  1.
         11   -1    0    0    0    0 -0.00000000000E+00 -0.00000000000E+00 -0.45593999997E+02  0.45594000000E+02  0.51100000000E-03 0. -1.
    9900012    2    1    2    0    0 -0.42036620076E+02 -0.16141826888E+02  0.12155162284E+01  0.46142317828E+02  0.10000000606E+02 0.  0.
        -12    1    1    2    0    0  0.42036620076E+02  0.16141826888E+02 -0.12155162284E+01  0.45045682172E+02  0.00000000000E+00 0.  1.
         11    1    3    3    0    0 -0.16414622384E+01 -0.29079938788E+01 -0.20954010278E+00  0.33458532536E+01  0.51100000000E-03 0. -1.
        -11    1    3    3    0    0 -0.41910815264E+01 -0.28531733855E+01 -0.42723647524E+00  0.50880540480E+01  0.51100000000E-03 0.  1.
         12    1    3    3    0    0 -0.36204076311E+02 -0.10380659624E+02  0.18522928065E+01  0.37708410526E+02  0.00000000000E+00 0. -1.
</event>
<event>
 7    1  0.1541705E-008  0.4614232E+02  0.7816164E-02  0.1320468E+00
        -11   -1    0    0    0    0  0.00000000000E+00  0.00000000000E+00  0.45593999997E+02  0.45594000000E+02  0.51100000000E-03 0.  1.
         11   -1    0    0    0    0 -0.00000000000E+00 -0.00000000000E+00 -0.45593999997E+02  0.45594000000E+02  0.51100000000E-03 0. -1.
    9900012    2    1    2    0    0 -0.41429273341E+02 -0.40366472248E+01 -0.17217262389E+02  0.46142319469E+02  0.10000015570E+02 0.  0.
        -12    1    1    2    0    0  0.41429273341E+02  0.40366472248E+01  0.17217262389E+02  0.45045680531E+02  0.00000000000E+00 0.  1.
         11    1    3    3    0    0 -0.22484520908E+02 -0.29232442317E+01 -0.14288024330E+02  0.26800124567E+02  0.51100000000E-03 0. -1.
        -11    1    3    3    0    0 -0.12202040558E+02 -0.13107879919E+01 -0.93415685607E+00  0.12307745864E+02  0.51100000000E-03 0.  1.
         12    1    3    3    0    0 -0.67427118744E+01  0.19738499888E+00 -0.19950812028E+01  0.70344490377E+01  0.00000000000E+00 0. -1.
</event>
<event>
 7    1  0.1541705E-008  0.4614232E+02  0.7816164E-02  0.1320468E+00
        -11   -1    0    0    0    0  0.00000000000E+00  0.00000000000E+00  0.45593999997E+02  0.45594000000E+02  0.51100000000E-03 0.  1.
         11   -1    0    0    0    0 -0.00000000000E+00 -0.00000000000E+00 -0.45593999997E+02  0.45594000000E+02  0.51100000000E-03 0. -1.
    9900012    2    1    2    0    0  0.35677619174E+02  0.27330825405E+02  0.30408764340E+01  0.46142318112E+02  0.10000003201E+02 0.  0.
        -12    1    1    2    0    0 -0.35677619174E+02 -0.27330825405E+02 -0.30408764340E+01  0.45045681888E+02  0.00000000000E+00 0.  1.
         11    1    3    3    0    0  0.14955595508E+02  0.14936785926E+02 -0.21827176196E+01  0.21249509812E+02  0.51100000000E-03 0. -1.
        -11    1    3    3    0    0  0.15663078025E+01  0.35681137168E+00  0.95797665967E+00  0.18703887373E+01  0.51100000000E-03 0.  1.
         12    1    3    3    0    0  0.19155715864E+02  0.12037228107E+02  0.42656173940E+01  0.23022419562E+02  0.00000000000E+00 0. -1.
</event>
<event>
 7    1  0.1541705E-008  0.4614232E+02  0.7816164E-02  0.1320468E+00
        -11   -1    0    0    0    0  0.00000000000E+00  0.00000000000E+00  0.45593999997E+02  0.45594000000E+02  0.51100000000E-03 0.  1.
         11   -1    0    0    0    0 -0.00000000000E+00 -0.00000000000E+00 -0.45593999997E+02  0.45594000000E+02  0.51100000000E-03 0. -1.
    9900012    2    1    2    0    0 -0.44200493753E+02  0.77801210860E+01 -0.38599910965E+01  0.46142318038E+02  0.10000002524E+02 0.  0.
        -12    1    1    2    0    0  0.44200493753E+02 -0.77801210860E+01  0.38599910965E+01  0.45045681962E+02  0.00000000000E+00 0.  1.
         11    1    3    3    0    0 -0.33040535926E+02  0.65636391747E+01 -0.22679768143E+01  0.33762436118E+02  0.51100000000E-03 0. -1.
        -11    1    3    3    0    0 -0.42201893513E+01  0.18575688510E+01  0.13657033941E+01  0.48089194440E+01  0.51100000000E-03 0.  1.
         12    1    3    3    0    0 -0.69397684758E+01 -0.64108693982E+00 -0.29577176763E+01  0.75709624761E+01  0.00000000000E+00 0. -1.
</event>
<event>
 7    1  0.1541705E-008  0.4614232E+02  0.7816164E-02  0.1320468E+00
        -11   -1    0    0    0    0  0.00000000000E+00  0.00000000000E+00  0.45593999997E+02  0.45594000000E+02  0.51100000000E-03 0. -1.
         11   -1    0    0    0    0 -0.00000000000E+00 -0.00000000000E+00 -0.45593999997E+02  0.45594000000E+02  0.51100000000E-03 0.  1.
    9900012    2    1    2    0    0 -0.39579065878E+01  0.44784755049E+02  0.27882039343E+01  0.46142318847E+02  0.10000009906E+02 0.  0.
        -12    1    1    2    0    0  0.39579065878E+01 -0.44784755049E+02 -0.27882039343E+01  0.45045681153E+02  0.00000000000E+00 0.  1.
         11    1    3    3    0    0 -0.20720072322E+01  0.24802859938E+02  0.35257716821E+01  0.25137743362E+02  0.51100000000E-03 0. -1.
        -11    1    3    3    0    0 -0.11327377017E+01  0.17087152522E+02 -0.28263331172E+01  0.17356325508E+02  0.51100000000E-03 0.  1.
        -12    1    3    3    0    0 -0.75316165379E+00  0.28947425883E+01  0.20887653694E+01  0.36482499774E+01  0.00000000000E+00 0.  1.
</event>
<event>
 7    1  0.1541705E-008  0.4614231E+02  0.7816164E-02  0.1320468E+00
        -11   -1    0    0    0    0  0.00000000000E+00  0.00000000000E+00  0.45593999997E+02  0.45594000000E+02  0.51100000000E-03 0.  1.
         11   -1    0    0    0    0 -0.00000000000E+00 -0.00000000000E+00 -0.45593999997E+02  0.45594000000E+02  0.51100000000E-03 0. -1.
    9900012    2    1    2    0    0  0.34890491680E+02  0.91110085512E+01 -0.26995497937E+02  0.46142314354E+02  0.99999689314E+01 0.  0.
        -12    1    1    2    0    0 -0.34890491680E+02 -0.91110085512E+01  0.26995497937E+02  0.45045685646E+02  0.00000000000E+00 0.  1.
         11    1    3    3    0    0  0.10362361458E+02  0.33418965735E+00 -0.74868843900E+01  0.12788418817E+02  0.51100000000E-03 0.  1.
        -11    1    3    3    0    0  0.56592486012E+01  0.44841311194E+01 -0.26568099110E+01  0.76937094948E+01  0.51100000000E-03 0. -1.
         12    1    3    3    0    0  0.18868881620E+02  0.42926877745E+01 -0.16851803636E+02  0.25660186042E+02  0.00000000000E+00 0. -1.
</event>
<event>
 7    1  0.1541705E-008  0.4614232E+02  0.7816164E-02  0.1320468E+00
        -11   -1    0    0    0    0  0.00000000000E+00  0.00000000000E+00  0.45593999997E+02  0.45594000000E+02  0.51100000000E-03 0.  1.
         11   -1    0    0    0    0 -0.00000000000E+00 -0.00000000000E+00 -0.45593999997E+02  0.45594000000E+02  0.51100000000E-03 0. -1.
    9900012    2    1    2    0    0 -0.35774804859E+02 -0.17866749951E+02 -0.20737793379E+02  0.46142317735E+02  0.99999997611E+01 0.  0.
        -12    1    1    2    0    0  0.35774804859E+02  0.17866749951E+02  0.20737793379E+02  0.45045682265E+02  0.00000000000E+00 0.  1.
         11    1    3    3    0    0 -0.15489354648E+02 -0.10242685037E+02 -0.11531523467E+02  0.21858836609E+02  0.51100000000E-03 0. -1.
        -11    1    3    3    0    0 -0.19156911459E+02 -0.61547540223E+01 -0.97409366809E+01  0.22355180639E+02  0.51100000000E-03 0.  1.
        -12    1    3    3    0    0 -0.11285387512E+01 -0.14693108925E+01  0.53466676912E+00  0.19283004864E+01  0.00000000000E+00 0.  1.
</event>
<event>
 7    1  0.1541705E-008  0.4614232E+02  0.7816164E-02  0.1320468E+00
        -11   -1    0    0    0    0  0.00000000000E+00  0.00000000000E+00  0.45593999997E+02  0.45594000000E+02  0.51100000000E-03 0.  1.
         11   -1    0    0    0    0 -0.00000000000E+00 -0.00000000000E+00 -0.45593999997E+02  0.45594000000E+02  0.51100000000E-03 0. -1.
    9900012    2    1    2    0    0  0.39156441465E+02 -0.18346867602E+02 -0.12620578376E+02  0.46142318103E+02  0.10000003121E+02 0.  0.
        -12    1    1    2    0    0 -0.39156441465E+02  0.18346867602E+02  0.12620578376E+02  0.45045681897E+02  0.00000000000E+00 0.  1.
         11    1    3    3    0    0  0.33225187724E+02 -0.12407476268E+02 -0.91433929552E+01  0.36625949839E+02  0.51100000000E-03 0. -1.
        -11    1    3    3    0    0  0.34600924038E+01 -0.46351434785E+01 -0.34239722607E+01  0.67216352781E+01  0.51100000000E-03 0.  1.
         12    1    3    3    0    0  0.24711613367E+01 -0.13042478560E+01 -0.53213159677E-01  0.27947329859E+01  0.00000000000E+00 0. -1.
</event>
<event>
 7    1  0.1541705E-008  0.4614232E+02  0.7816164E-02  0.1320468E+00
        -11   -1    0    0    0    0  0.00000000000E+00  0.00000000000E+00  0.45593999997E+02  0.45594000000E+02  0.51100000000E-03 0.  1.
         11   -1    0    0    0    0 -0.00000000000E+00 -0.00000000000E+00 -0.45593999997E+02  0.45594000000E+02  0.51100000000E-03 0. -1.
    9900012    2    1    2    0    0  0.16475507565E+01 -0.38790383516E+02 -0.22840869787E+02  0.46142316417E+02  0.99999877413E+01 0.  0.
        -12    1    1    2    0    0 -0.16475507565E+01  0.38790383516E+02  0.22840869787E+02  0.45045683583E+02  0.00000000000E+00 0.  1.
         11    1    3    3    0    0  0.46668826919E+01 -0.17079585238E+02 -0.71471068006E+01  0.19093799042E+02  0.51100000000E-03 0. -1.
        -11    1    3    3    0    0 -0.18576964841E+01 -0.98278893839E+01 -0.83671157661E+01  0.13040209832E+02  0.51100000000E-03 0.  1.
         12    1    3    3    0    0 -0.11616354513E+01 -0.11882908894E+02 -0.73266472208E+01  0.14008307542E+02  0.00000000000E+00 0. -1.
</event>
<event>
 7    1  0.1541705E-008  0.4614232E+02  0.7816164E-02  0.1320468E+00
        -11   -1    0    0    0    0  0.00000000000E+00  0.00000000000E+00  0.45593999997E+02  0.45594000000E+02  0.51100000000E-03 0. -1.
         11   -1    0    0    0    0 -0.00000000000E+00 -0.00000000000E+00 -0.45593999997E+02  0.45594000000E+02  0.51100000000E-03 0.  1.
    9900012    2    1    2    0    0 -0.25050051941E+02  0.22781825146E+02  0.29708531028E+02  0.46142317909E+02  0.10000001344E+02 0.  0.
        -12    1    1    2    0    0  0.25050051941E+02 -0.22781825146E+02 -0.29708531028E+02  0.45045682091E+02  0.00000000000E+00 0.  1.
         11    1    3    3    0    0 -0.76641851522E+01  0.95067636443E+01  0.14106172783E+02  0.18657502509E+02  0.51100000000E-03 0. -1.
        -11    1    3    3    0    0 -0.29182331736E+01 -0.92630944568E-01  0.22845991049E+01  0.37072980294E+01  0.51100000000E-03 0.  1.
         12    1    3    3    0    0 -0.14467633615E+02  0.13367692446E+02  0.13317759141E+02  0.23777517370E+02  0.00000000000E+00 0. -1.
</event>
<event>
 7    1  0.1541705E-008  0.4614232E+02  0.7816164E-02  0.1320468E+00
        -11   -1    0    0    0    0  0.00000000000E+00  0.00000000000E+00  0.45593999997E+02  0.45594000000E+02  0.51100000000E-03 0. -1.
         11   -1    0    0    0    0 -0.00000000000E+00 -0.00000000000E+00 -0.45593999997E+02  0.45594000000E+02  0.51100000000E-03 0.  1.
    9900012    2    1    2    0    0 -0.35519214727E+02 -0.42410411520E+00  0.27700525297E+02  0.46142316735E+02  0.99999906399E+01 0.  0.
        -12    1    1    2    0    0  0.35519214727E+02  0.42410411520E+00 -0.27700525297E+02  0.45045683265E+02  0.00000000000E+00 0.  1.
         11    1    3    3    0    0 -0.93090369263E+01 -0.45148045665E+00  0.81528714344E+01  0.12382702289E+02  0.51100000000E-03 0. -1.
        -11    1    3    3    0    0 -0.11471430067E+02 -0.13941508361E+01  0.13485986302E+02  0.17759763262E+02  0.51100000000E-03 0.  1.
        -12    1    3    3    0    0 -0.14738747733E+02  0.14215271776E+01  0.60616675608E+01  0.15999851183E+02  0.00000000000E+00 0.  1.
</event>
<event>
 7    1  0.1541705E-008  0.4614232E+02  0.7816164E-02  0.1320468E+00
        -11   -1    0    0    0    0  0.00000000000E+00  0.00000000000E+00  0.45593999997E+02  0.45594000000E+02  0.51100000000E-03 0. -1.
         11   -1    0    0    0    0 -0.00000000000E+00 -0.00000000000E+00 -0.45593999997E+02  0.45594000000E+02  0.51100000000E-03 0.  1.
    9900012    2    1    2    0    0  0.85240975684E+01  0.42369481702E+02 -0.12699613934E+02  0.46142318596E+02  0.10000007615E+02 0.  0.
        -12    1    1    2    0    0 -0.85240975684E+01 -0.42369481702E+02  0.12699613934E+02  0.45045681404E+02  0.00000000000E+00 0.  1.
         11    1    3    3    0    0  0.81860068896E+01  0.34950632477E+02 -0.12823012055E+02  0.38118067340E+02  0.51100000000E-03 0. -1.
        -11    1    3    3    0    0 -0.58873285696E+00  0.68706844242E-01  0.16689626554E+00  0.61577725833E+00  0.51100000000E-03 0.  1.
         12    1    3    3    0    0  0.92682353578E+00  0.73501423811E+01 -0.43498144618E-01  0.74084739979E+01  0.00000000000E+00 0. -1.
</event>
<event>
 7    1  0.1541705E-008  0.4614231E+02  0.7816164E-02  0.1320468E+00
        -11   -1    0    0    0    0  0.00000000000E+00  0.00000000000E+00  0.45593999997E+02  0.45594000000E+02  0.51100000000E-03 0.  1.
         11   -1    0    0    0    0 -0.00000000000E+00 -0.00000000000E+00 -0.45593999997E+02  0.45594000000E+02  0.51100000000E-03 0. -1.
    9900012    2    1    2    0    0 -0.34783680313E+02  0.24357195788E+02 -0.15031181252E+02  0.46142314162E+02  0.99999671836E+01 0.  0.
        -12    1    1    2    0    0  0.34783680313E+02 -0.24357195788E+02  0.15031181252E+02  0.45045685838E+02  0.00000000000E+00 0.  1.
         11    1    3    3    0    0 -0.16628369453E+02  0.13982428359E+02 -0.11939205391E+02  0.24790231929E+02  0.51100000000E-03 0. -1.
        -11    1    3    3    0    0 -0.15231935096E+02  0.74214620186E+01 -0.29163494192E+01  0.17192877579E+02  0.51100000000E-03 0.  1.
        -12    1    3    3    0    0 -0.29233757641E+01  0.29533054108E+01 -0.17562644146E+00  0.41592046541E+01  0.00000000000E+00 0.  1.
</event>
<event>
 7    1  0.1541705E-008  0.4614232E+02  0.7816164E-02  0.1320468E+00
        -11   -1    0    0    0    0  0.00000000000E+00  0.00000000000E+00  0.45593999997E+02  0.45594000000E+02  0.51100000000E-03 0.  1.
         11   -1    0    0    0    0 -0.00000000000E+00 -0.00000000000E+00 -0.45593999997E+02  0.45594000000E+02  0.51100000000E-03 0. -1.
    9900012    2    1    2    0    0  0.33689552753E+02 -0.91287411819E+01 -0.28474437783E+02  0.46142317773E+02  0.10000000104E+02 0.  0.
        -12    1    1    2    0    0 -0.33689552753E+02  0.91287411819E+01  0.28474437783E+02  0.45045682227E+02  0.00000000000E+00 0.  1.
         11    1    3    3    0    0  0.97801248577E+01 -0.92267020927E+00 -0.94825415708E+01  0.13653598700E+02  0.51100000000E-03 0. -1.
        -11    1    3    3    0    0  0.20863424832E+02 -0.69384786779E+01 -0.19189958602E+02  0.29183548337E+02  0.51100000000E-03 0.  1.
        -12    1    3    3    0    0  0.30460030631E+01 -0.12675922947E+01  0.19806238991E+00  0.33051707363E+01  0.00000000000E+00 0.  1.
</event>
<event>
 7    1  0.1541705E-008  0.4614232E+02  0.7816164E-02  0.1320468E+00
        -11   -1    0    0    0    0  0.00000000000E+00  0.00000000000E+00  0.45593999997E+02  0.45594000000E+02  0.51100000000E-03 0.  1.
         11   -1    0    0    0    0 -0.00000000000E+00 -0.00000000000E+00 -0.45593999997E+02  0.45594000000E+02  0.51100000000E-03 0. -1.
    9900012    2    1    2    0    0 -0.22441583074E+01 -0.14564722467E+02 -0.42566955763E+02  0.46142321961E+02  0.10000038299E+02 0.  0.
        -12    1    1    2    0    0  0.22441583074E+01  0.14564722467E+02  0.42566955763E+02  0.45045678039E+02  0.00000000000E+00 0.  1.
         11    1    3    3    0    0  0.14904672009E+01 -0.11336025115E+02 -0.26813885774E+02  0.29149810093E+02  0.51100000000E-03 0. -1.
        -11    1    3    3    0    0 -0.25487673640E+01 -0.47313100391E+00 -0.33725381758E+01  0.42537139103E+01  0.51100000000E-03 0.  1.
        -12    1    3    3    0    0 -0.11858581443E+01 -0.27555663480E+01 -0.12380531813E+02  0.12738797958E+02  0.00000000000E+00 0.  1.
</event>
<event>
 7    1  0.1541705E-008  0.4614232E+02  0.7816164E-02  0.1320468E+00
        -11   -1    0    0    0    0  0.00000000000E+00  0.00000000000E+00  0.45593999997E+02  0.45594000000E+02  0.51100000000E-03 0.  1.
         11   -1    0    0    0    0 -0.00000000000E+00 -0.00000000000E+00 -0.45593999997E+02  0.45594000000E+02  0.51100000000E-03 0. -1.
    9900012    2    1    2    0    0 -0.40724261679E+02  0.70830872412E+01 -0.17901897183E+02  0.46142317222E+02  0.99999950846E+01 0.  0.
        -12    1    1    2    0    0  0.40724261679E+02 -0.70830872412E+01  0.17901897183E+02  0.45045682778E+02  0.00000000000E+00 0.  1.
         11    1    3    3    0    0 -0.15311251646E+02  0.55030288705E+01 -0.70387332486E+01  0.17727422816E+02  0.51100000000E-03 0.  1.
        -11    1    3    3    0    0 -0.19045032532E+02  0.15506926104E+01 -0.49826986725E+01  0.19747030107E+02  0.51100000000E-03 0. -1.
        -12    1    3    3    0    0 -0.63679775017E+01  0.29365760240E-01 -0.58804652618E+01  0.86678642990E+01  0.00000000000E+00 0.  1.
</event>
<event>
 7    1  0.1541705E-008  0.4614232E+02  0.7816164E-02  0.1320468E+00
        -11   -1    0    0    0    0  0.00000000000E+00  0.00000000000E+00  0.45593999997E+02  0.45594000000E+02  0.51100000000E-03 0.  1.
         11   -1    0    0    0    0 -0.00000000000E+00 -0.00000000000E+00 -0.45593999997E+02  0.45594000000E+02  0.51100000000E-03 0. -1.
    9900012    2    1    2    0    0  0.10372142619E+02  0.14714307083E+00 -0.43835038219E+02  0.46142316863E+02  0.99999918140E+01 0.  0.
        -12    1    1    2    0    0 -0.10372142619E+02 -0.14714307083E+00  0.43835038219E+02  0.45045683137E+02  0.00000000000E+00 0.  1.
         11    1    3    3    0    0  0.74930941412E+01  0.10573041456E+01 -0.12160975806E+02  0.14323186960E+02  0.51100000000E-03 0. -1.
        -11    1    3    3    0    0  0.45509561833E+00 -0.23850361546E+00 -0.61542271726E+01  0.61756382949E+01  0.51100000000E-03 0.  1.
         12    1    3    3    0    0  0.24239528596E+01 -0.67165745930E+00 -0.25519835240E+02  0.25643491608E+02  0.00000000000E+00 0. -1.
</event>
<event>
 7    1  0.1541705E-008  0.4614232E+02  0.7816164E-02  0.1320468E+00
        -11   -1    0    0    0    0  0.00000000000E+00  0.00000000000E+00  0.45593999997E+02  0.45594000000E+02  0.51100000000E-03 0. -1.
         11   -1    0    0    0    0 -0.00000000000E+00 -0.00000000000E+00 -0.45593999997E+02  0.45594000000E+02  0.51100000000E-03 0.  1.
    9900012    2    1    2    0    0  0.20359098784E+02 -0.39275309503E+02  0.84894237334E+01  0.46142321460E+02  0.10000033726E+02 0.  0.
        -12    1    1    2    0    0 -0.20359098784E+02  0.39275309503E+02 -0.84894237334E+01  0.45045678540E+02  0.00000000000E+00 0.  1.
         11    1    3    3    0    0  0.18498189400E+02 -0.33569611203E+02  0.48821949229E+01  0.38638551149E+02  0.51100000000E-03 0. -1.
        -11    1    3    3    0    0 -0.51705781533E+00 -0.16917626463E+01  0.32293759712E+00  0.17982487561E+01  0.51100000000E-03 0.  1.
         12    1    3    3    0    0  0.23779672000E+01 -0.40139356537E+01  0.32842912134E+01  0.57055215546E+01  0.00000000000E+00 0. -1.
</event>
<event>
 7    1  0.1541705E-008  0.4614232E+02  0.7816164E-02  0.1320468E+00
        -11   -1    0    0    0    0  0.00000000000E+00  0.00000000000E+00  0.45593999997E+02  0.45594000000E+02  0.51100000000E-03 0. -1.
         11   -1    0    0    0    0 -0.00000000000E+00 -0.00000000000E+00 -0.45593999997E+02  0.45594000000E+02  0.51100000000E-03 0.  1.
    9900012    2    1    2    0    0 -0.33889967055E+02 -0.11019836826E+02  0.27552618568E+02  0.46142318069E+02  0.10000002810E+02 0.  0.
        -12    1    1    2    0    0  0.33889967055E+02  0.11019836826E+02 -0.27552618568E+02  0.45045681931E+02  0.00000000000E+00 0.  1.
         11    1    3    3    0    0 -0.82058981467E+01  0.85063954827E+00  0.80107714845E+01  0.11499252675E+02  0.51100000000E-03 0. -1.
        -11    1    3    3    0    0 -0.18367029639E+02 -0.65942486224E+01  0.12225430088E+02  0.23028092274E+02  0.51100000000E-03 0.  1.
        -12    1    3    3    0    0 -0.73170392691E+01 -0.52762277521E+01  0.73164169952E+01  0.11614973121E+02  0.00000000000E+00 0.  1.
</event>
<event>
 7    1  0.1541705E-008  0.4614232E+02  0.7816164E-02  0.1320468E+00
        -11   -1    0    0    0    0  0.00000000000E+00  0.00000000000E+00  0.45593999997E+02  0.45594000000E+02  0.51100000000E-03 0.  1.
         11   -1    0    0    0    0 -0.00000000000E+00 -0.00000000000E+00 -0.45593999997E+02  0.45594000000E+02  0.51100000000E-03 0. -1.
    9900012    2    1    2    0    0  0.17614332426E+02 -0.60448275785E+01 -0.41015957508E+02  0.46142318547E+02  0.10000007170E+02 0.  0.
        -12    1    1    2    0    0 -0.17614332426E+02  0.60448275785E+01  0.41015957508E+02  0.45045681453E+02  0.00000000000E+00 0.  1.
         11    1    3    3    0    0  0.64659684670E+01 -0.54668140968E+01 -0.11709011773E+02  0.14449766834E+02  0.51100000000E-03 0.  1.
        -11    1    3    3    0    0  0.23194164363E+01  0.77733743662E+00 -0.27847385066E+01  0.37065772495E+01  0.51100000000E-03 0. -1.
         12    1    3    3    0    0  0.88289475228E+01 -0.13553509183E+01 -0.26522207228E+02  0.27985974464E+02  0.00000000000E+00 0. -1.
</event>
<event>
 7    1  0.1541705E-008  0.4614232E+02  0.7816164E-02  0.1320468E+00
        -11   -1    0    0    0    0  0.00000000000E+00  0.00000000000E+00  0.45593999997E+02  0.45594000000E+02  0.51100000000E-03 0.  1.
         11   -1    0    0    0    0 -0.00000000000E+00 -0.00000000000E+00 -0.45593999997E+02  0.45594000000E+02  0.51100000000E-03 0. -1.
    9900012    2    1    2    0    0 -0.19140398465E+02 -0.31090259455E+02 -0.26384738376E+02  0.46142317571E+02  0.99999982643E+01 0.  0.
        -12    1    1    2    0    0  0.19140398465E+02  0.31090259455E+02  0.26384738376E+02  0.45045682429E+02  0.00000000000E+00 0.  1.
         11    1    3    3    0    0 -0.84153384305E+01 -0.22346639209E+02 -0.15366800204E+02  0.28395928468E+02  0.51100000000E-03 0. -1.
        -11    1    3    3    0    0 -0.94946683577E+01 -0.82195354439E+01 -0.96937849818E+01  0.15864392761E+02  0.51100000000E-03 0.  1.
         12    1    3    3    0    0 -0.12303916769E+01 -0.52408480221E+00 -0.13241531902E+01  0.18819963416E+01  0.00000000000E+00 0. -1.
</event>
<event>
 7    1  0.1541705E-008  0.4614232E+02  0.7816164E-02  0.1320468E+00
        -11   -1    0    0    0    0  0.00000000000E+00  0.00000000000E+00  0.45593999997E+02  0.45594000000E+02  0.51100000000E-03 0.  1.
         11   -1    0    0    0    0 -0.00000000000E+00 -0.00000000000E+00 -0.45593999997E+02  0.45594000000E+02  0.51100000000E-03 0. -1.
    9900012    2    1    2    0    0  0.29017975264E+01 -0.32244632799E+02 -0.31320547400E+02  0.46142318047E+02  0.10000002605E+02 0.  0.
        -12    1    1    2    0    0 -0.29017975264E+01  0.32244632799E+02  0.31320547400E+02  0.45045681953E+02  0.00000000000E+00 0.  1.
         11    1    3    3    0    0  0.42928725587E+00 -0.30231447015E+00 -0.22365321454E+01  0.22973371293E+01  0.51100000000E-03 0. -1.
        -11    1    3    3    0    0  0.28846048968E+01 -0.43849412415E+01 -0.45305841950E+01  0.69336028521E+01  0.51100000000E-03 0.  1.
         12    1    3    3    0    0 -0.41209462631E+00 -0.27557377087E+02 -0.24553431060E+02  0.36911378065E+02  0.00000000000E+00 0. -1.
</event>
<event>
 7    1  0.1541705E-008  0.4614232E+02  0.7816164E-02  0.1320468E+00
        -11   -1    0    0    0    0  0.00000000000E+00  0.00000000000E+00  0.45593999997E+02  0.45594000000E+02  0.51100000000E-03 0.  1.
         11   -1    0    0    0    0 -0.00000000000E+00 -0.00000000000E+00 -0.45593999997E+02  0.45594000000E+02  0.51100000000E-03 0. -1.
    9900012    2    1    2    0    0  0.10681841388E+02 -0.12729501569E+02 -0.41868504946E+02  0.46142315944E+02  0.99999834321E+01 0.  0.
        -12    1    1    2    0    0 -0.10681841388E+02  0.12729501569E+02  0.41868504946E+02  0.45045684056E+02  0.00000000000E+00 0.  1.
         11    1    3    3    0    0  0.40436638003E+01 -0.80580001687E+01 -0.11177225283E+02  0.14360116606E+02  0.51100000000E-03 0. -1.
        -11    1    3    3    0    0  0.35168710016E+01 -0.26339381115E+01 -0.19408098595E+02  0.19899253829E+02  0.51100000000E-03 0.  1.
         12    1    3    3    0    0  0.31213065864E+01 -0.20375632885E+01 -0.11283181068E+02  0.11882945509E+02  0.00000000000E+00 0. -1.
</event>
<event>
 7    1  0.1541705E-008  0.4614232E+02  0.7816164E-02  0.1320468E+00
        -11   -1    0    0    0    0  0.00000000000E+00  0.00000000000E+00  0.45593999997E+02  0.45594000000E+02  0.51100000000E-03 0.  1.
         11   -1    0    0    0    0 -0.00000000000E+00 -0.00000000000E+00 -0.45593999997E+02  0.45594000000E+02  0.51100000000E-03 0. -1.
    9900012    2    1    2    0    0  0.20352678163E+02  0.22038314332E+01 -0.40125119072E+02  0.46142316944E+02  0.99999925480E+01 0.  0.
        -12    1    1    2    0    0 -0.20352678163E+02 -0.22038314332E+01  0.40125119072E+02  0.45045683056E+02  0.00000000000E+00 0.  1.
         11    1    3    3    0    0  0.90156736846E+01  0.25086923457E+01 -0.19291122401E+02  0.21441159321E+02  0.51100000000E-03 0. -1.
        -11    1    3    3    0    0  0.35233017410E+01  0.71321730721E+00 -0.13379639668E+02  0.13854136277E+02  0.51100000000E-03 0.  1.
        -12    1    3    3    0    0  0.78137027378E+01 -0.10180782197E+01 -0.74543570034E+01  0.10847021346E+02  0.00000000000E+00 0.  1.
</event>
<event>
 7    1  0.1541705E-008  0.4614232E+02  0.7816164E-02  0.1320468E+00
        -11   -1    0    0    0    0  0.00000000000E+00  0.00000000000E+00  0.45593999997E+02  0.45594000000E+02  0.51100000000E-03 0.  1.
         11   -1    0    0    0    0 -0.00000000000E+00 -0.00000000000E+00 -0.45593999997E+02  0.45594000000E+02  0.51100000000E-03 0. -1.
    9900012    2    1    2    0    0  0.38823962182E+02  0.75311457371E+01 -0.21566067582E+02  0.46142318003E+02  0.10000002206E+02 0.  0.
        -12    1    1    2    0    0 -0.38823962182E+02 -0.75311457371E+01  0.21566067582E+02  0.45045681997E+02  0.00000000000E+00 0.  1.
         11    1    3    3    0    0  0.10699491652E+02  0.24179442092E+01 -0.15523157028E+01  0.11078594681E+02  0.51100000000E-03 0. -1.
        -11    1    3    3    0    0  0.12593869193E+02  0.15541383492E+01 -0.10766755982E+02  0.16641632188E+02  0.51100000000E-03 0.  1.
        -12    1    3    3    0    0  0.15530601337E+02  0.35590631787E+01 -0.92469958977E+01  0.18422091133E+02  0.00000000000E+00 0.  1.
</event>
<event>
 7    1  0.1541705E-008  0.4614232E+02  0.7816164E-02  0.1320468E+00
        -11   -1    0    0    0    0  0.00000000000E+00  0.00000000000E+00  0.45593999997E+02  0.45594000000E+02  0.51100000000E-03 0.  1.
         11   -1    0    0    0    0 -0.00000000000E+00 -0.00000000000E+00 -0.45593999997E+02  0.45594000000E+02  0.51100000000E-03 0. -1.
    9900012    2    1    2    0    0  0.41532994630E+02 -0.13417792087E+02 -0.11139422455E+02  0.46142317409E+02  0.99999967881E+01 0.  0.
        -12    1    1    2    0    0 -0.41532994630E+02  0.13417792087E+02  0.11139422455E+02  0.45045682591E+02  0.00000000000E+00 0.  1.
         11    1    3    3    0    0  0.17538990170E+02 -0.35016136255E+01 -0.43605374751E+01  0.18409013050E+02  0.51100000000E-03 0. -1.
        -11    1    3    3    0    0  0.16888051679E+02 -0.82170888727E+01 -0.17473663986E+01  0.18862134785E+02  0.51100000000E-03 0.  1.
        -12    1    3    3    0    0  0.71059527815E+01 -0.16990895893E+01 -0.50315185815E+01  0.88711695735E+01  0.00000000000E+00 0.  1.
</event>
<event>
 7    1  0.1541705E-008  0.4614231E+02  0.7816164E-02  0.1320468E+00
        -11   -1    0    0    0    0  0.00000000000E+00  0.00000000000E+00  0.45593999997E+02  0.45594000000E+02  0.51100000000E-03 0.  1.
         11   -1    0    0    0    0 -0.00000000000E+00 -0.00000000000E+00 -0.45593999997E+02  0.45594000000E+02  0.51100000000E-03 0. -1.
    9900012    2    1    2    0    0 -0.44692505768E+02 -0.35866039023E+01  0.43393546208E+01  0.46142314326E+02  0.99999686743E+01 0.  0.
        -12    1    1    2    0    0  0.44692505768E+02  0.35866039023E+01 -0.43393546208E+01  0.45045685674E+02  0.00000000000E+00 0.  1.
         11    1    3    3    0    0 -0.32674216574E+02 -0.35673355465E+01  0.20244570454E+01  0.32930665621E+02  0.51100000000E-03 0. -1.
        -11    1    3    3    0    0 -0.82103449605E+01  0.20346326662E+01  0.26712435119E+01  0.88704586475E+01  0.51100000000E-03 0.  1.
         12    1    3    3    0    0 -0.38079442326E+01 -0.20539010220E+01 -0.35634593649E+00  0.43411900573E+01  0.00000000000E+00 0. -1.
</event>
<event>
 7    1  0.1541705E-008  0.4614232E+02  0.7816164E-02  0.1320468E+00
        -11   -1    0    0    0    0  0.00000000000E+00  0.00000000000E+00  0.45593999997E+02  0.45594000000E+02  0.51100000000E-03 0. -1.
         11   -1    0    0    0    0 -0.00000000000E+00 -0.00000000000E+00 -0.45593999997E+02  0.45594000000E+02  0.51100000000E-03 0.  1.
    9900012    2    1    2    0    0  0.14443074132E+01  0.12247789950E+02  0.43324578702E+02  0.46142317606E+02  0.99999985901E+01 0.  0.
        -12    1    1    2    0    0 -0.14443074132E+01 -0.12247789950E+02 -0.43324578702E+02  0.45045682394E+02  0.00000000000E+00 0.  1.
         11    1    3    3    0    0  0.40073393996E+01  0.72078222992E+01  0.16035730080E+02  0.18032085593E+02  0.51100000000E-03 0. -1.
        -11    1    3    3    0    0 -0.25328944005E+01  0.40101782111E+01  0.26141147800E+02  0.26567963639E+02  0.51100000000E-03 0.  1.
         12    1    3    3    0    0 -0.30137585906E-01  0.10297894397E+01  0.11477008219E+01  0.15422683751E+01  0.00000000000E+00 0. -1.
</event>
<event>
 7    1  0.1541705E-008  0.4614232E+02  0.7816164E-02  0.1320468E+00
        -11   -1    0    0    0    0  0.00000000000E+00  0.00000000000E+00  0.45593999997E+02  0.45594000000E+02  0.51100000000E-03 0.  1.
         11   -1    0    0    0    0 -0.00000000000E+00 -0.00000000000E+00 -0.45593999997E+02  0.45594000000E+02  0.51100000000E-03 0. -1.
    9900012    2    1    2    0    0 -0.35670736186E+02 -0.37643653828E+00 -0.27505824009E+02  0.46142317866E+02  0.10000000956E+02 0.  0.
        -12    1    1    2    0    0  0.35670736186E+02  0.37643653828E+00  0.27505824009E+02  0.45045682134E+02  0.00000000000E+00 0.  1.
         11    1    3    3    0    0 -0.18141356198E+02  0.67041075082E+00 -0.93814505164E+01  0.20434526403E+02  0.51100000000E-03 0. -1.
        -11    1    3    3    0    0 -0.17013918836E+02 -0.82268516126E-02 -0.17424867589E+02  0.24353634484E+02  0.51100000000E-03 0.  1.
        -12    1    3    3    0    0 -0.51546115133E+00 -0.10386204375E+01 -0.69950590404E+00  0.13541569782E+01  0.00000000000E+00 0.  1.
</event>
<event>
 7    1  0.1541705E-008  0.4614232E+02  0.7816164E-02  0.1320468E+00
        -11   -1    0    0    0    0  0.00000000000E+00  0.00000000000E+00  0.45593999997E+02  0.45594000000E+02  0.51100000000E-03 0.  1.
         11   -1    0    0    0    0 -0.00000000000E+00 -0.00000000000E+00 -0.45593999997E+02  0.45594000000E+02  0.51100000000E-03 0. -1.
    9900012    2    1    2    0    0  0.43732816813E+02  0.62706152955E+00 -0.10777799992E+02  0.46142318239E+02  0.10000004361E+02 0.  0.
        -12    1    1    2    0    0 -0.43732816813E+02 -0.62706152955E+00  0.10777799992E+02  0.45045681761E+02  0.00000000000E+00 0.  1.
         11    1    3    3    0    0  0.71826277600E+01  0.74709958742E+00 -0.37146197143E+01  0.81207573056E+01  0.51100000000E-03 0.  1.
        -11    1    3    3    0    0  0.14431431972E+02 -0.16589424443E+00 -0.66703039827E+01  0.15899267441E+02  0.51100000000E-03 0. -1.
        -12    1    3    3    0    0  0.22118757081E+02  0.45856186556E-01 -0.39287629534E+00  0.22122293493E+02  0.00000000000E+00 0.  1.
</event>
<event>
 7    1  0.1541705E-008  0.4614232E+02  0.7816164E-02  0.1320468E+00
        -11   -1    0    0    0    0  0.00000000000E+00  0.00000000000E+00  0.45593999997E+02  0.45594000000E+02  0.51100000000E-03 0. -1.
         11   -1    0    0    0    0 -0.00000000000E+00 -0.00000000000E+00 -0.45593999997E+02  0.45594000000E+02  0.51100000000E-03 0.  1.
    9900012    2    1    2    0    0 -0.12947217227E+02 -0.38409460636E+02  0.19651879112E+02  0.46142318154E+02  0.10000003587E+02 0.  0.
        -12    1    1    2    0    0  0.12947217227E+02  0.38409460636E+02 -0.19651879112E+02  0.45045681846E+02  0.00000000000E+00 0.  1.
         11    1    3    3    0    0 -0.70577050572E+01 -0.27168641669E+02  0.11500347936E+02  0.30334869272E+02  0.51100000000E-03 0. -1.
        -11    1    3    3    0    0 -0.42488077349E+01 -0.10482654181E+02  0.82458406356E+01  0.13997581716E+02  0.51100000000E-03 0.  1.
         12    1    3    3    0    0 -0.16407044352E+01 -0.75816478625E+00 -0.94309460000E-01  0.18098671667E+01  0.00000000000E+00 0. -1.
</event>
<event>
 7    1  0.1541705E-008  0.4614232E+02  0.7816164E-02  0.1320468E+00
        -11   -1    0    0    0    0  0.00000000000E+00  0.00000000000E+00  0.45593999997E+02  0.45594000000E+02  0.51100000000E-03 0.  1.
         11   -1    0    0    0    0 -0.00000000000E+00 -0.00000000000E+00 -0.45593999997E+02  0.45594000000E+02  0.51100000000E-03 0. -1.
    9900012    2    1    2    0    0 -0.43630610183E+02  0.76441548773E+01  0.81884200253E+01  0.46142317951E+02  0.10000001736E+02 0.  0.
        -12    1    1    2    0    0  0.43630610183E+02 -0.76441548773E+01 -0.81884200253E+01  0.45045682049E+02  0.00000000000E+00 0.  1.
         11    1    3    3    0    0 -0.67687597204E+01  0.27749669704E+01 -0.13568031417E+01  0.74402597310E+01  0.51100000000E-03 0. -1.
        -11    1    3    3    0    0 -0.27889758253E+02  0.57011307817E+01  0.79016132228E+01  0.29542799450E+02  0.51100000000E-03 0.  1.
        -12    1    3    3    0    0 -0.89720922099E+01 -0.83194287478E+00  0.16436099442E+01  0.91592587701E+01  0.00000000000E+00 0.  1.
</event>
<event>
 7    1  0.1541705E-008  0.4614232E+02  0.7816164E-02  0.1320468E+00
        -11   -1    0    0    0    0  0.00000000000E+00  0.00000000000E+00  0.45593999997E+02  0.45594000000E+02  0.51100000000E-03 0.  1.
         11   -1    0    0    0    0 -0.00000000000E+00 -0.00000000000E+00 -0.45593999997E+02  0.45594000000E+02  0.51100000000E-03 0. -1.
    9900012    2    1    2    0    0  0.22486783319E+02  0.11106672391E+02 -0.37417908537E+02  0.46142317910E+02  0.10000001362E+02 0.  0.
        -12    1    1    2    0    0 -0.22486783319E+02 -0.11106672391E+02  0.37417908537E+02  0.45045682090E+02  0.00000000000E+00 0.  1.
         11    1    3    3    0    0  0.15252562627E+01  0.36434183300E+01 -0.89403617867E+01  0.97739947274E+01  0.51100000000E-03 0. -1.
        -11    1    3    3    0    0  0.20548238553E+01 -0.48286653960E+00 -0.27581685810E+01  0.34731765509E+01  0.51100000000E-03 0.  1.
         12    1    3    3    0    0  0.18906703201E+02  0.79461206010E+01 -0.25719378169E+02  0.32895146632E+02  0.00000000000E+00 0. -1.
</event>
<event>
 7    1  0.1541705E-008  0.4614232E+02  0.7816164E-02  0.1320468E+00
        -11   -1    0    0    0    0  0.00000000000E+00  0.00000000000E+00  0.45593999997E+02  0.45594000000E+02  0.51100000000E-03 0.  1.
         11   -1    0    0    0    0 -0.00000000000E+00 -0.00000000000E+00 -0.45593999997E+02  0.45594000000E+02  0.51100000000E-03 0. -1.
    9900012    2    1    2    0    0  0.44600786255E+02  0.28097494947E+01 -0.56558460083E+01  0.46142318511E+02  0.10000006834E+02 0.  0.
        -12    1    1    2    0    0 -0.44600786255E+02 -0.28097494947E+01  0.56558460083E+01  0.45045681489E+02  0.00000000000E+00 0.  1.
         11    1    3    3    0    0  0.15607135154E+02  0.47819590339E+01 -0.44561039428E+00  0.16329371353E+02  0.51100000000E-03 0. -1.
        -11    1    3    3    0    0  0.82582323812E+00 -0.40913634339E+00 -0.87462839879E+00  0.12705713932E+01  0.51100000000E-03 0.  1.
         12    1    3    3    0    0  0.28167827863E+02 -0.15630731958E+01 -0.43356072152E+01  0.28542375764E+02  0.00000000000E+00 0. -1.
</event>
<event>
 7    1  0.1541705E-008  0.4614232E+02  0.7816164E-02  0.1320468E+00
        -11   -1    0    0    0    0  0.00000000000E+00  0.00000000000E+00  0.45593999997E+02  0.45594000000E+02  0.51100000000E-03 0. -1.
         11   -1    0    0    0    0 -0.00000000000E+00 -0.00000000000E+00 -0.45593999997E+02  0.45594000000E+02  0.51100000000E-03 0.  1.
    9900012    2    1    2    0    0 -0.41762025486E+02 -0.63381975611E+01  0.15648450681E+02  0.46142317302E+02  0.99999958114E+01 0.  0.
        -12    1    1    2    0    0  0.41762025486E+02  0.63381975611E+01 -0.15648450681E+02  0.45045682698E+02  0.00000000000E+00 0.  1.
         11    1    3    3    0    0 -0.97006876379E+01 -0.14954370857E+01  0.64788886590E+01  0.11760768310E+02  0.51100000000E-03 0. -1.
        -11    1    3    3    0    0 -0.28352242734E+02 -0.59921991059E+01  0.94704062839E+01  0.30486795725E+02  0.51100000000E-03 0.  1.
        -12    1    3    3    0    0 -0.37090951147E+01  0.11494386305E+01 -0.30084426244E+00  0.38947532663E+01  0.00000000000E+00 0.  1.
</event>
<event>
 7    1  0.1541705E-008  0.4614232E+02  0.7816164E-02  0.1320468E+00
        -11   -1    0    0    0    0  0.00000000000E+00  0.00000000000E+00  0.45593999997E+02  0.45594000000E+02  0.51100000000E-03 0.  1.
         11   -1    0    0    0    0 -0.00000000000E+00 -0.00000000000E+00 -0.45593999997E+02  0.45594000000E+02  0.51100000000E-03 0. -1.
    9900012    2    1    2    0    0 -0.23335304221E+02 -0.31226461041E+02 -0.22571781321E+02  0.46142316475E+02  0.99999882759E+01 0.  0.
        -12    1    1    2    0    0  0.23335304221E+02  0.31226461041E+02  0.22571781321E+02  0.45045683525E+02  0.00000000000E+00 0.  1.
         11    1    3    3    0    0 -0.60056967813E+01 -0.12413362495E+02 -0.68635809242E+01  0.15403528999E+02  0.51100000000E-03 0. -1.
        -11    1    3    3    0    0 -0.32208696785E+01 -0.63335612886E+00 -0.30201471945E+01  0.44605415377E+01  0.51100000000E-03 0.  1.
        -12    1    3    3    0    0 -0.14108737761E+02 -0.18179742417E+02 -0.12688053202E+02  0.26278245938E+02  0.00000000000E+00 0.  1.
</event>
<event>
 7    1  0.1541705E-008  0.4614232E+02  0.7816164E-02  0.1320468E+00
        -11   -1    0    0    0    0  0.00000000000E+00  0.00000000000E+00  0.45593999997E+02  0.45594000000E+02  0.51100000000E-03 0.  1.
         11   -1    0    0    0    0 -0.00000000000E+00 -0.00000000000E+00 -0.45593999997E+02  0.45594000000E+02  0.51100000000E-03 0. -1.
    9900012    2    1    2    0    0  0.16724759585E+02  0.90890699619E+01 -0.40826274682E+02  0.46142317850E+02  0.10000000808E+02 0.  0.
        -12    1    1    2    0    0 -0.16724759585E+02 -0.90890699619E+01  0.40826274682E+02  0.45045682150E+02  0.00000000000E+00 0.  1.
         11    1    3    3    0    0  0.63963809061E+01  0.25050871634E+01 -0.17447923954E+02  0.18751511965E+02  0.51100000000E-03 0. -1.
        -11    1    3    3    0    0  0.78353488491E+01  0.75641772898E+01 -0.21555732162E+02  0.24150756902E+02  0.51100000000E-03 0.  1.
        -12    1    3    3    0    0  0.24930298297E+01 -0.98019449132E+00 -0.18226185668E+01  0.32400489831E+01  0.00000000000E+00 0.  1.
</event>
<event>
 7    1  0.1541705E-008  0.4614232E+02  0.7816164E-02  0.1320468E+00
        -11   -1    0    0    0    0  0.00000000000E+00  0.00000000000E+00  0.45593999997E+02  0.45594000000E+02  0.51100000000E-03 0.  1.
         11   -1    0    0    0    0 -0.00000000000E+00 -0.00000000000E+00 -0.45593999997E+02  0.45594000000E+02  0.51100000000E-03 0. -1.
    9900012    2    1    2    0    0 -0.38732346202E+02 -0.23141968679E+01 -0.22881505904E+02  0.46142318055E+02  0.10000002679E+02 0.  0.
        -12    1    1    2    0    0  0.38732346202E+02  0.23141968679E+01  0.22881505904E+02  0.45045681945E+02  0.00000000000E+00 0.  1.
         11    1    3    3    0    0 -0.21289501376E+02 -0.37456207594E+01 -0.10198511824E+02  0.23901510149E+02  0.51100000000E-03 0. -1.
        -11    1    3    3    0    0 -0.10424914977E+02 -0.17056647539E+00 -0.10305617567E+02  0.14659935160E+02  0.51100000000E-03 0.  1.
        -12    1    3    3    0    0 -0.70179298495E+01  0.16019903669E+01 -0.23773765131E+01  0.75808727461E+01  0.00000000000E+00 0.  1.
</event>
<event>
 7    1  0.1541705E-008  0.4614232E+02  0.7816164E-02  0.1320468E+00
        -11   -1    0    0    0    0  0.00000000000E+00  0.00000000000E+00  0.45593999997E+02  0.45594000000E+02  0.51100000000E-03 0.  1.
         11   -1    0    0    0    0 -0.00000000000E+00 -0.00000000000E+00 -0.45593999997E+02  0.45594000000E+02  0.51100000000E-03 0. -1.
    9900012    2    1    2    0    0 -0.24051828407E+02  0.34786241486E+02 -0.15509367044E+02  0.46142317493E+02  0.99999975541E+01 0.  0.
        -12    1    1    2    0    0  0.24051828407E+02 -0.34786241486E+02  0.15509367044E+02  0.45045682507E+02  0.00000000000E+00 0.  1.
         11    1    3    3    0    0 -0.45003913825E+01  0.12529926375E+02 -0.36653782008E+01  0.13808967201E+02  0.51100000000E-03 0.  1.
        -11    1    3    3    0    0 -0.18982488722E+02  0.21306954819E+02 -0.10106193660E+02  0.30273030114E+02  0.51100000000E-03 0. -1.
        -12    1    3    3    0    0 -0.56894830270E+00  0.94936029210E+00 -0.17377951830E+01  0.20603201774E+01  0.00000000000E+00 0.  1.
</event>
<event>
 7    1  0.1541705E-008  0.4614232E+02  0.7816164E-02  0.1320468E+00
        -11   -1    0    0    0    0  0.00000000000E+00  0.00000000000E+00  0.45593999997E+02  0.45594000000E+02  0.51100000000E-03 0. -1.
         11   -1    0    0    0    0 -0.00000000000E+00 -0.00000000000E+00 -0.45593999997E+02  0.45594000000E+02  0.51100000000E-03 0.  1.
    9900012    2    1    2    0    0 -0.36109061112E+02  0.17954891761E+02  0.20071649378E+02  0.46142317173E+02  0.99999946405E+01 0.  0.
        -12    1    1    2    0    0  0.36109061112E+02 -0.17954891761E+02 -0.20071649378E+02  0.45045682827E+02  0.00000000000E+00 0.  1.
         11    1    3    3    0    0 -0.10331846390E+02  0.29068600367E+01  0.91527724803E+01  0.14105677206E+02  0.51100000000E-03 0. -1.
        -11    1    3    3    0    0 -0.15973229270E+01  0.20726971873E+01  0.39446546285E+00  0.26463403836E+01  0.51100000000E-03 0.  1.
         12    1    3    3    0    0 -0.24179891796E+02  0.12975334537E+02  0.10524411435E+02  0.29390299584E+02  0.00000000000E+00 0. -1.
</event>
<event>
 7    1  0.1541705E-008  0.4614232E+02  0.7816164E-02  0.1320468E+00
        -11   -1    0    0    0    0  0.00000000000E+00  0.00000000000E+00  0.45593999997E+02  0.45594000000E+02  0.51100000000E-03 0.  1.
         11   -1    0    0    0    0 -0.00000000000E+00 -0.00000000000E+00 -0.45593999997E+02  0.45594000000E+02  0.51100000000E-03 0. -1.
    9900012    2    1    2    0    0  0.36270813277E+02 -0.83461140740E+01 -0.25374870970E+02  0.46142316603E+02  0.99999894433E+01 0.  0.
        -12    1    1    2    0    0 -0.36270813277E+02  0.83461140740E+01  0.25374870970E+02  0.45045683397E+02  0.00000000000E+00 0.  1.
         11    1    3    3    0    0  0.40555427737E+01  0.33968269685E+00 -0.38277843607E+01  0.55870157416E+01  0.51100000000E-03 0. -1.
        -11    1    3    3    0    0  0.11820380254E+02 -0.26419374248E+01 -0.12603711709E+02  0.17480125051E+02  0.51100000000E-03 0.  1.
        -12    1    3    3    0    0  0.20394890250E+02 -0.60438593460E+01 -0.89433749004E+01  0.23075175811E+02  0.00000000000E+00 0.  1.
</event>
<event>
 7    1  0.1673606E-008  0.4614232E+02  0.7816164E-02  0.1320468E+00
        -11   -1    0    0    0    0  0.00000000000E+00  0.00000000000E+00  0.45593999997E+02  0.45594000000E+02  0.51100000000E-03 0. -1.
         11   -1    0    0    0    0 -0.00000000000E+00 -0.00000000000E+00 -0.45593999997E+02  0.45594000000E+02  0.51100000000E-03 0.  1.
    9900012    2    1    2    0    0 -0.55436248785E+01  0.13977847107E+02  0.42461764807E+02  0.46142318109E+02  0.10000003171E+02 0.  0.
        -12    1    1    2    0    0  0.55436248785E+01 -0.13977847107E+02 -0.42461764807E+02  0.45045681891E+02  0.00000000000E+00 0.  1.
         11    1    3    3    0    0 -0.28861215310E+01  0.11426988482E+02  0.39546690580E+02  0.41265560694E+02  0.51100000000E-03 0. -1.
        -11    1    3    3    0    0 -0.13067564828E+01  0.19855073497E+01  0.13502989982E+01  0.27337080288E+01  0.51100000000E-03 0.  1.
         12    1    3    3    0    0 -0.13507468647E+01  0.56535127542E+00  0.15647752284E+01  0.21430493864E+01  0.00000000000E+00 0. -1.
</event>
<event>
 7    1  0.1541705E-008  0.4614232E+02  0.7816164E-02  0.1320468E+00
        -11   -1    0    0    0    0  0.00000000000E+00  0.00000000000E+00  0.45593999997E+02  0.45594000000E+02  0.51100000000E-03 0.  1.
         11   -1    0    0    0    0 -0.00000000000E+00 -0.00000000000E+00 -0.45593999997E+02  0.45594000000E+02  0.51100000000E-03 0. -1.
    9900012    2    1    2    0    0 -0.37959897138E+02 -0.15904087692E+02 -0.18309006672E+02  0.46142317395E+02  0.99999966634E+01 0.  0.
        -12    1    1    2    0    0  0.37959897138E+02  0.15904087692E+02  0.18309006672E+02  0.45045682605E+02  0.00000000000E+00 0.  1.
         11    1    3    3    0    0 -0.10900112228E+02 -0.75509352591E+01 -0.63853022729E+01  0.14717375963E+02  0.51100000000E-03 0. -1.
        -11    1    3    3    0    0  0.21820186586E+00 -0.16538351071E+00 -0.80656323030E+00  0.85176772977E+00  0.51100000000E-03 0.  1.
         12    1    3    3    0    0 -0.27277986776E+02 -0.81877689223E+01 -0.11117141169E+02  0.30573173702E+02  0.00000000000E+00 0. -1.
</event>
<event>
 7    1  0.1541705E-008  0.4614232E+02  0.7816164E-02  0.1320468E+00
        -11   -1    0    0    0    0  0.00000000000E+00  0.00000000000E+00  0.45593999997E+02  0.45594000000E+02  0.51100000000E-03 0. -1.
         11   -1    0    0    0    0 -0.00000000000E+00 -0.00000000000E+00 -0.45593999997E+02  0.45594000000E+02  0.51100000000E-03 0.  1.
    9900012    2    1    2    0    0 -0.12460247391E+02 -0.42911449746E+02  0.56976542743E+01  0.46142317092E+02  0.99999939024E+01 0.  0.
        -12    1    1    2    0    0  0.12460247391E+02  0.42911449746E+02 -0.56976542743E+01  0.45045682908E+02  0.00000000000E+00 0.  1.
         11    1    3    3    0    0 -0.49000070729E+00 -0.14301275824E+02  0.33963850338E+00  0.14313697827E+02  0.51100000000E-03 0. -1.
        -11    1    3    3    0    0 -0.38389546244E+01 -0.57314047603E+01  0.26800049269E+01  0.74006080699E+01  0.51100000000E-03 0.  1.
         12    1    3    3    0    0 -0.81312920594E+01 -0.22878769162E+02  0.26780108441E+01  0.24428011196E+02  0.00000000000E+00 0. -1.
</event>
<event>
 7    1  0.1541705E-008  0.4614232E+02  0.7816164E-02  0.1320468E+00
        -11   -1    0    0    0    0  0.00000000000E+00  0.00000000000E+00  0.45593999997E+02  0.45594000000E+02  0.51100000000E-03 0.  1.
         11   -1    0    0    0    0 -0.00000000000E+00 -0.00000000000E+00 -0.45593999997E+02  0.45594000000E+02  0.51100000000E-03 0. -1.
    9900012    2    1    2    0    0  0.16548218256E+02  0.41594976761E+02 -0.50127606728E+01  0.46142318867E+02  0.10000010081E+02 0.  0.
        -12    1    1    2    0    0 -0.16548218256E+02 -0.41594976761E+02  0.50127606728E+01  0.45045681133E+02  0.00000000000E+00 0.  1.
         11    1    3    3    0    0  0.10376057757E+02  0.26471337720E+02 -0.34785778979E+01  0.28644280401E+02  0.51100000000E-03 0. -1.
        -11    1    3    3    0    0  0.35164374447E+01  0.50108369058E+01 -0.32047533441E+01  0.69097223574E+01  0.51100000000E-03 0.  1.
        -12    1    3    3    0    0  0.26557230538E+01  0.10112802136E+02  0.16705705692E+01  0.10588316108E+02  0.00000000000E+00 0.  1.
</event>
<event>
 7    1  0.1541705E-008  0.4614232E+02  0.7816164E-02  0.1320468E+00
        -11   -1    0    0    0    0  0.00000000000E+00  0.00000000000E+00  0.45593999997E+02  0.45594000000E+02  0.51100000000E-03 0.  1.
         11   -1    0    0    0    0 -0.00000000000E+00 -0.00000000000E+00 -0.45593999997E+02  0.45594000000E+02  0.51100000000E-03 0. -1.
    9900012    2    1    2    0    0 -0.12519717270E+02 -0.84908710341E+01 -0.42429650625E+02  0.46142318037E+02  0.10000002512E+02 0.  0.
        -12    1    1    2    0    0  0.12519717270E+02  0.84908710341E+01  0.42429650625E+02  0.45045681963E+02  0.00000000000E+00 0.  1.
         11    1    3    3    0    0 -0.32165815567E+01 -0.14033403584E+01 -0.12058402706E+02  0.12558695679E+02  0.51100000000E-03 0. -1.
        -11    1    3    3    0    0  0.59821000306E+00 -0.38768322604E+01 -0.85524123439E+01  0.94091147695E+01  0.51100000000E-03 0.  1.
        -12    1    3    3    0    0 -0.99013457160E+01 -0.32106984153E+01 -0.21818835575E+02  0.24174507588E+02  0.00000000000E+00 0.  1.
</event>
<event>
 7    1  0.1541705E-008  0.4614232E+02  0.7816164E-02  0.1320468E+00
        -11   -1    0    0    0    0  0.00000000000E+00  0.00000000000E+00  0.45593999997E+02  0.45594000000E+02  0.51100000000E-03 0. -1.
         11   -1    0    0    0    0 -0.00000000000E+00 -0.00000000000E+00 -0.45593999997E+02  0.45594000000E+02  0.51100000000E-03 0.  1.
    9900012    2    1    2    0    0 -0.42097224507E+01 -0.10985475247E+02  0.43482305530E+02  0.46142319589E+02  0.10000016669E+02 0.  0.
        -12    1    1    2    0    0  0.42097224507E+01  0.10985475247E+02 -0.43482305530E+02  0.45045680411E+02  0.00000000000E+00 0.  1.
         11    1    3    3    0    0  0.14371978206E+01 -0.75552595888E+01  0.17111376135E+02  0.18760241964E+02  0.51100000000E-03 0. -1.
        -11    1    3    3    0    0 -0.27168921733E+01 -0.67966285939E-01  0.13190553138E+02  0.13467620979E+02  0.51100000000E-03 0.  1.
        -12    1    3    3    0    0 -0.29300280981E+01 -0.33622493725E+01  0.13180376257E+02  0.13914456646E+02  0.00000000000E+00 0.  1.
</event>
<event>
 7    1  0.1541705E-008  0.4614232E+02  0.7816164E-02  0.1320468E+00
        -11   -1    0    0    0    0  0.00000000000E+00  0.00000000000E+00  0.45593999997E+02  0.45594000000E+02  0.51100000000E-03 0. -1.
         11   -1    0    0    0    0 -0.00000000000E+00 -0.00000000000E+00 -0.45593999997E+02  0.45594000000E+02  0.51100000000E-03 0.  1.
    9900012    2    1    2    0    0 -0.16209974469E+02 -0.37817641794E+02 -0.18335106955E+02  0.46142318184E+02  0.10000003860E+02 0.  0.
        -12    1    1    2    0    0  0.16209974469E+02  0.37817641794E+02  0.18335106955E+02  0.45045681816E+02  0.00000000000E+00 0.  1.
         11    1    3    3    0    0  0.73551482736E+00 -0.10191663507E+00 -0.34816224098E+00  0.82011357076E+00  0.51100000000E-03 0. -1.
        -11    1    3    3    0    0 -0.44894686635E+01 -0.14239791715E+02 -0.79403906480E+01  0.16910848615E+02  0.51100000000E-03 0.  1.
         12    1    3    3    0    0 -0.12456020633E+02 -0.23475933444E+02 -0.10046554066E+02  0.28411355999E+02  0.00000000000E+00 0. -1.
</event>
<event>
 7    1  0.1541705E-008  0.4614232E+02  0.7816164E-02  0.1320468E+00
        -11   -1    0    0    0    0  0.00000000000E+00  0.00000000000E+00  0.45593999997E+02  0.45594000000E+02  0.51100000000E-03 0.  1.
         11   -1    0    0    0    0 -0.00000000000E+00 -0.00000000000E+00 -0.45593999997E+02  0.45594000000E+02  0.51100000000E-03 0. -1.
    9900012    2    1    2    0    0  0.26976032741E+02 -0.28377973706E+02 -0.22273253289E+02  0.46142317119E+02  0.99999941474E+01 0.  0.
        -12    1    1    2    0    0 -0.26976032741E+02  0.28377973706E+02  0.22273253289E+02  0.45045682881E+02  0.00000000000E+00 0.  1.
         11    1    3    3    0    0  0.89153533036E+01 -0.57817309283E+01 -0.29435741517E+01  0.11026176405E+02  0.51100000000E-03 0. -1.
        -11    1    3    3    0    0  0.10642435012E+01 -0.35815874787E+01 -0.16541263329E+01  0.40861372081E+01  0.51100000000E-03 0.  1.
         12    1    3    3    0    0  0.16996435936E+02 -0.19014655299E+02 -0.17675552805E+02  0.31030003507E+02  0.00000000000E+00 0. -1.
</event>
<event>
 7    1  0.1541705E-008  0.4614232E+02  0.7816164E-02  0.1320468E+00
        -11   -1    0    0    0    0  0.00000000000E+00  0.00000000000E+00  0.45593999997E+02  0.45594000000E+02  0.51100000000E-03 0.  1.
         11   -1    0    0    0    0 -0.00000000000E+00 -0.00000000000E+00 -0.45593999997E+02  0.45594000000E+02  0.51100000000E-03 0. -1.
    9900012    2    1    2    0    0  0.27386690538E+01  0.40702072184E+02 -0.19103783190E+02  0.46142317405E+02  0.99999967564E+01 0.  0.
        -12    1    1    2    0    0 -0.27386690538E+01 -0.40702072184E+02  0.19103783190E+02  0.45045682595E+02  0.00000000000E+00 0.  1.
         11    1    3    3    0    0 -0.22360443180E+01  0.14895540414E+02 -0.76315033940E+01  0.16885403837E+02  0.51100000000E-03 0. -1.
        -11    1    3    3    0    0  0.48043824089E+01  0.13959650677E+02 -0.41764202502E+01  0.15342634184E+02  0.51100000000E-03 0.  1.
         12    1    3    3    0    0  0.17033096286E+00  0.11846881093E+02 -0.72958595462E+01  0.13914279384E+02  0.00000000000E+00 0. -1.
</event>
<event>
 7    1  0.1541705E-008  0.4614231E+02  0.7816164E-02  0.1320468E+00
        -11   -1    0    0    0    0  0.00000000000E+00  0.00000000000E+00  0.45593999997E+02  0.45594000000E+02  0.51100000000E-03 0.  1.
         11   -1    0    0    0    0 -0.00000000000E+00 -0.00000000000E+00 -0.45593999997E+02  0.45594000000E+02  0.51100000000E-03 0. -1.
    9900012    2    1    2    0    0  0.51749071722E+01 -0.34358001040E+02 -0.28668137533E+02  0.46142311979E+02  0.99999472713E+01 0.  0.
        -12    1    1    2    0    0 -0.51749071722E+01  0.34358001040E+02  0.28668137533E+02  0.45045688021E+02  0.00000000000E+00 0.  1.
         11    1    3    3    0    0 -0.59827635761E+00 -0.17727373789E+02 -0.97471025478E+01  0.20239163134E+02  0.51100000000E-03 0. -1.
        -11    1    3    3    0    0  0.50729835493E+01 -0.15729988010E+02 -0.17357803500E+02  0.23967916628E+02  0.51100000000E-03 0.  1.
        -12    1    3    3    0    0  0.70019998051E+00 -0.90063924220E+00 -0.15632314844E+01  0.19352322163E+01  0.00000000000E+00 0.  1.
</event>
<event>
 7    1  0.1541705E-008  0.4614232E+02  0.7816164E-02  0.1320468E+00
        -11   -1    0    0    0    0  0.00000000000E+00  0.00000000000E+00  0.45593999997E+02  0.45594000000E+02  0.51100000000E-03 0. -1.
         11   -1    0    0    0    0 -0.00000000000E+00 -0.00000000000E+00 -0.45593999997E+02  0.45594000000E+02  0.51100000000E-03 0.  1.
    9900012    2    1    2    0    0  0.26348178598E+02 -0.22494462539E+02  0.28790384473E+02  0.46142316539E+02  0.99999888577E+01 0.  0.
        -12    1    1    2    0    0 -0.26348178598E+02  0.22494462539E+02 -0.28790384473E+02  0.45045683461E+02  0.00000000000E+00 0.  1.
         11    1    3    3    0    0  0.18786762213E+02 -0.18956135378E+02  0.23811588028E+02  0.35766873327E+02  0.51100000000E-03 0. -1.
        -11    1    3    3    0    0  0.11470136332E+01 -0.12875387607E+01  0.27041197119E+01  0.32071264417E+01  0.51100000000E-03 0.  1.
         12    1    3    3    0    0  0.64144027516E+01 -0.22507884010E+01  0.22746767328E+01  0.71683167706E+01  0.00000000000E+00 0. -1.
</event>
<event>
 7    1  0.1541705E-008  0.4614232E+02  0.7816164E-02  0.1320468E+00
        -11   -1    0    0    0    0  0.00000000000E+00  0.00000000000E+00  0.45593999997E+02  0.45594000000E+02  0.51100000000E-03 0.  1.
         11   -1    0    0    0    0 -0.00000000000E+00 -0.00000000000E+00 -0.45593999997E+02  0.45594000000E+02  0.51100000000E-03 0. -1.
    9900012    2    1    2    0    0 -0.59981318063E+01  0.18912794448E+02 -0.40440600448E+02  0.46142317148E+02  0.99999944087E+01 0.  0.
        -12    1    1    2    0    0  0.59981318063E+01 -0.18912794448E+02  0.40440600448E+02  0.45045682852E+02  0.00000000000E+00 0.  1.
         11    1    3    3    0    0 -0.48342710379E+01  0.14369522686E+02 -0.19662122061E+02  0.24828459535E+02  0.51100000000E-03 0. -1.
        -11    1    3    3    0    0 -0.65180775693E+00  0.25173497856E+01 -0.13132552973E+02  0.13387525953E+02  0.51100000000E-03 0.  1.
         12    1    3    3    0    0 -0.51205301146E+00  0.20259219768E+01 -0.76459254136E+01  0.79263316593E+01  0.00000000000E+00 0. -1.
</event>
<event>
 7    1  0.1541705E-008  0.4614232E+02  0.7816164E-02  0.1320468E+00
        -11   -1    0    0    0    0  0.00000000000E+00  0.00000000000E+00  0.45593999997E+02  0.45594000000E+02  0.51100000000E-03 0. -1.
         11   -1    0    0    0    0 -0.00000000000E+00 -0.00000000000E+00 -0.45593999997E+02  0.45594000000E+02  0.51100000000E-03 0.  1.
    9900012    2    1    2    0    0  0.69225946791E+01 -0.24456474765E+02  0.37189676425E+02  0.46142317547E+02  0.99999980469E+01 0.  0.
        -12    1    1    2    0    0 -0.69225946791E+01  0.24456474765E+02 -0.37189676425E+02  0.45045682453E+02  0.00000000000E+00 0.  1.
         11    1    3    3    0    0  0.36071033132E+01 -0.32075188953E+01  0.49696012478E+01  0.69279368212E+01  0.51100000000E-03 0. -1.
        -11    1    3    3    0    0  0.47731337999E+01 -0.19087361250E+02  0.29375623719E+02  0.35355868465E+02  0.51100000000E-03 0.  1.
        -12    1    3    3    0    0 -0.14576424340E+01 -0.21615946203E+01  0.28444514584E+01  0.38585122608E+01  0.00000000000E+00 0.  1.
</event>
<event>
 7    1  0.1541705E-008  0.4614232E+02  0.7816164E-02  0.1320468E+00
        -11   -1    0    0    0    0  0.00000000000E+00  0.00000000000E+00  0.45593999997E+02  0.45594000000E+02  0.51100000000E-03 0.  1.
         11   -1    0    0    0    0 -0.00000000000E+00 -0.00000000000E+00 -0.45593999997E+02  0.45594000000E+02  0.51100000000E-03 0. -1.
    9900012    2    1    2    0    0 -0.40842815693E+01 -0.14412440547E+02 -0.42481921977E+02  0.46142317706E+02  0.99999995017E+01 0.  0.
        -12    1    1    2    0    0  0.40842815693E+01  0.14412440547E+02  0.42481921977E+02  0.45045682294E+02  0.00000000000E+00 0.  1.
         11    1    3    3    0    0 -0.19402475545E+01  0.11387133754E+00 -0.76474084406E+01  0.78905249111E+01  0.51100000000E-03 0. -1.
        -11    1    3    3    0    0 -0.10172351790E+01 -0.10783916828E+02 -0.18333553254E+02  0.21294290426E+02  0.51100000000E-03 0.  1.
        -12    1    3    3    0    0 -0.11267988359E+01 -0.37423950560E+01 -0.16500960283E+02  0.16957502370E+02  0.00000000000E+00 0.  1.
</event>
<event>
 7    1  0.1541705E-008  0.4614232E+02  0.7816164E-02  0.1320468E+00
        -11   -1    0    0    0    0  0.00000000000E+00  0.00000000000E+00  0.45593999997E+02  0.45594000000E+02  0.51100000000E-03 0.  1.
         11   -1    0    0    0    0 -0.00000000000E+00 -0.00000000000E+00 -0.45593999997E+02  0.45594000000E+02  0.51100000000E-03 0. -1.
    9900012    2    1    2    0    0 -0.16126755375E+02  0.35382990428E+02 -0.22739508144E+02  0.46142317841E+02  0.10000000726E+02 0.  0.
        -12    1    1    2    0    0  0.16126755375E+02 -0.35382990428E+02  0.22739508144E+02  0.45045682159E+02  0.00000000000E+00 0.  1.
         11    1    3    3    0    0 -0.30351943849E+01  0.11103012950E+02 -0.70344711410E+01  0.13489740028E+02  0.51100000000E-03 0. -1.
        -11    1    3    3    0    0 -0.81458434132E+01  0.11667008025E+02 -0.11982445748E+02  0.18602495734E+02  0.51100000000E-03 0.  1.
        -12    1    3    3    0    0 -0.49457175767E+01  0.12612969453E+02 -0.37225912548E+01  0.14050082078E+02  0.00000000000E+00 0.  1.
</event>
<event>
 7    1  0.1541705E-008  0.4614232E+02  0.7816164E-02  0.1320468E+00
        -11   -1    0    0    0    0  0.00000000000E+00  0.00000000000E+00  0.45593999997E+02  0.45594000000E+02  0.51100000000E-03 0.  1.
         11   -1    0    0    0    0 -0.00000000000E+00 -0.00000000000E+00 -0.45593999997E+02  0.45594000000E+02  0.51100000000E-03 0. -1.
    9900012    2    1    2    0    0 -0.28943048249E+02 -0.21868349141E+02 -0.26705595474E+02  0.46142316902E+02  0.99999921700E+01 0.  0.
        -12    1    1    2    0    0  0.28943048249E+02  0.21868349141E+02  0.26705595474E+02  0.45045683098E+02  0.00000000000E+00 0.  1.
         11    1    3    3    0    0 -0.14100135951E+00  0.52694680035E+00 -0.29419944832E+00  0.61976438288E+00  0.51100000000E-03 0. -1.
        -11    1    3    3    0    0 -0.17709914836E+00 -0.22595808446E+00  0.38416048825E+00  0.47958388853E+00  0.51100000000E-03 0.  1.
         12    1    3    3    0    0 -0.28624947741E+02 -0.22169337857E+02 -0.26795556514E+02  0.45042968631E+02  0.00000000000E+00 0. -1.
</event>
<event>
 7    1  0.1541705E-008  0.4614232E+02  0.7816164E-02  0.1320468E+00
        -11   -1    0    0    0    0  0.00000000000E+00  0.00000000000E+00  0.45593999997E+02  0.45594000000E+02  0.51100000000E-03 0.  1.
         11   -1    0    0    0    0 -0.00000000000E+00 -0.00000000000E+00 -0.45593999997E+02  0.45594000000E+02  0.51100000000E-03 0. -1.
    9900012    2    1    2    0    0 -0.17232159968E+02 -0.33681052751E+02 -0.24448983335E+02  0.46142318324E+02  0.10000005129E+02 0.  0.
        -12    1    1    2    0    0  0.17232159968E+02  0.33681052751E+02  0.24448983335E+02  0.45045681676E+02  0.00000000000E+00 0.  1.
         11    1    3    3    0    0 -0.10456863296E+02 -0.13820932462E+02 -0.14406752456E+02  0.22537051287E+02  0.51100000000E-03 0. -1.
        -11    1    3    3    0    0  0.18739345979E+00 -0.18007044506E+01 -0.22894479713E-01  0.18105737338E+01  0.51100000000E-03 0.  1.
         12    1    3    3    0    0 -0.69626901317E+01 -0.18059415839E+02 -0.10019336399E+02  0.21794693303E+02  0.00000000000E+00 0. -1.
</event>
<event>
 7    1  0.1541705E-008  0.4614232E+02  0.7816164E-02  0.1320468E+00
        -11   -1    0    0    0    0  0.00000000000E+00  0.00000000000E+00  0.45593999997E+02  0.45594000000E+02  0.51100000000E-03 0.  1.
         11   -1    0    0    0    0 -0.00000000000E+00 -0.00000000000E+00 -0.45593999997E+02  0.45594000000E+02  0.51100000000E-03 0. -1.
    9900012    2    1    2    0    0  0.96009133342E+01  0.18785771239E+02 -0.39799883345E+02  0.46142318163E+02  0.10000003663E+02 0.  0.
        -12    1    1    2    0    0 -0.96009133342E+01 -0.18785771239E+02  0.39799883345E+02  0.45045681837E+02  0.00000000000E+00 0.  1.
         11    1    3    3    0    0  0.45450906724E+01  0.11244853204E+02 -0.28026356516E+02  0.30538193015E+02  0.51100000000E-03 0. -1.
        -11    1    3    3    0    0 -0.35954050970E+00 -0.10901862539E+00  0.17801080871E+00  0.41574336788E+00  0.51100000000E-03 0.  1.
        -12    1    3    3    0    0  0.54153631715E+01  0.76499366605E+01 -0.11951537638E+02  0.15188381780E+02  0.00000000000E+00 0.  1.
</event>
<event>
 7    1  0.1541705E-008  0.4614232E+02  0.7816164E-02  0.1320468E+00
        -11   -1    0    0    0    0  0.00000000000E+00  0.00000000000E+00  0.45593999997E+02  0.45594000000E+02  0.51100000000E-03 0.  1.
         11   -1    0    0    0    0 -0.00000000000E+00 -0.00000000000E+00 -0.45593999997E+02  0.45594000000E+02  0.51100000000E-03 0. -1.
    9900012    2    1    2    0    0  0.34911859695E+02  0.19385340761E+02 -0.20844267120E+02  0.46142324785E+02  0.10000064053E+02 0.  0.
        -12    1    1    2    0    0 -0.34911859695E+02 -0.19385340761E+02  0.20844267120E+02  0.45045675215E+02  0.00000000000E+00 0.  1.
         11    1    3    3    0    0  0.14751620422E+02  0.86049079123E+01 -0.98952900108E+01  0.19737565957E+02  0.51100000000E-03 0. -1.
        -11    1    3    3    0    0  0.18283637492E+01  0.24526110039E+01  0.70665385950E+00  0.31396774793E+01  0.51100000000E-03 0.  1.
        -12    1    3    3    0    0  0.18331875524E+02  0.83278218450E+01 -0.11655630968E+02  0.23265081349E+02  0.00000000000E+00 0.  1.
</event>
<event>
 7    1  0.1541705E-008  0.4614232E+02  0.7816164E-02  0.1320468E+00
        -11   -1    0    0    0    0  0.00000000000E+00  0.00000000000E+00  0.45593999997E+02  0.45594000000E+02  0.51100000000E-03 0. -1.
         11   -1    0    0    0    0 -0.00000000000E+00 -0.00000000000E+00 -0.45593999997E+02  0.45594000000E+02  0.51100000000E-03 0.  1.
    9900012    2    1    2    0    0 -0.79146942366E+01  0.20114677215E+01  0.44299266711E+02  0.46142318538E+02  0.10000007086E+02 0.  0.
        -12    1    1    2    0    0  0.79146942366E+01 -0.20114677215E+01 -0.44299266711E+02  0.45045681462E+02  0.00000000000E+00 0.  1.
         11    1    3    3    0    0 -0.53789830855E+01  0.50938038828E+01  0.19546215287E+02  0.20902986134E+02  0.51100000000E-03 0. -1.
        -11    1    3    3    0    0 -0.30995376536E+01 -0.19582537842E+01  0.18987373065E+02  0.19338103002E+02  0.51100000000E-03 0.  1.
        -12    1    3    3    0    0  0.56382650243E+00 -0.11240823770E+01  0.57656783590E+01  0.59012294020E+01  0.00000000000E+00 0.  1.
</event>
<event>
 7    1  0.1541705E-008  0.4614232E+02  0.7816164E-02  0.1320468E+00
        -11   -1    0    0    0    0  0.00000000000E+00  0.00000000000E+00  0.45593999997E+02  0.45594000000E+02  0.51100000000E-03 0.  1.
         11   -1    0    0    0    0 -0.00000000000E+00 -0.00000000000E+00 -0.45593999997E+02  0.45594000000E+02  0.51100000000E-03 0. -1.
    9900012    2    1    2    0    0 -0.46627630298E+01  0.42042658524E+02 -0.15485054263E+02  0.46142318738E+02  0.10000008906E+02 0.  0.
        -12    1    1    2    0    0  0.46627630298E+01 -0.42042658524E+02  0.15485054263E+02  0.45045681262E+02  0.00000000000E+00 0.  1.
         11    1    3    3    0    0 -0.16684265546E+01  0.26758884986E+02 -0.80270618402E+01  0.27986698535E+02  0.51100000000E-03 0. -1.
        -11    1    3    3    0    0  0.36330000098E+00  0.92238340400E+01 -0.61854903779E+01  0.11111768210E+02  0.51100000000E-03 0.  1.
        -12    1    3    3    0    0 -0.33576364762E+01  0.60599394982E+01 -0.12725020446E+01  0.70438519918E+01  0.00000000000E+00 0.  1.
</event>
<event>
 7    1  0.1541705E-008  0.4614232E+02  0.7816164E-02  0.1320468E+00
        -11   -1    0    0    0    0  0.00000000000E+00  0.00000000000E+00  0.45593999997E+02  0.45594000000E+02  0.51100000000E-03 0.  1.
         11   -1    0    0    0    0 -0.00000000000E+00 -0.00000000000E+00 -0.45593999997E+02  0.45594000000E+02  0.51100000000E-03 0. -1.
    9900012    2    1    2    0    0  0.33944515943E+02  0.26817275740E+02 -0.12558543755E+02  0.46142318054E+02  0.10000002673E+02 0.  0.
        -12    1    1    2    0    0 -0.33944515943E+02 -0.26817275740E+02  0.12558543755E+02  0.45045681946E+02  0.00000000000E+00 0.  1.
         11    1    3    3    0    0  0.14262613059E+02  0.14059577875E+02 -0.54739312321E+01  0.20761931141E+02  0.51100000000E-03 0.  1.
        -11    1    3    3    0    0  0.19735972623E+02  0.11522653724E+02 -0.75366480950E+01  0.24064106653E+02  0.51100000000E-03 0. -1.
        -12    1    3    3    0    0 -0.54069739393E-01  0.12350441407E+01  0.45203557180E+00  0.13162802605E+01  0.00000000000E+00 0.  1.
</event>
<event>
 7    1  0.1541705E-008  0.4614232E+02  0.7816164E-02  0.1320468E+00
        -11   -1    0    0    0    0  0.00000000000E+00  0.00000000000E+00  0.45593999997E+02  0.45594000000E+02  0.51100000000E-03 0.  1.
         11   -1    0    0    0    0 -0.00000000000E+00 -0.00000000000E+00 -0.45593999997E+02  0.45594000000E+02  0.51100000000E-03 0. -1.
    9900012    2    1    2    0    0  0.15437994489E+02 -0.40981494729E+02  0.10549830079E+02  0.46142317645E+02  0.99999989442E+01 0.  0.
        -12    1    1    2    0    0 -0.15437994489E+02  0.40981494729E+02 -0.10549830079E+02  0.45045682355E+02  0.00000000000E+00 0.  1.
         11    1    3    3    0    0  0.16675583238E+01 -0.80026121601E+01 -0.12250529261E+01  0.82657913766E+01  0.51100000000E-03 0. -1.
        -11    1    3    3    0    0  0.50131607736E+01 -0.82861940094E+01  0.18482937135E+01  0.98594615479E+01  0.51100000000E-03 0.  1.
         12    1    3    3    0    0  0.87572753917E+01 -0.24692688560E+02  0.99265892916E+01  0.28017064721E+02  0.00000000000E+00 0. -1.
</event>
<event>
 7    1  0.1541705E-008  0.4614232E+02  0.7816164E-02  0.1320468E+00
        -11   -1    0    0    0    0  0.00000000000E+00  0.00000000000E+00  0.45593999997E+02  0.45594000000E+02  0.51100000000E-03 0. -1.
         11   -1    0    0    0    0 -0.00000000000E+00 -0.00000000000E+00 -0.45593999997E+02  0.45594000000E+02  0.51100000000E-03 0.  1.
    9900012    2    1    2    0    0 -0.93204500312E+01 -0.29090354298E+02  0.33105800210E+02  0.46142317527E+02  0.99999978625E+01 0.  0.
        -12    1    1    2    0    0  0.93204500312E+01  0.29090354298E+02 -0.33105800210E+02  0.45045682473E+02  0.00000000000E+00 0.  1.
         11    1    3    3    0    0 -0.44906425549E+01 -0.22148910014E+02  0.25532276993E+02  0.34097466974E+02  0.51100000000E-03 0. -1.
        -11    1    3    3    0    0 -0.30620635677E+01 -0.12724781642E+01  0.36297673165E+01  0.49163650194E+01  0.51100000000E-03 0.  1.
         12    1    3    3    0    0 -0.17677439086E+01 -0.56689661196E+01  0.39437559002E+01  0.71284855328E+01  0.00000000000E+00 0. -1.
</event>
<event>
 7    1  0.1541705E-008  0.4614232E+02  0.7816164E-02  0.1320468E+00
        -11   -1    0    0    0    0  0.00000000000E+00  0.00000000000E+00  0.45593999997E+02  0.45594000000E+02  0.51100000000E-03 0. -1.
         11   -1    0    0    0    0 -0.00000000000E+00 -0.00000000000E+00 -0.45593999997E+02  0.45594000000E+02  0.51100000000E-03 0.  1.
    9900012    2    1    2    0    0 -0.43173997424E+02 -0.30203455733E+01  0.12489874677E+02  0.46142317516E+02  0.99999977674E+01 0.  0.
        -12    1    1    2    0    0  0.43173997424E+02  0.30203455733E+01 -0.12489874677E+02  0.45045682484E+02  0.00000000000E+00 0.  1.
         11    1    3    3    0    0 -0.36328656062E+02 -0.36247239125E+01  0.96520190614E+01  0.37763359847E+02  0.51100000000E-03 0. -1.
        -11    1    3    3    0    0 -0.20700244206E+01  0.10537543125E+01  0.27257727028E+01  0.35812339132E+01  0.51100000000E-03 0.  1.
         12    1    3    3    0    0 -0.47753169422E+01 -0.44937597330E+00  0.11208291276E+00  0.47977237564E+01  0.00000000000E+00 0. -1.
</event>
<event>
 7    1  0.1541705E-008  0.4614232E+02  0.7816164E-02  0.1320468E+00
        -11   -1    0    0    0    0  0.00000000000E+00  0.00000000000E+00  0.45593999997E+02  0.45594000000E+02  0.51100000000E-03 0. -1.
         11   -1    0    0    0    0 -0.00000000000E+00 -0.00000000000E+00 -0.45593999997E+02  0.45594000000E+02  0.51100000000E-03 0.  1.
    9900012    2    1    2    0    0 -0.36981611977E+02  0.25412240430E+02  0.39612939308E+01  0.46142318324E+02  0.10000005132E+02 0.  0.
        -12    1    1    2    0    0  0.36981611977E+02 -0.25412240430E+02 -0.39612939308E+01  0.45045681676E+02  0.00000000000E+00 0.  1.
         11    1    3    3    0    0 -0.92109036246E+01  0.36317338295E+01  0.15857795226E+01  0.10027209639E+02  0.51100000000E-03 0. -1.
        -11    1    3    3    0    0 -0.16399320942E+02  0.17175168968E+02  0.97812532175E+00  0.23767222930E+02  0.51100000000E-03 0.  1.
        -12    1    3    3    0    0 -0.11371387410E+02  0.46053376330E+01  0.13973890865E+01  0.12347885755E+02  0.00000000000E+00 0.  1.
</event>
<event>
 7    1  0.1541705E-008  0.4614232E+02  0.7816164E-02  0.1320468E+00
        -11   -1    0    0    0    0  0.00000000000E+00  0.00000000000E+00  0.45593999997E+02  0.45594000000E+02  0.51100000000E-03 0. -1.
         11   -1    0    0    0    0 -0.00000000000E+00 -0.00000000000E+00 -0.45593999997E+02  0.45594000000E+02  0.51100000000E-03 0.  1.
    9900012    2    1    2    0    0 -0.13490635079E+02 -0.42182748492E+02 -0.82299449823E+01  0.46142317637E+02  0.99999988658E+01 0.  0.
        -12    1    1    2    0    0  0.13490635079E+02  0.42182748492E+02  0.82299449823E+01  0.45045682363E+02  0.00000000000E+00 0.  1.
         11    1    3    3    0    0 -0.12073581788E+02 -0.26356546977E+02 -0.40523464809E+01  0.29272178908E+02  0.51100000000E-03 0. -1.
        -11    1    3    3    0    0  0.60924043246E+00 -0.87461662440E+00 -0.97750021556E+00  0.14462486220E+01  0.51100000000E-03 0.  1.
         12    1    3    3    0    0 -0.20262937228E+01 -0.14951584890E+02 -0.32000982858E+01  0.15423890107E+02  0.00000000000E+00 0. -1.
</event>
<event>
 7    1  0.1541705E-008  0.4614232E+02  0.7816164E-02  0.1320468E+00
        -11   -1    0    0    0    0  0.00000000000E+00  0.00000000000E+00  0.45593999997E+02  0.45594000000E+02  0.51100000000E-03 0.  1.
         11   -1    0    0    0    0 -0.00000000000E+00 -0.00000000000E+00 -0.45593999997E+02  0.45594000000E+02  0.51100000000E-03 0. -1.
    9900012    2    1    2    0    0  0.10456468539E+02  0.13459089523E+02 -0.41696866089E+02  0.46142318001E+02  0.10000002187E+02 0.  0.
        -12    1    1    2    0    0 -0.10456468539E+02 -0.13459089523E+02  0.41696866089E+02  0.45045681999E+02  0.00000000000E+00 0.  1.
         11    1    3    3    0    0 -0.10391477335E+01  0.35719888563E+01 -0.60241376723E+01  0.70801954321E+01  0.51100000000E-03 0. -1.
        -11    1    3    3    0    0  0.11428061001E+02  0.78825166245E+01 -0.30367785409E+02  0.33390672912E+02  0.51100000000E-03 0.  1.
        -12    1    3    3    0    0  0.67555271829E-01  0.20045840424E+01 -0.53049430076E+01  0.56714496570E+01  0.00000000000E+00 0.  1.
</event>
<event>
 7    1  0.1541705E-008  0.4614232E+02  0.7816164E-02  0.1320468E+00
        -11   -1    0    0    0    0  0.00000000000E+00  0.00000000000E+00  0.45593999997E+02  0.45594000000E+02  0.51100000000E-03 0. -1.
         11   -1    0    0    0    0 -0.00000000000E+00 -0.00000000000E+00 -0.45593999997E+02  0.45594000000E+02  0.51100000000E-03 0.  1.
    9900012    2    1    2    0    0 -0.19397929607E+02 -0.16079261206E+02  0.37340208302E+02  0.46142317965E+02  0.10000001859E+02 0.  0.
        -12    1    1    2    0    0  0.19397929607E+02  0.16079261206E+02 -0.37340208302E+02  0.45045682035E+02  0.00000000000E+00 0.  1.
         11    1    3    3    0    0 -0.33783348401E+01 -0.55131718431E-01  0.42914286892E+01  0.54619178183E+01  0.51100000000E-03 0. -1.
        -11    1    3    3    0    0 -0.15989970918E+01 -0.54414218462E+01  0.60376377523E+01  0.82836545858E+01  0.51100000000E-03 0.  1.
        -12    1    3    3    0    0 -0.14420597676E+02 -0.10582707641E+02  0.27011141860E+02  0.32396745561E+02  0.00000000000E+00 0.  1.
</event>
<event>
 7    1  0.1541705E-008  0.4614232E+02  0.7816164E-02  0.1320468E+00
        -11   -1    0    0    0    0  0.00000000000E+00  0.00000000000E+00  0.45593999997E+02  0.45594000000E+02  0.51100000000E-03 0.  1.
         11   -1    0    0    0    0 -0.00000000000E+00 -0.00000000000E+00 -0.45593999997E+02  0.45594000000E+02  0.51100000000E-03 0. -1.
    9900012    2    1    2    0    0 -0.33279025772E+02  0.17923005406E+02  0.24502771464E+02  0.46142317759E+02  0.99999999810E+01 0.  0.
        -12    1    1    2    0    0  0.33279025772E+02 -0.17923005406E+02 -0.24502771464E+02  0.45045682241E+02  0.00000000000E+00 0.  1.
         11    1    3    3    0    0 -0.92361306040E-02  0.18555186876E+01  0.15835612771E+01  0.24394059698E+01  0.51100000000E-03 0. -1.
        -11    1    3    3    0    0 -0.24474873905E+02  0.97072356541E+01  0.15457128466E+02  0.30531503359E+02  0.51100000000E-03 0.  1.
         12    1    3    3    0    0 -0.87949157370E+01  0.63602510644E+01  0.74620817206E+01  0.13171408430E+02  0.00000000000E+00 0. -1.
</event>
<event>
 7    1  0.1541705E-008  0.4614232E+02  0.7816164E-02  0.1320468E+00
        -11   -1    0    0    0    0  0.00000000000E+00  0.00000000000E+00  0.45593999997E+02  0.45594000000E+02  0.51100000000E-03 0.  1.
         11   -1    0    0    0    0 -0.00000000000E+00 -0.00000000000E+00 -0.45593999997E+02  0.45594000000E+02  0.51100000000E-03 0. -1.
    9900012    2    1    2    0    0 -0.14788929163E+02 -0.41017363135E+02 -0.11312674977E+02  0.46142321856E+02  0.10000037340E+02 0.  0.
        -12    1    1    2    0    0  0.14788929163E+02  0.41017363135E+02  0.11312674977E+02  0.45045678144E+02  0.00000000000E+00 0.  1.
         11    1    3    3    0    0 -0.11584346006E+02 -0.21126727751E+02 -0.71086193631E+01  0.25121070188E+02  0.51100000000E-03 0. -1.
        -11    1    3    3    0    0 -0.36093775743E+01 -0.18898033030E+02 -0.31096468209E+01  0.19489308928E+02  0.51100000000E-03 0.  1.
         12    1    3    3    0    0  0.40479441747E+00 -0.99260235293E+00 -0.10944087932E+01  0.15319427398E+01  0.00000000000E+00 0. -1.
</event>
<event>
 7    1  0.1541705E-008  0.4614232E+02  0.7816164E-02  0.1320468E+00
        -11   -1    0    0    0    0  0.00000000000E+00  0.00000000000E+00  0.45593999997E+02  0.45594000000E+02  0.51100000000E-03 0.  1.
         11   -1    0    0    0    0 -0.00000000000E+00 -0.00000000000E+00 -0.45593999997E+02  0.45594000000E+02  0.51100000000E-03 0. -1.
    9900012    2    1    2    0    0 -0.15431253712E+02  0.41698363505E+02  0.72274731741E+01  0.46142317870E+02  0.10000000993E+02 0.  0.
        -12    1    1    2    0    0  0.15431253712E+02 -0.41698363505E+02 -0.72274731741E+01  0.45045682130E+02  0.00000000000E+00 0.  1.
         11    1    3    3    0    0  0.19038242145E+00  0.91588276957E+00 -0.48871689027E+00  0.10554293790E+01  0.51100000000E-03 0. -1.
        -11    1    3    3    0    0 -0.65220028523E+01  0.97837583226E+01  0.46153375508E+01  0.12631697791E+02  0.51100000000E-03 0.  1.
        -12    1    3    3    0    0 -0.90996332811E+01  0.30998722412E+02  0.31008525136E+01  0.32455190700E+02  0.00000000000E+00 0.  1.
</event>
<event>
 7    1  0.1541705E-008  0.4614232E+02  0.7816164E-02  0.1320468E+00
        -11   -1    0    0    0    0  0.00000000000E+00  0.00000000000E+00  0.45593999997E+02  0.45594000000E+02  0.51100000000E-03 0.  1.
         11   -1    0    0    0    0 -0.00000000000E+00 -0.00000000000E+00 -0.45593999997E+02  0.45594000000E+02  0.51100000000E-03 0. -1.
    9900012    2    1    2    0    0  0.38665663068E+02  0.19233150882E+02 -0.12812725166E+02  0.46142317415E+02  0.99999968478E+01 0.  0.
        -12    1    1    2    0    0 -0.38665663068E+02 -0.19233150882E+02  0.12812725166E+02  0.45045682585E+02  0.00000000000E+00 0.  1.
         11    1    3    3    0    0  0.11190313709E+02  0.85116192392E+01 -0.94033655926E+00  0.14090955116E+02  0.51100000000E-03 0. -1.
        -11    1    3    3    0    0  0.40814291595E+01  0.15743367683E+01 -0.34064264948E+01  0.55443973495E+01  0.51100000000E-03 0.  1.
        -12    1    3    3    0    0  0.23393920199E+02  0.91471948747E+01 -0.84659621119E+01  0.26506964950E+02  0.00000000000E+00 0.  1.
</event>
<event>
 7    1  0.1541705E-008  0.4614232E+02  0.7816164E-02  0.1320468E+00
        -11   -1    0    0    0    0  0.00000000000E+00  0.00000000000E+00  0.45593999997E+02  0.45594000000E+02  0.51100000000E-03 0. -1.
         11   -1    0    0    0    0 -0.00000000000E+00 -0.00000000000E+00 -0.45593999997E+02  0.45594000000E+02  0.51100000000E-03 0.  1.
    9900012    2    1    2    0    0  0.40312779555E+02  0.96127694557E+01  0.17651857409E+02  0.46142316499E+02  0.99999884912E+01 0.  0.
        -12    1    1    2    0    0 -0.40312779555E+02 -0.96127694557E+01 -0.17651857409E+02  0.45045683501E+02  0.00000000000E+00 0.  1.
         11    1    3    3    0    0  0.12351174558E+02  0.49741198033E+01  0.77107039282E+01  0.15386628484E+02  0.51100000000E-03 0. -1.
        -11    1    3    3    0    0  0.24907174364E+02  0.23480117194E+01  0.71278773175E+01  0.26013210666E+02  0.51100000000E-03 0.  1.
        -12    1    3    3    0    0  0.30544306335E+01  0.22906379330E+01  0.28132761638E+01  0.47424773493E+01  0.00000000000E+00 0.  1.
</event>
<event>
 7    1  0.1541705E-008  0.4614232E+02  0.7816164E-02  0.1320468E+00
        -11   -1    0    0    0    0  0.00000000000E+00  0.00000000000E+00  0.45593999997E+02  0.45594000000E+02  0.51100000000E-03 0.  1.
         11   -1    0    0    0    0 -0.00000000000E+00 -0.00000000000E+00 -0.45593999997E+02  0.45594000000E+02  0.51100000000E-03 0. -1.
    9900012    2    1    2    0    0  0.13016448524E+02  0.28168660825E+02 -0.32652903819E+02  0.46142317491E+02  0.99999975407E+01 0.  0.
        -12    1    1    2    0    0 -0.13016448524E+02 -0.28168660825E+02  0.32652903819E+02  0.45045682509E+02  0.00000000000E+00 0.  1.
         11    1    3    3    0    0  0.44882601082E+01  0.11973924669E+02 -0.94811392296E+01  0.15918899212E+02  0.51100000000E-03 0. -1.
        -11    1    3    3    0    0  0.60481711069E-01  0.50811384232E+01 -0.38308783239E+01  0.63637453365E+01  0.51100000000E-03 0.  1.
        -12    1    3    3    0    0  0.84677067046E+01  0.11113597733E+02 -0.19340886265E+02  0.23859672943E+02  0.00000000000E+00 0.  1.
</event>
<event>
 7    1  0.1541705E-008  0.4614232E+02  0.7816164E-02  0.1320468E+00
        -11   -1    0    0    0    0  0.00000000000E+00  0.00000000000E+00  0.45593999997E+02  0.45594000000E+02  0.51100000000E-03 0.  1.
         11   -1    0    0    0    0 -0.00000000000E+00 -0.00000000000E+00 -0.45593999997E+02  0.45594000000E+02  0.51100000000E-03 0. -1.
    9900012    2    1    2    0    0 -0.42049665024E+02 -0.87056105921E+00 -0.16130134293E+02  0.46142318326E+02  0.10000005151E+02 0.  0.
        -12    1    1    2    0    0  0.42049665024E+02  0.87056105921E+00  0.16130134293E+02  0.45045681674E+02  0.00000000000E+00 0.  1.
         11    1    3    3    0    0 -0.16635929453E+02  0.37841697823E+01 -0.62533354149E+01  0.18170808836E+02  0.51100000000E-03 0. -1.
        -11    1    3    3    0    0 -0.23495159483E+02 -0.39453172909E+01 -0.78300595272E+01  0.25077836432E+02  0.51100000000E-03 0.  1.
        -12    1    3    3    0    0 -0.19185760877E+01 -0.70941355056E+00 -0.20467393513E+01  0.28936730573E+01  0.00000000000E+00 0.  1.
</event>
<event>
 7    1  0.1541705E-008  0.4614232E+02  0.7816164E-02  0.1320468E+00
        -11   -1    0    0    0    0  0.00000000000E+00  0.00000000000E+00  0.45593999997E+02  0.45594000000E+02  0.51100000000E-03 0. -1.
         11   -1    0    0    0    0 -0.00000000000E+00 -0.00000000000E+00 -0.45593999997E+02  0.45594000000E+02  0.51100000000E-03 0.  1.
    9900012    2    1    2    0    0 -0.24740820633E+01 -0.42464618832E+02  0.14823919207E+02  0.46142317463E+02  0.99999972774E+01 0.  0.
        -12    1    1    2    0    0  0.24740820633E+01  0.42464618832E+02 -0.14823919207E+02  0.45045682537E+02  0.00000000000E+00 0.  1.
         11    1    3    3    0    0 -0.12915075297E+01 -0.31950324026E+02  0.72123413076E+01  0.32779705070E+02  0.51100000000E-03 0. -1.
        -11    1    3    3    0    0  0.48646446482E-01 -0.70778491752E+01  0.63245734588E+01  0.94920253435E+01  0.51100000000E-03 0.  1.
        -12    1    3    3    0    0 -0.12312209801E+01 -0.34364456309E+01  0.12870044406E+01  0.38705870493E+01  0.00000000000E+00 0.  1.
</event>
<event>
 7    1  0.1541705E-008  0.4614232E+02  0.7816164E-02  0.1320468E+00
        -11   -1    0    0    0    0  0.00000000000E+00  0.00000000000E+00  0.45593999997E+02  0.45594000000E+02  0.51100000000E-03 0. -1.
         11   -1    0    0    0    0 -0.00000000000E+00 -0.00000000000E+00 -0.45593999997E+02  0.45594000000E+02  0.51100000000E-03 0.  1.
    9900012    2    1    2    0    0  0.85709106484E+01 -0.41108738118E+02  0.16301064145E+02  0.46142317064E+02  0.99999936395E+01 0.  0.
        -12    1    1    2    0    0 -0.85709106484E+01  0.41108738118E+02 -0.16301064145E+02  0.45045682936E+02  0.00000000000E+00 0.  1.
         11    1    3    3    0    0  0.21407545180E+01 -0.26814023768E+02  0.84714325564E+01  0.28201770695E+02  0.51100000000E-03 0. -1.
        -11    1    3    3    0    0  0.28457503078E+01 -0.24124951539E+01  0.17918299658E+01  0.41387295840E+01  0.51100000000E-03 0.  1.
         12    1    3    3    0    0  0.35844058226E+01 -0.11882219196E+02  0.60378016226E+01  0.13801816785E+02  0.00000000000E+00 0. -1.
</event>
<event>
 7    1  0.1541705E-008  0.4614232E+02  0.7816164E-02  0.1320468E+00
        -11   -1    0    0    0    0  0.00000000000E+00  0.00000000000E+00  0.45593999997E+02  0.45594000000E+02  0.51100000000E-03 0. -1.
         11   -1    0    0    0    0 -0.00000000000E+00 -0.00000000000E+00 -0.45593999997E+02  0.45594000000E+02  0.51100000000E-03 0.  1.
    9900012    2    1    2    0    0  0.13173067822E+02 -0.45446175232E+01  0.42836085535E+02  0.46142317762E+02  0.10000000010E+02 0.  0.
        -12    1    1    2    0    0 -0.13173067822E+02  0.45446175232E+01 -0.42836085535E+02  0.45045682238E+02  0.00000000000E+00 0.  1.
         11    1    3    3    0    0  0.35154010156E+00 -0.28206903767E+01  0.74015766076E+01  0.79286323652E+01  0.51100000000E-03 0. -1.
        -11    1    3    3    0    0  0.33275344267E+00 -0.26198870643E+00 -0.16826558611E+00  0.45571537663E+00  0.51100000000E-03 0.  1.
         12    1    3    3    0    0  0.12488774278E+02 -0.14619384400E+01  0.35602774514E+02  0.37757970020E+02  0.00000000000E+00 0. -1.
</event>
<event>
 7    1  0.1541705E-008  0.4614232E+02  0.7816164E-02  0.1320468E+00
        -11   -1    0    0    0    0  0.00000000000E+00  0.00000000000E+00  0.45593999997E+02  0.45594000000E+02  0.51100000000E-03 0.  1.
         11   -1    0    0    0    0 -0.00000000000E+00 -0.00000000000E+00 -0.45593999997E+02  0.45594000000E+02  0.51100000000E-03 0. -1.
    9900012    2    1    2    0    0 -0.29077164910E+01 -0.14734395767E+02 -0.42468296693E+02  0.46142318101E+02  0.10000003097E+02 0.  0.
        -12    1    1    2    0    0  0.29077164910E+01  0.14734395767E+02  0.42468296693E+02  0.45045681899E+02  0.00000000000E+00 0.  1.
         11    1    3    3    0    0 -0.35932001817E+01 -0.47022768813E+01 -0.14959801361E+02  0.16087826218E+02  0.51100000000E-03 0. -1.
        -11    1    3    3    0    0  0.28429978104E+01 -0.13693721351E+01 -0.63948843898E+01  0.71310842944E+01  0.51100000000E-03 0.  1.
         12    1    3    3    0    0 -0.21575141197E+01 -0.86627467501E+01 -0.21113610942E+02  0.22923407588E+02  0.00000000000E+00 0. -1.
</event>
<event>
 7    1  0.1541705E-008  0.4614232E+02  0.7816164E-02  0.1320468E+00
        -11   -1    0    0    0    0  0.00000000000E+00  0.00000000000E+00  0.45593999997E+02  0.45594000000E+02  0.51100000000E-03 0. -1.
         11   -1    0    0    0    0 -0.00000000000E+00 -0.00000000000E+00 -0.45593999997E+02  0.45594000000E+02  0.51100000000E-03 0.  1.
    9900012    2    1    2    0    0 -0.12427768314E+02  0.21983138864E+01  0.43241549078E+02  0.46142316790E+02  0.99999911427E+01 0.  0.
        -12    1    1    2    0    0  0.12427768314E+02 -0.21983138864E+01 -0.43241549078E+02  0.45045683210E+02  0.00000000000E+00 0.  1.
         11    1    3    3    0    0 -0.61670634964E+01 -0.23036791101E+01  0.21078893412E+02  0.22083010604E+02  0.51100000000E-03 0. -1.
        -11    1    3    3    0    0 -0.40800725961E+01  0.61104816461E+00  0.59225685356E+01  0.72178383585E+01  0.51100000000E-03 0.  1.
         12    1    3    3    0    0 -0.21806322220E+01  0.38909448319E+01  0.16240087130E+02  0.16841467827E+02  0.00000000000E+00 0. -1.
</event>
<event>
 7    1  0.1541705E-008  0.4614232E+02  0.7816164E-02  0.1320468E+00
        -11   -1    0    0    0    0  0.00000000000E+00  0.00000000000E+00  0.45593999997E+02  0.45594000000E+02  0.51100000000E-03 0.  1.
         11   -1    0    0    0    0 -0.00000000000E+00 -0.00000000000E+00 -0.45593999997E+02  0.45594000000E+02  0.51100000000E-03 0. -1.
    9900012    2    1    2    0    0  0.25301429981E+02 -0.13663600521E+02 -0.34673580268E+02  0.46142317555E+02  0.99999981242E+01 0.  0.
        -12    1    1    2    0    0 -0.25301429981E+02  0.13663600521E+02  0.34673580268E+02  0.45045682445E+02  0.00000000000E+00 0.  1.
         11    1    3    3    0    0  0.46858839216E+01 -0.85609679394E+00 -0.64459104911E+01  0.80149967041E+01  0.51100000000E-03 0. -1.
        -11    1    3    3    0    0  0.11141813098E+01 -0.18113658347E+01 -0.68485993987E+01  0.71711756472E+01  0.51100000000E-03 0.  1.
        -12    1    3    3    0    0  0.19501364750E+02 -0.10996137893E+02 -0.21379070378E+02  0.30956145204E+02  0.00000000000E+00 0.  1.
</event>
<event>
 7    1  0.1541705E-008  0.4614232E+02  0.7816164E-02  0.1320468E+00
        -11   -1    0    0    0    0  0.00000000000E+00  0.00000000000E+00  0.45593999997E+02  0.45594000000E+02  0.51100000000E-03 0.  1.
         11   -1    0    0    0    0 -0.00000000000E+00 -0.00000000000E+00 -0.45593999997E+02  0.45594000000E+02  0.51100000000E-03 0. -1.
    9900012    2    1    2    0    0 -0.41314301704E+02  0.17951075613E+02  0.28679132560E-01  0.46142318038E+02  0.10000002528E+02 0.  0.
        -12    1    1    2    0    0  0.41314301704E+02 -0.17951075613E+02 -0.28679132560E-01  0.45045681962E+02  0.00000000000E+00 0.  1.
         11    1    3    3    0    0 -0.19323054510E+02  0.92187848010E+01 -0.15228074092E+01  0.21463582448E+02  0.51100000000E-03 0. -1.
        -11    1    3    3    0    0 -0.29111237308E+01 -0.34234130687E+00 -0.15635962677E+01  0.33221487769E+01  0.51100000000E-03 0.  1.
        -12    1    3    3    0    0 -0.19080123463E+02  0.90746321185E+01  0.31150828095E+01  0.21356586814E+02  0.00000000000E+00 0.  1.
</event>
<event>
 7    1  0.1541705E-008  0.4614232E+02  0.7816164E-02  0.1320468E+00
        -11   -1    0    0    0    0  0.00000000000E+00  0.00000000000E+00  0.45593999997E+02  0.45594000000E+02  0.51100000000E-03 0.  1.
         11   -1    0    0    0    0 -0.00000000000E+00 -0.00000000000E+00 -0.45593999997E+02  0.45594000000E+02  0.51100000000E-03 0. -1.
    9900012    2    1    2    0    0  0.13381970770E+02 -0.32381937485E+02 -0.28309830503E+02  0.46142317409E+02  0.99999967930E+01 0.  0.
        -12    1    1    2    0    0 -0.13381970770E+02  0.32381937485E+02  0.28309830503E+02  0.45045682591E+02  0.00000000000E+00 0.  1.
         11    1    3    3    0    0  0.60300003939E+01 -0.51922067849E+01 -0.66123305699E+01  0.10346150582E+02  0.51100000000E-03 0.  1.
        -11    1    3    3    0    0  0.28026318197E+01 -0.17926331517E+02 -0.13463346000E+02  0.22593578569E+02  0.51100000000E-03 0. -1.
         12    1    3    3    0    0  0.45493385562E+01 -0.92633991831E+01 -0.82341539325E+01  0.13202588258E+02  0.00000000000E+00 0. -1.
</event>
<event>
 7    1  0.1541705E-008  0.4614232E+02  0.7816164E-02  0.1320468E+00
        -11   -1    0    0    0    0  0.00000000000E+00  0.00000000000E+00  0.45593999997E+02  0.45594000000E+02  0.51100000000E-03 0. -1.
         11   -1    0    0    0    0 -0.00000000000E+00 -0.00000000000E+00 -0.45593999997E+02  0.45594000000E+02  0.51100000000E-03 0.  1.
    9900012    2    1    2    0    0 -0.25775533314E+02  0.21440346365E+02 -0.30083996405E+02  0.46142318636E+02  0.10000007980E+02 0.  0.
        -12    1    1    2    0    0  0.25775533314E+02 -0.21440346365E+02  0.30083996405E+02  0.45045681364E+02  0.00000000000E+00 0.  1.
         11    1    3    3    0    0 -0.15480911546E+02  0.13341796511E+02 -0.14263143995E+02  0.24921866570E+02  0.51100000000E-03 0. -1.
        -11    1    3    3    0    0 -0.25034606566E+01 -0.48488095920E+00 -0.29069931309E+01  0.38669153246E+01  0.51100000000E-03 0.  1.
         12    1    3    3    0    0 -0.77911611109E+01  0.85834308133E+01 -0.12913859278E+02  0.17353536742E+02  0.00000000000E+00 0. -1.
</event>
<event>
 7    1  0.1541705E-008  0.4614232E+02  0.7816164E-02  0.1320468E+00
        -11   -1    0    0    0    0  0.00000000000E+00  0.00000000000E+00  0.45593999997E+02  0.45594000000E+02  0.51100000000E-03 0.  1.
         11   -1    0    0    0    0 -0.00000000000E+00 -0.00000000000E+00 -0.45593999997E+02  0.45594000000E+02  0.51100000000E-03 0. -1.
    9900012    2    1    2    0    0  0.40329863048E+02 -0.19343144497E+02 -0.53346430821E+01  0.46142317529E+02  0.99999978803E+01 0.  0.
        -12    1    1    2    0    0 -0.40329863048E+02  0.19343144497E+02  0.53346430821E+01  0.45045682471E+02  0.00000000000E+00 0.  1.
         11    1    3    3    0    0  0.47202050804E+01 -0.22640379751E+01 -0.46650815979E+00  0.52558380947E+01  0.51100000000E-03 0. -1.
        -11    1    3    3    0    0  0.29867837194E+02 -0.10381391267E+02 -0.23285123352E+01  0.31706197395E+02  0.51100000000E-03 0.  1.
        -12    1    3    3    0    0  0.57418207735E+01 -0.66977152549E+01 -0.25396225871E+01  0.91802820390E+01  0.00000000000E+00 0.  1.
</event>
<event>
 7    1  0.1541705E-008  0.4614231E+02  0.7816164E-02  0.1320468E+00
        -11   -1    0    0    0    0  0.00000000000E+00  0.00000000000E+00  0.45593999997E+02  0.45594000000E+02  0.51100000000E-03 0.  1.
         11   -1    0    0    0    0 -0.00000000000E+00 -0.00000000000E+00 -0.45593999997E+02  0.45594000000E+02  0.51100000000E-03 0. -1.
    9900012    2    1    2    0    0 -0.22296989508E+02  0.20441280545E+01 -0.39086821293E+02  0.46142314308E+02  0.99999685141E+01 0.  0.
        -12    1    1    2    0    0  0.22296989508E+02 -0.20441280545E+01  0.39086821293E+02  0.45045685692E+02  0.00000000000E+00 0.  1.
         11    1    3    3    0    0 -0.47974791823E+01  0.22274523536E+00 -0.67582163120E+01  0.82908931923E+01  0.51100000000E-03 0. -1.
        -11    1    3    3    0    0 -0.10278917731E+02 -0.32632588983E+01 -0.16157117739E+02  0.19425690780E+02  0.51100000000E-03 0.  1.
        -12    1    3    3    0    0 -0.72205925947E+01  0.50846417175E+01 -0.16171487242E+02  0.18425730336E+02  0.00000000000E+00 0.  1.
</event>
<event>
 7    1  0.1541705E-008  0.4614232E+02  0.7816164E-02  0.1320468E+00
        -11   -1    0    0    0    0  0.00000000000E+00  0.00000000000E+00  0.45593999997E+02  0.45594000000E+02  0.51100000000E-03 0.  1.
         11   -1    0    0    0    0 -0.00000000000E+00 -0.00000000000E+00 -0.45593999997E+02  0.45594000000E+02  0.51100000000E-03 0. -1.
    9900012    2    1    2    0    0  0.36931159953E+02  0.17905070479E+02 -0.18563700591E+02  0.46142322028E+02  0.10000038906E+02 0.  0.
        -12    1    1    2    0    0 -0.36931159953E+02 -0.17905070479E+02  0.18563700591E+02  0.45045677972E+02  0.00000000000E+00 0.  1.
         11    1    3    3    0    0  0.95623945800E+01  0.79910594776E+01 -0.67236957965E+01  0.14159961409E+02  0.51100000000E-03 0. -1.
        -11    1    3    3    0    0  0.11926793183E+02  0.74463288689E+01 -0.51581428987E+01  0.14976736884E+02  0.51100000000E-03 0.  1.
        -12    1    3    3    0    0  0.15441972190E+02  0.24676821323E+01 -0.66818618957E+01  0.17005623735E+02  0.00000000000E+00 0.  1.
</event>
<event>
 7    1  0.1541705E-008  0.4614232E+02  0.7816164E-02  0.1320468E+00
        -11   -1    0    0    0    0  0.00000000000E+00  0.00000000000E+00  0.45593999997E+02  0.45594000000E+02  0.51100000000E-03 0.  1.
         11   -1    0    0    0    0 -0.00000000000E+00 -0.00000000000E+00 -0.45593999997E+02  0.45594000000E+02  0.51100000000E-03 0. -1.
    9900012    2    1    2    0    0 -0.40291595342E+02  0.16514106112E+02 -0.11531926376E+02  0.46142315613E+02  0.99999804159E+01 0.  0.
        -12    1    1    2    0    0  0.40291595342E+02 -0.16514106112E+02  0.11531926376E+02  0.45045684387E+02  0.00000000000E+00 0.  1.
         11    1    3    3    0    0 -0.19694181457E+02  0.89274500974E+01 -0.76727227509E+01  0.22944080351E+02  0.51100000000E-03 0. -1.
        -11    1    3    3    0    0 -0.52362111528E+01  0.27428387842E+01  0.17138272656E+01  0.61545329628E+01  0.51100000000E-03 0.  1.
        -12    1    3    3    0    0 -0.15361202733E+02  0.48438172303E+01 -0.55730308905E+01  0.17043702299E+02  0.00000000000E+00 0.  1.
</event>
<event>
 7    1  0.1541705E-008  0.4614232E+02  0.7816164E-02  0.1320468E+00
        -11   -1    0    0    0    0  0.00000000000E+00  0.00000000000E+00  0.45593999997E+02  0.45594000000E+02  0.51100000000E-03 0. -1.
         11   -1    0    0    0    0 -0.00000000000E+00 -0.00000000000E+00 -0.45593999997E+02  0.45594000000E+02  0.51100000000E-03 0.  1.
    9900012    2    1    2    0    0  0.16329543622E+02  0.41668502625E+02  0.51181253166E+01  0.46142319711E+02  0.10000017782E+02 0.  0.
        -12    1    1    2    0    0 -0.16329543622E+02 -0.41668502625E+02 -0.51181253166E+01  0.45045680289E+02  0.00000000000E+00 0.  1.
         11    1    3    3    0    0  0.10569937591E+02  0.35831074428E+02  0.27467505362E+01  0.37458431816E+02  0.51100000000E-03 0. -1.
        -11    1    3    3    0    0  0.36629242498E+01  0.29201237022E+01  0.19215192446E+01  0.50632373996E+01  0.51100000000E-03 0.  1.
         12    1    3    3    0    0  0.20966817810E+01  0.29173044953E+01  0.44985553571E+00  0.36206504957E+01  0.00000000000E+00 0. -1.
</event>
<event>
 7    1  0.1541705E-008  0.4614232E+02  0.7816164E-02  0.1320468E+00
        -11   -1    0    0    0    0  0.00000000000E+00  0.00000000000E+00  0.45593999997E+02  0.45594000000E+02  0.51100000000E-03 0.  1.
         11   -1    0    0    0    0 -0.00000000000E+00 -0.00000000000E+00 -0.45593999997E+02  0.45594000000E+02  0.51100000000E-03 0. -1.
    9900012    2    1    2    0    0 -0.32247935665E+02  0.20482337776E+02 -0.23867508940E+02  0.46142317649E+02  0.99999989818E+01 0.  0.
        -12    1    1    2    0    0  0.32247935665E+02 -0.20482337776E+02  0.23867508940E+02  0.45045682351E+02  0.00000000000E+00 0.  1.
         11    1    3    3    0    0 -0.12344774687E+02  0.11567415184E+02 -0.10012128182E+02  0.19658109449E+02  0.51100000000E-03 0. -1.
        -11    1    3    3    0    0 -0.10362520302E+02  0.33623527595E+01 -0.37592948518E+01  0.11524736055E+02  0.51100000000E-03 0.  1.
         12    1    3    3    0    0 -0.95406406757E+01  0.55525698327E+01 -0.10096085906E+02  0.14959472145E+02  0.00000000000E+00 0. -1.
</event>
<event>
 7    1  0.1541705E-008  0.4614232E+02  0.7816164E-02  0.1320468E+00
        -11   -1    0    0    0    0  0.00000000000E+00  0.00000000000E+00  0.45593999997E+02  0.45594000000E+02  0.51100000000E-03 0.  1.
         11   -1    0    0    0    0 -0.00000000000E+00 -0.00000000000E+00 -0.45593999997E+02  0.45594000000E+02  0.51100000000E-03 0. -1.
    9900012    2    1    2    0    0  0.27360651457E+02 -0.10193868125E+02 -0.34301506279E+02  0.46142317315E+02  0.99999959336E+01 0.  0.
        -12    1    1    2    0    0 -0.27360651457E+02  0.10193868125E+02  0.34301506279E+02  0.45045682685E+02  0.00000000000E+00 0.  1.
         11    1    3    3    0    0  0.21078329774E+02 -0.81258184588E+01 -0.25461697630E+02  0.34038551058E+02  0.51100000000E-03 0. -1.
        -11    1    3    3    0    0  0.15677995401E+01  0.70467722908E+00 -0.53414626203E+01  0.56112198834E+01  0.51100000000E-03 0.  1.
        -12    1    3    3    0    0  0.47145221430E+01 -0.27727268953E+01 -0.34983460294E+01  0.64925463736E+01  0.00000000000E+00 0.  1.
</event>
<event>
 7    1  0.1541705E-008  0.4614232E+02  0.7816164E-02  0.1320468E+00
        -11   -1    0    0    0    0  0.00000000000E+00  0.00000000000E+00  0.45593999997E+02  0.45594000000E+02  0.51100000000E-03 0.  1.
         11   -1    0    0    0    0 -0.00000000000E+00 -0.00000000000E+00 -0.45593999997E+02  0.45594000000E+02  0.51100000000E-03 0. -1.
    9900012    2    1    2    0    0  0.26266936528E+02 -0.22371903749E+02 -0.28959618083E+02  0.46142317505E+02  0.99999976646E+01 0.  0.
        -12    1    1    2    0    0 -0.26266936528E+02  0.22371903749E+02  0.28959618083E+02  0.45045682495E+02  0.00000000000E+00 0.  1.
         11    1    3    3    0    0  0.94544528980E+01 -0.50920655434E+01 -0.88597299505E+01  0.13921588493E+02  0.51100000000E-03 0. -1.
        -11    1    3    3    0    0  0.16736454860E+01 -0.33758787397E+01 -0.46809736088E+00  0.37969411213E+01  0.51100000000E-03 0.  1.
         12    1    3    3    0    0  0.15138838145E+02 -0.13903959466E+02 -0.19631790771E+02  0.28423787891E+02  0.00000000000E+00 0. -1.
</event>
<event>
 7    1  0.1541705E-008  0.4614232E+02  0.7816164E-02  0.1320468E+00
        -11   -1    0    0    0    0  0.00000000000E+00  0.00000000000E+00  0.45593999997E+02  0.45594000000E+02  0.51100000000E-03 0.  1.
         11   -1    0    0    0    0 -0.00000000000E+00 -0.00000000000E+00 -0.45593999997E+02  0.45594000000E+02  0.51100000000E-03 0. -1.
    9900012    2    1    2    0    0  0.13613137213E+02 -0.37660484214E+01 -0.42773974046E+02  0.46142317841E+02  0.10000000724E+02 0.  0.
        -12    1    1    2    0    0 -0.13613137213E+02  0.37660484214E+01  0.42773974046E+02  0.45045682159E+02  0.00000000000E+00 0.  1.
         11    1    3    3    0    0 -0.63237438862E+00 -0.24240266664E+01 -0.10426902022E+02  0.10723622927E+02  0.51100000000E-03 0. -1.
        -11    1    3    3    0    0  0.76077446608E+01 -0.18074583637E+00 -0.18991823634E+02  0.20459711951E+02  0.51100000000E-03 0.  1.
         12    1    3    3    0    0  0.66377669412E+01 -0.11612759186E+01 -0.13355248390E+02  0.14958982963E+02  0.00000000000E+00 0. -1.
</event>
<event>
 7    1  0.1541705E-008  0.4614232E+02  0.7816164E-02  0.1320468E+00
        -11   -1    0    0    0    0  0.00000000000E+00  0.00000000000E+00  0.45593999997E+02  0.45594000000E+02  0.51100000000E-03 0.  1.
         11   -1    0    0    0    0 -0.00000000000E+00 -0.00000000000E+00 -0.45593999997E+02  0.45594000000E+02  0.51100000000E-03 0. -1.
    9900012    2    1    2    0    0  0.15290909410E+02  0.78150494691E+01 -0.41644045742E+02  0.46142318137E+02  0.10000003424E+02 0.  0.
        -12    1    1    2    0    0 -0.15290909410E+02 -0.78150494691E+01  0.41644045742E+02  0.45045681863E+02  0.00000000000E+00 0.  1.
         11    1    3    3    0    0  0.48310262664E+01  0.69047956568E+01 -0.13783007540E+02  0.16155070874E+02  0.51100000000E-03 0. -1.
        -11    1    3    3    0    0  0.44887367227E+01 -0.12945816961E+01 -0.13267633759E+02  0.14066087052E+02  0.51100000000E-03 0.  1.
         12    1    3    3    0    0  0.59711464207E+01  0.22048355084E+01 -0.14593404443E+02  0.15921160210E+02  0.00000000000E+00 0. -1.
</event>
<event>
 7    1  0.1541705E-008  0.4614232E+02  0.7816164E-02  0.1320468E+00
        -11   -1    0    0    0    0  0.00000000000E+00  0.00000000000E+00  0.45593999997E+02  0.45594000000E+02  0.51100000000E-03 0. -1.
         11   -1    0    0    0    0 -0.00000000000E+00 -0.00000000000E+00 -0.45593999997E+02  0.45594000000E+02  0.51100000000E-03 0.  1.
    9900012    2    1    2    0    0 -0.42050516171E+02 -0.83575285943E+01  0.13820972483E+02  0.46142317911E+02  0.10000001366E+02 0.  0.
        -12    1    1    2    0    0  0.42050516171E+02  0.83575285943E+01 -0.13820972483E+02  0.45045682089E+02  0.00000000000E+00 0.  1.
         11    1    3    3    0    0 -0.17627391365E+02 -0.43841866230E+01  0.95081483285E+01  0.20502460915E+02  0.51100000000E-03 0. -1.
        -11    1    3    3    0    0 -0.92496732451E+01 -0.39074420774E+00  0.38941379809E+01  0.10043577403E+02  0.51100000000E-03 0.  1.
         12    1    3    3    0    0 -0.15173451561E+02 -0.35825977635E+01  0.41868617396E+00  0.15596279593E+02  0.00000000000E+00 0. -1.
</event>
<event>
 7    1  0.1541705E-008  0.4614232E+02  0.7816164E-02  0.1320468E+00
        -11   -1    0    0    0    0  0.00000000000E+00  0.00000000000E+00  0.45593999997E+02  0.45594000000E+02  0.51100000000E-03 0.  1.
         11   -1    0    0    0    0 -0.00000000000E+00 -0.00000000000E+00 -0.45593999997E+02  0.45594000000E+02  0.51100000000E-03 0. -1.
    9900012    2    1    2    0    0 -0.12938409468E+02 -0.38896332240E+02 -0.18675822492E+02  0.46142318219E+02  0.10000004178E+02 0.  0.
        -12    1    1    2    0    0  0.12938409468E+02  0.38896332240E+02  0.18675822492E+02  0.45045681781E+02  0.00000000000E+00 0.  1.
         11    1    3    3    0    0 -0.11111224510E+02 -0.25345653666E+02 -0.14849871774E+02  0.31406689763E+02  0.51100000000E-03 0. -1.
        -11    1    3    3    0    0  0.85891525408E+00 -0.72829373807E+01 -0.27506133452E+01  0.78322912574E+01  0.51100000000E-03 0.  1.
         12    1    3    3    0    0 -0.26861002120E+01 -0.62677411936E+01 -0.10753373730E+01  0.69033371992E+01  0.00000000000E+00 0. -1.
</event>
<event>
 7    1  0.1541705E-008  0.4614232E+02  0.7816164E-02  0.1320468E+00
        -11   -1    0    0    0    0  0.00000000000E+00  0.00000000000E+00  0.45593999997E+02  0.45594000000E+02  0.51100000000E-03 0.  1.
         11   -1    0    0    0    0 -0.00000000000E+00 -0.00000000000E+00 -0.45593999997E+02  0.45594000000E+02  0.51100000000E-03 0. -1.
    9900012    2    1    2    0    0 -0.25510711323E-01  0.44772203045E+02  0.49560718416E+01  0.46142318027E+02  0.10000002424E+02 0.  0.
        -12    1    1    2    0    0  0.25510711323E-01 -0.44772203045E+02 -0.49560718416E+01  0.45045681973E+02  0.00000000000E+00 0.  1.
         11    1    3    3    0    0  0.13875877002E+01  0.54399088515E+01  0.25735739241E+01  0.61758635787E+01  0.51100000000E-03 0. -1.
        -11    1    3    3    0    0 -0.14965270405E+01  0.29806060397E+01  0.13555841508E+01  0.36001686346E+01  0.51100000000E-03 0.  1.
         12    1    3    3    0    0  0.83428629029E-01  0.36351688154E+02  0.10269137666E+01  0.36366285814E+02  0.00000000000E+00 0. -1.
</event>
<event>
 7    1  0.1541705E-008  0.4614232E+02  0.7816164E-02  0.1320468E+00
        -11   -1    0    0    0    0  0.00000000000E+00  0.00000000000E+00  0.45593999997E+02  0.45594000000E+02  0.51100000000E-03 0. -1.
         11   -1    0    0    0    0 -0.00000000000E+00 -0.00000000000E+00 -0.45593999997E+02  0.45594000000E+02  0.51100000000E-03 0.  1.
    9900012    2    1    2    0    0  0.25903016653E+02 -0.31614026829E+02  0.18939391943E+02  0.46142317286E+02  0.99999956642E+01 0.  0.
        -12    1    1    2    0    0 -0.25903016653E+02  0.31614026829E+02 -0.18939391943E+02  0.45045682714E+02  0.00000000000E+00 0.  1.
         11    1    3    3    0    0  0.23101791032E+01 -0.71726538630E+01  0.63782970060E+01  0.98725155804E+01  0.51100000000E-03 0. -1.
        -11    1    3    3    0    0  0.72574603336E+01 -0.63781228518E+01  0.31882073964E+01  0.10174273845E+02  0.51100000000E-03 0.  1.
         12    1    3    3    0    0  0.16335377216E+02 -0.18063250114E+02  0.93728875402E+01  0.26095527860E+02  0.00000000000E+00 0. -1.
</event>
<event>
 7    1  0.1541705E-008  0.4614232E+02  0.7816164E-02  0.1320468E+00
        -11   -1    0    0    0    0  0.00000000000E+00  0.00000000000E+00  0.45593999997E+02  0.45594000000E+02  0.51100000000E-03 0.  1.
         11   -1    0    0    0    0 -0.00000000000E+00 -0.00000000000E+00 -0.45593999997E+02  0.45594000000E+02  0.51100000000E-03 0. -1.
    9900012    2    1    2    0    0  0.19854560609E+02 -0.22117005355E+02 -0.33848897944E+02  0.46142318799E+02  0.10000009464E+02 0.  0.
        -12    1    1    2    0    0 -0.19854560609E+02  0.22117005355E+02  0.33848897944E+02  0.45045681201E+02  0.00000000000E+00 0.  1.
         11    1    3    3    0    0  0.14980874693E+02 -0.17967319749E+02 -0.24883419359E+02  0.34153122036E+02  0.51100000000E-03 0. -1.
        -11    1    3    3    0    0  0.45920734831E+01 -0.94676681434E+00 -0.46088964761E+01  0.65746051793E+01  0.51100000000E-03 0.  1.
        -12    1    3    3    0    0  0.28161243224E+00 -0.32029187919E+01 -0.43565821085E+01  0.54145915837E+01  0.00000000000E+00 0.  1.
</event>
<event>
 7    1  0.1541705E-008  0.4614232E+02  0.7816164E-02  0.1320468E+00
        -11   -1    0    0    0    0  0.00000000000E+00  0.00000000000E+00  0.45593999997E+02  0.45594000000E+02  0.51100000000E-03 0.  1.
         11   -1    0    0    0    0 -0.00000000000E+00 -0.00000000000E+00 -0.45593999997E+02  0.45594000000E+02  0.51100000000E-03 0. -1.
    9900012    2    1    2    0    0 -0.25139806369E+02 -0.28833929628E+01 -0.37266469307E+02  0.46142317034E+02  0.99999933699E+01 0.  0.
        -12    1    1    2    0    0  0.25139806369E+02  0.28833929628E+01  0.37266469307E+02  0.45045682966E+02  0.00000000000E+00 0.  1.
         11    1    3    3    0    0 -0.39256371627E+01 -0.51104475664E-01 -0.39052102619E+01  0.55375000001E+01  0.51100000000E-03 0. -1.
        -11    1    3    3    0    0 -0.35855416969E+01  0.19847356901E+01 -0.26909113397E+01  0.49026818293E+01  0.51100000000E-03 0.  1.
        -12    1    3    3    0    0 -0.17628627510E+02 -0.48170241773E+01 -0.30670347705E+02  0.35702135205E+02  0.00000000000E+00 0.  1.
</event>
<event>
 7    1  0.1541705E-008  0.4614232E+02  0.7816164E-02  0.1320468E+00
        -11   -1    0    0    0    0  0.00000000000E+00  0.00000000000E+00  0.45593999997E+02  0.45594000000E+02  0.51100000000E-03 0.  1.
         11   -1    0    0    0    0 -0.00000000000E+00 -0.00000000000E+00 -0.45593999997E+02  0.45594000000E+02  0.51100000000E-03 0. -1.
    9900012    2    1    2    0    0 -0.21142950519E+02  0.18463943291E+02 -0.35230271893E+02  0.46142316343E+02  0.99999870713E+01 0.  0.
        -12    1    1    2    0    0  0.21142950519E+02 -0.18463943291E+02  0.35230271893E+02  0.45045683657E+02  0.00000000000E+00 0.  1.
         11    1    3    3    0    0 -0.16146612276E+02  0.12710989484E+02 -0.29410828210E+02  0.35878672744E+02  0.51100000000E-03 0. -1.
        -11    1    3    3    0    0 -0.20911716254E+01  0.23218475669E+01 -0.29151743003E+00  0.31383048870E+01  0.51100000000E-03 0.  1.
         12    1    3    3    0    0 -0.29051666177E+01  0.34311062401E+01 -0.55279262527E+01  0.71253387121E+01  0.00000000000E+00 0. -1.
</event>
<event>
 7    1  0.1541705E-008  0.4614231E+02  0.7816164E-02  0.1320468E+00
        -11   -1    0    0    0    0  0.00000000000E+00  0.00000000000E+00  0.45593999997E+02  0.45594000000E+02  0.51100000000E-03 0.  1.
         11   -1    0    0    0    0 -0.00000000000E+00 -0.00000000000E+00 -0.45593999997E+02  0.45594000000E+02  0.51100000000E-03 0. -1.
    9900012    2    1    2    0    0 -0.21310504471E+02 -0.31378761560E+02 -0.24297118329E+02  0.46142309452E+02  0.99999242289E+01 0.  0.
        -12    1    1    2    0    0  0.21310504471E+02  0.31378761560E+02  0.24297118329E+02  0.45045690548E+02  0.00000000000E+00 0.  1.
         11    1    3    3    0    0 -0.11464395829E+02 -0.15714416609E+02 -0.90694705941E+01  0.21462305520E+02  0.51100000000E-03 0. -1.
        -11    1    3    3    0    0 -0.15347639194E+01 -0.34164877905E+01 -0.46372757633E+00  0.37739810065E+01  0.51100000000E-03 0.  1.
         12    1    3    3    0    0 -0.83113447225E+01 -0.12247857160E+02 -0.14763920159E+02  0.20906022926E+02  0.00000000000E+00 0. -1.
</event>
<event>
 7    1  0.1541705E-008  0.4614232E+02  0.7816164E-02  0.1320468E+00
        -11   -1    0    0    0    0  0.00000000000E+00  0.00000000000E+00  0.45593999997E+02  0.45594000000E+02  0.51100000000E-03 0.  1.
         11   -1    0    0    0    0 -0.00000000000E+00 -0.00000000000E+00 -0.45593999997E+02  0.45594000000E+02  0.51100000000E-03 0. -1.
    9900012    2    1    2    0    0  0.31071417218E+02 -0.55188453341E+01 -0.32143784635E+02  0.46142317494E+02  0.99999975631E+01 0.  0.
        -12    1    1    2    0    0 -0.31071417218E+02  0.55188453341E+01  0.32143784635E+02  0.45045682506E+02  0.00000000000E+00 0.  1.
         11    1    3    3    0    0  0.25255015920E+02 -0.55356891006E+01 -0.22631667616E+02  0.34360617897E+02  0.51100000000E-03 0. -1.
        -11    1    3    3    0    0  0.27392665664E+01 -0.33310554674E+00 -0.77318402618E+01  0.82095002723E+01  0.51100000000E-03 0.  1.
         12    1    3    3    0    0  0.30771347319E+01  0.34994931331E+00 -0.17802767577E+01  0.35721993246E+01  0.00000000000E+00 0. -1.
</event>
<event>
 7    1  0.1541705E-008  0.4614231E+02  0.7816164E-02  0.1320468E+00
        -11   -1    0    0    0    0  0.00000000000E+00  0.00000000000E+00  0.45593999997E+02  0.45594000000E+02  0.51100000000E-03 0.  1.
         11   -1    0    0    0    0 -0.00000000000E+00 -0.00000000000E+00 -0.45593999997E+02  0.45594000000E+02  0.51100000000E-03 0. -1.
    9900012    2    1    2    0    0  0.10589955857E+02  0.32578050801E+02 -0.29251290938E+02  0.46142305638E+02  0.99998894477E+01 0.  0.
        -12    1    1    2    0    0 -0.10589955857E+02 -0.32578050801E+02  0.29251290938E+02  0.45045694362E+02  0.00000000000E+00 0.  1.
         11    1    3    3    0    0  0.10026815625E+02  0.20837212376E+02 -0.19537681347E+02  0.30272882979E+02  0.51100000000E-03 0. -1.
        -11    1    3    3    0    0  0.84456350093E-01  0.10540133721E+02 -0.64455707282E+01  0.12355036787E+02  0.51100000000E-03 0.  1.
        -12    1    3    3    0    0  0.47868388179E+00  0.12007047038E+01 -0.32680388635E+01  0.35143858721E+01  0.00000000000E+00 0.  1.
</event>
<event>
 7    1  0.1541705E-008  0.4614232E+02  0.7816164E-02  0.1320468E+00
        -11   -1    0    0    0    0  0.00000000000E+00  0.00000000000E+00  0.45593999997E+02  0.45594000000E+02  0.51100000000E-03 0.  1.
         11   -1    0    0    0    0 -0.00000000000E+00 -0.00000000000E+00 -0.45593999997E+02  0.45594000000E+02  0.51100000000E-03 0. -1.
    9900012    2    1    2    0    0  0.30731990767E+02 -0.19920081692E+02 -0.26226867234E+02  0.46142317898E+02  0.10000001248E+02 0.  0.
        -12    1    1    2    0    0 -0.30731990767E+02  0.19920081692E+02  0.26226867234E+02  0.45045682102E+02  0.00000000000E+00 0.  1.
         11    1    3    3    0    0  0.10638536111E+02 -0.25778943687E+01 -0.56184113747E+01  0.12304086175E+02  0.51100000000E-03 0. -1.
        -11    1    3    3    0    0  0.19433430003E+02 -0.17498261053E+02 -0.19934473125E+02  0.32882070503E+02  0.51100000000E-03 0.  1.
        -12    1    3    3    0    0  0.66002465272E+00  0.15607372959E+00 -0.67398273461E+00  0.95616121958E+00  0.00000000000E+00 0.  1.
</event>
<event>
 7    1  0.1541705E-008  0.4614232E+02  0.7816164E-02  0.1320468E+00
        -11   -1    0    0    0    0  0.00000000000E+00  0.00000000000E+00  0.45593999997E+02  0.45594000000E+02  0.51100000000E-03 0.  1.
         11   -1    0    0    0    0 -0.00000000000E+00 -0.00000000000E+00 -0.45593999997E+02  0.45594000000E+02  0.51100000000E-03 0. -1.
    9900012    2    1    2    0    0  0.38248026631E+02  0.19053976203E+02 -0.14252997831E+02  0.46142317660E+02  0.99999990814E+01 0.  0.
        -12    1    1    2    0    0 -0.38248026631E+02 -0.19053976203E+02  0.14252997831E+02  0.45045682340E+02  0.00000000000E+00 0.  1.
         11    1    3    3    0    0  0.21405446074E+02  0.99342887320E+01 -0.82923169301E+01  0.25012911357E+02  0.51100000000E-03 0. -1.
        -11    1    3    3    0    0  0.67768491098E+01  0.11699964899E+01 -0.45035699103E+01  0.82205059359E+01  0.51100000000E-03 0.  1.
         12    1    3    3    0    0  0.10065731447E+02  0.79496909809E+01 -0.14571109904E+01  0.12908900368E+02  0.00000000000E+00 0. -1.
</event>
<event>
 7    1  0.1541705E-008  0.4614232E+02  0.7816164E-02  0.1320468E+00
        -11   -1    0    0    0    0  0.00000000000E+00  0.00000000000E+00  0.45593999997E+02  0.45594000000E+02  0.51100000000E-03 0. -1.
         11   -1    0    0    0    0 -0.00000000000E+00 -0.00000000000E+00 -0.45593999997E+02  0.45594000000E+02  0.51100000000E-03 0.  1.
    9900012    2    1    2    0    0 -0.28981053096E+02 -0.33561894649E+02  0.79253622288E+01  0.46142316773E+02  0.99999909852E+01 0.  0.
        -12    1    1    2    0    0  0.28981053096E+02  0.33561894649E+02 -0.79253622288E+01  0.45045683227E+02  0.00000000000E+00 0.  1.
         11    1    3    3    0    0 -0.88659501221E+01 -0.77293414858E+01  0.14889587414E+01  0.11856002267E+02  0.51100000000E-03 0. -1.
        -11    1    3    3    0    0 -0.53037360504E+00 -0.50524281788E+01  0.15899115033E+01  0.53231706259E+01  0.51100000000E-03 0.  1.
        -12    1    3    3    0    0 -0.19584729369E+02 -0.20780124984E+02  0.48464919841E+01  0.28963143879E+02  0.00000000000E+00 0.  1.
</event>
<event>
 7    1  0.1541705E-008  0.4614232E+02  0.7816164E-02  0.1320468E+00
        -11   -1    0    0    0    0  0.00000000000E+00  0.00000000000E+00  0.45593999997E+02  0.45594000000E+02  0.51100000000E-03 0. -1.
         11   -1    0    0    0    0 -0.00000000000E+00 -0.00000000000E+00 -0.45593999997E+02  0.45594000000E+02  0.51100000000E-03 0.  1.
    9900012    2    1    2    0    0  0.15701392316E+00  0.33861917576E+02  0.29706219609E+02  0.46142316536E+02  0.99999888321E+01 0.  0.
        -12    1    1    2    0    0 -0.15701392316E+00 -0.33861917576E+02 -0.29706219609E+02  0.45045683464E+02  0.00000000000E+00 0.  1.
         11    1    3    3    0    0 -0.20150657871E+01  0.16666070225E+01  0.27941729837E+01  0.38269402945E+01  0.51100000000E-03 0. -1.
        -11    1    3    3    0    0 -0.15239118907E+01  0.73649537673E+01  0.69796115504E+01  0.10260595943E+02  0.51100000000E-03 0.  1.
         12    1    3    3    0    0  0.36959916010E+01  0.24830356786E+02  0.19932435074E+02  0.32054780299E+02  0.00000000000E+00 0. -1.
</event>
<event>
 7    1  0.1541705E-008  0.4614232E+02  0.7816164E-02  0.1320468E+00
        -11   -1    0    0    0    0  0.00000000000E+00  0.00000000000E+00  0.45593999997E+02  0.45594000000E+02  0.51100000000E-03 0.  1.
         11   -1    0    0    0    0 -0.00000000000E+00 -0.00000000000E+00 -0.45593999997E+02  0.45594000000E+02  0.51100000000E-03 0. -1.
    9900012    2    1    2    0    0  0.12491363222E+02  0.41411746443E+02  0.12575631165E+02  0.46142318766E+02  0.10000009168E+02 0.  0.
        -12    1    1    2    0    0 -0.12491363222E+02 -0.41411746443E+02 -0.12575631165E+02  0.45045681234E+02  0.00000000000E+00 0.  1.
         11    1    3    3    0    0 -0.28092606765E+00  0.14009263427E-01 -0.26819640636E+00  0.38864545341E+00  0.51100000000E-03 0.  1.
        -11    1    3    3    0    0  0.10895296783E+02  0.25727083053E+02  0.10246519309E+02  0.29758720614E+02  0.51100000000E-03 0. -1.
        -12    1    3    3    0    0  0.18769925075E+01  0.15670654127E+02  0.25973082623E+01  0.15994952699E+02  0.00000000000E+00 0.  1.
</event>
<event>
 7    1  0.1541705E-008  0.4614232E+02  0.7816164E-02  0.1320468E+00
        -11   -1    0    0    0    0  0.00000000000E+00  0.00000000000E+00  0.45593999997E+02  0.45594000000E+02  0.51100000000E-03 0. -1.
         11   -1    0    0    0    0 -0.00000000000E+00 -0.00000000000E+00 -0.45593999997E+02  0.45594000000E+02  0.51100000000E-03 0.  1.
    9900012    2    1    2    0    0 -0.11115641373E+02 -0.36924867473E+02 -0.23283256509E+02  0.46142319246E+02  0.10000013536E+02 0.  0.
        -12    1    1    2    0    0  0.11115641373E+02  0.36924867473E+02  0.23283256509E+02  0.45045680754E+02  0.00000000000E+00 0.  1.
         11    1    3    3    0    0 -0.10337617905E+01 -0.52404850146E+01 -0.71176838652E+01  0.88990319976E+01  0.51100000000E-03 0. -1.
        -11    1    3    3    0    0 -0.18140889693E+01 -0.69721305548E+01 -0.15621184796E+01  0.73716848595E+01  0.51100000000E-03 0.  1.
         12    1    3    3    0    0 -0.82677906129E+01 -0.24712251903E+02 -0.14603454164E+02  0.29871602388E+02  0.00000000000E+00 0. -1.
</event>
<event>
 7    1  0.1541705E-008  0.4614231E+02  0.7816164E-02  0.1320468E+00
        -11   -1    0    0    0    0  0.00000000000E+00  0.00000000000E+00  0.45593999997E+02  0.45594000000E+02  0.51100000000E-03 0.  1.
         11   -1    0    0    0    0 -0.00000000000E+00 -0.00000000000E+00 -0.45593999997E+02  0.45594000000E+02  0.51100000000E-03 0. -1.
    9900012    2    1    2    0    0 -0.20895492645E+01 -0.33798612284E+02 -0.29705243037E+02  0.46142313499E+02  0.99999611332E+01 0.  0.
        -12    1    1    2    0    0  0.20895492645E+01  0.33798612284E+02  0.29705243037E+02  0.45045686501E+02  0.00000000000E+00 0.  1.
         11    1    3    3    0    0 -0.37668983107E+01 -0.13423904367E+02 -0.82465100563E+01  0.16198631415E+02  0.51100000000E-03 0. -1.
        -11    1    3    3    0    0 -0.13940861785E+01 -0.51716357685E+01 -0.60550935334E+01  0.80841481155E+01  0.51100000000E-03 0.  1.
         12    1    3    3    0    0  0.30714352247E+01 -0.15203072148E+02 -0.15403639448E+02  0.21859533968E+02  0.00000000000E+00 0. -1.
</event>
<event>
 7    1  0.1541705E-008  0.4614232E+02  0.7816164E-02  0.1320468E+00
        -11   -1    0    0    0    0  0.00000000000E+00  0.00000000000E+00  0.45593999997E+02  0.45594000000E+02  0.51100000000E-03 0.  1.
         11   -1    0    0    0    0 -0.00000000000E+00 -0.00000000000E+00 -0.45593999997E+02  0.45594000000E+02  0.51100000000E-03 0. -1.
    9900012    2    1    2    0    0 -0.61792320422E+00 -0.44759566892E+02 -0.50311812403E+01  0.46142318275E+02  0.10000004685E+02 0.  0.
        -12    1    1    2    0    0  0.61792320422E+00  0.44759566892E+02  0.50311812403E+01  0.45045681725E+02  0.00000000000E+00 0.  1.
         11    1    3    3    0    0 -0.34850566111E+00 -0.95906249746E+00 -0.15961908871E+01  0.18944874449E+01  0.51100000000E-03 0.  1.
        -11    1    3    3    0    0 -0.20267116793E+01 -0.36241247148E+02 -0.36739001343E+01  0.36483326295E+02  0.51100000000E-03 0. -1.
         12    1    3    3    0    0  0.17572941362E+01 -0.75592572460E+01  0.23890978102E+00  0.77645045351E+01  0.00000000000E+00 0. -1.
</event>
<event>
 7    1  0.1541705E-008  0.4614232E+02  0.7816164E-02  0.1320468E+00
        -11   -1    0    0    0    0  0.00000000000E+00  0.00000000000E+00  0.45593999997E+02  0.45594000000E+02  0.51100000000E-03 0. -1.
         11   -1    0    0    0    0 -0.00000000000E+00 -0.00000000000E+00 -0.45593999997E+02  0.45594000000E+02  0.51100000000E-03 0.  1.
    9900012    2    1    2    0    0 -0.38729467800E+02 -0.83457035156E+01  0.21435738004E+02  0.46142319774E+02  0.10000018357E+02 0.  0.
        -12    1    1    2    0    0  0.38729467800E+02  0.83457035156E+01 -0.21435738004E+02  0.45045680226E+02  0.00000000000E+00 0.  1.
         11    1    3    3    0    0 -0.20317280141E+02 -0.84247050180E+01  0.14555908619E+02  0.26375026122E+02  0.51100000000E-03 0. -1.
        -11    1    3    3    0    0 -0.16584093328E+02 -0.56341188528E+00  0.61784749053E+01  0.17706584562E+02  0.51100000000E-03 0.  1.
         12    1    3    3    0    0 -0.18280943316E+01  0.64241338761E+00  0.70135447951E+00  0.20607090896E+01  0.00000000000E+00 0. -1.
</event>
<event>
 7    1  0.1541705E-008  0.4614232E+02  0.7816164E-02  0.1320468E+00
        -11   -1    0    0    0    0  0.00000000000E+00  0.00000000000E+00  0.45593999997E+02  0.45594000000E+02  0.51100000000E-03 0.  1.
         11   -1    0    0    0    0 -0.00000000000E+00 -0.00000000000E+00 -0.45593999997E+02  0.45594000000E+02  0.51100000000E-03 0. -1.
    9900012    2    1    2    0    0  0.36412910757E+02 -0.22873033825E+02 -0.13417814725E+02  0.46142317653E+02  0.99999990104E+01 0.  0.
        -12    1    1    2    0    0 -0.36412910757E+02  0.22873033825E+02  0.13417814725E+02  0.45045682347E+02  0.00000000000E+00 0.  1.
         11    1    3    3    0    0 -0.36758480513E+00  0.12100217288E+00 -0.29933040757E-01  0.38814477049E+00  0.51100000000E-03 0.  1.
        -11    1    3    3    0    0  0.17708630693E+01 -0.37915481711E+00  0.39904264569E+00  0.18544405301E+01  0.51100000000E-03 0. -1.
         12    1    3    3    0    0  0.35009632493E+02 -0.22614881181E+02 -0.13786924330E+02  0.43899732352E+02  0.00000000000E+00 0. -1.
</event>
<event>
 7    1  0.1541705E-008  0.4614232E+02  0.7816164E-02  0.1320468E+00
        -11   -1    0    0    0    0  0.00000000000E+00  0.00000000000E+00  0.45593999997E+02  0.45594000000E+02  0.51100000000E-03 0.  1.
         11   -1    0    0    0    0 -0.00000000000E+00 -0.00000000000E+00 -0.45593999997E+02  0.45594000000E+02  0.51100000000E-03 0. -1.
    9900012    2    1    2    0    0  0.89149338531E+01 -0.21729484921E+02 -0.38437831068E+02  0.46142318545E+02  0.10000007146E+02 0.  0.
        -12    1    1    2    0    0 -0.89149338531E+01  0.21729484921E+02  0.38437831068E+02  0.45045681455E+02  0.00000000000E+00 0.  1.
         11    1    3    3    0    0  0.54035727459E+00 -0.40374023800E+01 -0.19296394016E+01  0.45073398411E+01  0.51100000000E-03 0. -1.
        -11    1    3    3    0    0  0.20364862373E+01 -0.43385034218E+01 -0.13113493917E+02  0.13961862738E+02  0.51100000000E-03 0.  1.
         12    1    3    3    0    0  0.63380903412E+01 -0.13353579120E+02 -0.23394697749E+02  0.27673115966E+02  0.00000000000E+00 0. -1.
</event>
<event>
 7    1  0.1541705E-008  0.4614232E+02  0.7816164E-02  0.1320468E+00
        -11   -1    0    0    0    0  0.00000000000E+00  0.00000000000E+00  0.45593999997E+02  0.45594000000E+02  0.51100000000E-03 0.  1.
         11   -1    0    0    0    0 -0.00000000000E+00 -0.00000000000E+00 -0.45593999997E+02  0.45594000000E+02  0.51100000000E-03 0. -1.
    9900012    2    1    2    0    0 -0.57694412325E+01 -0.13090156222E+02 -0.42713871885E+02  0.46142317704E+02  0.99999994815E+01 0.  0.
        -12    1    1    2    0    0  0.57694412325E+01  0.13090156222E+02  0.42713871885E+02  0.45045682296E+02  0.00000000000E+00 0.  1.
         11    1    3    3    0    0 -0.27894280382E+01 -0.11503099127E+02 -0.31949398703E+02  0.34071487728E+02  0.51100000000E-03 0. -1.
        -11    1    3    3    0    0 -0.50128519291E+00 -0.12004988133E+01 -0.87698718501E+01  0.88658410077E+01  0.51100000000E-03 0.  1.
         12    1    3    3    0    0 -0.24787280014E+01 -0.38655828216E+00 -0.19946013324E+01  0.32049889680E+01  0.00000000000E+00 0. -1.
</event>
<event>
 7    1  0.1541705E-008  0.4614232E+02  0.7816164E-02  0.1320468E+00
        -11   -1    0    0    0    0  0.00000000000E+00  0.00000000000E+00  0.45593999997E+02  0.45594000000E+02  0.51100000000E-03 0.  1.
         11   -1    0    0    0    0 -0.00000000000E+00 -0.00000000000E+00 -0.45593999997E+02  0.45594000000E+02  0.51100000000E-03 0. -1.
    9900012    2    1    2    0    0 -0.21025791265E+02 -0.34353805123E+01 -0.39689138800E+02  0.46142317896E+02  0.10000001227E+02 0.  0.
        -12    1    1    2    0    0  0.21025791265E+02  0.34353805123E+01  0.39689138800E+02  0.45045682104E+02  0.00000000000E+00 0.  1.
         11    1    3    3    0    0 -0.18442671818E+02 -0.31664982766E+01 -0.28456042336E+02  0.34057381003E+02  0.51100000000E-03 0. -1.
        -11    1    3    3    0    0 -0.21742918353E+01  0.54481869154E-01 -0.24094786311E+01  0.32459360428E+01  0.51100000000E-03 0.  1.
         12    1    3    3    0    0 -0.40882761161E+00 -0.32336410481E+00 -0.88236178326E+01  0.88390008494E+01  0.00000000000E+00 0. -1.
</event>
<event>
 7    1  0.1541705E-008  0.4614232E+02  0.7816164E-02  0.1320468E+00
        -11   -1    0    0    0    0  0.00000000000E+00  0.00000000000E+00  0.45593999997E+02  0.45594000000E+02  0.51100000000E-03 0. -1.
         11   -1    0    0    0    0 -0.00000000000E+00 -0.00000000000E+00 -0.45593999997E+02  0.45594000000E+02  0.51100000000E-03 0.  1.
    9900012    2    1    2    0    0 -0.16796963517E+02 -0.39840239198E+02  0.12638469001E+02  0.46142317172E+02  0.99999946283E+01 0.  0.
        -12    1    1    2    0    0  0.16796963517E+02  0.39840239198E+02 -0.12638469001E+02  0.45045682828E+02  0.00000000000E+00 0.  1.
         11    1    3    3    0    0 -0.11334323609E+02 -0.22617147048E+02  0.11962358801E+02  0.27983928613E+02  0.51100000000E-03 0. -1.
        -11    1    3    3    0    0 -0.23532980666E+01 -0.85978527057E+01 -0.42326437407E+00  0.89241378256E+01  0.51100000000E-03 0.  1.
         12    1    3    3    0    0 -0.31093418409E+01 -0.86252394442E+01  0.10993745748E+01  0.92342507336E+01  0.00000000000E+00 0. -1.
</event>
<event>
 7    1  0.1541705E-008  0.4614232E+02  0.7816164E-02  0.1320468E+00
        -11   -1    0    0    0    0  0.00000000000E+00  0.00000000000E+00  0.45593999997E+02  0.45594000000E+02  0.51100000000E-03 0.  1.
         11   -1    0    0    0    0 -0.00000000000E+00 -0.00000000000E+00 -0.45593999997E+02  0.45594000000E+02  0.51100000000E-03 0. -1.
    9900012    2    1    2    0    0 -0.40088089257E+02  0.18258465900E+02  0.94173724721E+01  0.46142318947E+02  0.10000010809E+02 0.  0.
        -12    1    1    2    0    0  0.40088089257E+02 -0.18258465900E+02 -0.94173724721E+01  0.45045681053E+02  0.00000000000E+00 0.  1.
         11    1    3    3    0    0 -0.33103568321E+02  0.18221334233E+02  0.83014923555E+01  0.38688215679E+02  0.51100000000E-03 0. -1.
        -11    1    3    3    0    0 -0.14668240303E+01  0.47893861160E+00  0.11403621727E+01  0.19186925433E+01  0.51100000000E-03 0.  1.
         12    1    3    3    0    0 -0.55176969052E+01 -0.44180694466E+00 -0.24482056043E-01  0.55354107241E+01  0.00000000000E+00 0. -1.
</event>
<event>
 7    1  0.1541705E-008  0.4614232E+02  0.7816164E-02  0.1320468E+00
        -11   -1    0    0    0    0  0.00000000000E+00  0.00000000000E+00  0.45593999997E+02  0.45594000000E+02  0.51100000000E-03 0.  1.
         11   -1    0    0    0    0 -0.00000000000E+00 -0.00000000000E+00 -0.45593999997E+02  0.45594000000E+02  0.51100000000E-03 0. -1.
    9900012    2    1    2    0    0  0.25416273535E+02  0.26242652182E+02 -0.26352411454E+02  0.46142319371E+02  0.10000014677E+02 0.  0.
        -12    1    1    2    0    0 -0.25416273535E+02 -0.26242652182E+02  0.26352411454E+02  0.45045680629E+02  0.00000000000E+00 0.  1.
         11    1    3    3    0    0  0.10356319134E+02  0.83159804458E+01 -0.69539515265E+01  0.14992208606E+02  0.51100000000E-03 0.  1.
        -11    1    3    3    0    0  0.11146336541E+02  0.96546108086E+01 -0.14861583708E+02  0.20936069323E+02  0.51100000000E-03 0. -1.
        -12    1    3    3    0    0  0.39136178601E+01  0.82720609275E+01 -0.45368762196E+01  0.10214041442E+02  0.00000000000E+00 0.  1.
</event>
<event>
 7    1  0.1541705E-008  0.4614232E+02  0.7816164E-02  0.1320468E+00
        -11   -1    0    0    0    0  0.00000000000E+00  0.00000000000E+00  0.45593999997E+02  0.45594000000E+02  0.51100000000E-03 0.  1.
         11   -1    0    0    0    0 -0.00000000000E+00 -0.00000000000E+00 -0.45593999997E+02  0.45594000000E+02  0.51100000000E-03 0. -1.
    9900012    2    1    2    0    0 -0.68912335861E+01  0.84740898880E+01 -0.43701417901E+02  0.46142320670E+02  0.10000026523E+02 0.  0.
        -12    1    1    2    0    0  0.68912335861E+01 -0.84740898880E+01  0.43701417901E+02  0.45045679330E+02  0.00000000000E+00 0.  1.
         11    1    3    3    0    0 -0.43077648992E+01  0.14882247781E+01 -0.30522995415E+02  0.30861382030E+02  0.51100000000E-03 0. -1.
        -11    1    3    3    0    0 -0.24368869207E+01  0.70098122285E+01 -0.13187340910E+02  0.15132146110E+02  0.51100000000E-03 0.  1.
        -12    1    3    3    0    0 -0.14658176627E+00 -0.23947118613E-01  0.89184245405E-02  0.14879253002E+00  0.00000000000E+00 0.  1.
</event>
<event>
 7    1  0.1541705E-008  0.4614232E+02  0.7816164E-02  0.1320468E+00
        -11   -1    0    0    0    0  0.00000000000E+00  0.00000000000E+00  0.45593999997E+02  0.45594000000E+02  0.51100000000E-03 0.  1.
         11   -1    0    0    0    0 -0.00000000000E+00 -0.00000000000E+00 -0.45593999997E+02  0.45594000000E+02  0.51100000000E-03 0. -1.
    9900012    2    1    2    0    0  0.49731519115E+01  0.21922706251E+02 -0.39035572698E+02  0.46142320683E+02  0.10000026640E+02 0.  0.
        -12    1    1    2    0    0 -0.49731519115E+01 -0.21922706251E+02  0.39035572698E+02  0.45045679317E+02  0.00000000000E+00 0.  1.
         11    1    3    3    0    0  0.79193669899E+00  0.22051029335E+01 -0.91396972424E+01  0.94352376031E+01  0.51100000000E-03 0. -1.
        -11    1    3    3    0    0  0.26465592337E+01  0.18927423549E+02 -0.24690350195E+02  0.31222828684E+02  0.51100000000E-03 0.  1.
        -12    1    3    3    0    0  0.15346559787E+01  0.79017976826E+00 -0.52055252603E+01  0.54842543955E+01  0.00000000000E+00 0.  1.
</event>
<event>
 7    1  0.1541705E-008  0.4614232E+02  0.7816164E-02  0.1320468E+00
        -11   -1    0    0    0    0  0.00000000000E+00  0.00000000000E+00  0.45593999997E+02  0.45594000000E+02  0.51100000000E-03 0.  1.
         11   -1    0    0    0    0 -0.00000000000E+00 -0.00000000000E+00 -0.45593999997E+02  0.45594000000E+02  0.51100000000E-03 0. -1.
    9900012    2    1    2    0    0  0.82749625356E+01  0.18217945100E+02 -0.40357711750E+02  0.46142318450E+02  0.10000006279E+02 0.  0.
        -12    1    1    2    0    0 -0.82749625356E+01 -0.18217945100E+02  0.40357711750E+02  0.45045681550E+02  0.00000000000E+00 0.  1.
         11    1    3    3    0    0  0.33245251846E+01  0.11861725422E+02 -0.27596996047E+02  0.30221634449E+02  0.51100000000E-03 0. -1.
        -11    1    3    3    0    0  0.54867827937E+01  0.64488567457E+01 -0.99831640111E+01  0.13090305676E+02  0.51100000000E-03 0.  1.
        -12    1    3    3    0    0 -0.53634544282E+00 -0.92637067663E-01 -0.27775516925E+01  0.28303783254E+01  0.00000000000E+00 0.  1.
</event>
<event>
 7    1  0.1541705E-008  0.4614232E+02  0.7816164E-02  0.1320468E+00
        -11   -1    0    0    0    0  0.00000000000E+00  0.00000000000E+00  0.45593999997E+02  0.45594000000E+02  0.51100000000E-03 0.  1.
         11   -1    0    0    0    0 -0.00000000000E+00 -0.00000000000E+00 -0.45593999997E+02  0.45594000000E+02  0.51100000000E-03 0. -1.
    9900012    2    1    2    0    0  0.13771087760E+02 -0.25770134413E+02 -0.34283682586E+02  0.46142316773E+02  0.99999909882E+01 0.  0.
        -12    1    1    2    0    0 -0.13771087760E+02  0.25770134413E+02  0.34283682586E+02  0.45045683227E+02  0.00000000000E+00 0.  1.
         11    1    3    3    0    0  0.49919476450E+01 -0.85709326603E+01 -0.12398031973E+02  0.15877393521E+02  0.51100000000E-03 0. -1.
        -11    1    3    3    0    0  0.48196255448E+01 -0.14916572524E+02 -0.19764461150E+02  0.25226312673E+02  0.51100000000E-03 0.  1.
         12    1    3    3    0    0  0.39595145706E+01 -0.22826292286E+01 -0.21211894628E+01  0.50386105791E+01  0.00000000000E+00 0. -1.
</event>
<event>
 7    1  0.1541705E-008  0.4614232E+02  0.7816164E-02  0.1320468E+00
        -11   -1    0    0    0    0  0.00000000000E+00  0.00000000000E+00  0.45593999997E+02  0.45594000000E+02  0.51100000000E-03 0. -1.
         11   -1    0    0    0    0 -0.00000000000E+00 -0.00000000000E+00 -0.45593999997E+02  0.45594000000E+02  0.51100000000E-03 0.  1.
    9900012    2    1    2    0    0 -0.11324557867E+02  0.87303506154E+01  0.42715908126E+02  0.46142318301E+02  0.10000004920E+02 0.  0.
        -12    1    1    2    0    0  0.11324557867E+02 -0.87303506154E+01 -0.42715908126E+02  0.45045681699E+02  0.00000000000E+00 0.  1.
         11    1    3    3    0    0 -0.71291168867E+00  0.66440884815E+00  0.36774484842E+01  0.38043803448E+01  0.51100000000E-03 0. -1.
        -11    1    3    3    0    0 -0.22191396743E+01  0.18392475543E+01  0.23099692702E+02  0.23278814739E+02  0.51100000000E-03 0.  1.
        -12    1    3    3    0    0 -0.83925065041E+01  0.62266942129E+01  0.15938766940E+02  0.19059123217E+02  0.00000000000E+00 0.  1.
</event>
<event>
 7    1  0.1541705E-008  0.4614232E+02  0.7816164E-02  0.1320468E+00
        -11   -1    0    0    0    0  0.00000000000E+00  0.00000000000E+00  0.45593999997E+02  0.45594000000E+02  0.51100000000E-03 0.  1.
         11   -1    0    0    0    0 -0.00000000000E+00 -0.00000000000E+00 -0.45593999997E+02  0.45594000000E+02  0.51100000000E-03 0. -1.
    9900012    2    1    2    0    0  0.34674929409E+02  0.27713637821E+02 -0.76627073715E+01  0.46142317244E+02  0.99999952801E+01 0.  0.
        -12    1    1    2    0    0 -0.34674929409E+02 -0.27713637821E+02  0.76627073715E+01  0.45045682756E+02  0.00000000000E+00 0.  1.
         11    1    3    3    0    0  0.19122378201E+02  0.19291471422E+02 -0.12308599518E+01  0.27190829965E+02  0.51100000000E-03 0. -1.
        -11    1    3    3    0    0  0.83501579570E+01  0.36416083670E+01 -0.41525437301E+01  0.10011496846E+02  0.51100000000E-03 0.  1.
         12    1    3    3    0    0  0.72023932508E+01  0.47805580315E+01 -0.22793036895E+01  0.89399904329E+01  0.00000000000E+00 0. -1.
</event>
<event>
 7    1  0.1541705E-008  0.4614232E+02  0.7816164E-02  0.1320468E+00
        -11   -1    0    0    0    0  0.00000000000E+00  0.00000000000E+00  0.45593999997E+02  0.45594000000E+02  0.51100000000E-03 0.  1.
         11   -1    0    0    0    0 -0.00000000000E+00 -0.00000000000E+00 -0.45593999997E+02  0.45594000000E+02  0.51100000000E-03 0. -1.
    9900012    2    1    2    0    0 -0.35937982834E+02  0.18080831792E+02 -0.20264707666E+02  0.46142318017E+02  0.10000002334E+02 0.  0.
        -12    1    1    2    0    0  0.35937982834E+02 -0.18080831792E+02  0.20264707666E+02  0.45045681983E+02  0.00000000000E+00 0.  1.
         11    1    3    3    0    0 -0.91480954613E+01  0.26972233898E+01 -0.67971508084E+01  0.11711700302E+02  0.51100000000E-03 0. -1.
        -11    1    3    3    0    0 -0.28807501120E+01  0.46252892511E+01 -0.27882237081E+01  0.61209650850E+01  0.51100000000E-03 0.  1.
         12    1    3    3    0    0 -0.23909137261E+02  0.10758319151E+02 -0.10679333150E+02  0.28309652630E+02  0.00000000000E+00 0. -1.
</event>
<event>
 7    1  0.2015625E-008  0.4614232E+02  0.7816164E-02  0.1320468E+00
        -11   -1    0    0    0    0  0.00000000000E+00  0.00000000000E+00  0.45593999997E+02  0.45594000000E+02  0.51100000000E-03 0. -1.
         11   -1    0    0    0    0 -0.00000000000E+00 -0.00000000000E+00 -0.45593999997E+02  0.45594000000E+02  0.51100000000E-03 0.  1.
    9900012    2    1    2    0    0 -0.33512522010E+02 -0.98162398829E+01  0.28454624371E+02  0.46142319352E+02  0.10000014511E+02 0.  0.
        -12    1    1    2    0    0  0.33512522010E+02  0.98162398829E+01 -0.28454624371E+02  0.45045680648E+02  0.00000000000E+00 0.  1.
         11    1    3    3    0    0 -0.15775612422E+02 -0.73471476637E+01  0.14772521303E+02  0.22827131050E+02  0.51100000000E-03 0. -1.
        -11    1    3    3    0    0 -0.68177508180E+01  0.15534332320E+01  0.33494725487E+01  0.77533120431E+01  0.51100000000E-03 0.  1.
        -12    1    3    3    0    0 -0.10919158770E+02 -0.40225254512E+01  0.10332630520E+02  0.15561876259E+02  0.00000000000E+00 0.  1.
</event>
<event>
 7    1  0.1541705E-008  0.4614232E+02  0.7816164E-02  0.1320468E+00
        -11   -1    0    0    0    0  0.00000000000E+00  0.00000000000E+00  0.45593999997E+02  0.45594000000E+02  0.51100000000E-03 0.  1.
         11   -1    0    0    0    0 -0.00000000000E+00 -0.00000000000E+00 -0.45593999997E+02  0.45594000000E+02  0.51100000000E-03 0. -1.
    9900012    2    1    2    0    0  0.13419300127E+02 -0.13528929122E+02 -0.40816711323E+02  0.46142318050E+02  0.10000002634E+02 0.  0.
        -12    1    1    2    0    0 -0.13419300127E+02  0.13528929122E+02  0.40816711323E+02  0.45045681950E+02  0.00000000000E+00 0.  1.
         11    1    3    3    0    0  0.53442262217E+01 -0.11053515970E+00 -0.10809715653E+02  0.12059142784E+02  0.51100000000E-03 0. -1.
        -11    1    3    3    0    0  0.14303339817E+01 -0.59350888605E+01 -0.10087354549E+02  0.11790922658E+02  0.51100000000E-03 0.  1.
         12    1    3    3    0    0  0.66447399237E+01 -0.74833051020E+01 -0.19919641122E+02  0.22292252607E+02  0.00000000000E+00 0. -1.
</event>
<event>
 7    1  0.1541705E-008  0.4614232E+02  0.7816164E-02  0.1320468E+00
        -11   -1    0    0    0    0  0.00000000000E+00  0.00000000000E+00  0.45593999997E+02  0.45594000000E+02  0.51100000000E-03 0.  1.
         11   -1    0    0    0    0 -0.00000000000E+00 -0.00000000000E+00 -0.45593999997E+02  0.45594000000E+02  0.51100000000E-03 0. -1.
    9900012    2    1    2    0    0 -0.88433074929E+01 -0.42644285391E+02 -0.11505409254E+02  0.46142316455E+02  0.99999880886E+01 0.  0.
        -12    1    1    2    0    0  0.88433074929E+01  0.42644285391E+02  0.11505409254E+02  0.45045683545E+02  0.00000000000E+00 0.  1.
         11    1    3    3    0    0  0.18290259407E+00 -0.75900366311E+01 -0.14738660294E+01  0.77339763870E+01  0.51100000000E-03 0. -1.
        -11    1    3    3    0    0 -0.75984495141E+01 -0.29675538676E+02 -0.52670614656E+01  0.31082406076E+02  0.51100000000E-03 0.  1.
        -12    1    3    3    0    0 -0.14277605728E+01 -0.53787100844E+01 -0.47644817590E+01  0.73259339921E+01  0.00000000000E+00 0.  1.
</event>
<event>
 7    1  0.1541705E-008  0.4614232E+02  0.7816164E-02  0.1320468E+00
        -11   -1    0    0    0    0  0.00000000000E+00  0.00000000000E+00  0.45593999997E+02  0.45594000000E+02  0.51100000000E-03 0.  1.
         11   -1    0    0    0    0 -0.00000000000E+00 -0.00000000000E+00 -0.45593999997E+02  0.45594000000E+02  0.51100000000E-03 0. -1.
    9900012    2    1    2    0    0  0.26428526040E+02 -0.35982294905E+02  0.59934058390E+01  0.46142318200E+02  0.10000004002E+02 0.  0.
        -12    1    1    2    0    0 -0.26428526040E+02  0.35982294905E+02 -0.59934058390E+01  0.45045681800E+02  0.00000000000E+00 0.  1.
         11    1    3    3    0    0  0.54028507127E+01 -0.86016474838E+01  0.25524259951E+01  0.10473491012E+02  0.51100000000E-03 0. -1.
        -11    1    3    3    0    0  0.48683599813E+01 -0.11288404202E+02  0.37829448098E+01  0.12862335326E+02  0.51100000000E-03 0.  1.
        -12    1    3    3    0    0  0.16157315346E+02 -0.16092243219E+02 -0.34196496590E+00  0.22806491862E+02  0.00000000000E+00 0.  1.
</event>
<event>
 7    1  0.1541705E-008  0.4614232E+02  0.7816164E-02  0.1320468E+00
        -11   -1    0    0    0    0  0.00000000000E+00  0.00000000000E+00  0.45593999997E+02  0.45594000000E+02  0.51100000000E-03 0. -1.
         11   -1    0    0    0    0 -0.00000000000E+00 -0.00000000000E+00 -0.45593999997E+02  0.45594000000E+02  0.51100000000E-03 0.  1.
    9900012    2    1    2    0    0  0.15531841120E+02  0.36094481012E+02  0.22024165113E+02  0.46142317665E+02  0.99999991232E+01 0.  0.
        -12    1    1    2    0    0 -0.15531841120E+02 -0.36094481012E+02 -0.22024165113E+02  0.45045682335E+02  0.00000000000E+00 0.  1.
         11    1    3    3    0    0  0.83787762797E+00  0.39644342014E+01  0.14866604955E+01  0.43161252469E+01  0.51100000000E-03 0. -1.
        -11    1    3    3    0    0  0.82952832221E+01  0.14460293581E+02  0.48930241002E+01  0.17373931601E+02  0.51100000000E-03 0.  1.
        -12    1    3    3    0    0  0.63986802699E+01  0.17669753230E+02  0.15644480517E+02  0.24452260817E+02  0.00000000000E+00 0.  1.
</event>
<event>
 7    1  0.1541705E-008  0.4614233E+02  0.7816164E-02  0.1320468E+00
        -11   -1    0    0    0    0  0.00000000000E+00  0.00000000000E+00  0.45593999997E+02  0.45594000000E+02  0.51100000000E-03 0.  1.
         11   -1    0    0    0    0 -0.00000000000E+00 -0.00000000000E+00 -0.45593999997E+02  0.45594000000E+02  0.51100000000E-03 0. -1.
    9900012    2    1    2    0    0 -0.28081239018E+01 -0.28666926341E+02 -0.34632852049E+02  0.46142326881E+02  0.10000083165E+02 0.  0.
        -12    1    1    2    0    0  0.28081239018E+01  0.28666926341E+02  0.34632852049E+02  0.45045673119E+02  0.00000000000E+00 0.  1.
         11    1    3    3    0    0 -0.34727350107E+00 -0.68294230692E+01 -0.57579577959E+01  0.89395579635E+01  0.51100000000E-03 0. -1.
        -11    1    3    3    0    0 -0.20462321252E+01 -0.22348659939E+02 -0.26439076485E+02  0.34679596777E+02  0.51100000000E-03 0.  1.
        -12    1    3    3    0    0 -0.41461827551E+00  0.51115666759E+00 -0.24358177676E+01  0.25231721404E+01  0.00000000000E+00 0.  1.
</event>
<event>
 7    1  0.2130216E-008  0.4614232E+02  0.7816164E-02  0.1320468E+00
        -11   -1    0    0    0    0  0.00000000000E+00  0.00000000000E+00  0.45593999997E+02  0.45594000000E+02  0.51100000000E-03 0. -1.
         11   -1    0    0    0    0 -0.00000000000E+00 -0.00000000000E+00 -0.45593999997E+02  0.45594000000E+02  0.51100000000E-03 0.  1.
    9900012    2    1    2    0    0 -0.21075896671E+01 -0.21501971497E+01  0.44944946440E+02  0.46142317715E+02  0.99999995817E+01 0.  0.
        -12    1    1    2    0    0  0.21075896671E+01  0.21501971497E+01 -0.44944946440E+02  0.45045682285E+02  0.00000000000E+00 0.  1.
         11    1    3    3    0    0 -0.38299827583E+01 -0.40058583039E+00  0.35666477834E+02  0.35873763091E+02  0.51100000000E-03 0. -1.
        -11    1    3    3    0    0  0.18112952764E+00  0.31218451617E+00 -0.22319554969E+00  0.42436257191E+00  0.51100000000E-03 0.  1.
         12    1    3    3    0    0  0.15412635636E+01 -0.20617958355E+01  0.95016641558E+01  0.98441920527E+01  0.00000000000E+00 0. -1.
</event>
<event>
 7    1  0.1541705E-008  0.4614232E+02  0.7816164E-02  0.1320468E+00
        -11   -1    0    0    0    0  0.00000000000E+00  0.00000000000E+00  0.45593999997E+02  0.45594000000E+02  0.51100000000E-03 0.  1.
         11   -1    0    0    0    0 -0.00000000000E+00 -0.00000000000E+00 -0.45593999997E+02  0.45594000000E+02  0.51100000000E-03 0. -1.
    9900012    2    1    2    0    0 -0.70206667285E+01  0.12904509875E+02 -0.42582829246E+02  0.46142317821E+02  0.10000000543E+02 0.  0.
        -12    1    1    2    0    0  0.70206667285E+01 -0.12904509875E+02  0.42582829246E+02  0.45045682179E+02  0.00000000000E+00 0.  1.
         11    1    3    3    0    0 -0.13646754285E+01  0.95645505024E+01 -0.25848972250E+02  0.27595512896E+02  0.51100000000E-03 0. -1.
        -11    1    3    3    0    0 -0.21982060368E+01  0.12602449245E+01 -0.18812610569E+01  0.31558628733E+01  0.51100000000E-03 0.  1.
         12    1    3    3    0    0 -0.34577852632E+01  0.20797144479E+01 -0.14852595939E+02  0.15390942052E+02  0.00000000000E+00 0. -1.
</event>
<event>
 7    1  0.1541705E-008  0.4614232E+02  0.7816164E-02  0.1320468E+00
        -11   -1    0    0    0    0  0.00000000000E+00  0.00000000000E+00  0.45593999997E+02  0.45594000000E+02  0.51100000000E-03 0. -1.
         11   -1    0    0    0    0 -0.00000000000E+00 -0.00000000000E+00 -0.45593999997E+02  0.45594000000E+02  0.51100000000E-03 0.  1.
    9900012    2    1    2    0    0  0.44038218392E+02  0.92428749536E+01 -0.20779822102E+01  0.46142318446E+02  0.10000006247E+02 0.  0.
        -12    1    1    2    0    0 -0.44038218392E+02 -0.92428749536E+01  0.20779822102E+01  0.45045681554E+02  0.00000000000E+00 0.  1.
         11    1    3    3    0    0  0.10113084283E+02  0.36783060319E+01 -0.33156221997E+01  0.11260451137E+02  0.51100000000E-03 0. -1.
        -11    1    3    3    0    0 -0.19038150430E+00  0.21623281281E+00 -0.14389894656E+00  0.32203868472E+00  0.51100000000E-03 0.  1.
         12    1    3    3    0    0  0.34115515613E+02  0.53483361089E+01  0.13815389361E+01  0.34559828624E+02  0.00000000000E+00 0. -1.
</event>
<event>
 7    1  0.1541705E-008  0.4614232E+02  0.7816164E-02  0.1320468E+00
        -11   -1    0    0    0    0  0.00000000000E+00  0.00000000000E+00  0.45593999997E+02  0.45594000000E+02  0.51100000000E-03 0. -1.
         11   -1    0    0    0    0 -0.00000000000E+00 -0.00000000000E+00 -0.45593999997E+02  0.45594000000E+02  0.51100000000E-03 0.  1.
    9900012    2    1    2    0    0  0.27617878565E+02 -0.25980373835E+02  0.24318437641E+02  0.46142318183E+02  0.10000003844E+02 0.  0.
        -12    1    1    2    0    0 -0.27617878565E+02  0.25980373835E+02 -0.24318437641E+02  0.45045681817E+02  0.00000000000E+00 0.  1.
         11    1    3    3    0    0  0.18009920437E+01 -0.29889626228E+01  0.47315545386E+01  0.58792073033E+01  0.51100000000E-03 0. -1.
        -11    1    3    3    0    0  0.66301112160E+01 -0.10029638018E+02  0.66628533333E+01  0.13745749463E+02  0.51100000000E-03 0.  1.
         12    1    3    3    0    0  0.19186775306E+02 -0.12961773195E+02  0.12924029769E+02  0.26517361416E+02  0.00000000000E+00 0. -1.
</event>
<event>
 7    1  0.1541705E-008  0.4614232E+02  0.7816164E-02  0.1320468E+00
        -11   -1    0    0    0    0  0.00000000000E+00  0.00000000000E+00  0.45593999997E+02  0.45594000000E+02  0.51100000000E-03 0.  1.
         11   -1    0    0    0    0 -0.00000000000E+00 -0.00000000000E+00 -0.45593999997E+02  0.45594000000E+02  0.51100000000E-03 0. -1.
    9900012    2    1    2    0    0 -0.13996393950E+02 -0.25803781348E+02 -0.34166927755E+02  0.46142321765E+02  0.10000036507E+02 0.  0.
        -12    1    1    2    0    0  0.13996393950E+02  0.25803781348E+02  0.34166927755E+02  0.45045678235E+02  0.00000000000E+00 0.  1.
         11    1    3    3    0    0 -0.10512449416E+02 -0.23809094166E+02 -0.26100738513E+02  0.36859640651E+02  0.51100000000E-03 0. -1.
        -11    1    3    3    0    0 -0.29426640162E+00  0.46002192662E+00 -0.12974694246E+01  0.14077073762E+01  0.51100000000E-03 0.  1.
         12    1    3    3    0    0 -0.31896781323E+01 -0.24547091087E+01 -0.67687198180E+01  0.78749737378E+01  0.00000000000E+00 0. -1.
</event>
<event>
 7    1  0.1541705E-008  0.4614232E+02  0.7816164E-02  0.1320468E+00
        -11   -1    0    0    0    0  0.00000000000E+00  0.00000000000E+00  0.45593999997E+02  0.45594000000E+02  0.51100000000E-03 0.  1.
         11   -1    0    0    0    0 -0.00000000000E+00 -0.00000000000E+00 -0.45593999997E+02  0.45594000000E+02  0.51100000000E-03 0. -1.
    9900012    2    1    2    0    0 -0.30001994359E+01  0.38644486100E+02  0.22950292984E+02  0.46142318180E+02  0.10000003820E+02 0.  0.
        -12    1    1    2    0    0  0.30001994359E+01 -0.38644486100E+02 -0.22950292984E+02  0.45045681820E+02  0.00000000000E+00 0.  1.
         11    1    3    3    0    0  0.98903329504E+00  0.14898475361E+01  0.17243385516E+01  0.24841852268E+01  0.51100000000E-03 0.  1.
        -11    1    3    3    0    0 -0.26072413503E+01  0.36173343443E+02  0.21099955754E+02  0.41958510655E+02  0.51100000000E-03 0. -1.
         12    1    3    3    0    0 -0.13819913806E+01  0.98129512141E+00  0.12599867801E+00  0.16996222987E+01  0.00000000000E+00 0. -1.
</event>
<event>
 7    1  0.1541705E-008  0.4614232E+02  0.7816164E-02  0.1320468E+00
        -11   -1    0    0    0    0  0.00000000000E+00  0.00000000000E+00  0.45593999997E+02  0.45594000000E+02  0.51100000000E-03 0.  1.
         11   -1    0    0    0    0 -0.00000000000E+00 -0.00000000000E+00 -0.45593999997E+02  0.45594000000E+02  0.51100000000E-03 0. -1.
    9900012    2    1    2    0    0  0.30090431202E+02 -0.32547282347E+02  0.80220852255E+01  0.46142317749E+02  0.99999998913E+01 0.  0.
        -12    1    1    2    0    0 -0.30090431202E+02  0.32547282347E+02 -0.80220852255E+01  0.45045682251E+02  0.00000000000E+00 0.  1.
         11    1    3    3    0    0  0.28230648780E+01 -0.60076719185E+00  0.91240352333E+00  0.30270607815E+01  0.51100000000E-03 0. -1.
        -11    1    3    3    0    0  0.42022667790E+00 -0.13543058220E+01  0.14387850295E+01  0.20201082502E+01  0.51100000000E-03 0.  1.
         12    1    3    3    0    0  0.26847139646E+02 -0.30592209333E+02  0.56708966726E+01  0.41095148718E+02  0.00000000000E+00 0. -1.
</event>
<event>
 7    1  0.1541705E-008  0.4614232E+02  0.7816164E-02  0.1320468E+00
        -11   -1    0    0    0    0  0.00000000000E+00  0.00000000000E+00  0.45593999997E+02  0.45594000000E+02  0.51100000000E-03 0.  1.
         11   -1    0    0    0    0 -0.00000000000E+00 -0.00000000000E+00 -0.45593999997E+02  0.45594000000E+02  0.51100000000E-03 0. -1.
    9900012    2    1    2    0    0  0.27304426456E+02  0.31965207645E+02 -0.16180462194E+02  0.46142316958E+02  0.99999926785E+01 0.  0.
        -12    1    1    2    0    0 -0.27304426456E+02 -0.31965207645E+02  0.16180462194E+02  0.45045683042E+02  0.00000000000E+00 0.  1.
         11    1    3    3    0    0  0.15806462691E+02  0.18255055362E+02 -0.12532619346E+02  0.27205842333E+02  0.51100000000E-03 0. -1.
        -11    1    3    3    0    0  0.56982066465E+01  0.83143573762E+01  0.30333907454E+00  0.10084151547E+02  0.51100000000E-03 0.  1.
        -12    1    3    3    0    0  0.57997571185E+01  0.53957949066E+01 -0.39511819221E+01  0.88523230786E+01  0.00000000000E+00 0.  1.
</event>
<event>
 7    1  0.1541705E-008  0.4614232E+02  0.7816164E-02  0.1320468E+00
        -11   -1    0    0    0    0  0.00000000000E+00  0.00000000000E+00  0.45593999997E+02  0.45594000000E+02  0.51100000000E-03 0.  1.
         11   -1    0    0    0    0 -0.00000000000E+00 -0.00000000000E+00 -0.45593999997E+02  0.45594000000E+02  0.51100000000E-03 0. -1.
    9900012    2    1    2    0    0  0.31122249925E+02 -0.94603922300E+01 -0.31161193737E+02  0.46142318113E+02  0.10000003213E+02 0.  0.
        -12    1    1    2    0    0 -0.31122249925E+02  0.94603922300E+01  0.31161193737E+02  0.45045681887E+02  0.00000000000E+00 0.  1.
         11    1    3    3    0    0  0.28406020123E+02 -0.69686964622E+01 -0.29242141655E+02  0.41359008190E+02  0.51100000000E-03 0. -1.
        -11    1    3    3    0    0  0.54002685819E+00 -0.20077845851E+01 -0.13616041678E+01  0.24853156980E+01  0.51100000000E-03 0.  1.
         12    1    3    3    0    0  0.21762029436E+01 -0.48391118264E+00 -0.55744791375E+00  0.22979942256E+01  0.00000000000E+00 0. -1.
</event>
<event>
 7    1  0.1541705E-008  0.4614232E+02  0.7816164E-02  0.1320468E+00
        -11   -1    0    0    0    0  0.00000000000E+00  0.00000000000E+00  0.45593999997E+02  0.45594000000E+02  0.51100000000E-03 0.  1.
         11   -1    0    0    0    0 -0.00000000000E+00 -0.00000000000E+00 -0.45593999997E+02  0.45594000000E+02  0.51100000000E-03 0. -1.
    9900012    2    1    2    0    0 -0.23123225786E+02  0.37233791327E+02 -0.10395896910E+02  0.46142318077E+02  0.10000002884E+02 0.  0.
        -12    1    1    2    0    0  0.23123225786E+02 -0.37233791327E+02  0.10395896910E+02  0.45045681923E+02  0.00000000000E+00 0.  1.
         11    1    3    3    0    0 -0.14126600404E+02  0.21195054432E+02 -0.47835264198E+01  0.25916660599E+02  0.51100000000E-03 0. -1.
        -11    1    3    3    0    0 -0.68120435399E+01  0.57721384810E+01 -0.28352802277E+01  0.93680485729E+01  0.51100000000E-03 0.  1.
         12    1    3    3    0    0 -0.21845818424E+01  0.10266598414E+02 -0.27770902623E+01  0.10857608905E+02  0.00000000000E+00 0. -1.
</event>
<event>
 7    1  0.1541705E-008  0.4614232E+02  0.7816164E-02  0.1320468E+00
        -11   -1    0    0    0    0  0.00000000000E+00  0.00000000000E+00  0.45593999997E+02  0.45594000000E+02  0.51100000000E-03 0. -1.
         11   -1    0    0    0    0 -0.00000000000E+00 -0.00000000000E+00 -0.45593999997E+02  0.45594000000E+02  0.51100000000E-03 0.  1.
    9900012    2    1    2    0    0  0.85305516320E+01  0.43977506331E+02 -0.47246269832E+01  0.46142317916E+02  0.10000001417E+02 0.  0.
        -12    1    1    2    0    0 -0.85305516320E+01 -0.43977506331E+02  0.47246269832E+01  0.45045682084E+02  0.00000000000E+00 0.  1.
         11    1    3    3    0    0 -0.12479832345E+01  0.88492426350E+01 -0.23909723155E+00  0.89400069974E+01  0.51100000000E-03 0. -1.
        -11    1    3    3    0    0  0.85023440426E+01  0.33867511859E+02 -0.33490339471E+01  0.35078686440E+02  0.51100000000E-03 0.  1.
        -12    1    3    3    0    0  0.12761908240E+01  0.12607518374E+01 -0.11364958045E+01  0.21236244792E+01  0.00000000000E+00 0.  1.
</event>
<event>
 7    1  0.1541705E-008  0.4614232E+02  0.7816164E-02  0.1320468E+00
        -11   -1    0    0    0    0  0.00000000000E+00  0.00000000000E+00  0.45593999997E+02  0.45594000000E+02  0.51100000000E-03 0. -1.
         11   -1    0    0    0    0 -0.00000000000E+00 -0.00000000000E+00 -0.45593999997E+02  0.45594000000E+02  0.51100000000E-03 0.  1.
    9900012    2    1    2    0    0 -0.34152258427E+02 -0.26408855873E+02 -0.12857260544E+02  0.46142316823E+02  0.99999914488E+01 0.  0.
        -12    1    1    2    0    0  0.34152258427E+02  0.26408855873E+02  0.12857260544E+02  0.45045683177E+02  0.00000000000E+00 0.  1.
         11    1    3    3    0    0 -0.23445281964E+02 -0.22919440931E+02 -0.11328411057E+02  0.34688829849E+02  0.51100000000E-03 0. -1.
        -11    1    3    3    0    0 -0.94849073770E+01 -0.27163930096E+01 -0.10125269046E+01  0.99180376046E+01  0.51100000000E-03 0.  1.
        -12    1    3    3    0    0 -0.12220690855E+01 -0.77302193251E+00 -0.51632258191E+00  0.15354493695E+01  0.00000000000E+00 0.  1.
</event>
<event>
 7    1  0.1541705E-008  0.4614232E+02  0.7816164E-02  0.1320468E+00
        -11   -1    0    0    0    0  0.00000000000E+00  0.00000000000E+00  0.45593999997E+02  0.45594000000E+02  0.51100000000E-03 0. -1.
         11   -1    0    0    0    0 -0.00000000000E+00 -0.00000000000E+00 -0.45593999997E+02  0.45594000000E+02  0.51100000000E-03 0.  1.
    9900012    2    1    2    0    0 -0.25332351256E+02 -0.26105355729E+02  0.26568701292E+02  0.46142317563E+02  0.99999981959E+01 0.  0.
        -12    1    1    2    0    0  0.25332351256E+02  0.26105355729E+02 -0.26568701292E+02  0.45045682437E+02  0.00000000000E+00 0.  1.
         11    1    3    3    0    0 -0.14652600042E+02 -0.11468043775E+02  0.88211278074E+01  0.20591916182E+02  0.51100000000E-03 0. -1.
        -11    1    3    3    0    0 -0.41015428599E+01 -0.32636503311E+01  0.50869281881E+01  0.73041704503E+01  0.51100000000E-03 0.  1.
         12    1    3    3    0    0 -0.65782083540E+01 -0.11373661623E+02  0.12660645296E+02  0.18246230931E+02  0.00000000000E+00 0. -1.
</event>
<event>
 7    1  0.1541705E-008  0.4614232E+02  0.7816164E-02  0.1320468E+00
        -11   -1    0    0    0    0  0.00000000000E+00  0.00000000000E+00  0.45593999997E+02  0.45594000000E+02  0.51100000000E-03 0.  1.
         11   -1    0    0    0    0 -0.00000000000E+00 -0.00000000000E+00 -0.45593999997E+02  0.45594000000E+02  0.51100000000E-03 0. -1.
    9900012    2    1    2    0    0  0.33245442557E+02 -0.21944237978E+01 -0.30315648752E+02  0.46142317566E+02  0.99999982226E+01 0.  0.
        -12    1    1    2    0    0 -0.33245442557E+02  0.21944237978E+01  0.30315648752E+02  0.45045682434E+02  0.00000000000E+00 0.  1.
         11    1    3    3    0    0  0.46395221277E+01 -0.16768401074E+01 -0.12356992746E+01  0.50856574086E+01  0.51100000000E-03 0. -1.
        -11    1    3    3    0    0  0.79551283079E+01  0.19330998699E+01 -0.81032000683E+01  0.11518801722E+02  0.51100000000E-03 0.  1.
         12    1    3    3    0    0  0.20650792122E+02 -0.24506835603E+01 -0.20976749410E+02  0.29537858436E+02  0.00000000000E+00 0. -1.
</event>
<event>
 7    1  0.1541705E-008  0.4614232E+02  0.7816164E-02  0.1320468E+00
        -11   -1    0    0    0    0  0.00000000000E+00  0.00000000000E+00  0.45593999997E+02  0.45594000000E+02  0.51100000000E-03 0.  1.
         11   -1    0    0    0    0 -0.00000000000E+00 -0.00000000000E+00 -0.45593999997E+02  0.45594000000E+02  0.51100000000E-03 0. -1.
    9900012    2    1    2    0    0 -0.35951937338E+02  0.10798805503E+02 -0.24898944365E+02  0.46142318418E+02  0.10000005991E+02 0.  0.
        -12    1    1    2    0    0  0.35951937338E+02 -0.10798805503E+02  0.24898944365E+02  0.45045681582E+02  0.00000000000E+00 0.  1.
         11    1    3    3    0    0 -0.25294198457E+02  0.80084630090E+01 -0.15217784016E+02  0.30586155462E+02  0.51100000000E-03 0. -1.
        -11    1    3    3    0    0 -0.45868653959E+01 -0.11244206164E+01 -0.53386119848E+01  0.71277229230E+01  0.51100000000E-03 0.  1.
        -12    1    3    3    0    0 -0.60708734857E+01  0.39147631108E+01 -0.43425483646E+01  0.84284400331E+01  0.00000000000E+00 0.  1.
</event>
<event>
 7    1  0.1541705E-008  0.4614233E+02  0.7816164E-02  0.1320468E+00
        -11   -1    0    0    0    0  0.00000000000E+00  0.00000000000E+00  0.45593999997E+02  0.45594000000E+02  0.51100000000E-03 0. -1.
         11   -1    0    0    0    0 -0.00000000000E+00 -0.00000000000E+00 -0.45593999997E+02  0.45594000000E+02  0.51100000000E-03 0.  1.
    9900012    2    1    2    0    0 -0.21832349203E+02 -0.82593475683E+01  0.38525887622E+02  0.46142330829E+02  0.10000119165E+02 0.  0.
        -12    1    1    2    0    0  0.21832349203E+02  0.82593475683E+01 -0.38525887622E+02  0.45045669171E+02  0.00000000000E+00 0.  1.
         11    1    3    3    0    0 -0.10685849473E+02 -0.81586493233E+01  0.18534345654E+02  0.22897006504E+02  0.51100000000E-03 0. -1.
        -11    1    3    3    0    0 -0.36930240082E+01 -0.16184916187E+00  0.10777888714E+02  0.11394187416E+02  0.51100000000E-03 0.  1.
         12    1    3    3    0    0 -0.74534757215E+01  0.61150916821E-01  0.92136532536E+01  0.11851136909E+02  0.00000000000E+00 0. -1.
</event>
<event>
 7    1  0.1541705E-008  0.4614232E+02  0.7816164E-02  0.1320468E+00
        -11   -1    0    0    0    0  0.00000000000E+00  0.00000000000E+00  0.45593999997E+02  0.45594000000E+02  0.51100000000E-03 0. -1.
         11   -1    0    0    0    0 -0.00000000000E+00 -0.00000000000E+00 -0.45593999997E+02  0.45594000000E+02  0.51100000000E-03 0.  1.
    9900012    2    1    2    0    0 -0.41186285786E+02  0.10091197691E+02  0.15197734803E+02  0.46142317068E+02  0.99999936765E+01 0.  0.
        -12    1    1    2    0    0  0.41186285786E+02 -0.10091197691E+02 -0.15197734803E+02  0.45045682932E+02  0.00000000000E+00 0.  1.
         11    1    3    3    0    0 -0.90820006082E+01  0.22615563658E+01  0.52292039108E+01  0.10721098173E+02  0.51100000000E-03 0.  1.
        -11    1    3    3    0    0 -0.31409441731E+02  0.62447841711E+01  0.84533284652E+01  0.33121128024E+02  0.51100000000E-03 0. -1.
         12    1    3    3    0    0 -0.69484344693E+00  0.15848571541E+01  0.15152024273E+01  0.23000908700E+01  0.00000000000E+00 0. -1.
</event>
<event>
 7    1  0.1541705E-008  0.4614232E+02  0.7816164E-02  0.1320468E+00
        -11   -1    0    0    0    0  0.00000000000E+00  0.00000000000E+00  0.45593999997E+02  0.45594000000E+02  0.51100000000E-03 0.  1.
         11   -1    0    0    0    0 -0.00000000000E+00 -0.00000000000E+00 -0.45593999997E+02  0.45594000000E+02  0.51100000000E-03 0. -1.
    9900012    2    1    2    0    0  0.32830425575E+02  0.19194387097E+02 -0.24142332410E+02  0.46142317037E+02  0.99999933926E+01 0.  0.
        -12    1    1    2    0    0 -0.32830425575E+02 -0.19194387097E+02  0.24142332410E+02  0.45045682963E+02  0.00000000000E+00 0.  1.
         11    1    3    3    0    0  0.82540168491E+01  0.81270309536E+01 -0.51603581164E+01  0.12680959050E+02  0.51100000000E-03 0.  1.
        -11    1    3    3    0    0  0.14810697881E+02  0.46405165287E+01 -0.13406550570E+02  0.20509187303E+02  0.51100000000E-03 0. -1.
         12    1    3    3    0    0  0.97657108446E+01  0.64268396144E+01 -0.55754237240E+01  0.12952170684E+02  0.00000000000E+00 0. -1.
</event>
<event>
 7    1  0.1541705E-008  0.4614232E+02  0.7816164E-02  0.1320468E+00
        -11   -1    0    0    0    0  0.00000000000E+00  0.00000000000E+00  0.45593999997E+02  0.45594000000E+02  0.51100000000E-03 0.  1.
         11   -1    0    0    0    0 -0.00000000000E+00 -0.00000000000E+00 -0.45593999997E+02  0.45594000000E+02  0.51100000000E-03 0. -1.
    9900012    2    1    2    0    0  0.28230876533E+02  0.31378162126E+02 -0.15733470152E+02  0.46142317285E+02  0.99999956620E+01 0.  0.
        -12    1    1    2    0    0 -0.28230876533E+02 -0.31378162126E+02  0.15733470152E+02  0.45045682715E+02  0.00000000000E+00 0.  1.
         11    1    3    3    0    0  0.23011767238E+02  0.24697520119E+02 -0.12782453802E+02  0.36095706904E+02  0.51100000000E-03 0. -1.
        -11    1    3    3    0    0 -0.43723402267E+00  0.55452519927E+00  0.65407994965E+00  0.96254487109E+00  0.51100000000E-03 0.  1.
        -12    1    3    3    0    0  0.56563433181E+01  0.61261168074E+01 -0.36050962993E+01  0.90840655104E+01  0.00000000000E+00 0.  1.
</event>
<event>
 7    1  0.1541705E-008  0.4614232E+02  0.7816164E-02  0.1320468E+00
        -11   -1    0    0    0    0  0.00000000000E+00  0.00000000000E+00  0.45593999997E+02  0.45594000000E+02  0.51100000000E-03 0.  1.
         11   -1    0    0    0    0 -0.00000000000E+00 -0.00000000000E+00 -0.45593999997E+02  0.45594000000E+02  0.51100000000E-03 0. -1.
    9900012    2    1    2    0    0 -0.59824370738E+01 -0.29311661661E+02 -0.33677149680E+02  0.46142317929E+02  0.10000001529E+02 0.  0.
        -12    1    1    2    0    0  0.59824370738E+01  0.29311661661E+02  0.33677149680E+02  0.45045682071E+02  0.00000000000E+00 0.  1.
         11    1    3    3    0    0 -0.11297104026E+01 -0.54911369988E+01 -0.11764320968E+02  0.13031810283E+02  0.51100000000E-03 0. -1.
        -11    1    3    3    0    0 -0.51164315297E+01 -0.15231674350E+02 -0.16030233048E+02  0.22696919327E+02  0.51100000000E-03 0.  1.
         12    1    3    3    0    0  0.26370485853E+00 -0.85888503124E+01 -0.58825956642E+01  0.10413588320E+02  0.00000000000E+00 0. -1.
</event>
<event>
 7    1  0.1541705E-008  0.4614232E+02  0.7816164E-02  0.1320468E+00
        -11   -1    0    0    0    0  0.00000000000E+00  0.00000000000E+00  0.45593999997E+02  0.45594000000E+02  0.51100000000E-03 0. -1.
         11   -1    0    0    0    0 -0.00000000000E+00 -0.00000000000E+00 -0.45593999997E+02  0.45594000000E+02  0.51100000000E-03 0.  1.
    9900012    2    1    2    0    0  0.25339495345E+02  0.27298952252E+02  0.25333588245E+02  0.46142317502E+02  0.99999976334E+01 0.  0.
        -12    1    1    2    0    0 -0.25339495345E+02 -0.27298952252E+02 -0.25333588245E+02  0.45045682498E+02  0.00000000000E+00 0.  1.
         11    1    3    3    0    0  0.11519468762E+02  0.13253275696E+02  0.12020615328E+02  0.21280100337E+02  0.51100000000E-03 0. -1.
        -11    1    3    3    0    0  0.95782144810E+01  0.13670977768E+02  0.99216939037E+01  0.19418492113E+02  0.51100000000E-03 0.  1.
         12    1    3    3    0    0  0.42418121018E+01  0.37469878833E+00  0.33912790127E+01  0.54437250511E+01  0.00000000000E+00 0. -1.
</event>
<event>
 7    1  0.1541705E-008  0.4614232E+02  0.7816164E-02  0.1320468E+00
        -11   -1    0    0    0    0  0.00000000000E+00  0.00000000000E+00  0.45593999997E+02  0.45594000000E+02  0.51100000000E-03 0.  1.
         11   -1    0    0    0    0 -0.00000000000E+00 -0.00000000000E+00 -0.45593999997E+02  0.45594000000E+02  0.51100000000E-03 0. -1.
    9900012    2    1    2    0    0 -0.30047892819E+02 -0.13769360751E+02 -0.30604611360E+02  0.46142318799E+02  0.10000009466E+02 0.  0.
        -12    1    1    2    0    0  0.30047892819E+02  0.13769360751E+02  0.30604611360E+02  0.45045681201E+02  0.00000000000E+00 0.  1.
         11    1    3    3    0    0 -0.56369679287E+01 -0.53000481454E+01 -0.64206545860E+01  0.10054388263E+02  0.51100000000E-03 0. -1.
        -11    1    3    3    0    0 -0.31046635432E+01 -0.35607967346E+01 -0.60905186014E+01  0.77079586271E+01  0.51100000000E-03 0.  1.
        -12    1    3    3    0    0 -0.21306261347E+02 -0.49085158712E+01 -0.18093438173E+02  0.28379971909E+02  0.00000000000E+00 0.  1.
</event>
<event>
 7    1  0.1541705E-008  0.4614232E+02  0.7816164E-02  0.1320468E+00
        -11   -1    0    0    0    0  0.00000000000E+00  0.00000000000E+00  0.45593999997E+02  0.45594000000E+02  0.51100000000E-03 0.  1.
         11   -1    0    0    0    0 -0.00000000000E+00 -0.00000000000E+00 -0.45593999997E+02  0.45594000000E+02  0.51100000000E-03 0. -1.
    9900012    2    1    2    0    0 -0.40452335774E+01  0.17153762823E+02 -0.41454769816E+02  0.46142318362E+02  0.10000005483E+02 0.  0.
        -12    1    1    2    0    0  0.40452335774E+01 -0.17153762823E+02  0.41454769816E+02  0.45045681638E+02  0.00000000000E+00 0.  1.
         11    1    3    3    0    0 -0.58092838743E+01  0.10017058191E+02 -0.26939824681E+02  0.29323086263E+02  0.51100000000E-03 0. -1.
        -11    1    3    3    0    0  0.11470950496E+01  0.17024305475E+01 -0.10927934873E+01  0.23255740558E+01  0.51100000000E-03 0.  1.
        -12    1    3    3    0    0  0.61695524728E+00  0.54342740846E+01 -0.13422151648E+02  0.14493658043E+02  0.00000000000E+00 0.  1.
</event>
<event>
 7    1  0.1541705E-008  0.4614232E+02  0.7816164E-02  0.1320468E+00
        -11   -1    0    0    0    0  0.00000000000E+00  0.00000000000E+00  0.45593999997E+02  0.45594000000E+02  0.51100000000E-03 0. -1.
         11   -1    0    0    0    0 -0.00000000000E+00 -0.00000000000E+00 -0.45593999997E+02  0.45594000000E+02  0.51100000000E-03 0.  1.
    9900012    2    1    2    0    0  0.20962691319E+02 -0.39540762300E+02  0.51193010947E+01  0.46142317029E+02  0.99999933243E+01 0.  0.
        -12    1    1    2    0    0 -0.20962691319E+02  0.39540762300E+02 -0.51193010947E+01  0.45045682971E+02  0.00000000000E+00 0.  1.
         11    1    3    3    0    0  0.19924303173E+02 -0.34761626019E+02  0.28687714284E+01  0.40169370797E+02  0.51100000000E-03 0. -1.
        -11    1    3    3    0    0  0.85367940480E+00 -0.32653598499E+00  0.97751903899E+00  0.13382593203E+01  0.51100000000E-03 0.  1.
         12    1    3    3    0    0  0.18470874119E+00 -0.44526002961E+01  0.12730106273E+01  0.46346869121E+01  0.00000000000E+00 0. -1.
</event>
<event>
 7    1  0.1541705E-008  0.4614231E+02  0.7816164E-02  0.1320468E+00
        -11   -1    0    0    0    0  0.00000000000E+00  0.00000000000E+00  0.45593999997E+02  0.45594000000E+02  0.51100000000E-03 0.  1.
         11   -1    0    0    0    0 -0.00000000000E+00 -0.00000000000E+00 -0.45593999997E+02  0.45594000000E+02  0.51100000000E-03 0. -1.
    9900012    2    1    2    0    0  0.15154736089E+02  0.50728656658E+01 -0.42115485650E+02  0.46142310711E+02  0.99999357143E+01 0.  0.
        -12    1    1    2    0    0 -0.15154736089E+02 -0.50728656658E+01  0.42115485650E+02  0.45045689289E+02  0.00000000000E+00 0.  1.
         11    1    3    3    0    0  0.29522261337E+01 -0.16970821383E+01 -0.10571638304E+02  0.11106541479E+02  0.51100000000E-03 0. -1.
        -11    1    3    3    0    0  0.29245629555E+01  0.46101421281E+01 -0.85209567504E+01  0.10119939878E+02  0.51100000000E-03 0.  1.
        -12    1    3    3    0    0  0.92779469994E+01  0.21598056761E+01 -0.23022890596E+02  0.24915829355E+02  0.00000000000E+00 0.  1.
</event>
<event>
 7    1  0.1541705E-008  0.4614232E+02  0.7816164E-02  0.1320468E+00
        -11   -1    0    0    0    0  0.00000000000E+00  0.00000000000E+00  0.45593999997E+02  0.45594000000E+02  0.51100000000E-03 0. -1.
         11   -1    0    0    0    0 -0.00000000000E+00 -0.00000000000E+00 -0.45593999997E+02  0.45594000000E+02  0.51100000000E-03 0.  1.
    9900012    2    1    2    0    0  0.39587684873E+02  0.82640011685E+01  0.19840236595E+02  0.46142317665E+02  0.99999991223E+01 0.  0.
        -12    1    1    2    0    0 -0.39587684873E+02 -0.82640011685E+01 -0.19840236595E+02  0.45045682335E+02  0.00000000000E+00 0.  1.
         11    1    3    3    0    0  0.16840475007E+02  0.42952118453E+01  0.56028671861E+01  0.18260409750E+02  0.51100000000E-03 0. -1.
        -11    1    3    3    0    0  0.59889441242E+01 -0.17363276731E+01  0.43753095521E+01  0.76174549194E+01  0.51100000000E-03 0.  1.
         12    1    3    3    0    0  0.16758265742E+02  0.57051169963E+01  0.98620598567E+01  0.20264452996E+02  0.00000000000E+00 0. -1.
</event>
<event>
 7    1  0.1541705E-008  0.4614232E+02  0.7816164E-02  0.1320468E+00
        -11   -1    0    0    0    0  0.00000000000E+00  0.00000000000E+00  0.45593999997E+02  0.45594000000E+02  0.51100000000E-03 0.  1.
         11   -1    0    0    0    0 -0.00000000000E+00 -0.00000000000E+00 -0.45593999997E+02  0.45594000000E+02  0.51100000000E-03 0. -1.
    9900012    2    1    2    0    0 -0.16214033044E+02  0.19897155161E+02 -0.37017859151E+02  0.46142317109E+02  0.99999940499E+01 0.  0.
        -12    1    1    2    0    0  0.16214033044E+02 -0.19897155161E+02  0.37017859151E+02  0.45045682891E+02  0.00000000000E+00 0.  1.
         11    1    3    3    0    0 -0.68568305632E+01  0.57392414669E+01 -0.11702722977E+02  0.14727822084E+02  0.51100000000E-03 0. -1.
        -11    1    3    3    0    0  0.76357484973E+00  0.19684029811E+00 -0.36015569891E+01  0.36868693577E+01  0.51100000000E-03 0.  1.
        -12    1    3    3    0    0 -0.10120777330E+02  0.13961073396E+02 -0.21713579184E+02  0.27727625667E+02  0.00000000000E+00 0.  1.
</event>
<event>
 7    1  0.1541705E-008  0.4614232E+02  0.7816164E-02  0.1320468E+00
        -11   -1    0    0    0    0  0.00000000000E+00  0.00000000000E+00  0.45593999997E+02  0.45594000000E+02  0.51100000000E-03 0.  1.
         11   -1    0    0    0    0 -0.00000000000E+00 -0.00000000000E+00 -0.45593999997E+02  0.45594000000E+02  0.51100000000E-03 0. -1.
    9900012    2    1    2    0    0 -0.26593901826E+02  0.34954521530E+02 -0.10002959279E+02  0.46142318919E+02  0.10000010558E+02 0.  0.
        -12    1    1    2    0    0  0.26593901826E+02 -0.34954521530E+02  0.10002959279E+02  0.45045681081E+02  0.00000000000E+00 0.  1.
         11    1    3    3    0    0 -0.13078252874E+02  0.12898727192E+02 -0.78930908110E+01  0.19992967369E+02  0.51100000000E-03 0. -1.
        -11    1    3    3    0    0 -0.52183005191E+00  0.27044068143E+01 -0.16521833488E+00  0.27592426822E+01  0.51100000000E-03 0.  1.
         12    1    3    3    0    0 -0.12993818899E+02  0.19351387524E+02 -0.19446501332E+01  0.23390108867E+02  0.00000000000E+00 0. -1.
</event>
<event>
 7    1  0.1541705E-008  0.4614232E+02  0.7816164E-02  0.1320468E+00
        -11   -1    0    0    0    0  0.00000000000E+00  0.00000000000E+00  0.45593999997E+02  0.45594000000E+02  0.51100000000E-03 0.  1.
         11   -1    0    0    0    0 -0.00000000000E+00 -0.00000000000E+00 -0.45593999997E+02  0.45594000000E+02  0.51100000000E-03 0. -1.
    9900012    2    1    2    0    0 -0.65833545078E+01  0.30932483248E+02  0.32077319438E+02  0.46142317646E+02  0.99999989461E+01 0.  0.
        -12    1    1    2    0    0  0.65833545078E+01 -0.30932483248E+02 -0.32077319438E+02  0.45045682354E+02  0.00000000000E+00 0.  1.
         11    1    3    3    0    0 -0.23630131839E+01  0.22367434044E+01  0.62206737413E+00  0.33126757227E+01  0.51100000000E-03 0. -1.
        -11    1    3    3    0    0 -0.15503538190E+01  0.57807017317E+01  0.70035096201E+01  0.92124511795E+01  0.51100000000E-03 0.  1.
         12    1    3    3    0    0 -0.26699875049E+01  0.22915038111E+02  0.24451742444E+02  0.33617190743E+02  0.00000000000E+00 0. -1.
</event>
<event>
 7    1  0.1541705E-008  0.4614232E+02  0.7816164E-02  0.1320468E+00
        -11   -1    0    0    0    0  0.00000000000E+00  0.00000000000E+00  0.45593999997E+02  0.45594000000E+02  0.51100000000E-03 0. -1.
         11   -1    0    0    0    0 -0.00000000000E+00 -0.00000000000E+00 -0.45593999997E+02  0.45594000000E+02  0.51100000000E-03 0.  1.
    9900012    2    1    2    0    0  0.45006123089E+02 -0.18778854646E+01  0.18935944715E+00  0.46142318449E+02  0.10000006277E+02 0.  0.
        -12    1    1    2    0    0 -0.45006123089E+02  0.18778854646E+01 -0.18935944715E+00  0.45045681551E+02  0.00000000000E+00 0.  1.
         11    1    3    3    0    0  0.37495919640E+02 -0.21094747717E+01 -0.23218441690E+01  0.37626916351E+02  0.51100000000E-03 0. -1.
        -11    1    3    3    0    0  0.68268399393E+01  0.69169936738E+00  0.30727700482E+01  0.75183846405E+01  0.51100000000E-03 0.  1.
        -12    1    3    3    0    0  0.68336351014E+00 -0.46011006024E+00 -0.56156643203E+00  0.99701745828E+00  0.00000000000E+00 0.  1.
</event>
<event>
 7    1  0.1541705E-008  0.4614232E+02  0.7816164E-02  0.1320468E+00
        -11   -1    0    0    0    0  0.00000000000E+00  0.00000000000E+00  0.45593999997E+02  0.45594000000E+02  0.51100000000E-03 0. -1.
         11   -1    0    0    0    0 -0.00000000000E+00 -0.00000000000E+00 -0.45593999997E+02  0.45594000000E+02  0.51100000000E-03 0.  1.
    9900012    2    1    2    0    0 -0.23211133779E+02 -0.13285533579E+02  0.36247084676E+02  0.46142320060E+02  0.10000020959E+02 0.  0.
        -12    1    1    2    0    0  0.23211133779E+02  0.13285533579E+02 -0.36247084676E+02  0.45045679940E+02  0.00000000000E+00 0.  1.
         11    1    3    3    0    0 -0.15993374736E+02 -0.11134795091E+02  0.27210775613E+02  0.33469359225E+02  0.51100000000E-03 0. -1.
        -11    1    3    3    0    0 -0.55195665834E+01  0.59720285603E+00  0.66144617420E+01  0.86355874680E+01  0.51100000000E-03 0.  1.
        -12    1    3    3    0    0 -0.16981924596E+01 -0.27479413440E+01  0.24218473208E+01  0.40373733671E+01  0.00000000000E+00 0.  1.
</event>
<event>
 7    1  0.1541705E-008  0.4614232E+02  0.7816164E-02  0.1320468E+00
        -11   -1    0    0    0    0  0.00000000000E+00  0.00000000000E+00  0.45593999997E+02  0.45594000000E+02  0.51100000000E-03 0. -1.
         11   -1    0    0    0    0 -0.00000000000E+00 -0.00000000000E+00 -0.45593999997E+02  0.45594000000E+02  0.51100000000E-03 0.  1.
    9900012    2    1    2    0    0  0.21798583541E+02 -0.24560233339E+02  0.30833912563E+02  0.46142317965E+02  0.10000001856E+02 0.  0.
        -12    1    1    2    0    0 -0.21798583541E+02  0.24560233339E+02 -0.30833912563E+02  0.45045682035E+02  0.00000000000E+00 0.  1.
         11    1    3    3    0    0  0.13059119759E+02 -0.13908077958E+02  0.22053964736E+02  0.29160805925E+02  0.51100000000E-03 0. -1.
        -11    1    3    3    0    0  0.72395952024E+01 -0.73202256747E+01  0.41917800462E+01  0.11116135247E+02  0.51100000000E-03 0.  1.
        -12    1    3    3    0    0  0.14998685793E+01 -0.33319297068E+01  0.45881677814E+01  0.58653767923E+01  0.00000000000E+00 0.  1.
</event>
<event>
 7    1  0.1541705E-008  0.4614232E+02  0.7816164E-02  0.1320468E+00
        -11   -1    0    0    0    0  0.00000000000E+00  0.00000000000E+00  0.45593999997E+02  0.45594000000E+02  0.51100000000E-03 0.  1.
         11   -1    0    0    0    0 -0.00000000000E+00 -0.00000000000E+00 -0.45593999997E+02  0.45594000000E+02  0.51100000000E-03 0. -1.
    9900012    2    1    2    0    0 -0.31459841137E+02 -0.58525548394E+01 -0.31703933192E+02  0.46142318938E+02  0.10000010732E+02 0.  0.
        -12    1    1    2    0    0  0.31459841137E+02  0.58525548394E+01  0.31703933192E+02  0.45045681062E+02  0.00000000000E+00 0.  1.
         11    1    3    3    0    0 -0.17166406709E+02 -0.78393824279E+01 -0.17023390163E+02  0.25415295573E+02  0.51100000000E-03 0. -1.
        -11    1    3    3    0    0 -0.12917258309E+02  0.14348562901E+01 -0.12135654208E+02  0.17781689406E+02  0.51100000000E-03 0.  1.
        -12    1    3    3    0    0 -0.13761761191E+01  0.55197129842E+00 -0.25448888205E+01  0.29453339597E+01  0.00000000000E+00 0.  1.
</event>
<event>
 7    1  0.1541705E-008  0.4614232E+02  0.7816164E-02  0.1320468E+00
        -11   -1    0    0    0    0  0.00000000000E+00  0.00000000000E+00  0.45593999997E+02  0.45594000000E+02  0.51100000000E-03 0. -1.
         11   -1    0    0    0    0 -0.00000000000E+00 -0.00000000000E+00 -0.45593999997E+02  0.45594000000E+02  0.51100000000E-03 0.  1.
    9900012    2    1    2    0    0  0.28341019227E+02 -0.32994470615E+02 -0.11716015728E+02  0.46142317782E+02  0.10000000188E+02 0.  0.
        -12    1    1    2    0    0 -0.28341019227E+02  0.32994470615E+02  0.11716015728E+02  0.45045682218E+02  0.00000000000E+00 0.  1.
         11    1    3    3    0    0  0.15288138415E+02 -0.22258241716E+02 -0.69702079522E+01  0.27887995619E+02  0.51100000000E-03 0. -1.
        -11    1    3    3    0    0  0.58673410536E+01 -0.18541539246E+01 -0.10189184029E+01  0.62371285692E+01  0.51100000000E-03 0.  1.
        -12    1    3    3    0    0  0.71855397576E+01 -0.88820749741E+01 -0.37268893731E+01  0.12017193593E+02  0.00000000000E+00 0.  1.
</event>
<event>
 7    1  0.1541705E-008  0.4614232E+02  0.7816164E-02  0.1320468E+00
        -11   -1    0    0    0    0  0.00000000000E+00  0.00000000000E+00  0.45593999997E+02  0.45594000000E+02  0.51100000000E-03 0.  1.
         11   -1    0    0    0    0 -0.00000000000E+00 -0.00000000000E+00 -0.45593999997E+02  0.45594000000E+02  0.51100000000E-03 0. -1.
    9900012    2    1    2    0    0 -0.21669665065E+02  0.32468059320E+02 -0.22480310814E+02  0.46142316141E+02  0.99999852276E+01 0.  0.
        -12    1    1    2    0    0  0.21669665065E+02 -0.32468059320E+02  0.22480310814E+02  0.45045683859E+02  0.00000000000E+00 0.  1.
         11    1    3    3    0    0 -0.77533157769E+01  0.12978902410E+02 -0.66655625884E+01  0.16522576621E+02  0.51100000000E-03 0. -1.
        -11    1    3    3    0    0 -0.18709685178E+01 -0.22952371226E+00 -0.71086819499E+00  0.20145813909E+01  0.51100000000E-03 0.  1.
        -12    1    3    3    0    0 -0.12045380770E+02  0.19718680622E+02 -0.15103880031E+02  0.27605158130E+02  0.00000000000E+00 0.  1.
</event>
<event>
 7    1  0.1541705E-008  0.4614232E+02  0.7816164E-02  0.1320468E+00
        -11   -1    0    0    0    0  0.00000000000E+00  0.00000000000E+00  0.45593999997E+02  0.45594000000E+02  0.51100000000E-03 0. -1.
         11   -1    0    0    0    0 -0.00000000000E+00 -0.00000000000E+00 -0.45593999997E+02  0.45594000000E+02  0.51100000000E-03 0.  1.
    9900012    2    1    2    0    0 -0.33165489010E+02  0.91775049986E+01  0.29067805162E+02  0.46142317008E+02  0.99999931329E+01 0.  0.
        -12    1    1    2    0    0  0.33165489010E+02 -0.91775049986E+01 -0.29067805162E+02  0.45045682992E+02  0.00000000000E+00 0.  1.
         11    1    3    3    0    0 -0.17161055405E+02  0.26477203298E+01  0.13652340249E+02  0.22088427742E+02  0.51100000000E-03 0. -1.
        -11    1    3    3    0    0 -0.11539104254E+02  0.75849569870E+01  0.10650169407E+02  0.17438710048E+02  0.51100000000E-03 0.  1.
        -12    1    3    3    0    0 -0.44653293509E+01 -0.10551723182E+01  0.47652955049E+01  0.66151792177E+01  0.00000000000E+00 0.  1.
</event>
<event>
 7    1  0.1541705E-008  0.4614232E+02  0.7816164E-02  0.1320468E+00
        -11   -1    0    0    0    0  0.00000000000E+00  0.00000000000E+00  0.45593999997E+02  0.45594000000E+02  0.51100000000E-03 0.  1.
         11   -1    0    0    0    0 -0.00000000000E+00 -0.00000000000E+00 -0.45593999997E+02  0.45594000000E+02  0.51100000000E-03 0. -1.
    9900012    2    1    2    0    0 -0.37195606459E+02  0.25352452949E+02 -0.16892231985E+01  0.46142317794E+02  0.10000000302E+02 0.  0.
        -12    1    1    2    0    0  0.37195606459E+02 -0.25352452949E+02  0.16892231985E+01  0.45045682206E+02  0.00000000000E+00 0.  1.
         11    1    3    3    0    0 -0.18624867854E+02  0.10401849912E+02 -0.51855462697E+01  0.21953907956E+02  0.51100000000E-03 0. -1.
        -11    1    3    3    0    0 -0.31752358276E+01  0.34321132753E+01  0.19618866628E+00  0.46797451159E+01  0.51100000000E-03 0.  1.
         12    1    3    3    0    0 -0.15395502777E+02  0.11518489762E+02  0.33001344048E+01  0.19508664722E+02  0.00000000000E+00 0. -1.
</event>
<event>
 7    1  0.1541705E-008  0.4614232E+02  0.7816164E-02  0.1320468E+00
        -11   -1    0    0    0    0  0.00000000000E+00  0.00000000000E+00  0.45593999997E+02  0.45594000000E+02  0.51100000000E-03 0. -1.
         11   -1    0    0    0    0 -0.00000000000E+00 -0.00000000000E+00 -0.45593999997E+02  0.45594000000E+02  0.51100000000E-03 0.  1.
    9900012    2    1    2    0    0 -0.45020790874E+02  0.13031388623E+01 -0.73732429021E+00  0.46142318421E+02  0.10000006020E+02 0.  0.
        -12    1    1    2    0    0  0.45020790874E+02 -0.13031388623E+01  0.73732429021E+00  0.45045681579E+02  0.00000000000E+00 0.  1.
         11    1    3    3    0    0 -0.28267979371E+02  0.47127309425E+01 -0.13311279083E+01  0.28689029130E+02  0.51100000000E-03 0. -1.
        -11    1    3    3    0    0 -0.14676803504E+02 -0.41281635455E+01  0.51185287011E+00  0.15254910324E+02  0.51100000000E-03 0.  1.
        -12    1    3    3    0    0 -0.20760079981E+01  0.71857146538E+00  0.81950747952E-01  0.21983789674E+01  0.00000000000E+00 0.  1.
</event>
<event>
 7    1  0.1541705E-008  0.4614232E+02  0.7816164E-02  0.1320468E+00
        -11   -1    0    0    0    0  0.00000000000E+00  0.00000000000E+00  0.45593999997E+02  0.45594000000E+02  0.51100000000E-03 0.  1.
         11   -1    0    0    0    0 -0.00000000000E+00 -0.00000000000E+00 -0.45593999997E+02  0.45594000000E+02  0.51100000000E-03 0. -1.
    9900012    2    1    2    0    0  0.15951743453E+01  0.37021378179E+02 -0.25612231835E+02  0.46142318265E+02  0.10000004591E+02 0.  0.
        -12    1    1    2    0    0 -0.15951743453E+01 -0.37021378179E+02  0.25612231835E+02  0.45045681735E+02  0.00000000000E+00 0.  1.
         11    1    3    3    0    0 -0.16111606503E+01  0.25163641837E+02 -0.14089135763E+02  0.28884398141E+02  0.51100000000E-03 0. -1.
        -11    1    3    3    0    0  0.23931779894E+01  0.40862211359E+01 -0.62067254781E+01  0.78069165156E+01  0.51100000000E-03 0.  1.
         12    1    3    3    0    0  0.81315700617E+00  0.77715152056E+01 -0.53163705941E+01  0.94510036082E+01  0.00000000000E+00 0. -1.
</event>
<event>
 7    1  0.1541705E-008  0.4614232E+02  0.7816164E-02  0.1320468E+00
        -11   -1    0    0    0    0  0.00000000000E+00  0.00000000000E+00  0.45593999997E+02  0.45594000000E+02  0.51100000000E-03 0.  1.
         11   -1    0    0    0    0 -0.00000000000E+00 -0.00000000000E+00 -0.45593999997E+02  0.45594000000E+02  0.51100000000E-03 0. -1.
    9900012    2    1    2    0    0 -0.42498439668E+02 -0.14583784645E+02 -0.32108149529E+01  0.46142317838E+02  0.10000000701E+02 0.  0.
        -12    1    1    2    0    0  0.42498439668E+02  0.14583784645E+02  0.32108149529E+01  0.45045682162E+02  0.00000000000E+00 0.  1.
         11    1    3    3    0    0 -0.39042024153E+02 -0.13713983939E+02 -0.23789018314E+01  0.41448910476E+02  0.51100000000E-03 0. -1.
        -11    1    3    3    0    0 -0.21210631033E+00 -0.12987198563E+01 -0.48530764895E+00  0.14025641259E+01  0.51100000000E-03 0.  1.
        -12    1    3    3    0    0 -0.32443092042E+01  0.42891915035E+00 -0.34660547254E+00  0.32908432360E+01  0.00000000000E+00 0.  1.
</event>
<event>
 7    1  0.1541705E-008  0.4614232E+02  0.7816164E-02  0.1320468E+00
        -11   -1    0    0    0    0  0.00000000000E+00  0.00000000000E+00  0.45593999997E+02  0.45594000000E+02  0.51100000000E-03 0.  1.
         11   -1    0    0    0    0 -0.00000000000E+00 -0.00000000000E+00 -0.45593999997E+02  0.45594000000E+02  0.51100000000E-03 0. -1.
    9900012    2    1    2    0    0  0.38029735989E+02  0.23619402905E+02 -0.49976521357E+01  0.46142317190E+02  0.99999947930E+01 0.  0.
        -12    1    1    2    0    0 -0.38029735989E+02 -0.23619402905E+02  0.49976521357E+01  0.45045682810E+02  0.00000000000E+00 0.  1.
         11    1    3    3    0    0  0.36124156224E+02  0.20408447876E+02 -0.35515420694E+01  0.41642200458E+02  0.51100000000E-03 0. -1.
        -11    1    3    3    0    0  0.21046411310E+01  0.29186787146E+01 -0.68793792092E+00  0.36635308888E+01  0.51100000000E-03 0.  1.
         12    1    3    3    0    0 -0.19906136676E+00  0.29227631397E+00 -0.75817214534E+00  0.83658584342E+00  0.00000000000E+00 0. -1.
</event>
<event>
 7    1  0.1541705E-008  0.4614231E+02  0.7816164E-02  0.1320468E+00
        -11   -1    0    0    0    0  0.00000000000E+00  0.00000000000E+00  0.45593999997E+02  0.45594000000E+02  0.51100000000E-03 0.  1.
         11   -1    0    0    0    0 -0.00000000000E+00 -0.00000000000E+00 -0.45593999997E+02  0.45594000000E+02  0.51100000000E-03 0. -1.
    9900012    2    1    2    0    0  0.44206534959E+02 -0.63432672330E+01 -0.58871884148E+01  0.46142314750E+02  0.99999725397E+01 0.  0.
        -12    1    1    2    0    0 -0.44206534959E+02  0.63432672330E+01  0.58871884148E+01  0.45045685250E+02  0.00000000000E+00 0.  1.
         11    1    3    3    0    0  0.23599283587E+02 -0.26311289566E+01 -0.44688731307E+01  0.24162364386E+02  0.51100000000E-03 0. -1.
        -11    1    3    3    0    0  0.10199199212E+02  0.11263749824E+01  0.79044053954E+00  0.10291607341E+02  0.51100000000E-03 0.  1.
         12    1    3    3    0    0  0.10408052160E+02 -0.48385132588E+01 -0.22087558237E+01  0.11688343023E+02  0.00000000000E+00 0. -1.
</event>
<event>
 7    1  0.1541705E-008  0.4614232E+02  0.7816164E-02  0.1320468E+00
        -11   -1    0    0    0    0  0.00000000000E+00  0.00000000000E+00  0.45593999997E+02  0.45594000000E+02  0.51100000000E-03 0. -1.
         11   -1    0    0    0    0 -0.00000000000E+00 -0.00000000000E+00 -0.45593999997E+02  0.45594000000E+02  0.51100000000E-03 0.  1.
    9900012    2    1    2    0    0  0.28096231121E+01 -0.36967051365E+02  0.25586259363E+02  0.46142317223E+02  0.99999950926E+01 0.  0.
        -12    1    1    2    0    0 -0.28096231121E+01  0.36967051365E+02 -0.25586259363E+02  0.45045682777E+02  0.00000000000E+00 0.  1.
         11    1    3    3    0    0  0.12305962550E+01 -0.76542094342E+01  0.26253016805E+01  0.81849556126E+01  0.51100000000E-03 0. -1.
        -11    1    3    3    0    0 -0.82008155680E+00 -0.16659406123E+02  0.89597247371E+01  0.18933700477E+02  0.51100000000E-03 0.  1.
        -12    1    3    3    0    0  0.23991084140E+01 -0.12653435808E+02  0.14001232945E+02  0.19023661133E+02  0.00000000000E+00 0.  1.
</event>
<event>
 7    1  0.1541705E-008  0.4614232E+02  0.7816164E-02  0.1320468E+00
        -11   -1    0    0    0    0  0.00000000000E+00  0.00000000000E+00  0.45593999997E+02  0.45594000000E+02  0.51100000000E-03 0.  1.
         11   -1    0    0    0    0 -0.00000000000E+00 -0.00000000000E+00 -0.45593999997E+02  0.45594000000E+02  0.51100000000E-03 0. -1.
    9900012    2    1    2    0    0 -0.21067785556E+02  0.23434700736E+02 -0.32188146469E+02  0.46142316967E+02  0.99999927593E+01 0.  0.
        -12    1    1    2    0    0  0.21067785556E+02 -0.23434700736E+02  0.32188146469E+02  0.45045683033E+02  0.00000000000E+00 0.  1.
         11    1    3    3    0    0 -0.13718410438E+02  0.15868356758E+02 -0.18995804441E+02  0.28299118675E+02  0.51100000000E-03 0. -1.
        -11    1    3    3    0    0 -0.10630783357E+01 -0.61961457084E+00 -0.34001763549E+01  0.36159725206E+01  0.51100000000E-03 0.  1.
        -12    1    3    3    0    0 -0.62862967817E+01  0.81859585489E+01 -0.97921656729E+01  0.14227225772E+02  0.00000000000E+00 0.  1.
</event>
<event>
 7    1  0.1541705E-008  0.4614230E+02  0.7816164E-02  0.1320468E+00
        -11   -1    0    0    0    0  0.00000000000E+00  0.00000000000E+00  0.45593999997E+02  0.45594000000E+02  0.51100000000E-03 0.  1.
         11   -1    0    0    0    0 -0.00000000000E+00 -0.00000000000E+00 -0.45593999997E+02  0.45594000000E+02  0.51100000000E-03 0. -1.
    9900012    2    1    2    0    0  0.28747067869E+00 -0.45042547958E+02  0.44824968014E+00  0.46142304382E+02  0.99998779945E+01 0.  0.
        -12    1    1    2    0    0 -0.28747067869E+00  0.45042547958E+02 -0.44824968014E+00  0.45045695618E+02  0.00000000000E+00 0.  1.
         11    1    3    3    0    0 -0.15579252940E+01 -0.24619051810E+02 -0.20143421356E+01  0.24750402375E+02  0.51100000000E-03 0. -1.
        -11    1    3    3    0    0  0.33940924870E+01 -0.12890008312E+02  0.43640408997E-01  0.13329444206E+02  0.51100000000E-03 0.  1.
        -12    1    3    3    0    0 -0.15486965143E+01 -0.75334878365E+01  0.24189514067E+01  0.80624578004E+01  0.00000000000E+00 0.  1.
</event>
<event>
 7    1  0.1541705E-008  0.4614232E+02  0.7816164E-02  0.1320468E+00
        -11   -1    0    0    0    0  0.00000000000E+00  0.00000000000E+00  0.45593999997E+02  0.45594000000E+02  0.51100000000E-03 0. -1.
         11   -1    0    0    0    0 -0.00000000000E+00 -0.00000000000E+00 -0.45593999997E+02  0.45594000000E+02  0.51100000000E-03 0.  1.
    9900012    2    1    2    0    0  0.33737639195E+02  0.30973816739E+01  0.29686552849E+02  0.46142317724E+02  0.99999996588E+01 0.  0.
        -12    1    1    2    0    0 -0.33737639195E+02 -0.30973816739E+01 -0.29686552849E+02  0.45045682276E+02  0.00000000000E+00 0.  1.
         11    1    3    3    0    0  0.26774540752E+02  0.57035588521E+01  0.22191848125E+02  0.35240385065E+02  0.51100000000E-03 0. -1.
        -11    1    3    3    0    0  0.69868396750E+01 -0.19959368419E+01  0.65847979451E+01  0.98060826409E+01  0.51100000000E-03 0.  1.
        -12    1    3    3    0    0 -0.23741232697E-01 -0.61024033633E+00  0.90990677927E+00  0.10958500177E+01  0.00000000000E+00 0.  1.
</event>
<event>
 7    1  0.1541705E-008  0.4614230E+02  0.7816164E-02  0.1320468E+00
        -11   -1    0    0    0    0  0.00000000000E+00  0.00000000000E+00  0.45593999997E+02  0.45594000000E+02  0.51100000000E-03 0.  1.
         11   -1    0    0    0    0 -0.00000000000E+00 -0.00000000000E+00 -0.45593999997E+02  0.45594000000E+02  0.51100000000E-03 0. -1.
    9900012    2    1    2    0    0  0.22891437410E+01  0.28641689289E+00 -0.44986581446E+02  0.46142304047E+02  0.99998749433E+01 0.  0.
        -12    1    1    2    0    0 -0.22891437410E+01 -0.28641689289E+00  0.44986581446E+02  0.45045695953E+02  0.00000000000E+00 0.  1.
         11    1    3    3    0    0  0.22846778425E+00 -0.11208177276E+01 -0.16222595485E+02  0.16262872884E+02  0.51100000000E-03 0. -1.
        -11    1    3    3    0    0 -0.69245999144E+00  0.15323093792E+01 -0.95412874110E+00  0.19333480775E+01  0.51100000000E-03 0.  1.
        -12    1    3    3    0    0  0.27531359482E+01 -0.12507475868E+00 -0.27809857220E+02  0.27946083085E+02  0.00000000000E+00 0.  1.
</event>
<event>
 7    1  0.1541705E-008  0.4614232E+02  0.7816164E-02  0.1320468E+00
        -11   -1    0    0    0    0  0.00000000000E+00  0.00000000000E+00  0.45593999997E+02  0.45594000000E+02  0.51100000000E-03 0.  1.
         11   -1    0    0    0    0 -0.00000000000E+00 -0.00000000000E+00 -0.45593999997E+02  0.45594000000E+02  0.51100000000E-03 0. -1.
    9900012    2    1    2    0    0  0.57751497774E+01 -0.58183894622E+01 -0.44293424234E+02  0.46142318284E+02  0.10000004766E+02 0.  0.
        -12    1    1    2    0    0 -0.57751497774E+01  0.58183894622E+01  0.44293424234E+02  0.45045681716E+02  0.00000000000E+00 0.  1.
         11    1    3    3    0    0 -0.12867716362E+01  0.19400449315E+00 -0.14576174519E+01  0.19539876879E+01  0.51100000000E-03 0. -1.
        -11    1    3    3    0    0 -0.51970130576E+00 -0.32355537147E+00 -0.46100322175E+00  0.76635615558E+00  0.51100000000E-03 0.  1.
         12    1    3    3    0    0  0.75816227194E+01 -0.56888385839E+01 -0.42374803561E+02  0.43421974440E+02  0.00000000000E+00 0. -1.
</event>
<event>
 7    1  0.1541705E-008  0.4614232E+02  0.7816164E-02  0.1320468E+00
        -11   -1    0    0    0    0  0.00000000000E+00  0.00000000000E+00  0.45593999997E+02  0.45594000000E+02  0.51100000000E-03 0.  1.
         11   -1    0    0    0    0 -0.00000000000E+00 -0.00000000000E+00 -0.45593999997E+02  0.45594000000E+02  0.51100000000E-03 0. -1.
    9900012    2    1    2    0    0 -0.39942165466E+02  0.14806849848E+02 -0.14645612660E+02  0.46142319245E+02  0.10000013530E+02 0.  0.
        -12    1    1    2    0    0  0.39942165466E+02 -0.14806849848E+02  0.14645612660E+02  0.45045680755E+02  0.00000000000E+00 0.  1.
         11    1    3    3    0    0 -0.15699106944E+02  0.44961560082E+01 -0.40449518404E+01  0.16823763353E+02  0.51100000000E-03 0. -1.
        -11    1    3    3    0    0 -0.10081254513E+02  0.19059845384E+01 -0.11310726662E+01  0.10322005389E+02  0.51100000000E-03 0.  1.
        -12    1    3    3    0    0 -0.14161804008E+02  0.84047093015E+01 -0.94695881534E+01  0.18996550503E+02  0.00000000000E+00 0.  1.
</event>
<event>
 7    1  0.1541705E-008  0.4614232E+02  0.7816164E-02  0.1320468E+00
        -11   -1    0    0    0    0  0.00000000000E+00  0.00000000000E+00  0.45593999997E+02  0.45594000000E+02  0.51100000000E-03 0.  1.
         11   -1    0    0    0    0 -0.00000000000E+00 -0.00000000000E+00 -0.45593999997E+02  0.45594000000E+02  0.51100000000E-03 0. -1.
    9900012    2    1    2    0    0 -0.21535126307E+01  0.97993528362E+01 -0.43914103816E+02  0.46142318225E+02  0.10000004227E+02 0.  0.
        -12    1    1    2    0    0  0.21535126307E+01 -0.97993528362E+01  0.43914103816E+02  0.45045681775E+02  0.00000000000E+00 0.  1.
         11    1    3    3    0    0  0.58263111605E+00  0.77126596799E+01 -0.31605440705E+02  0.32538107825E+02  0.51100000000E-03 0. -1.
        -11    1    3    3    0    0 -0.29818458346E+01  0.73484497335E-01 -0.10399653585E+02  0.10818946322E+02  0.51100000000E-03 0.  1.
        -12    1    3    3    0    0  0.24570208788E+00  0.20132086590E+01 -0.19090095251E+01  0.27852640785E+01  0.00000000000E+00 0.  1.
</event>
<event>
 7    1  0.1541705E-008  0.4614232E+02  0.7816164E-02  0.1320468E+00
        -11   -1    0    0    0    0  0.00000000000E+00  0.00000000000E+00  0.45593999997E+02  0.45594000000E+02  0.51100000000E-03 0.  1.
         11   -1    0    0    0    0 -0.00000000000E+00 -0.00000000000E+00 -0.45593999997E+02  0.45594000000E+02  0.51100000000E-03 0. -1.
    9900012    2    1    2    0    0 -0.69516629084E+01  0.37612139237E+02 -0.23793168929E+02  0.46142317379E+02  0.99999965119E+01 0.  0.
        -12    1    1    2    0    0  0.69516629084E+01 -0.37612139237E+02  0.23793168929E+02  0.45045682621E+02  0.00000000000E+00 0.  1.
         11    1    3    3    0    0 -0.21719928582E+00  0.24685652820E+02 -0.14286333488E+02  0.28522411460E+02  0.51100000000E-03 0. -1.
        -11    1    3    3    0    0 -0.33031359882E+01  0.36773553791E+01 -0.36801806510E+01  0.61625789914E+01  0.51100000000E-03 0.  1.
         12    1    3    3    0    0 -0.34313276345E+01  0.92491310375E+01 -0.58266547900E+01  0.11457326928E+02  0.00000000000E+00 0. -1.
</event>
<event>
 7    1  0.1541705E-008  0.4614232E+02  0.7816164E-02  0.1320468E+00
        -11   -1    0    0    0    0  0.00000000000E+00  0.00000000000E+00  0.45593999997E+02  0.45594000000E+02  0.51100000000E-03 0. -1.
         11   -1    0    0    0    0 -0.00000000000E+00 -0.00000000000E+00 -0.45593999997E+02  0.45594000000E+02  0.51100000000E-03 0.  1.
    9900012    2    1    2    0    0  0.25827991041E+02 -0.19389827408E+02 -0.31401640429E+02  0.46142317080E+02  0.99999937895E+01 0.  0.
        -12    1    1    2    0    0 -0.25827991041E+02  0.19389827408E+02  0.31401640429E+02  0.45045682920E+02  0.00000000000E+00 0.  1.
         11    1    3    3    0    0  0.15627943358E+02 -0.55974439624E+01 -0.14593223722E+02  0.22102628156E+02  0.51100000000E-03 0. -1.
        -11    1    3    3    0    0  0.69834251224E+01 -0.99371118389E+01 -0.11353207201E+02  0.16625574641E+02  0.51100000000E-03 0.  1.
        -12    1    3    3    0    0  0.32166225598E+01 -0.38552716063E+01 -0.54552095054E+01  0.74141142828E+01  0.00000000000E+00 0.  1.
</event>
<event>
 7    1  0.1541705E-008  0.4614232E+02  0.7816164E-02  0.1320468E+00
        -11   -1    0    0    0    0  0.00000000000E+00  0.00000000000E+00  0.45593999997E+02  0.45594000000E+02  0.51100000000E-03 0.  1.
         11   -1    0    0    0    0 -0.00000000000E+00 -0.00000000000E+00 -0.45593999997E+02  0.45594000000E+02  0.51100000000E-03 0. -1.
    9900012    2    1    2    0    0 -0.15461725636E+02 -0.53552778137E+01 -0.41968672449E+02  0.46142318440E+02  0.10000006190E+02 0.  0.
        -12    1    1    2    0    0  0.15461725636E+02  0.53552778137E+01  0.41968672449E+02  0.45045681560E+02  0.00000000000E+00 0.  1.
         11    1    3    3    0    0 -0.52418132710E+01  0.69270869656E+00 -0.10220744834E+02  0.11507392273E+02  0.51100000000E-03 0. -1.
        -11    1    3    3    0    0 -0.21442954719E+01 -0.89753015557E-02 -0.11818628490E+01  0.24484451560E+01  0.51100000000E-03 0.  1.
        -12    1    3    3    0    0 -0.80756168926E+01 -0.60390112087E+01 -0.30566064766E+02  0.32186481011E+02  0.00000000000E+00 0.  1.
</event>
<event>
 7    1  0.1541705E-008  0.4614232E+02  0.7816164E-02  0.1320468E+00
        -11   -1    0    0    0    0  0.00000000000E+00  0.00000000000E+00  0.45593999997E+02  0.45594000000E+02  0.51100000000E-03 0. -1.
         11   -1    0    0    0    0 -0.00000000000E+00 -0.00000000000E+00 -0.45593999997E+02  0.45594000000E+02  0.51100000000E-03 0.  1.
    9900012    2    1    2    0    0  0.13732006977E+01 -0.42374044258E+02  0.15220655952E+02  0.46142315695E+02  0.99999811552E+01 0.  0.
        -12    1    1    2    0    0 -0.13732006977E+01  0.42374044258E+02 -0.15220655952E+02  0.45045684305E+02  0.00000000000E+00 0.  1.
         11    1    3    3    0    0 -0.12709166508E+01 -0.16043234625E+02  0.66548408870E+01  0.17415151847E+02  0.51100000000E-03 0. -1.
        -11    1    3    3    0    0  0.35069507095E+01 -0.23166603988E+02  0.51463134071E+01  0.23989055538E+02  0.51100000000E-03 0.  1.
        -12    1    3    3    0    0 -0.86283336097E+00 -0.31642056449E+01  0.34195016575E+01  0.47381083100E+01  0.00000000000E+00 0.  1.
</event>
<event>
 7    1  0.1541705E-008  0.4614232E+02  0.7816164E-02  0.1320468E+00
        -11   -1    0    0    0    0  0.00000000000E+00  0.00000000000E+00  0.45593999997E+02  0.45594000000E+02  0.51100000000E-03 0.  1.
         11   -1    0    0    0    0 -0.00000000000E+00 -0.00000000000E+00 -0.45593999997E+02  0.45594000000E+02  0.51100000000E-03 0. -1.
    9900012    2    1    2    0    0  0.16567759852E+02  0.25197082337E+02 -0.33462364880E+02  0.46142317763E+02  0.10000000018E+02 0.  0.
        -12    1    1    2    0    0 -0.16567759852E+02 -0.25197082337E+02  0.33462364880E+02  0.45045682237E+02  0.00000000000E+00 0.  1.
         11    1    3    3    0    0  0.14836644305E+02  0.24063708776E+02 -0.27020732958E+02  0.39106369100E+02  0.51100000000E-03 0. -1.
        -11    1    3    3    0    0  0.12108326861E+01  0.11901641318E+01 -0.62533525721E+01  0.64797395863E+01  0.51100000000E-03 0.  1.
         12    1    3    3    0    0  0.52028286050E+00 -0.56790570810E-01 -0.18827935022E+00  0.55620907722E+00  0.00000000000E+00 0. -1.
</event>
<event>
 7    1  0.1541705E-008  0.4614232E+02  0.7816164E-02  0.1320468E+00
        -11   -1    0    0    0    0  0.00000000000E+00  0.00000000000E+00  0.45593999997E+02  0.45594000000E+02  0.51100000000E-03 0.  1.
         11   -1    0    0    0    0 -0.00000000000E+00 -0.00000000000E+00 -0.45593999997E+02  0.45594000000E+02  0.51100000000E-03 0. -1.
    9900012    2    1    2    0    0 -0.12294415172E+02 -0.71935696589E+00 -0.43329475593E+02  0.46142316810E+02  0.99999913295E+01 0.  0.
        -12    1    1    2    0    0  0.12294415172E+02  0.71935696589E+00  0.43329475593E+02  0.45045683190E+02  0.00000000000E+00 0.  1.
         11    1    3    3    0    0 -0.38142578715E+01 -0.42900330116E+01 -0.18612315170E+02  0.19477454213E+02  0.51100000000E-03 0. -1.
        -11    1    3    3    0    0 -0.37815234765E+00  0.16282679096E+01 -0.40182526759E+01  0.43520811587E+01  0.51100000000E-03 0.  1.
         12    1    3    3    0    0 -0.81020049532E+01  0.19424081361E+01 -0.20698907747E+02  0.22312781439E+02  0.00000000000E+00 0. -1.
</event>
<event>
 7    1  0.1541705E-008  0.4614232E+02  0.7816164E-02  0.1320468E+00
        -11   -1    0    0    0    0  0.00000000000E+00  0.00000000000E+00  0.45593999997E+02  0.45594000000E+02  0.51100000000E-03 0. -1.
         11   -1    0    0    0    0 -0.00000000000E+00 -0.00000000000E+00 -0.45593999997E+02  0.45594000000E+02  0.51100000000E-03 0.  1.
    9900012    2    1    2    0    0  0.29012102447E+02 -0.24259403781E+02  0.24472281000E+02  0.46142319880E+02  0.10000019319E+02 0.  0.
        -12    1    1    2    0    0 -0.29012102447E+02  0.24259403781E+02 -0.24472281000E+02  0.45045680120E+02  0.00000000000E+00 0.  1.
         11    1    3    3    0    0  0.83504588761E+01 -0.11565949574E+02  0.84849592117E+01  0.16598068745E+02  0.51100000000E-03 0. -1.
        -11    1    3    3    0    0  0.14938306726E+01 -0.29255449655E+00  0.27804304421E+01  0.31698441470E+01  0.51100000000E-03 0.  1.
         12    1    3    3    0    0  0.19167812898E+02 -0.12400899711E+02  0.13206891346E+02  0.26374406988E+02  0.00000000000E+00 0. -1.
</event>
<event>
 7    1  0.1541705E-008  0.4614232E+02  0.7816164E-02  0.1320468E+00
        -11   -1    0    0    0    0  0.00000000000E+00  0.00000000000E+00  0.45593999997E+02  0.45594000000E+02  0.51100000000E-03 0. -1.
         11   -1    0    0    0    0 -0.00000000000E+00 -0.00000000000E+00 -0.45593999997E+02  0.45594000000E+02  0.51100000000E-03 0.  1.
    9900012    2    1    2    0    0  0.18493049639E+02  0.39812625753E+02  0.10103238687E+02  0.46142317784E+02  0.10000000212E+02 0.  0.
        -12    1    1    2    0    0 -0.18493049639E+02 -0.39812625753E+02 -0.10103238687E+02  0.45045682216E+02  0.00000000000E+00 0.  1.
         11    1    3    3    0    0  0.45151011019E+00  0.13558897248E+01  0.21269324802E+01  0.25624481189E+01  0.51100000000E-03 0. -1.
        -11    1    3    3    0    0  0.74802713346E+01  0.11641849897E+02  0.69911766931E+00  0.13855536585E+02  0.51100000000E-03 0.  1.
         12    1    3    3    0    0  0.10561268194E+02  0.26814886131E+02  0.72771885370E+01  0.29724333081E+02  0.00000000000E+00 0. -1.
</event>
<event>
 7    1  0.1541705E-008  0.4614232E+02  0.7816164E-02  0.1320468E+00
        -11   -1    0    0    0    0  0.00000000000E+00  0.00000000000E+00  0.45593999997E+02  0.45594000000E+02  0.51100000000E-03 0.  1.
         11   -1    0    0    0    0 -0.00000000000E+00 -0.00000000000E+00 -0.45593999997E+02  0.45594000000E+02  0.51100000000E-03 0. -1.
    9900012    2    1    2    0    0  0.41044950019E+02  0.18556488657E+02 -0.28693873007E+00  0.46142317330E+02  0.99999960720E+01 0.  0.
        -12    1    1    2    0    0 -0.41044950019E+02 -0.18556488657E+02  0.28693873007E+00  0.45045682670E+02  0.00000000000E+00 0.  1.
         11    1    3    3    0    0  0.22310986528E+02  0.95640630568E+01 -0.47082016408E+01  0.24726879806E+02  0.51100000000E-03 0. -1.
        -11    1    3    3    0    0  0.11802456932E+02  0.70644614233E+01  0.26972586595E+01  0.14017125575E+02  0.51100000000E-03 0.  1.
        -12    1    3    3    0    0  0.69315065589E+01  0.19279641770E+01  0.17240042512E+01  0.73983119494E+01  0.00000000000E+00 0.  1.
</event>
<event>
 7    1  0.1541705E-008  0.4614232E+02  0.7816164E-02  0.1320468E+00
        -11   -1    0    0    0    0  0.00000000000E+00  0.00000000000E+00  0.45593999997E+02  0.45594000000E+02  0.51100000000E-03 0.  1.
         11   -1    0    0    0    0 -0.00000000000E+00 -0.00000000000E+00 -0.45593999997E+02  0.45594000000E+02  0.51100000000E-03 0. -1.
    9900012    2    1    2    0    0  0.25458645542E+01  0.28655625042E+02 -0.34662476202E+02  0.46142317307E+02  0.99999958582E+01 0.  0.
        -12    1    1    2    0    0 -0.25458645542E+01 -0.28655625042E+02  0.34662476202E+02  0.45045682693E+02  0.00000000000E+00 0.  1.
         11    1    3    3    0    0  0.16958020108E+01  0.19898448344E+02 -0.30068450829E+02  0.36096200998E+02  0.51100000000E-03 0. -1.
        -11    1    3    3    0    0  0.12233806430E+01  0.45878503389E+01 -0.24379205452E+01  0.53374607986E+01  0.51100000000E-03 0.  1.
         12    1    3    3    0    0 -0.37331809949E+00  0.41693263588E+01 -0.21561048272E+01  0.47086555104E+01  0.00000000000E+00 0. -1.
</event>
<event>
 7    1  0.1541705E-008  0.4614232E+02  0.7816164E-02  0.1320468E+00
        -11   -1    0    0    0    0  0.00000000000E+00  0.00000000000E+00  0.45593999997E+02  0.45594000000E+02  0.51100000000E-03 0. -1.
         11   -1    0    0    0    0 -0.00000000000E+00 -0.00000000000E+00 -0.45593999997E+02  0.45594000000E+02  0.51100000000E-03 0.  1.
    9900012    2    1    2    0    0  0.16204917148E+02  0.25119711481E+02  0.33697391496E+02  0.46142318316E+02  0.10000005063E+02 0.  0.
        -12    1    1    2    0    0 -0.16204917148E+02 -0.25119711481E+02 -0.33697391496E+02  0.45045681684E+02  0.00000000000E+00 0.  1.
         11    1    3    3    0    0  0.80216114683E+01  0.15847053450E+02  0.14088977605E+02  0.22671008884E+02  0.51100000000E-03 0. -1.
        -11    1    3    3    0    0  0.67632023736E+01  0.58379672512E+01  0.15791915642E+02  0.18144072528E+02  0.51100000000E-03 0.  1.
        -12    1    3    3    0    0  0.14201033065E+01  0.34346907799E+01  0.38164982494E+01  0.53272369051E+01  0.00000000000E+00 0.  1.
</event>
<event>
 7    1  0.1541705E-008  0.4614232E+02  0.7816164E-02  0.1320468E+00
        -11   -1    0    0    0    0  0.00000000000E+00  0.00000000000E+00  0.45593999997E+02  0.45594000000E+02  0.51100000000E-03 0.  1.
         11   -1    0    0    0    0 -0.00000000000E+00 -0.00000000000E+00 -0.45593999997E+02  0.45594000000E+02  0.51100000000E-03 0. -1.
    9900012    2    1    2    0    0  0.21256982069E+02  0.38842247418E+02 -0.82785237770E+01  0.46142318441E+02  0.10000006198E+02 0.  0.
        -12    1    1    2    0    0 -0.21256982069E+02 -0.38842247418E+02  0.82785237770E+01  0.45045681559E+02  0.00000000000E+00 0.  1.
         11    1    3    3    0    0  0.32502426513E+01  0.11071429945E+02 -0.12093246571E+01  0.11601857813E+02  0.51100000000E-03 0. -1.
        -11    1    3    3    0    0  0.13378917796E+02  0.24511244193E+02 -0.43533488003E+01  0.28262133312E+02  0.51100000000E-03 0.  1.
        -12    1    3    3    0    0  0.46278216217E+01  0.32595732801E+01 -0.27158503196E+01  0.62783273162E+01  0.00000000000E+00 0.  1.
</event>
<event>
 7    1  0.1541705E-008  0.4614232E+02  0.7816164E-02  0.1320468E+00
        -11   -1    0    0    0    0  0.00000000000E+00  0.00000000000E+00  0.45593999997E+02  0.45594000000E+02  0.51100000000E-03 0.  1.
         11   -1    0    0    0    0 -0.00000000000E+00 -0.00000000000E+00 -0.45593999997E+02  0.45594000000E+02  0.51100000000E-03 0. -1.
    9900012    2    1    2    0    0 -0.20073271890E+02 -0.38923286917E+02 -0.10543009333E+02  0.46142317026E+02  0.99999932995E+01 0.  0.
        -12    1    1    2    0    0  0.20073271890E+02  0.38923286917E+02  0.10543009333E+02  0.45045682974E+02  0.00000000000E+00 0.  1.
         11    1    3    3    0    0 -0.20609426634E+01 -0.30275798316E+01 -0.29085910105E+01  0.46769248685E+01  0.51100000000E-03 0. -1.
        -11    1    3    3    0    0 -0.13690768306E+02 -0.32478966322E+02 -0.66952970747E+01  0.35876836446E+02  0.51100000000E-03 0.  1.
        -12    1    3    3    0    0 -0.43215609202E+01 -0.34167407630E+01 -0.93912124780E+00  0.55885557121E+01  0.00000000000E+00 0.  1.
</event>
<event>
 7    1  0.1541705E-008  0.4614232E+02  0.7816164E-02  0.1320468E+00
        -11   -1    0    0    0    0  0.00000000000E+00  0.00000000000E+00  0.45593999997E+02  0.45594000000E+02  0.51100000000E-03 0.  1.
         11   -1    0    0    0    0 -0.00000000000E+00 -0.00000000000E+00 -0.45593999997E+02  0.45594000000E+02  0.51100000000E-03 0. -1.
    9900012    2    1    2    0    0  0.16944705326E+02 -0.19089756802E+02 -0.37115652666E+02  0.46142317341E+02  0.99999961704E+01 0.  0.
        -12    1    1    2    0    0 -0.16944705326E+02  0.19089756802E+02  0.37115652666E+02  0.45045682659E+02  0.00000000000E+00 0.  1.
         11    1    3    3    0    0  0.15264144315E+02 -0.14896197102E+02 -0.31670431001E+02  0.38182548237E+02  0.51100000000E-03 0. -1.
        -11    1    3    3    0    0  0.16363845161E+01 -0.47025819899E+01 -0.55306045543E+01  0.74417483600E+01  0.51100000000E-03 0.  1.
        -12    1    3    3    0    0  0.44176494819E-01  0.50902228960E+00  0.85382889248E-01  0.51802074455E+00  0.00000000000E+00 0.  1.
</event>
<event>
 7    1  0.1541705E-008  0.4614232E+02  0.7816164E-02  0.1320468E+00
        -11   -1    0    0    0    0  0.00000000000E+00  0.00000000000E+00  0.45593999997E+02  0.45594000000E+02  0.51100000000E-03 0. -1.
         11   -1    0    0    0    0 -0.00000000000E+00 -0.00000000000E+00 -0.45593999997E+02  0.45594000000E+02  0.51100000000E-03 0.  1.
    9900012    2    1    2    0    0 -0.37443371601E+02  0.21459850732E+02  0.12906661334E+02  0.46142321216E+02  0.10000031507E+02 0.  0.
        -12    1    1    2    0    0  0.37443371601E+02 -0.21459850732E+02 -0.12906661334E+02  0.45045678784E+02  0.00000000000E+00 0.  1.
         11    1    3    3    0    0 -0.17452319058E+02  0.63485429146E+01  0.71354470266E+01  0.19894774243E+02  0.51100000000E-03 0. -1.
        -11    1    3    3    0    0 -0.22210213712E+00  0.97538592065E+00  0.11231623002E+01  0.15040614573E+01  0.51100000000E-03 0.  1.
         12    1    3    3    0    0 -0.19768950406E+02  0.14135921897E+02  0.46480520069E+01  0.24743485516E+02  0.00000000000E+00 0. -1.
</event>
<event>
 7    1  0.1541705E-008  0.4614232E+02  0.7816164E-02  0.1320468E+00
        -11   -1    0    0    0    0  0.00000000000E+00  0.00000000000E+00  0.45593999997E+02  0.45594000000E+02  0.51100000000E-03 0.  1.
         11   -1    0    0    0    0 -0.00000000000E+00 -0.00000000000E+00 -0.45593999997E+02  0.45594000000E+02  0.51100000000E-03 0. -1.
    9900012    2    1    2    0    0 -0.28116754804E+02  0.35187901577E+02 -0.61062891973E+00  0.46142321120E+02  0.10000030626E+02 0.  0.
        -12    1    1    2    0    0  0.28116754804E+02 -0.35187901577E+02  0.61062891973E+00  0.45045678880E+02  0.00000000000E+00 0.  1.
         11    1    3    3    0    0 -0.28984352170E+01  0.29730981726E+01  0.24769902672E+01  0.48348444128E+01  0.51100000000E-03 0.  1.
        -11    1    3    3    0    0 -0.13056204487E+02  0.20442783968E+02 -0.13865087339E+01  0.24295972891E+02  0.51100000000E-03 0. -1.
         12    1    3    3    0    0 -0.12162115100E+02  0.11772019437E+02 -0.17011104530E+01  0.17011503816E+02  0.00000000000E+00 0. -1.
</event>
<event>
 7    1  0.1541705E-008  0.4614232E+02  0.7816164E-02  0.1320468E+00
        -11   -1    0    0    0    0  0.00000000000E+00  0.00000000000E+00  0.45593999997E+02  0.45594000000E+02  0.51100000000E-03 0.  1.
         11   -1    0    0    0    0 -0.00000000000E+00 -0.00000000000E+00 -0.45593999997E+02  0.45594000000E+02  0.51100000000E-03 0. -1.
    9900012    2    1    2    0    0 -0.50430100127E+01 -0.18868323015E+02 -0.40591475009E+02  0.46142318667E+02  0.10000008258E+02 0.  0.
        -12    1    1    2    0    0  0.50430100127E+01  0.18868323015E+02  0.40591475009E+02  0.45045681333E+02  0.00000000000E+00 0.  1.
         11    1    3    3    0    0 -0.61173432029E+01 -0.10850334152E+02 -0.27395621914E+02  0.30094380528E+02  0.51100000000E-03 0. -1.
        -11    1    3    3    0    0 -0.12259027580E+01 -0.54481554472E+01 -0.69761644150E+01  0.89360005346E+01  0.51100000000E-03 0.  1.
         12    1    3    3    0    0  0.23002359482E+01 -0.25698334151E+01 -0.62196886802E+01  0.71119376036E+01  0.00000000000E+00 0. -1.
</event>
<event>
 7    1  0.1541705E-008  0.4614232E+02  0.7816164E-02  0.1320468E+00
        -11   -1    0    0    0    0  0.00000000000E+00  0.00000000000E+00  0.45593999997E+02  0.45594000000E+02  0.51100000000E-03 0.  1.
         11   -1    0    0    0    0 -0.00000000000E+00 -0.00000000000E+00 -0.45593999997E+02  0.45594000000E+02  0.51100000000E-03 0. -1.
    9900012    2    1    2    0    0  0.25066620677E+02 -0.23387497570E+02 -0.29219906623E+02  0.46142318100E+02  0.10000003090E+02 0.  0.
        -12    1    1    2    0    0 -0.25066620677E+02  0.23387497570E+02  0.29219906623E+02  0.45045681900E+02  0.00000000000E+00 0.  1.
         11    1    3    3    0    0  0.67927446192E+01 -0.14573354138E+01 -0.45384988839E+01  0.82983840807E+01  0.51100000000E-03 0.  1.
        -11    1    3    3    0    0  0.15574726068E+02 -0.19013694031E+02 -0.22441401831E+02  0.33282265085E+02  0.51100000000E-03 0. -1.
        -12    1    3    3    0    0  0.26991499901E+01 -0.29164681260E+01 -0.22400059082E+01  0.45616689345E+01  0.00000000000E+00 0.  1.
</event>
<event>
 7    1  0.1541705E-008  0.4614232E+02  0.7816164E-02  0.1320468E+00
        -11   -1    0    0    0    0  0.00000000000E+00  0.00000000000E+00  0.45593999997E+02  0.45594000000E+02  0.51100000000E-03 0.  1.
         11   -1    0    0    0    0 -0.00000000000E+00 -0.00000000000E+00 -0.45593999997E+02  0.45594000000E+02  0.51100000000E-03 0. -1.
    9900012    2    1    2    0    0  0.10862324543E+02 -0.18028445071E+02 -0.39825852631E+02  0.46142318032E+02  0.10000002467E+02 0.  0.
        -12    1    1    2    0    0 -0.10862324543E+02  0.18028445071E+02  0.39825852631E+02  0.45045681968E+02  0.00000000000E+00 0.  1.
         11    1    3    3    0    0 -0.68494553816E-02 -0.44305359052E+01 -0.42934381516E+01  0.61695467212E+01  0.51100000000E-03 0. -1.
        -11    1    3    3    0    0  0.49227093957E+00 -0.21340033691E+01 -0.90064321081E+01  0.92688791467E+01  0.51100000000E-03 0.  1.
         12    1    3    3    0    0  0.10376903059E+02 -0.11463905797E+02 -0.26525982372E+02  0.30703892164E+02  0.00000000000E+00 0. -1.
</event>
<event>
 7    1  0.1541705E-008  0.4614232E+02  0.7816164E-02  0.1320468E+00
        -11   -1    0    0    0    0  0.00000000000E+00  0.00000000000E+00  0.45593999997E+02  0.45594000000E+02  0.51100000000E-03 0.  1.
         11   -1    0    0    0    0 -0.00000000000E+00 -0.00000000000E+00 -0.45593999997E+02  0.45594000000E+02  0.51100000000E-03 0. -1.
    9900012    2    1    2    0    0 -0.26166710398E+02 -0.21729369832E+01 -0.36601845530E+02  0.46142317805E+02  0.10000000400E+02 0.  0.
        -12    1    1    2    0    0  0.26166710398E+02  0.21729369832E+01  0.36601845530E+02  0.45045682195E+02  0.00000000000E+00 0.  1.
         11    1    3    3    0    0 -0.10589250271E+02  0.40017442128E+00 -0.20608350962E+02  0.23173184730E+02  0.51100000000E-03 0. -1.
        -11    1    3    3    0    0 -0.60841516306E+01 -0.31913980761E+01 -0.54620988213E+01  0.87770408760E+01  0.51100000000E-03 0.  1.
        -12    1    3    3    0    0 -0.94933084965E+01  0.61828667157E+00 -0.10531395746E+02  0.14192092199E+02  0.00000000000E+00 0.  1.
</event>
<event>
 7    1  0.1541705E-008  0.4614232E+02  0.7816164E-02  0.1320468E+00
        -11   -1    0    0    0    0  0.00000000000E+00  0.00000000000E+00  0.45593999997E+02  0.45594000000E+02  0.51100000000E-03 0.  1.
         11   -1    0    0    0    0 -0.00000000000E+00 -0.00000000000E+00 -0.45593999997E+02  0.45594000000E+02  0.51100000000E-03 0. -1.
    9900012    2    1    2    0    0 -0.26655850231E+02  0.66945697287E+01 -0.35689800611E+02  0.46142317820E+02  0.10000000541E+02 0.  0.
        -12    1    1    2    0    0  0.26655850231E+02 -0.66945697287E+01  0.35689800611E+02  0.45045682180E+02  0.00000000000E+00 0.  1.
         11    1    3    3    0    0 -0.32376009074E+01  0.42659823072E+01 -0.56894761412E+01  0.78135013728E+01  0.51100000000E-03 0. -1.
        -11    1    3    3    0    0 -0.15683844287E+02  0.12721643046E+01 -0.17058140210E+02  0.23207359206E+02  0.51100000000E-03 0.  1.
         12    1    3    3    0    0 -0.77344050359E+01  0.11564231169E+01 -0.12942184260E+02  0.15121457242E+02  0.00000000000E+00 0. -1.
</event>
<event>
 7    1  0.1541705E-008  0.4614232E+02  0.7816164E-02  0.1320468E+00
        -11   -1    0    0    0    0  0.00000000000E+00  0.00000000000E+00  0.45593999997E+02  0.45594000000E+02  0.51100000000E-03 0.  1.
         11   -1    0    0    0    0 -0.00000000000E+00 -0.00000000000E+00 -0.45593999997E+02  0.45594000000E+02  0.51100000000E-03 0. -1.
    9900012    2    1    2    0    0 -0.89978393409E+01 -0.43478360140E+02  0.76016185955E+01  0.46142317427E+02  0.99999969494E+01 0.  0.
        -12    1    1    2    0    0  0.89978393409E+01  0.43478360140E+02 -0.76016185955E+01  0.45045682573E+02  0.00000000000E+00 0.  1.
         11    1    3    3    0    0 -0.49042972241E+01 -0.27972435770E+02  0.14790633195E+01  0.28437596993E+02  0.51100000000E-03 0. -1.
        -11    1    3    3    0    0 -0.43593344933E+01 -0.80741910307E+01  0.33610677654E+01  0.97720588828E+01  0.51100000000E-03 0.  1.
        -12    1    3    3    0    0  0.26579237643E+00 -0.74317333388E+01  0.27614875106E+01  0.79326615507E+01  0.00000000000E+00 0.  1.
</event>
<event>
 7    1  0.1541705E-008  0.4614231E+02  0.7816164E-02  0.1320468E+00
        -11   -1    0    0    0    0  0.00000000000E+00  0.00000000000E+00  0.45593999997E+02  0.45594000000E+02  0.51100000000E-03 0. -1.
         11   -1    0    0    0    0 -0.00000000000E+00 -0.00000000000E+00 -0.45593999997E+02  0.45594000000E+02  0.51100000000E-03 0.  1.
    9900012    2    1    2    0    0  0.26513498426E+02  0.33659039955E+02  0.13900259040E+02  0.46142314626E+02  0.99999714107E+01 0.  0.
        -12    1    1    2    0    0 -0.26513498426E+02 -0.33659039955E+02 -0.13900259040E+02  0.45045685374E+02  0.00000000000E+00 0.  1.
         11    1    3    3    0    0  0.65235181640E+01  0.14397958441E+02  0.79618325504E+01  0.17698821269E+02  0.51100000000E-03 0.  1.
        -11    1    3    3    0    0  0.73178798938E+01  0.79168289475E+01  0.16864839611E+01  0.10912001427E+02  0.51100000000E-03 0. -1.
         12    1    3    3    0    0  0.12672100368E+02  0.11344252566E+02  0.42519425288E+01  0.17531491930E+02  0.00000000000E+00 0. -1.
</event>
<event>
 7    1  0.1541705E-008  0.4614232E+02  0.7816164E-02  0.1320468E+00
        -11   -1    0    0    0    0  0.00000000000E+00  0.00000000000E+00  0.45593999997E+02  0.45594000000E+02  0.51100000000E-03 0.  1.
         11   -1    0    0    0    0 -0.00000000000E+00 -0.00000000000E+00 -0.45593999997E+02  0.45594000000E+02  0.51100000000E-03 0. -1.
    9900012    2    1    2    0    0 -0.31141117339E+01  0.43495303367E+02 -0.11294893900E+02  0.46142315023E+02  0.99999750276E+01 0.  0.
        -12    1    1    2    0    0  0.31141117339E+01 -0.43495303367E+02  0.11294893900E+02  0.45045684977E+02  0.00000000000E+00 0.  1.
         11    1    3    3    0    0 -0.10170137069E+01  0.51037564120E+01 -0.23769990294E+01  0.57212560719E+01  0.51100000000E-03 0. -1.
        -11    1    3    3    0    0 -0.28518107645E+01  0.30792550318E+02 -0.36390358695E+01  0.31137703223E+02  0.51100000000E-03 0.  1.
        -12    1    3    3    0    0  0.75471273744E+00  0.75989966373E+01 -0.52788590007E+01  0.92833557272E+01  0.00000000000E+00 0.  1.
</event>
<event>
 7    1  0.1541705E-008  0.4614232E+02  0.7816164E-02  0.1320468E+00
        -11   -1    0    0    0    0  0.00000000000E+00  0.00000000000E+00  0.45593999997E+02  0.45594000000E+02  0.51100000000E-03 0.  1.
         11   -1    0    0    0    0 -0.00000000000E+00 -0.00000000000E+00 -0.45593999997E+02  0.45594000000E+02  0.51100000000E-03 0. -1.
    9900012    2    1    2    0    0  0.62332837352E+01 -0.37809353134E+02 -0.23679367482E+02  0.46142318133E+02  0.10000003393E+02 0.  0.
        -12    1    1    2    0    0 -0.62332837352E+01  0.37809353134E+02  0.23679367482E+02  0.45045681867E+02  0.00000000000E+00 0.  1.
         11    1    3    3    0    0  0.54209268655E+01 -0.14730537787E+02 -0.12281104039E+02  0.19929894838E+02  0.51100000000E-03 0. -1.
        -11    1    3    3    0    0  0.77312885551E+00 -0.41060853496E+01 -0.20358033286E+00  0.41831937964E+01  0.51100000000E-03 0.  1.
        -12    1    3    3    0    0  0.39228014175E-01 -0.18972729997E+02 -0.11194683110E+02  0.22029229499E+02  0.00000000000E+00 0.  1.
</event>
<event>
 7    1  0.1541705E-008  0.4614232E+02  0.7816164E-02  0.1320468E+00
        -11   -1    0    0    0    0  0.00000000000E+00  0.00000000000E+00  0.45593999997E+02  0.45594000000E+02  0.51100000000E-03 0.  1.
         11   -1    0    0    0    0 -0.00000000000E+00 -0.00000000000E+00 -0.45593999997E+02  0.45594000000E+02  0.51100000000E-03 0. -1.
    9900012    2    1    2    0    0 -0.37033919444E+02  0.25458787123E+02  0.30744763467E+01  0.46142318343E+02  0.10000005307E+02 0.  0.
        -12    1    1    2    0    0  0.37033919444E+02 -0.25458787123E+02 -0.30744763467E+01  0.45045681657E+02  0.00000000000E+00 0.  1.
         11    1    3    3    0    0 -0.27247758977E+02  0.16491164669E+02 -0.94114713364E+00  0.31863531499E+02  0.51100000000E-03 0. -1.
        -11    1    3    3    0    0 -0.85721186360E+01  0.69537989687E+01  0.44251085204E+01  0.11891935237E+02  0.51100000000E-03 0.  1.
         12    1    3    3    0    0 -0.12140418312E+01  0.20138234847E+01 -0.40948504007E+00  0.23868516069E+01  0.00000000000E+00 0. -1.
</event>
<event>
 7    1  0.1541705E-008  0.4614232E+02  0.7816164E-02  0.1320468E+00
        -11   -1    0    0    0    0  0.00000000000E+00  0.00000000000E+00  0.45593999997E+02  0.45594000000E+02  0.51100000000E-03 0. -1.
         11   -1    0    0    0    0 -0.00000000000E+00 -0.00000000000E+00 -0.45593999997E+02  0.45594000000E+02  0.51100000000E-03 0.  1.
    9900012    2    1    2    0    0  0.34951982248E+02  0.15262511015E+02  0.23969317176E+02  0.46142317949E+02  0.10000001713E+02 0.  0.
        -12    1    1    2    0    0 -0.34951982248E+02 -0.15262511015E+02 -0.23969317176E+02  0.45045682051E+02  0.00000000000E+00 0.  1.
         11    1    3    3    0    0  0.88220011715E+01  0.37469600077E+01  0.97420445643E+01  0.13666559425E+02  0.51100000000E-03 0. -1.
        -11    1    3    3    0    0  0.49773468840E+01 -0.17323373246E-01  0.13466882198E+01  0.51563409047E+01  0.51100000000E-03 0.  1.
         12    1    3    3    0    0  0.21152634193E+02  0.11532874380E+02  0.12880584392E+02  0.27319417619E+02  0.00000000000E+00 0. -1.
</event>
<event>
 7    1  0.1541705E-008  0.4614232E+02  0.7816164E-02  0.1320468E+00
        -11   -1    0    0    0    0  0.00000000000E+00  0.00000000000E+00  0.45593999997E+02  0.45594000000E+02  0.51100000000E-03 0.  1.
         11   -1    0    0    0    0 -0.00000000000E+00 -0.00000000000E+00 -0.45593999997E+02  0.45594000000E+02  0.51100000000E-03 0. -1.
    9900012    2    1    2    0    0 -0.10440407800E+02 -0.19557470071E+02 -0.39212455474E+02  0.46142318576E+02  0.10000007432E+02 0.  0.
        -12    1    1    2    0    0  0.10440407800E+02  0.19557470071E+02  0.39212455474E+02  0.45045681424E+02  0.00000000000E+00 0.  1.
         11    1    3    3    0    0 -0.27889429674E+01 -0.33646790117E+01 -0.29478476653E+01  0.52715342971E+01  0.51100000000E-03 0. -1.
        -11    1    3    3    0    0 -0.44422369633E+01 -0.43730617648E+01 -0.86508068806E+01  0.10662720027E+02  0.51100000000E-03 0.  1.
         12    1    3    3    0    0 -0.32092278695E+01 -0.11819729295E+02 -0.27613800928E+02  0.30208064252E+02  0.00000000000E+00 0. -1.
</event>
<event>
 7    1  0.1541705E-008  0.4614232E+02  0.7816164E-02  0.1320468E+00
        -11   -1    0    0    0    0  0.00000000000E+00  0.00000000000E+00  0.45593999997E+02  0.45594000000E+02  0.51100000000E-03 0.  1.
         11   -1    0    0    0    0 -0.00000000000E+00 -0.00000000000E+00 -0.45593999997E+02  0.45594000000E+02  0.51100000000E-03 0. -1.
    9900012    2    1    2    0    0  0.24295942083E+02 -0.10985963281E+02 -0.36306051255E+02  0.46142317092E+02  0.99999938963E+01 0.  0.
        -12    1    1    2    0    0 -0.24295942083E+02  0.10985963281E+02  0.36306051255E+02  0.45045682908E+02  0.00000000000E+00 0.  1.
         11    1    3    3    0    0  0.74930875610E+01 -0.23135203185E+01 -0.10110367992E+02  0.12795244377E+02  0.51100000000E-03 0. -1.
        -11    1    3    3    0    0  0.41055168035E+00 -0.33468701972E+01 -0.36714176857E+01  0.49849173397E+01  0.51100000000E-03 0.  1.
        -12    1    3    3    0    0  0.16392302842E+02 -0.53255727652E+01 -0.22524265577E+02  0.28362155375E+02  0.00000000000E+00 0.  1.
</event>
<event>
 7    1  0.1541705E-008  0.4614232E+02  0.7816164E-02  0.1320468E+00
        -11   -1    0    0    0    0  0.00000000000E+00  0.00000000000E+00  0.45593999997E+02  0.45594000000E+02  0.51100000000E-03 0. -1.
         11   -1    0    0    0    0 -0.00000000000E+00 -0.00000000000E+00 -0.45593999997E+02  0.45594000000E+02  0.51100000000E-03 0.  1.
    9900012    2    1    2    0    0  0.21882041488E+01 -0.11936047224E+01  0.44976666611E+02  0.46142317975E+02  0.10000001954E+02 0.  0.
        -12    1    1    2    0    0 -0.21882041488E+01  0.11936047224E+01 -0.44976666611E+02  0.45045682025E+02  0.00000000000E+00 0.  1.
         11    1    3    3    0    0  0.63425396799E+00 -0.11654324906E+01  0.34181750788E+02  0.34207493305E+02  0.51100000000E-03 0. -1.
        -11    1    3    3    0    0  0.23872862663E+01  0.15713852811E+01  0.40768805272E+01  0.49788896868E+01  0.51100000000E-03 0.  1.
        -12    1    3    3    0    0 -0.83333608541E+00 -0.15995575129E+01  0.67180352957E+01  0.69559349840E+01  0.00000000000E+00 0.  1.
</event>
<event>
 7    1  0.1561314E-008  0.4614232E+02  0.7816164E-02  0.1320468E+00
        -11   -1    0    0    0    0  0.00000000000E+00  0.00000000000E+00  0.45593999997E+02  0.45594000000E+02  0.51100000000E-03 0.  1.
         11   -1    0    0    0    0 -0.00000000000E+00 -0.00000000000E+00 -0.45593999997E+02  0.45594000000E+02  0.51100000000E-03 0. -1.
    9900012    2    1    2    0    0  0.43805192498E+02  0.65279652884E+01  0.82221824331E+01  0.46142317581E+02  0.99999983576E+01 0.  0.
        -12    1    1    2    0    0 -0.43805192498E+02 -0.65279652884E+01 -0.82221824331E+01  0.45045682419E+02  0.00000000000E+00 0.  1.
         11    1    3    3    0    0  0.42730847831E+02  0.55270956422E+01  0.89616870404E+01  0.44008930655E+02  0.51100000000E-03 0. -1.
        -11    1    3    3    0    0  0.79323953973E+00  0.12869112692E-01 -0.77020322485E+00  0.11057159898E+01  0.51100000000E-03 0.  1.
         12    1    3    3    0    0  0.28110512812E+00  0.98800053347E+00  0.30698617514E-01  0.10276709358E+01  0.00000000000E+00 0. -1.
</event>
<event>
 7    1  0.1541705E-008  0.4614232E+02  0.7816164E-02  0.1320468E+00
        -11   -1    0    0    0    0  0.00000000000E+00  0.00000000000E+00  0.45593999997E+02  0.45594000000E+02  0.51100000000E-03 0. -1.
         11   -1    0    0    0    0 -0.00000000000E+00 -0.00000000000E+00 -0.45593999997E+02  0.45594000000E+02  0.51100000000E-03 0.  1.
    9900012    2    1    2    0    0  0.13204506987E+02 -0.43062117918E+02 -0.63911631577E+00  0.46142317921E+02  0.10000001457E+02 0.  0.
        -12    1    1    2    0    0 -0.13204506987E+02  0.43062117918E+02  0.63911631577E+00  0.45045682079E+02  0.00000000000E+00 0.  1.
         11    1    3    3    0    0  0.50342887534E-01 -0.11344121442E+02 -0.72935705626E-01  0.11344467620E+02  0.51100000000E-03 0.  1.
        -11    1    3    3    0    0  0.11285184609E+02 -0.30273325775E+02  0.21727592823E+00  0.32309083153E+02  0.51100000000E-03 0. -1.
        -12    1    3    3    0    0  0.18689794897E+01 -0.14446707006E+01 -0.78345653838E+00  0.24887671473E+01  0.00000000000E+00 0.  1.
</event>
<event>
 7    1  0.1541705E-008  0.4614232E+02  0.7816164E-02  0.1320468E+00
        -11   -1    0    0    0    0  0.00000000000E+00  0.00000000000E+00  0.45593999997E+02  0.45594000000E+02  0.51100000000E-03 0.  1.
         11   -1    0    0    0    0 -0.00000000000E+00 -0.00000000000E+00 -0.45593999997E+02  0.45594000000E+02  0.51100000000E-03 0. -1.
    9900012    2    1    2    0    0 -0.19666733968E+02 -0.13588876898E+02 -0.38179516566E+02  0.46142317793E+02  0.10000000289E+02 0.  0.
        -12    1    1    2    0    0  0.19666733968E+02  0.13588876898E+02  0.38179516566E+02  0.45045682207E+02  0.00000000000E+00 0.  1.
         11    1    3    3    0    0 -0.73058048179E+01 -0.35236550012E+01 -0.17898123607E+02  0.19650286449E+02  0.51100000000E-03 0. -1.
        -11    1    3    3    0    0 -0.33395032466E+01 -0.32534432641E+00 -0.20255009610E+01  0.39192837699E+01  0.51100000000E-03 0.  1.
         12    1    3    3    0    0 -0.90214259038E+01 -0.97398775700E+01 -0.18255891998E+02  0.22572747574E+02  0.00000000000E+00 0. -1.
</event>
<event>
 7    1  0.1541705E-008  0.4614232E+02  0.7816164E-02  0.1320468E+00
        -11   -1    0    0    0    0  0.00000000000E+00  0.00000000000E+00  0.45593999997E+02  0.45594000000E+02  0.51100000000E-03 0.  1.
         11   -1    0    0    0    0 -0.00000000000E+00 -0.00000000000E+00 -0.45593999997E+02  0.45594000000E+02  0.51100000000E-03 0. -1.
    9900012    2    1    2    0    0  0.73903175741E+01  0.33616080844E+02 -0.29059523250E+02  0.46142316781E+02  0.99999910667E+01 0.  0.
        -12    1    1    2    0    0 -0.73903175741E+01 -0.33616080844E+02  0.29059523250E+02  0.45045683219E+02  0.00000000000E+00 0.  1.
         11    1    3    3    0    0  0.86993179345E+00  0.22105521787E+02 -0.17834611528E+02  0.28416267232E+02  0.51100000000E-03 0. -1.
        -11    1    3    3    0    0  0.36136298761E+01  0.35971389798E+01 -0.56940730115E+01  0.76433106337E+01  0.51100000000E-03 0.  1.
         12    1    3    3    0    0  0.29067559046E+01  0.79134200773E+01 -0.55308387102E+01  0.10082738916E+02  0.00000000000E+00 0. -1.
</event>
<event>
 7    1  0.1541705E-008  0.4614232E+02  0.7816164E-02  0.1320468E+00
        -11   -1    0    0    0    0  0.00000000000E+00  0.00000000000E+00  0.45593999997E+02  0.45594000000E+02  0.51100000000E-03 0.  1.
         11   -1    0    0    0    0 -0.00000000000E+00 -0.00000000000E+00 -0.45593999997E+02  0.45594000000E+02  0.51100000000E-03 0. -1.
    9900012    2    1    2    0    0  0.41075016751E+02 -0.57485766148E+01 -0.17575845695E+02  0.46142317786E+02  0.10000000226E+02 0.  0.
        -12    1    1    2    0    0 -0.41075016751E+02  0.57485766148E+01  0.17575845695E+02  0.45045682214E+02  0.00000000000E+00 0.  1.
         11    1    3    3    0    0  0.37991942194E+02 -0.59725935608E+01 -0.18604147440E+02  0.42722053412E+02  0.51100000000E-03 0. -1.
        -11    1    3    3    0    0  0.26358434685E+01  0.14313720879E+00  0.43886908691E+00  0.26759606476E+01  0.51100000000E-03 0.  1.
         12    1    3    3    0    0  0.44723108860E+00  0.80879737265E-01  0.58943265763E+00  0.74430372590E+00  0.00000000000E+00 0. -1.
</event>
<event>
 7    1  0.1541705E-008  0.4614231E+02  0.7816164E-02  0.1320468E+00
        -11   -1    0    0    0    0  0.00000000000E+00  0.00000000000E+00  0.45593999997E+02  0.45594000000E+02  0.51100000000E-03 0. -1.
         11   -1    0    0    0    0 -0.00000000000E+00 -0.00000000000E+00 -0.45593999997E+02  0.45594000000E+02  0.51100000000E-03 0.  1.
    9900012    2    1    2    0    0  0.12085541376E+02  0.35037816079E+02  0.25600886979E+02  0.46142308973E+02  0.99999198646E+01 0.  0.
        -12    1    1    2    0    0 -0.12085541376E+02 -0.35037816079E+02 -0.25600886979E+02  0.45045691027E+02  0.00000000000E+00 0.  1.
         11    1    3    3    0    0  0.60127995505E+01  0.13881413794E+02  0.15882946751E+02  0.21934343052E+02  0.51100000000E-03 0. -1.
        -11    1    3    3    0    0  0.11630951906E+01  0.83886038345E+01  0.31746651806E+01  0.90443332527E+01  0.51100000000E-03 0.  1.
         12    1    3    3    0    0  0.49096466354E+01  0.12767798451E+02  0.65432750468E+01  0.15163632669E+02  0.00000000000E+00 0. -1.
</event>
<event>
 7    1  0.1541705E-008  0.4614232E+02  0.7816164E-02  0.1320468E+00
        -11   -1    0    0    0    0  0.00000000000E+00  0.00000000000E+00  0.45593999997E+02  0.45594000000E+02  0.51100000000E-03 0. -1.
         11   -1    0    0    0    0 -0.00000000000E+00 -0.00000000000E+00 -0.45593999997E+02  0.45594000000E+02  0.51100000000E-03 0.  1.
    9900012    2    1    2    0    0 -0.94524685083E+01  0.31043699222E+02  0.31241845391E+02  0.46142319566E+02  0.10000016458E+02 0.  0.
        -12    1    1    2    0    0  0.94524685083E+01 -0.31043699222E+02 -0.31241845391E+02  0.45045680434E+02  0.00000000000E+00 0.  1.
         11    1    3    3    0    0 -0.27297887790E+01  0.12592278039E+02  0.13675228163E+02  0.18789068060E+02  0.51100000000E-03 0. -1.
        -11    1    3    3    0    0 -0.39971949566E+01  0.15603671205E+02  0.10397314256E+02  0.19171757004E+02  0.51100000000E-03 0.  1.
        -12    1    3    3    0    0 -0.27254847726E+01  0.28477499782E+01  0.71693029720E+01  0.81814945021E+01  0.00000000000E+00 0.  1.
</event>
<event>
 7    1  0.1541705E-008  0.4614232E+02  0.7816164E-02  0.1320468E+00
        -11   -1    0    0    0    0  0.00000000000E+00  0.00000000000E+00  0.45593999997E+02  0.45594000000E+02  0.51100000000E-03 0.  1.
         11   -1    0    0    0    0 -0.00000000000E+00 -0.00000000000E+00 -0.45593999997E+02  0.45594000000E+02  0.51100000000E-03 0. -1.
    9900012    2    1    2    0    0  0.21617701432E+01 -0.74815283856E+01 -0.44367409188E+02  0.46142317463E+02  0.99999972832E+01 0.  0.
        -12    1    1    2    0    0 -0.21617701432E+01  0.74815283856E+01  0.44367409188E+02  0.45045682537E+02  0.00000000000E+00 0.  1.
         11    1    3    3    0    0  0.20982589392E+01  0.84491383028E+00 -0.41849921741E+01  0.47571766538E+01  0.51100000000E-03 0. -1.
        -11    1    3    3    0    0  0.24096951737E+01 -0.40195497095E+01 -0.14497661864E+02  0.15236325360E+02  0.51100000000E-03 0.  1.
         12    1    3    3    0    0 -0.23461839697E+01 -0.43068925064E+01 -0.25684755150E+02  0.26148815449E+02  0.00000000000E+00 0. -1.
</event>
<event>
 7    1  0.1541705E-008  0.4614232E+02  0.7816164E-02  0.1320468E+00
        -11   -1    0    0    0    0  0.00000000000E+00  0.00000000000E+00  0.45593999997E+02  0.45594000000E+02  0.51100000000E-03 0.  1.
         11   -1    0    0    0    0 -0.00000000000E+00 -0.00000000000E+00 -0.45593999997E+02  0.45594000000E+02  0.51100000000E-03 0. -1.
    9900012    2    1    2    0    0 -0.20122518755E+02  0.21220485995E+02 -0.34262058871E+02  0.46142318020E+02  0.10000002364E+02 0.  0.
        -12    1    1    2    0    0  0.20122518755E+02 -0.21220485995E+02  0.34262058871E+02  0.45045681980E+02  0.00000000000E+00 0.  1.
         11    1    3    3    0    0 -0.16140619048E+02  0.11698459940E+02 -0.23035560553E+02  0.30463266379E+02  0.51100000000E-03 0. -1.
        -11    1    3    3    0    0  0.56808616044E+00  0.18924750623E+01 -0.13375021900E+01  0.23860209799E+01  0.51100000000E-03 0.  1.
         12    1    3    3    0    0 -0.45499858680E+01  0.76295509932E+01 -0.98889961276E+01  0.13293030662E+02  0.00000000000E+00 0. -1.
</event>
<event>
 7    1  0.1541705E-008  0.4614232E+02  0.7816164E-02  0.1320468E+00
        -11   -1    0    0    0    0  0.00000000000E+00  0.00000000000E+00  0.45593999997E+02  0.45594000000E+02  0.51100000000E-03 0.  1.
         11   -1    0    0    0    0 -0.00000000000E+00 -0.00000000000E+00 -0.45593999997E+02  0.45594000000E+02  0.51100000000E-03 0. -1.
    9900012    2    1    2    0    0 -0.91212811483E+01  0.34904531540E+02 -0.26973866582E+02  0.46142316853E+02  0.99999917209E+01 0.  0.
        -12    1    1    2    0    0  0.91212811483E+01 -0.34904531540E+02  0.26973866582E+02  0.45045683147E+02  0.00000000000E+00 0.  1.
         11    1    3    3    0    0 -0.29004673837E+01  0.25043098217E+02 -0.20466818573E+02  0.32472452050E+02  0.51100000000E-03 0.  1.
        -11    1    3    3    0    0 -0.33649772172E+01  0.74796424200E+01 -0.36346760243E+01  0.89710084420E+01  0.51100000000E-03 0. -1.
        -12    1    3    3    0    0 -0.28558365473E+01  0.23817909024E+01 -0.28723719841E+01  0.46988563611E+01  0.00000000000E+00 0.  1.
</event>
<event>
 7    1  0.1541705E-008  0.4614232E+02  0.7816164E-02  0.1320468E+00
        -11   -1    0    0    0    0  0.00000000000E+00  0.00000000000E+00  0.45593999997E+02  0.45594000000E+02  0.51100000000E-03 0.  1.
         11   -1    0    0    0    0 -0.00000000000E+00 -0.00000000000E+00 -0.45593999997E+02  0.45594000000E+02  0.51100000000E-03 0. -1.
    9900012    2    1    2    0    0  0.36395519058E+02  0.16393698677E+02 -0.20874059242E+02  0.46142317487E+02  0.99999974994E+01 0.  0.
        -12    1    1    2    0    0 -0.36395519058E+02 -0.16393698677E+02  0.20874059242E+02  0.45045682513E+02  0.00000000000E+00 0.  1.
         11    1    3    3    0    0  0.25475045834E+02  0.12861983804E+02 -0.11198111060E+02  0.30656260033E+02  0.51100000000E-03 0. -1.
        -11    1    3    3    0    0 -0.22144109368E+00  0.30189785983E+00 -0.78668917791E+00  0.87123969118E+00  0.51100000000E-03 0.  1.
         12    1    3    3    0    0  0.11141914318E+02  0.32298170136E+01 -0.88892590038E+01  0.14614817763E+02  0.00000000000E+00 0. -1.
</event>
<event>
 7    1  0.1541705E-008  0.4614232E+02  0.7816164E-02  0.1320468E+00
        -11   -1    0    0    0    0  0.00000000000E+00  0.00000000000E+00  0.45593999997E+02  0.45594000000E+02  0.51100000000E-03 0.  1.
         11   -1    0    0    0    0 -0.00000000000E+00 -0.00000000000E+00 -0.45593999997E+02  0.45594000000E+02  0.51100000000E-03 0. -1.
    9900012    2    1    2    0    0  0.12782578860E+02 -0.29044876125E+02 -0.31970521635E+02  0.46142318687E+02  0.10000008439E+02 0.  0.
        -12    1    1    2    0    0 -0.12782578860E+02  0.29044876125E+02  0.31970521635E+02  0.45045681313E+02  0.00000000000E+00 0.  1.
         11    1    3    3    0    0  0.17394083413E+01 -0.48996218783E+01 -0.79952311097E+01  0.95370622671E+01  0.51100000000E-03 0. -1.
        -11    1    3    3    0    0  0.19085968071E+01 -0.64960708354E+01 -0.21867794574E+01  0.71150321662E+01  0.51100000000E-03 0.  1.
        -12    1    3    3    0    0  0.91345737116E+01 -0.17649183411E+02 -0.21788511067E+02  0.29490224253E+02  0.00000000000E+00 0.  1.
</event>
<event>
 7    1  0.1541705E-008  0.4614232E+02  0.7816164E-02  0.1320468E+00
        -11   -1    0    0    0    0  0.00000000000E+00  0.00000000000E+00  0.45593999997E+02  0.45594000000E+02  0.51100000000E-03 0.  1.
         11   -1    0    0    0    0 -0.00000000000E+00 -0.00000000000E+00 -0.45593999997E+02  0.45594000000E+02  0.51100000000E-03 0. -1.
    9900012    2    1    2    0    0  0.29586743279E+02 -0.20068028140E+02 -0.27404602930E+02  0.46142318819E+02  0.10000009651E+02 0.  0.
        -12    1    1    2    0    0 -0.29586743279E+02  0.20068028140E+02  0.27404602930E+02  0.45045681181E+02  0.00000000000E+00 0.  1.
         11    1    3    3    0    0  0.15984106849E+02 -0.64222174702E+01 -0.15578103845E+02  0.23225285115E+02  0.51100000000E-03 0. -1.
        -11    1    3    3    0    0  0.12203382623E+02 -0.10608142618E+02 -0.10694201580E+02  0.19386108040E+02  0.51100000000E-03 0.  1.
         12    1    3    3    0    0  0.13992538071E+01 -0.30376680516E+01 -0.11322975042E+01  0.35309256643E+01  0.00000000000E+00 0. -1.
</event>
<event>
 7    1  0.1541705E-008  0.4614232E+02  0.7816164E-02  0.1320468E+00
        -11   -1    0    0    0    0  0.00000000000E+00  0.00000000000E+00  0.45593999997E+02  0.45594000000E+02  0.51100000000E-03 0.  1.
         11   -1    0    0    0    0 -0.00000000000E+00 -0.00000000000E+00 -0.45593999997E+02  0.45594000000E+02  0.51100000000E-03 0. -1.
    9900012    2    1    2    0    0  0.43041879100E+02  0.15773407716E+01  0.13191743513E+02  0.46142318106E+02  0.10000003146E+02 0.  0.
        -12    1    1    2    0    0 -0.43041879100E+02 -0.15773407716E+01 -0.13191743513E+02  0.45045681894E+02  0.00000000000E+00 0.  1.
         11    1    3    3    0    0  0.85790510963E+01  0.24603893277E+01  0.59355066446E+01  0.10718389466E+02  0.51100000000E-03 0. -1.
        -11    1    3    3    0    0  0.17641700432E+02 -0.18435222878E+01  0.24710633234E+01  0.17909057004E+02  0.51100000000E-03 0.  1.
         12    1    3    3    0    0  0.16821127572E+02  0.96047373171E+00  0.47851735455E+01  0.17514871636E+02  0.00000000000E+00 0. -1.
</event>
<event>
 7    1  0.1541705E-008  0.4614232E+02  0.7816164E-02  0.1320468E+00
        -11   -1    0    0    0    0  0.00000000000E+00  0.00000000000E+00  0.45593999997E+02  0.45594000000E+02  0.51100000000E-03 0. -1.
         11   -1    0    0    0    0 -0.00000000000E+00 -0.00000000000E+00 -0.45593999997E+02  0.45594000000E+02  0.51100000000E-03 0.  1.
    9900012    2    1    2    0    0  0.41987347982E+01 -0.33657447550E+02  0.29642206067E+02  0.46142317299E+02  0.99999957829E+01 0.  0.
        -12    1    1    2    0    0 -0.41987347982E+01  0.33657447550E+02 -0.29642206067E+02  0.45045682701E+02  0.00000000000E+00 0.  1.
         11    1    3    3    0    0  0.14596994343E+00 -0.63147212784E+01  0.71628313553E+01  0.95500348341E+01  0.51100000000E-03 0. -1.
        -11    1    3    3    0    0  0.37422590816E+01 -0.26692797774E+02  0.18847790078E+02  0.32889955110E+02  0.51100000000E-03 0.  1.
        -12    1    3    3    0    0  0.31050577318E+00 -0.64992849762E+00  0.36315846339E+01  0.37023273546E+01  0.00000000000E+00 0.  1.
</event>
<event>
 7    1  0.1541705E-008  0.4614232E+02  0.7816164E-02  0.1320468E+00
        -11   -1    0    0    0    0  0.00000000000E+00  0.00000000000E+00  0.45593999997E+02  0.45594000000E+02  0.51100000000E-03 0. -1.
         11   -1    0    0    0    0 -0.00000000000E+00 -0.00000000000E+00 -0.45593999997E+02  0.45594000000E+02  0.51100000000E-03 0.  1.
    9900012    2    1    2    0    0  0.23454903881E+02 -0.21646253537E+02  0.31787115216E+02  0.46142317609E+02  0.99999986165E+01 0.  0.
        -12    1    1    2    0    0 -0.23454903881E+02  0.21646253537E+02 -0.31787115216E+02  0.45045682391E+02  0.00000000000E+00 0.  1.
         11    1    3    3    0    0  0.95191819010E+01 -0.67924243344E+01  0.17527532333E+02  0.21070506457E+02  0.51100000000E-03 0. -1.
        -11    1    3    3    0    0  0.10184941307E+02 -0.12735025596E+02  0.11544473824E+02  0.19979709270E+02  0.51100000000E-03 0.  1.
        -12    1    3    3    0    0  0.37507806735E+01 -0.21188036064E+01  0.27151090589E+01  0.50921018827E+01  0.00000000000E+00 0.  1.
</event>
<event>
 7    1  0.1541705E-008  0.4614232E+02  0.7816164E-02  0.1320468E+00
        -11   -1    0    0    0    0  0.00000000000E+00  0.00000000000E+00  0.45593999997E+02  0.45594000000E+02  0.51100000000E-03 0.  1.
         11   -1    0    0    0    0 -0.00000000000E+00 -0.00000000000E+00 -0.45593999997E+02  0.45594000000E+02  0.51100000000E-03 0. -1.
    9900012    2    1    2    0    0 -0.40230635689E+02 -0.95616685816E+01 -0.17865722845E+02  0.46142316447E+02  0.99999880153E+01 0.  0.
        -12    1    1    2    0    0  0.40230635689E+02  0.95616685816E+01  0.17865722845E+02  0.45045683553E+02  0.00000000000E+00 0.  1.
         11    1    3    3    0    0 -0.26860174334E+02 -0.64076382878E+01 -0.12046631791E+02  0.30127199197E+02  0.51100000000E-03 0. -1.
        -11    1    3    3    0    0 -0.33494657057E+01 -0.39230668601E+00  0.10779791092E+01  0.35404610252E+01  0.51100000000E-03 0.  1.
        -12    1    3    3    0    0 -0.10020995649E+02 -0.27617236078E+01 -0.68970701637E+01  0.12474656225E+02  0.00000000000E+00 0.  1.
</event>
<event>
 7    1  0.1541705E-008  0.4614232E+02  0.7816164E-02  0.1320468E+00
        -11   -1    0    0    0    0  0.00000000000E+00  0.00000000000E+00  0.45593999997E+02  0.45594000000E+02  0.51100000000E-03 0.  1.
         11   -1    0    0    0    0 -0.00000000000E+00 -0.00000000000E+00 -0.45593999997E+02  0.45594000000E+02  0.51100000000E-03 0. -1.
    9900012    2    1    2    0    0  0.10159233357E+02  0.27330941325E+02 -0.34335449522E+02  0.46142317965E+02  0.10000001861E+02 0.  0.
        -12    1    1    2    0    0 -0.10159233357E+02 -0.27330941325E+02  0.34335449522E+02  0.45045682035E+02  0.00000000000E+00 0.  1.
         11    1    3    3    0    0 -0.20938020676E-01  0.31161713134E+01 -0.10799795034E+01  0.32980779318E+01  0.51100000000E-03 0. -1.
        -11    1    3    3    0    0  0.23678374340E-01  0.62463429512E+01 -0.60575396419E+01  0.87012153004E+01  0.51100000000E-03 0.  1.
         12    1    3    3    0    0  0.10156493003E+02  0.17968427061E+02 -0.27197930376E+02  0.34143024733E+02  0.00000000000E+00 0. -1.
</event>
<event>
 7    1  0.1541705E-008  0.4614232E+02  0.7816164E-02  0.1320468E+00
        -11   -1    0    0    0    0  0.00000000000E+00  0.00000000000E+00  0.45593999997E+02  0.45594000000E+02  0.51100000000E-03 0.  1.
         11   -1    0    0    0    0 -0.00000000000E+00 -0.00000000000E+00 -0.45593999997E+02  0.45594000000E+02  0.51100000000E-03 0. -1.
    9900012    2    1    2    0    0 -0.10883405563E+01  0.10118822747E+02 -0.43880956912E+02  0.46142318315E+02  0.10000005050E+02 0.  0.
        -12    1    1    2    0    0  0.10883405563E+01 -0.10118822747E+02  0.43880956912E+02  0.45045681685E+02  0.00000000000E+00 0.  1.
         11    1    3    3    0    0 -0.24661672048E+01  0.73698360530E+01 -0.29924395380E+02  0.30917081092E+02  0.51100000000E-03 0. -1.
        -11    1    3    3    0    0  0.32409168797E+01  0.24982876371E+01 -0.10826676012E+02  0.11574190990E+02  0.51100000000E-03 0.  1.
        -12    1    3    3    0    0 -0.18630902312E+01  0.25069905689E+00 -0.31298855202E+01  0.36510462331E+01  0.00000000000E+00 0.  1.
</event>
<event>
 7    1  0.1541705E-008  0.4614232E+02  0.7816164E-02  0.1320468E+00
        -11   -1    0    0    0    0  0.00000000000E+00  0.00000000000E+00  0.45593999997E+02  0.45594000000E+02  0.51100000000E-03 0.  1.
         11   -1    0    0    0    0 -0.00000000000E+00 -0.00000000000E+00 -0.45593999997E+02  0.45594000000E+02  0.51100000000E-03 0. -1.
    9900012    2    1    2    0    0  0.18287877598E+01 -0.33017933503E+02 -0.30587334963E+02  0.46142318103E+02  0.10000003114E+02 0.  0.
        -12    1    1    2    0    0 -0.18287877598E+01  0.33017933503E+02  0.30587334963E+02  0.45045681897E+02  0.00000000000E+00 0.  1.
         11    1    3    3    0    0  0.16474122056E+01 -0.10931793107E+01 -0.21887850385E+01  0.29495403348E+01  0.51100000000E-03 0.  1.
        -11    1    3    3    0    0 -0.30090161592E+01 -0.17919843930E+02 -0.15328631269E+02  0.23772713803E+02  0.51100000000E-03 0. -1.
         12    1    3    3    0    0  0.31903917134E+01 -0.14004910262E+02 -0.13069918656E+02  0.19420063965E+02  0.00000000000E+00 0. -1.
</event>
<event>
 7    1  0.1541705E-008  0.4614232E+02  0.7816164E-02  0.1320468E+00
        -11   -1    0    0    0    0  0.00000000000E+00  0.00000000000E+00  0.45593999997E+02  0.45594000000E+02  0.51100000000E-03 0.  1.
         11   -1    0    0    0    0 -0.00000000000E+00 -0.00000000000E+00 -0.45593999997E+02  0.45594000000E+02  0.51100000000E-03 0. -1.
    9900012    2    1    2    0    0 -0.24852941604E+02 -0.65881226348E+01 -0.36987042867E+02  0.46142318672E+02  0.10000008309E+02 0.  0.
        -12    1    1    2    0    0  0.24852941604E+02  0.65881226348E+01  0.36987042867E+02  0.45045681328E+02  0.00000000000E+00 0.  1.
         11    1    3    3    0    0 -0.16304702628E+02 -0.27719299149E+00 -0.22132208841E+02  0.27490995474E+02  0.51100000000E-03 0. -1.
        -11    1    3    3    0    0 -0.81575461949E+01 -0.48615250150E+01 -0.14020733547E+02  0.16934017682E+02  0.51100000000E-03 0.  1.
         12    1    3    3    0    0 -0.39069278186E+00 -0.14494046283E+01 -0.83410047867E+00  0.17173055158E+01  0.00000000000E+00 0. -1.
</event>
<event>
 7    1  0.1541705E-008  0.4614232E+02  0.7816164E-02  0.1320468E+00
        -11   -1    0    0    0    0  0.00000000000E+00  0.00000000000E+00  0.45593999997E+02  0.45594000000E+02  0.51100000000E-03 0. -1.
         11   -1    0    0    0    0 -0.00000000000E+00 -0.00000000000E+00 -0.45593999997E+02  0.45594000000E+02  0.51100000000E-03 0.  1.
    9900012    2    1    2    0    0 -0.18539358765E+02 -0.36103244250E+02  0.19543831650E+02  0.46142318472E+02  0.10000006481E+02 0.  0.
        -12    1    1    2    0    0  0.18539358765E+02  0.36103244250E+02 -0.19543831650E+02  0.45045681528E+02  0.00000000000E+00 0.  1.
         11    1    3    3    0    0 -0.64729405791E+01 -0.13347980417E+02  0.54225739540E+01  0.15794677885E+02  0.51100000000E-03 0. -1.
        -11    1    3    3    0    0 -0.17721642971E+01 -0.91463686406E+01  0.23214663385E+01  0.96013453134E+01  0.51100000000E-03 0.  1.
        -12    1    3    3    0    0 -0.10294253888E+02 -0.13608895192E+02  0.11799791358E+02  0.20746295273E+02  0.00000000000E+00 0.  1.
</event>
<event>
 7    1  0.1541705E-008  0.4614232E+02  0.7816164E-02  0.1320468E+00
        -11   -1    0    0    0    0  0.00000000000E+00  0.00000000000E+00  0.45593999997E+02  0.45594000000E+02  0.51100000000E-03 0.  1.
         11   -1    0    0    0    0 -0.00000000000E+00 -0.00000000000E+00 -0.45593999997E+02  0.45594000000E+02  0.51100000000E-03 0. -1.
    9900012    2    1    2    0    0 -0.27328777603E+02 -0.26098582711E+02 -0.24517653653E+02  0.46142318237E+02  0.10000004343E+02 0.  0.
        -12    1    1    2    0    0  0.27328777603E+02  0.26098582711E+02  0.24517653653E+02  0.45045681763E+02  0.00000000000E+00 0.  1.
         11    1    3    3    0    0 -0.10669009412E+02 -0.70508924091E+01 -0.11956166168E+02  0.17506934492E+02  0.51100000000E-03 0. -1.
        -11    1    3    3    0    0 -0.44943184171E+01 -0.32176232187E+01 -0.11715686925E+01  0.56501832425E+01  0.51100000000E-03 0.  1.
         12    1    3    3    0    0 -0.12165449774E+02 -0.15830067084E+02 -0.11389918792E+02  0.22985200503E+02  0.00000000000E+00 0. -1.
</event>
<event>
 7    1  0.1541705E-008  0.4614232E+02  0.7816164E-02  0.1320468E+00
        -11   -1    0    0    0    0  0.00000000000E+00  0.00000000000E+00  0.45593999997E+02  0.45594000000E+02  0.51100000000E-03 0.  1.
         11   -1    0    0    0    0 -0.00000000000E+00 -0.00000000000E+00 -0.45593999997E+02  0.45594000000E+02  0.51100000000E-03 0. -1.
    9900012    2    1    2    0    0 -0.74614399003E+01  0.24000666784E+02 -0.37381926223E+02  0.46142317637E+02  0.99999988679E+01 0.  0.
        -12    1    1    2    0    0  0.74614399003E+01 -0.24000666784E+02  0.37381926223E+02  0.45045682363E+02  0.00000000000E+00 0.  1.
         11    1    3    3    0    0 -0.43598354767E+01  0.10440868276E+02 -0.12937105585E+02  0.17186872808E+02  0.51100000000E-03 0. -1.
        -11    1    3    3    0    0 -0.18441696075E+00  0.10004389855E+02 -0.20819998374E+02  0.23099657109E+02  0.51100000000E-03 0.  1.
         12    1    3    3    0    0 -0.29171874629E+01  0.35554086524E+01 -0.36248222635E+01  0.58557877200E+01  0.00000000000E+00 0. -1.
</event>
<event>
 7    1  0.1541705E-008  0.4614232E+02  0.7816164E-02  0.1320468E+00
        -11   -1    0    0    0    0  0.00000000000E+00  0.00000000000E+00  0.45593999997E+02  0.45594000000E+02  0.51100000000E-03 0. -1.
         11   -1    0    0    0    0 -0.00000000000E+00 -0.00000000000E+00 -0.45593999997E+02  0.45594000000E+02  0.51100000000E-03 0.  1.
    9900012    2    1    2    0    0 -0.75118565985E+01 -0.29776104190E+02  0.32955565823E+02  0.46142315534E+02  0.99999796872E+01 0.  0.
        -12    1    1    2    0    0  0.75118565985E+01  0.29776104190E+02 -0.32955565823E+02  0.45045684466E+02  0.00000000000E+00 0.  1.
         11    1    3    3    0    0  0.87318646212E+00 -0.27298849151E+01  0.36197847712E+01  0.46170952231E+01  0.51100000000E-03 0. -1.
        -11    1    3    3    0    0 -0.78715759438E+01 -0.12174367129E+02  0.13895208127E+02  0.20081178551E+02  0.51100000000E-03 0.  1.
        -12    1    3    3    0    0 -0.51346711690E+00 -0.14871852146E+02  0.15440572925E+02  0.21444041760E+02  0.00000000000E+00 0.  1.
</event>
<event>
 7    1  0.1541705E-008  0.4614232E+02  0.7816164E-02  0.1320468E+00
        -11   -1    0    0    0    0  0.00000000000E+00  0.00000000000E+00  0.45593999997E+02  0.45594000000E+02  0.51100000000E-03 0.  1.
         11   -1    0    0    0    0 -0.00000000000E+00 -0.00000000000E+00 -0.45593999997E+02  0.45594000000E+02  0.51100000000E-03 0. -1.
    9900012    2    1    2    0    0  0.12237319338E+02 -0.37686410735E+02 -0.21426523348E+02  0.46142318282E+02  0.10000004747E+02 0.  0.
        -12    1    1    2    0    0 -0.12237319338E+02  0.37686410735E+02  0.21426523348E+02  0.45045681718E+02  0.00000000000E+00 0.  1.
         11    1    3    3    0    0 -0.21167079674E+00 -0.46563176693E+01 -0.41164199746E+01  0.62186021285E+01  0.51100000000E-03 0. -1.
        -11    1    3    3    0    0  0.47848261871E+01 -0.19367780083E+02 -0.12474775442E+02  0.23529247535E+02  0.51100000000E-03 0.  1.
        -12    1    3    3    0    0  0.76641639480E+01 -0.13662312983E+02 -0.48353279313E+01  0.16394468618E+02  0.00000000000E+00 0.  1.
</event>
<event>
 7    1  0.1541705E-008  0.4614232E+02  0.7816164E-02  0.1320468E+00
        -11   -1    0    0    0    0  0.00000000000E+00  0.00000000000E+00  0.45593999997E+02  0.45594000000E+02  0.51100000000E-03 0.  1.
         11   -1    0    0    0    0 -0.00000000000E+00 -0.00000000000E+00 -0.45593999997E+02  0.45594000000E+02  0.51100000000E-03 0. -1.
    9900012    2    1    2    0    0  0.21014507535E+02  0.38775690875E+02  0.91624090607E+01  0.46142317969E+02  0.10000001900E+02 0.  0.
        -12    1    1    2    0    0 -0.21014507535E+02 -0.38775690875E+02 -0.91624090607E+01  0.45045682031E+02  0.00000000000E+00 0.  1.
         11    1    3    3    0    0  0.72197362130E+01  0.20166302573E+02  0.23583592819E+01  0.21549157970E+02  0.51100000000E-03 0. -1.
        -11    1    3    3    0    0  0.97428562080E+01  0.92796370550E+01  0.41632492816E+01  0.14084301751E+02  0.51100000000E-03 0.  1.
        -12    1    3    3    0    0  0.40519151142E+01  0.93297512476E+01  0.26408004971E+01  0.10508858249E+02  0.00000000000E+00 0.  1.
</event>
<event>
 7    1  0.1541705E-008  0.4614232E+02  0.7816164E-02  0.1320468E+00
        -11   -1    0    0    0    0  0.00000000000E+00  0.00000000000E+00  0.45593999997E+02  0.45594000000E+02  0.51100000000E-03 0.  1.
         11   -1    0    0    0    0 -0.00000000000E+00 -0.00000000000E+00 -0.45593999997E+02  0.45594000000E+02  0.51100000000E-03 0. -1.
    9900012    2    1    2    0    0  0.12660037425E+02  0.16762322954E+02 -0.39847979609E+02  0.46142317662E+02  0.99999990959E+01 0.  0.
        -12    1    1    2    0    0 -0.12660037425E+02 -0.16762322954E+02  0.39847979609E+02  0.45045682338E+02  0.00000000000E+00 0.  1.
         11    1    3    3    0    0  0.55522644360E+01  0.10854803974E+02 -0.14732785982E+02  0.19123529819E+02  0.51100000000E-03 0.  1.
        -11    1    3    3    0    0  0.30513608786E+01  0.15534221972E+01 -0.13980084220E+02  0.14393285892E+02  0.51100000000E-03 0. -1.
        -12    1    3    3    0    0  0.40564121099E+01  0.43540967829E+01 -0.11135109407E+02  0.12625501951E+02  0.00000000000E+00 0.  1.
</event>
<event>
 7    1  0.1541705E-008  0.4614231E+02  0.7816164E-02  0.1320468E+00
        -11   -1    0    0    0    0  0.00000000000E+00  0.00000000000E+00  0.45593999997E+02  0.45594000000E+02  0.51100000000E-03 0.  1.
         11   -1    0    0    0    0 -0.00000000000E+00 -0.00000000000E+00 -0.45593999997E+02  0.45594000000E+02  0.51100000000E-03 0. -1.
    9900012    2    1    2    0    0  0.36622743461E+02 -0.15521732501E+02 -0.21141531451E+02  0.46142313519E+02  0.99999613143E+01 0.  0.
        -12    1    1    2    0    0 -0.36622743461E+02  0.15521732501E+02  0.21141531451E+02  0.45045686481E+02  0.00000000000E+00 0.  1.
         11    1    3    3    0    0  0.65461899280E+01 -0.48046906470E+01 -0.51732640701E+01  0.96281003415E+01  0.51100000000E-03 0.  1.
        -11    1    3    3    0    0  0.27535873942E+02 -0.79580864403E+01 -0.12057513620E+02  0.31095644848E+02  0.51100000000E-03 0. -1.
         12    1    3    3    0    0  0.25406795912E+01 -0.27589554137E+01 -0.39107537608E+01  0.54185683292E+01  0.00000000000E+00 0. -1.
</event>
<event>
 7    1  0.1541705E-008  0.4614232E+02  0.7816164E-02  0.1320468E+00
        -11   -1    0    0    0    0  0.00000000000E+00  0.00000000000E+00  0.45593999997E+02  0.45594000000E+02  0.51100000000E-03 0.  1.
         11   -1    0    0    0    0 -0.00000000000E+00 -0.00000000000E+00 -0.45593999997E+02  0.45594000000E+02  0.51100000000E-03 0. -1.
    9900012    2    1    2    0    0 -0.24084363307E+02 -0.31992232220E+02 -0.20628963695E+02  0.46142316284E+02  0.99999865291E+01 0.  0.
        -12    1    1    2    0    0  0.24084363307E+02  0.31992232220E+02  0.20628963695E+02  0.45045683716E+02  0.00000000000E+00 0.  1.
         11    1    3    3    0    0 -0.64826129722E+01 -0.16122460201E+02 -0.77724146907E+01  0.19035977103E+02  0.51100000000E-03 0. -1.
        -11    1    3    3    0    0 -0.58292655336E+01 -0.65801334350E+01 -0.58077428287E+01  0.10536050954E+02  0.51100000000E-03 0.  1.
         12    1    3    3    0    0 -0.11772484801E+02 -0.92896385845E+01 -0.70488061754E+01  0.16570288227E+02  0.00000000000E+00 0. -1.
</event>
<event>
 7    1  0.1541705E-008  0.4614232E+02  0.7816164E-02  0.1320468E+00
        -11   -1    0    0    0    0  0.00000000000E+00  0.00000000000E+00  0.45593999997E+02  0.45594000000E+02  0.51100000000E-03 0.  1.
         11   -1    0    0    0    0 -0.00000000000E+00 -0.00000000000E+00 -0.45593999997E+02  0.45594000000E+02  0.51100000000E-03 0. -1.
    9900012    2    1    2    0    0  0.41331460602E+02 -0.17248660875E+02 -0.48278028400E+01  0.46142316325E+02  0.99999869044E+01 0.  0.
        -12    1    1    2    0    0 -0.41331460602E+02  0.17248660875E+02  0.48278028400E+01  0.45045683675E+02  0.00000000000E+00 0.  1.
         11    1    3    3    0    0  0.10274601015E+02 -0.45831070877E+01 -0.57570128916E+00  0.11265155518E+02  0.51100000000E-03 0. -1.
        -11    1    3    3    0    0  0.20342074386E+02 -0.11859396678E+02 -0.51207393322E+01  0.24097038230E+02  0.51100000000E-03 0.  1.
        -12    1    3    3    0    0  0.10714785201E+02 -0.80615710912E+00  0.86863778138E+00  0.10780122577E+02  0.00000000000E+00 0.  1.
</event>
<event>
 7    1  0.1541705E-008  0.4614232E+02  0.7816164E-02  0.1320468E+00
        -11   -1    0    0    0    0  0.00000000000E+00  0.00000000000E+00  0.45593999997E+02  0.45594000000E+02  0.51100000000E-03 0.  1.
         11   -1    0    0    0    0 -0.00000000000E+00 -0.00000000000E+00 -0.45593999997E+02  0.45594000000E+02  0.51100000000E-03 0. -1.
    9900012    2    1    2    0    0  0.21472162522E+02 -0.24406195253E+02 -0.31183288589E+02  0.46142316330E+02  0.99999869460E+01 0.  0.
        -12    1    1    2    0    0 -0.21472162522E+02  0.24406195253E+02  0.31183288589E+02  0.45045683670E+02  0.00000000000E+00 0.  1.
         11    1    3    3    0    0  0.13475115339E+02 -0.20116777897E+02 -0.24763899938E+02  0.34634003909E+02  0.51100000000E-03 0. -1.
        -11    1    3    3    0    0  0.47489520247E+01 -0.87114308592E+00 -0.30118580595E+01  0.56905821180E+01  0.51100000000E-03 0.  1.
         12    1    3    3    0    0  0.32480951579E+01 -0.34182742699E+01 -0.34075305913E+01  0.58177303022E+01  0.00000000000E+00 0. -1.
</event>
<event>
 7    1  0.1541705E-008  0.4614232E+02  0.7816164E-02  0.1320468E+00
        -11   -1    0    0    0    0  0.00000000000E+00  0.00000000000E+00  0.45593999997E+02  0.45594000000E+02  0.51100000000E-03 0. -1.
         11   -1    0    0    0    0 -0.00000000000E+00 -0.00000000000E+00 -0.45593999997E+02  0.45594000000E+02  0.51100000000E-03 0.  1.
    9900012    2    1    2    0    0 -0.30164583572E+02  0.11782906502E+02  0.31310933722E+02  0.46142316986E+02  0.99999929303E+01 0.  0.
        -12    1    1    2    0    0  0.30164583572E+02 -0.11782906502E+02 -0.31310933722E+02  0.45045683014E+02  0.00000000000E+00 0.  1.
         11    1    3    3    0    0 -0.56116771827E+01  0.57295432334E+01  0.58321243068E+01  0.99162624339E+01  0.51100000000E-03 0.  1.
        -11    1    3    3    0    0 -0.15819685869E+02  0.24203445449E+01  0.13322231469E+02  0.20823121291E+02  0.51100000000E-03 0. -1.
         12    1    3    3    0    0 -0.87332205197E+01  0.36330187234E+01  0.12156577946E+02  0.15402933261E+02  0.00000000000E+00 0. -1.
</event>
<event>
 7    1  0.1541705E-008  0.4614232E+02  0.7816164E-02  0.1320468E+00
        -11   -1    0    0    0    0  0.00000000000E+00  0.00000000000E+00  0.45593999997E+02  0.45594000000E+02  0.51100000000E-03 0.  1.
         11   -1    0    0    0    0 -0.00000000000E+00 -0.00000000000E+00 -0.45593999997E+02  0.45594000000E+02  0.51100000000E-03 0. -1.
    9900012    2    1    2    0    0 -0.13678921568E+02 -0.16370215059E+02 -0.39673877581E+02  0.46142318756E+02  0.10000009077E+02 0.  0.
        -12    1    1    2    0    0  0.13678921568E+02  0.16370215059E+02  0.39673877581E+02  0.45045681244E+02  0.00000000000E+00 0.  1.
         11    1    3    3    0    0 -0.53650591026E+01 -0.44400328530E+01 -0.10535062185E+02  0.12628748411E+02  0.51100000000E-03 0. -1.
        -11    1    3    3    0    0 -0.83575086878E+01 -0.12374951908E+02 -0.29414918913E+02  0.32988253078E+02  0.51100000000E-03 0.  1.
        -12    1    3    3    0    0  0.43646222193E-01  0.44476970169E+00  0.27610351698E+00  0.52531726827E+00  0.00000000000E+00 0.  1.
</event>
<event>
 7    1  0.1541705E-008  0.4614232E+02  0.7816164E-02  0.1320468E+00
        -11   -1    0    0    0    0  0.00000000000E+00  0.00000000000E+00  0.45593999997E+02  0.45594000000E+02  0.51100000000E-03 0.  1.
         11   -1    0    0    0    0 -0.00000000000E+00 -0.00000000000E+00 -0.45593999997E+02  0.45594000000E+02  0.51100000000E-03 0. -1.
    9900012    2    1    2    0    0 -0.11004502777E+01  0.14965525952E+02 -0.42472762302E+02  0.46142317683E+02  0.99999992911E+01 0.  0.
        -12    1    1    2    0    0  0.11004502777E+01 -0.14965525952E+02  0.42472762302E+02  0.45045682317E+02  0.00000000000E+00 0.  1.
         11    1    3    3    0    0 -0.94069818024E+00  0.77582218749E+01 -0.18798800661E+02  0.20358532027E+02  0.51100000000E-03 0. -1.
        -11    1    3    3    0    0 -0.58752083063E+00  0.10768582025E+01  0.97742856119E-01  0.12305926384E+01  0.51100000000E-03 0.  1.
        -12    1    3    3    0    0  0.42776873318E+00  0.61304458744E+01 -0.23771704496E+02  0.24553193018E+02  0.00000000000E+00 0.  1.
</event>
<event>
 7    1  0.1541705E-008  0.4614232E+02  0.7816164E-02  0.1320468E+00
        -11   -1    0    0    0    0  0.00000000000E+00  0.00000000000E+00  0.45593999997E+02  0.45594000000E+02  0.51100000000E-03 0.  1.
         11   -1    0    0    0    0 -0.00000000000E+00 -0.00000000000E+00 -0.45593999997E+02  0.45594000000E+02  0.51100000000E-03 0. -1.
    9900012    2    1    2    0    0  0.23440438617E+02 -0.37820315791E+02 -0.70202025219E+01  0.46142315495E+02  0.99999793368E+01 0.  0.
        -12    1    1    2    0    0 -0.23440438617E+02  0.37820315791E+02  0.70202025219E+01  0.45045684505E+02  0.00000000000E+00 0.  1.
         11    1    3    3    0    0  0.84624984479E+01 -0.13779077985E+02 -0.47611430385E+01  0.16856611563E+02  0.51100000000E-03 0. -1.
        -11    1    3    3    0    0  0.12087118873E+02 -0.14698423047E+02  0.77571960283E+00  0.19045834818E+02  0.51100000000E-03 0.  1.
        -12    1    3    3    0    0  0.28908212953E+01 -0.93428147588E+01 -0.30347790862E+01  0.10239869114E+02  0.00000000000E+00 0.  1.
</event>
<event>
 7    1  0.1541705E-008  0.4614232E+02  0.7816164E-02  0.1320468E+00
        -11   -1    0    0    0    0  0.00000000000E+00  0.00000000000E+00  0.45593999997E+02  0.45594000000E+02  0.51100000000E-03 0.  1.
         11   -1    0    0    0    0 -0.00000000000E+00 -0.00000000000E+00 -0.45593999997E+02  0.45594000000E+02  0.51100000000E-03 0. -1.
    9900012    2    1    2    0    0  0.10896111129E+02 -0.37511418836E+02 -0.22433943459E+02  0.46142316523E+02  0.99999887062E+01 0.  0.
        -12    1    1    2    0    0 -0.10896111129E+02  0.37511418836E+02  0.22433943459E+02  0.45045683477E+02  0.00000000000E+00 0.  1.
         11    1    3    3    0    0  0.86809961265E+01 -0.15176522174E+02 -0.90027654672E+01  0.19665612255E+02  0.51100000000E-03 0. -1.
        -11    1    3    3    0    0  0.13161581856E+01 -0.11391516774E+02 -0.92290201396E+01  0.14719841704E+02  0.51100000000E-03 0.  1.
        -12    1    3    3    0    0  0.89895681727E+00 -0.10943379888E+02 -0.42021578518E+01  0.11756862564E+02  0.00000000000E+00 0.  1.
</event>
<event>
 7    1  0.1541705E-008  0.4614232E+02  0.7816164E-02  0.1320468E+00
        -11   -1    0    0    0    0  0.00000000000E+00  0.00000000000E+00  0.45593999997E+02  0.45594000000E+02  0.51100000000E-03 0.  1.
         11   -1    0    0    0    0 -0.00000000000E+00 -0.00000000000E+00 -0.45593999997E+02  0.45594000000E+02  0.51100000000E-03 0. -1.
    9900012    2    1    2    0    0 -0.57896134011E+01 -0.25613480510E+02 -0.36599773616E+02  0.46142318343E+02  0.10000005306E+02 0.  0.
        -12    1    1    2    0    0  0.57896134011E+01  0.25613480510E+02  0.36599773616E+02  0.45045681657E+02  0.00000000000E+00 0.  1.
         11    1    3    3    0    0 -0.20853991328E+01 -0.96426499754E+01 -0.13035397150E+02  0.16347818424E+02  0.51100000000E-03 0. -1.
        -11    1    3    3    0    0 -0.45180290679E+01 -0.46499023826E+01 -0.57182655534E+01  0.86448100052E+01  0.51100000000E-03 0.  1.
        -12    1    3    3    0    0  0.81381479956E+00 -0.11320928152E+02 -0.17846110913E+02  0.21149689914E+02  0.00000000000E+00 0.  1.
</event>
<event>
 7    1  0.1541705E-008  0.4614232E+02  0.7816164E-02  0.1320468E+00
        -11   -1    0    0    0    0  0.00000000000E+00  0.00000000000E+00  0.45593999997E+02  0.45594000000E+02  0.51100000000E-03 0.  1.
         11   -1    0    0    0    0 -0.00000000000E+00 -0.00000000000E+00 -0.45593999997E+02  0.45594000000E+02  0.51100000000E-03 0. -1.
    9900012    2    1    2    0    0 -0.30774554483E+02  0.25719680944E+02 -0.20507032752E+02  0.46142316702E+02  0.99999903459E+01 0.  0.
        -12    1    1    2    0    0  0.30774554483E+02 -0.25719680944E+02  0.20507032752E+02  0.45045683298E+02  0.00000000000E+00 0.  1.
         11    1    3    3    0    0 -0.18046072229E+02  0.15376712907E+02 -0.13410854058E+02  0.27238851472E+02  0.51100000000E-03 0. -1.
        -11    1    3    3    0    0 -0.81029197049E+01  0.30070421918E+01 -0.49860094395E+01  0.99779707797E+01  0.51100000000E-03 0.  1.
        -12    1    3    3    0    0 -0.46255625490E+01  0.73359258456E+01 -0.21101692543E+01  0.89254944507E+01  0.00000000000E+00 0.  1.
</event>
<event>
 7    1  0.1541705E-008  0.4614232E+02  0.7816164E-02  0.1320468E+00
        -11   -1    0    0    0    0  0.00000000000E+00  0.00000000000E+00  0.45593999997E+02  0.45594000000E+02  0.51100000000E-03 0.  1.
         11   -1    0    0    0    0 -0.00000000000E+00 -0.00000000000E+00 -0.45593999997E+02  0.45594000000E+02  0.51100000000E-03 0. -1.
    9900012    2    1    2    0    0  0.22661235333E+02  0.15561238642E+02 -0.35685146103E+02  0.46142318884E+02  0.10000010235E+02 0.  0.
        -12    1    1    2    0    0 -0.22661235333E+02 -0.15561238642E+02  0.35685146103E+02  0.45045681116E+02  0.00000000000E+00 0.  1.
         11    1    3    3    0    0  0.12941103090E+02  0.53951345594E+01 -0.11490399289E+02  0.18127572981E+02  0.51100000000E-03 0. -1.
        -11    1    3    3    0    0  0.34804850859E+01  0.39812990952E+01 -0.10237678790E+02  0.11522785522E+02  0.51100000000E-03 0.  1.
         12    1    3    3    0    0  0.62396471567E+01  0.61848049877E+01 -0.13957068024E+02  0.16491960381E+02  0.00000000000E+00 0. -1.
</event>
<event>
 7    1  0.1541705E-008  0.4614232E+02  0.7816164E-02  0.1320468E+00
        -11   -1    0    0    0    0  0.00000000000E+00  0.00000000000E+00  0.45593999997E+02  0.45594000000E+02  0.51100000000E-03 0. -1.
         11   -1    0    0    0    0 -0.00000000000E+00 -0.00000000000E+00 -0.45593999997E+02  0.45594000000E+02  0.51100000000E-03 0.  1.
    9900012    2    1    2    0    0 -0.25889583531E+02  0.34858796717E+02  0.11987794932E+02  0.46142317950E+02  0.10000001725E+02 0.  0.
        -12    1    1    2    0    0  0.25889583531E+02 -0.34858796717E+02 -0.11987794932E+02  0.45045682050E+02  0.00000000000E+00 0.  1.
         11    1    3    3    0    0 -0.20313493365E+02  0.21396385554E+02  0.10618655377E+02  0.31356006917E+02  0.51100000000E-03 0. -1.
        -11    1    3    3    0    0 -0.41382280701E+01  0.84785656936E+01  0.17088874227E+01  0.95880813652E+01  0.51100000000E-03 0.  1.
         12    1    3    3    0    0 -0.14378620958E+01  0.49838454698E+01 -0.33974786748E+00  0.51982296685E+01  0.00000000000E+00 0. -1.
</event>
<event>
 7    1  0.1541705E-008  0.4614232E+02  0.7816164E-02  0.1320468E+00
        -11   -1    0    0    0    0  0.00000000000E+00  0.00000000000E+00  0.45593999997E+02  0.45594000000E+02  0.51100000000E-03 0.  1.
         11   -1    0    0    0    0 -0.00000000000E+00 -0.00000000000E+00 -0.45593999997E+02  0.45594000000E+02  0.51100000000E-03 0. -1.
    9900012    2    1    2    0    0  0.34658546666E+02 -0.23286590548E+02 -0.16900689578E+02  0.46142318026E+02  0.10000002412E+02 0.  0.
        -12    1    1    2    0    0 -0.34658546666E+02  0.23286590548E+02  0.16900689578E+02  0.45045681974E+02  0.00000000000E+00 0.  1.
         11    1    3    3    0    0  0.15389878004E+02 -0.85135292972E+01 -0.59493916655E+01  0.18566738742E+02  0.51100000000E-03 0. -1.
        -11    1    3    3    0    0  0.57107152153E+00 -0.26366773189E+01  0.91112077745E-01  0.26993502252E+01  0.51100000000E-03 0.  1.
         12    1    3    3    0    0  0.18697597140E+02 -0.12136383932E+02 -0.11042409991E+02  0.24876229058E+02  0.00000000000E+00 0. -1.
</event>
<event>
 7    1  0.1541705E-008  0.4614233E+02  0.7816164E-02  0.1320468E+00
        -11   -1    0    0    0    0  0.00000000000E+00  0.00000000000E+00  0.45593999997E+02  0.45594000000E+02  0.51100000000E-03 0.  1.
         11   -1    0    0    0    0 -0.00000000000E+00 -0.00000000000E+00 -0.45593999997E+02  0.45594000000E+02  0.51100000000E-03 0. -1.
    9900012    2    1    2    0    0  0.43269361859E+02  0.11522202734E+02 -0.49105244202E+01  0.46142333376E+02  0.10000142385E+02 0.  0.
        -12    1    1    2    0    0 -0.43269361859E+02 -0.11522202734E+02  0.49105244202E+01  0.45045666624E+02  0.00000000000E+00 0.  1.
         11    1    3    3    0    0  0.32271205130E+02  0.59192904223E+01 -0.46863937165E+01  0.33142585384E+02  0.51100000000E-03 0. -1.
        -11    1    3    3    0    0  0.20740776123E+01  0.30586354234E+01 -0.40987975602E+00  0.37182052486E+01  0.51100000000E-03 0.  1.
        -12    1    3    3    0    0  0.89240791172E+01  0.25442768883E+01  0.18574905241E+00  0.92815427427E+01  0.00000000000E+00 0.  1.
</event>
<event>
 7    1  0.1541705E-008  0.4614232E+02  0.7816164E-02  0.1320468E+00
        -11   -1    0    0    0    0  0.00000000000E+00  0.00000000000E+00  0.45593999997E+02  0.45594000000E+02  0.51100000000E-03 0. -1.
         11   -1    0    0    0    0 -0.00000000000E+00 -0.00000000000E+00 -0.45593999997E+02  0.45594000000E+02  0.51100000000E-03 0.  1.
    9900012    2    1    2    0    0 -0.21831262631E+02 -0.22896745376E+02  0.32066315359E+02  0.46142316993E+02  0.99999929930E+01 0.  0.
        -12    1    1    2    0    0  0.21831262631E+02  0.22896745376E+02 -0.32066315359E+02  0.45045683007E+02  0.00000000000E+00 0.  1.
         11    1    3    3    0    0 -0.63459232724E+01 -0.12936985089E+02  0.12928394880E+02  0.19359228285E+02  0.51100000000E-03 0. -1.
        -11    1    3    3    0    0 -0.92462113040E+00  0.12653195445E+00  0.16270425381E+01  0.18756871413E+01  0.51100000000E-03 0.  1.
         12    1    3    3    0    0 -0.14560718228E+02 -0.10086292242E+02  0.17510877942E+02  0.24907401566E+02  0.00000000000E+00 0. -1.
</event>
<event>
 7    1  0.1541705E-008  0.4614232E+02  0.7816164E-02  0.1320468E+00
        -11   -1    0    0    0    0  0.00000000000E+00  0.00000000000E+00  0.45593999997E+02  0.45594000000E+02  0.51100000000E-03 0.  1.
         11   -1    0    0    0    0 -0.00000000000E+00 -0.00000000000E+00 -0.45593999997E+02  0.45594000000E+02  0.51100000000E-03 0. -1.
    9900012    2    1    2    0    0 -0.41243693546E+02  0.17008811330E+02 -0.62266905677E+01  0.46142316571E+02  0.99999891490E+01 0.  0.
        -12    1    1    2    0    0  0.41243693546E+02 -0.17008811330E+02  0.62266905677E+01  0.45045683429E+02  0.00000000000E+00 0.  1.
         11    1    3    3    0    0 -0.45259391862E+01  0.41561482464E+01  0.40850325651E+00  0.61582926964E+01  0.51100000000E-03 0. -1.
        -11    1    3    3    0    0 -0.13749412478E+02  0.61089861444E+01 -0.55000201464E+01  0.16019247082E+02  0.51100000000E-03 0.  1.
         12    1    3    3    0    0 -0.22968341882E+02  0.67436769391E+01 -0.11351736778E+01  0.23964776793E+02  0.00000000000E+00 0. -1.
</event>
<event>
 7    1  0.1541705E-008  0.4614232E+02  0.7816164E-02  0.1320468E+00
        -11   -1    0    0    0    0  0.00000000000E+00  0.00000000000E+00  0.45593999997E+02  0.45594000000E+02  0.51100000000E-03 0. -1.
         11   -1    0    0    0    0 -0.00000000000E+00 -0.00000000000E+00 -0.45593999997E+02  0.45594000000E+02  0.51100000000E-03 0.  1.
    9900012    2    1    2    0    0  0.29708085534E+02 -0.31793712315E+02  0.11649172975E+02  0.46142315192E+02  0.99999765697E+01 0.  0.
        -12    1    1    2    0    0 -0.29708085534E+02  0.31793712315E+02 -0.11649172975E+02  0.45045684808E+02  0.00000000000E+00 0.  1.
         11    1    3    3    0    0  0.17360502209E+02 -0.16577154734E+02  0.10120429791E+02  0.26050186092E+02  0.51100000000E-03 0. -1.
        -11    1    3    3    0    0  0.10839629361E+02 -0.12864292425E+02 -0.16820505406E+00  0.16823075744E+02  0.51100000000E-03 0.  1.
        -12    1    3    3    0    0  0.15079539641E+01 -0.23522651560E+01  0.16969482374E+01  0.32690533557E+01  0.00000000000E+00 0.  1.
</event>
<event>
 7    1  0.1541705E-008  0.4614232E+02  0.7816164E-02  0.1320468E+00
        -11   -1    0    0    0    0  0.00000000000E+00  0.00000000000E+00  0.45593999997E+02  0.45594000000E+02  0.51100000000E-03 0. -1.
         11   -1    0    0    0    0 -0.00000000000E+00 -0.00000000000E+00 -0.45593999997E+02  0.45594000000E+02  0.51100000000E-03 0.  1.
    9900012    2    1    2    0    0  0.37140629263E+02  0.14330468826E+02  0.21079013768E+02  0.46142317629E+02  0.99999987982E+01 0.  0.
        -12    1    1    2    0    0 -0.37140629263E+02 -0.14330468826E+02 -0.21079013768E+02  0.45045682371E+02  0.00000000000E+00 0.  1.
         11    1    3    3    0    0  0.84931330081E+01  0.61819806772E+01  0.84959462540E+01  0.13510414368E+02  0.51100000000E-03 0. -1.
        -11    1    3    3    0    0  0.28581229563E+02  0.81175354603E+01  0.11998637475E+02  0.32042914456E+02  0.51100000000E-03 0.  1.
        -12    1    3    3    0    0  0.66266691656E-01  0.30952688587E-01  0.58443003811E+00  0.58898880533E+00  0.00000000000E+00 0.  1.
</event>
<event>
 7    1  0.1541705E-008  0.4614232E+02  0.7816164E-02  0.1320468E+00
        -11   -1    0    0    0    0  0.00000000000E+00  0.00000000000E+00  0.45593999997E+02  0.45594000000E+02  0.51100000000E-03 0. -1.
         11   -1    0    0    0    0 -0.00000000000E+00 -0.00000000000E+00 -0.45593999997E+02  0.45594000000E+02  0.51100000000E-03 0.  1.
    9900012    2    1    2    0    0  0.35343969159E+02 -0.39726668898E+01 -0.27642997388E+02  0.46142317158E+02  0.99999945019E+01 0.  0.
        -12    1    1    2    0    0 -0.35343969159E+02  0.39726668898E+01  0.27642997388E+02  0.45045682842E+02  0.00000000000E+00 0.  1.
         11    1    3    3    0    0  0.29928606137E+02 -0.27137050874E+01 -0.21460870029E+02  0.36927694259E+02  0.51100000000E-03 0. -1.
        -11    1    3    3    0    0  0.32100250593E+01 -0.23371956796E+01 -0.52641488662E+01  0.65937855647E+01  0.51100000000E-03 0.  1.
        -12    1    3    3    0    0  0.22053379622E+01  0.10782338772E+01 -0.91797849242E+00  0.26208373345E+01  0.00000000000E+00 0.  1.
</event>
<event>
 7    1  0.1541705E-008  0.4614232E+02  0.7816164E-02  0.1320468E+00
        -11   -1    0    0    0    0  0.00000000000E+00  0.00000000000E+00  0.45593999997E+02  0.45594000000E+02  0.51100000000E-03 0.  1.
         11   -1    0    0    0    0 -0.00000000000E+00 -0.00000000000E+00 -0.45593999997E+02  0.45594000000E+02  0.51100000000E-03 0. -1.
    9900012    2    1    2    0    0 -0.37932233791E+02  0.23844786069E+02 -0.46567382457E+01  0.46142318807E+02  0.10000009538E+02 0.  0.
        -12    1    1    2    0    0  0.37932233791E+02 -0.23844786069E+02  0.46567382457E+01  0.45045681193E+02  0.00000000000E+00 0.  1.
         11    1    3    3    0    0 -0.21977981890E+02  0.10322679618E+02  0.24077934360E+00  0.24282655897E+02  0.51100000000E-03 0. -1.
        -11    1    3    3    0    0 -0.10226701000E+02  0.11069488823E+02 -0.36293453162E+01  0.15501327164E+02  0.51100000000E-03 0.  1.
        -12    1    3    3    0    0 -0.57275509012E+01  0.24526176276E+01 -0.12681722731E+01  0.63583357466E+01  0.00000000000E+00 0.  1.
</event>
<event>
 7    1  0.1541705E-008  0.4614232E+02  0.7816164E-02  0.1320468E+00
        -11   -1    0    0    0    0  0.00000000000E+00  0.00000000000E+00  0.45593999997E+02  0.45594000000E+02  0.51100000000E-03 0.  1.
         11   -1    0    0    0    0 -0.00000000000E+00 -0.00000000000E+00 -0.45593999997E+02  0.45594000000E+02  0.51100000000E-03 0. -1.
    9900012    2    1    2    0    0 -0.15469118927E+02 -0.18113265553E+02 -0.38232570513E+02  0.46142317883E+02  0.10000001109E+02 0.  0.
        -12    1    1    2    0    0  0.15469118927E+02  0.18113265553E+02  0.38232570513E+02  0.45045682117E+02  0.00000000000E+00 0.  1.
         11    1    3    3    0    0 -0.77921968198E+00 -0.23716599486E+01 -0.79774569000E+01  0.83589337285E+01  0.51100000000E-03 0. -1.
        -11    1    3    3    0    0 -0.15310305181E+02 -0.13893468291E+02 -0.27354482843E+02  0.34288505913E+02  0.51100000000E-03 0.  1.
        -12    1    3    3    0    0  0.62040593606E+00 -0.18481373137E+01 -0.29006307700E+01  0.34948782411E+01  0.00000000000E+00 0.  1.
</event>
<event>
 7    1  0.1541705E-008  0.4614232E+02  0.7816164E-02  0.1320468E+00
        -11   -1    0    0    0    0  0.00000000000E+00  0.00000000000E+00  0.45593999997E+02  0.45594000000E+02  0.51100000000E-03 0.  1.
         11   -1    0    0    0    0 -0.00000000000E+00 -0.00000000000E+00 -0.45593999997E+02  0.45594000000E+02  0.51100000000E-03 0. -1.
    9900012    2    1    2    0    0  0.24674894490E+02 -0.34452416366E+02 -0.15273965445E+02  0.46142318387E+02  0.10000005709E+02 0.  0.
        -12    1    1    2    0    0 -0.24674894490E+02  0.34452416366E+02  0.15273965445E+02  0.45045681613E+02  0.00000000000E+00 0.  1.
         11    1    3    3    0    0  0.18939638183E+02 -0.23862798020E+02 -0.12670624127E+02  0.32995268447E+02  0.51100000000E-03 0. -1.
        -11    1    3    3    0    0  0.55897255374E-02 -0.29284677974E+00 -0.12525109776E+01  0.12863026438E+01  0.51100000000E-03 0.  1.
         12    1    3    3    0    0  0.57296665814E+01 -0.10296771566E+02 -0.13508303402E+01  0.11860747297E+02  0.00000000000E+00 0. -1.
</event>
<event>
 7    1  0.1541705E-008  0.4614232E+02  0.7816164E-02  0.1320468E+00
        -11   -1    0    0    0    0  0.00000000000E+00  0.00000000000E+00  0.45593999997E+02  0.45594000000E+02  0.51100000000E-03 0. -1.
         11   -1    0    0    0    0 -0.00000000000E+00 -0.00000000000E+00 -0.45593999997E+02  0.45594000000E+02  0.51100000000E-03 0.  1.
    9900012    2    1    2    0    0 -0.38667697282E+02 -0.10137201257E+01  0.23084519228E+02  0.46142317969E+02  0.10000001900E+02 0.  0.
        -12    1    1    2    0    0  0.38667697282E+02  0.10137201257E+01 -0.23084519228E+02  0.45045682031E+02  0.00000000000E+00 0.  1.
         11    1    3    3    0    0 -0.27796168026E+02 -0.19304087984E+01  0.19516148542E+02  0.34018134711E+02  0.51100000000E-03 0. -1.
        -11    1    3    3    0    0 -0.91615726673E+01 -0.61520725580E+00  0.35022394556E+01  0.98274399093E+01  0.51100000000E-03 0.  1.
        -12    1    3    3    0    0 -0.17099565891E+01  0.15318959285E+01  0.66131230702E-01  0.22967433492E+01  0.00000000000E+00 0.  1.
</event>
<event>
 7    1  0.1541705E-008  0.4614232E+02  0.7816164E-02  0.1320468E+00
        -11   -1    0    0    0    0  0.00000000000E+00  0.00000000000E+00  0.45593999997E+02  0.45594000000E+02  0.51100000000E-03 0.  1.
         11   -1    0    0    0    0 -0.00000000000E+00 -0.00000000000E+00 -0.45593999997E+02  0.45594000000E+02  0.51100000000E-03 0. -1.
    9900012    2    1    2    0    0  0.29285493401E+02 -0.21793913017E+02 -0.26391262263E+02  0.46142317719E+02  0.99999996177E+01 0.  0.
        -12    1    1    2    0    0 -0.29285493401E+02  0.21793913017E+02  0.26391262263E+02  0.45045682281E+02  0.00000000000E+00 0.  1.
         11    1    3    3    0    0  0.25856323129E+02 -0.14439718427E+02 -0.20500091806E+02  0.36018171501E+02  0.51100000000E-03 0. -1.
        -11    1    3    3    0    0  0.22023602867E+00 -0.31446243344E+00 -0.72757343610E+00  0.82265053115E+00  0.51100000000E-03 0.  1.
         12    1    3    3    0    0  0.32089342434E+01 -0.70397321568E+01 -0.51635970205E+01  0.93014956866E+01  0.00000000000E+00 0. -1.
</event>
<event>
 7    1  0.1541705E-008  0.4614232E+02  0.7816164E-02  0.1320468E+00
        -11   -1    0    0    0    0  0.00000000000E+00  0.00000000000E+00  0.45593999997E+02  0.45594000000E+02  0.51100000000E-03 0.  1.
         11   -1    0    0    0    0 -0.00000000000E+00 -0.00000000000E+00 -0.45593999997E+02  0.45594000000E+02  0.51100000000E-03 0. -1.
    9900012    2    1    2    0    0 -0.33552054120E+02 -0.58950012128E+01 -0.29472390339E+02  0.46142321325E+02  0.10000032502E+02 0.  0.
        -12    1    1    2    0    0  0.33552054120E+02  0.58950012128E+01  0.29472390339E+02  0.45045678675E+02  0.00000000000E+00 0.  1.
         11    1    3    3    0    0 -0.85304192438E+01  0.93470285036E+00 -0.10587991397E+02  0.13628913529E+02  0.51100000000E-03 0. -1.
        -11    1    3    3    0    0 -0.94221553823E+01 -0.33660952767E+01 -0.43403799596E+01  0.10906260033E+02  0.51100000000E-03 0.  1.
         12    1    3    3    0    0 -0.15599479494E+02 -0.34636087865E+01 -0.14544018982E+02  0.21607147763E+02  0.00000000000E+00 0. -1.
</event>
<event>
 7    1  0.1541705E-008  0.4614232E+02  0.7816164E-02  0.1320468E+00
        -11   -1    0    0    0    0  0.00000000000E+00  0.00000000000E+00  0.45593999997E+02  0.45594000000E+02  0.51100000000E-03 0.  1.
         11   -1    0    0    0    0 -0.00000000000E+00 -0.00000000000E+00 -0.45593999997E+02  0.45594000000E+02  0.51100000000E-03 0. -1.
    9900012    2    1    2    0    0  0.18879177949E+02 -0.28641163477E+02 -0.29195444052E+02  0.46142316980E+02  0.99999928762E+01 0.  0.
        -12    1    1    2    0    0 -0.18879177949E+02  0.28641163477E+02  0.29195444052E+02  0.45045683020E+02  0.00000000000E+00 0.  1.
         11    1    3    3    0    0  0.15074532865E+02 -0.24333848719E+02 -0.26287545200E+02  0.38864029224E+02  0.51100000000E-03 0. -1.
        -11    1    3    3    0    0  0.40154368242E+01 -0.35884097966E+01 -0.13533809528E+01  0.55526622464E+01  0.51100000000E-03 0.  1.
        -12    1    3    3    0    0 -0.21079173993E+00 -0.71890496046E+00 -0.15545178996E+01  0.17256255098E+01  0.00000000000E+00 0.  1.
</event>
<event>
 7    1  0.1541705E-008  0.4614232E+02  0.7816164E-02  0.1320468E+00
        -11   -1    0    0    0    0  0.00000000000E+00  0.00000000000E+00  0.45593999997E+02  0.45594000000E+02  0.51100000000E-03 0.  1.
         11   -1    0    0    0    0 -0.00000000000E+00 -0.00000000000E+00 -0.45593999997E+02  0.45594000000E+02  0.51100000000E-03 0. -1.
    9900012    2    1    2    0    0  0.18356779653E+02  0.30318385784E+02 -0.27801756578E+02  0.46142317137E+02  0.99999943084E+01 0.  0.
        -12    1    1    2    0    0 -0.18356779653E+02 -0.30318385784E+02  0.27801756578E+02  0.45045682863E+02  0.00000000000E+00 0.  1.
         11    1    3    3    0    0  0.65265673559E+01  0.14352807132E+02 -0.79309268200E+01  0.17649327311E+02  0.51100000000E-03 0. -1.
        -11    1    3    3    0    0  0.44464819689E+01  0.48202959956E+01 -0.96360781517E+01  0.11655919431E+02  0.51100000000E-03 0.  1.
         12    1    3    3    0    0  0.73837303282E+01  0.11145282656E+02 -0.10234751606E+02  0.16837070395E+02  0.00000000000E+00 0. -1.
</event>
<event>
 7    1  0.1541705E-008  0.4614232E+02  0.7816164E-02  0.1320468E+00
        -11   -1    0    0    0    0  0.00000000000E+00  0.00000000000E+00  0.45593999997E+02  0.45594000000E+02  0.51100000000E-03 0.  1.
         11   -1    0    0    0    0 -0.00000000000E+00 -0.00000000000E+00 -0.45593999997E+02  0.45594000000E+02  0.51100000000E-03 0. -1.
    9900012    2    1    2    0    0 -0.17430451515E+01  0.42790658484E+01 -0.44808088892E+02  0.46142318286E+02  0.10000004790E+02 0.  0.
        -12    1    1    2    0    0  0.17430451515E+01 -0.42790658484E+01  0.44808088892E+02  0.45045681714E+02  0.00000000000E+00 0.  1.
         11    1    3    3    0    0  0.65751845007E+00  0.43442365431E+01 -0.27882563357E+02  0.28226619728E+02  0.51100000000E-03 0. -1.
        -11    1    3    3    0    0 -0.23203715566E+00  0.96404516352E+00 -0.19088516433E+00  0.10097830094E+01  0.51100000000E-03 0.  1.
        -12    1    3    3    0    0 -0.21685264459E+01 -0.10292158582E+01 -0.16734640370E+02  0.16905915549E+02  0.00000000000E+00 0.  1.
</event>
<event>
 7    1  0.1541705E-008  0.4614232E+02  0.7816164E-02  0.1320468E+00
        -11   -1    0    0    0    0  0.00000000000E+00  0.00000000000E+00  0.45593999997E+02  0.45594000000E+02  0.51100000000E-03 0.  1.
         11   -1    0    0    0    0 -0.00000000000E+00 -0.00000000000E+00 -0.45593999997E+02  0.45594000000E+02  0.51100000000E-03 0. -1.
    9900012    2    1    2    0    0  0.19194849873E+02  0.37742688510E+02  0.15367513883E+02  0.46142320068E+02  0.10000021034E+02 0.  0.
        -12    1    1    2    0    0 -0.19194849873E+02 -0.37742688510E+02 -0.15367513883E+02  0.45045679932E+02  0.00000000000E+00 0.  1.
         11    1    3    3    0    0  0.75510920434E+00  0.62984197623E+00 -0.53606115589E+00  0.11199342166E+01  0.51100000000E-03 0. -1.
        -11    1    3    3    0    0  0.86206890791E+01  0.23231689108E+02  0.12203037027E+02  0.27621400615E+02  0.51100000000E-03 0.  1.
        -12    1    3    3    0    0  0.98190515896E+01  0.13881157426E+02  0.37005380121E+01  0.17400985236E+02  0.00000000000E+00 0.  1.
</event>
<event>
 7    1  0.1541705E-008  0.4614232E+02  0.7816164E-02  0.1320468E+00
        -11   -1    0    0    0    0  0.00000000000E+00  0.00000000000E+00  0.45593999997E+02  0.45594000000E+02  0.51100000000E-03 0. -1.
         11   -1    0    0    0    0 -0.00000000000E+00 -0.00000000000E+00 -0.45593999997E+02  0.45594000000E+02  0.51100000000E-03 0.  1.
    9900012    2    1    2    0    0 -0.50269942560E-01  0.44223785053E+02  0.85655015533E+01  0.46142317540E+02  0.99999979822E+01 0.  0.
        -12    1    1    2    0    0  0.50269942560E-01 -0.44223785053E+02 -0.85655015533E+01  0.45045682460E+02  0.00000000000E+00 0.  1.
         11    1    3    3    0    0 -0.10932338070E+01  0.33628295073E+02  0.61326564430E+01  0.34200392761E+02  0.51100000000E-03 0. -1.
        -11    1    3    3    0    0  0.21555295781E+01  0.28814742223E+01  0.20437806890E+01  0.41383863065E+01  0.51100000000E-03 0.  1.
        -12    1    3    3    0    0 -0.11125657137E+01  0.77140157570E+01  0.38906442118E+00  0.78035384724E+01  0.00000000000E+00 0.  1.
</event>
<event>
 7    1  0.1541705E-008  0.4614232E+02  0.7816164E-02  0.1320468E+00
        -11   -1    0    0    0    0  0.00000000000E+00  0.00000000000E+00  0.45593999997E+02  0.45594000000E+02  0.51100000000E-03 0.  1.
         11   -1    0    0    0    0 -0.00000000000E+00 -0.00000000000E+00 -0.45593999997E+02  0.45594000000E+02  0.51100000000E-03 0. -1.
    9900012    2    1    2    0    0 -0.21132840486E+01 -0.40104419070E+01 -0.44817004906E+02  0.46142317160E+02  0.99999945174E+01 0.  0.
        -12    1    1    2    0    0  0.21132840486E+01  0.40104419070E+01  0.44817004906E+02  0.45045682840E+02  0.00000000000E+00 0.  1.
         11    1    3    3    0    0 -0.17690781291E+01  0.38513753530E+00 -0.15219084428E+02  0.15326398776E+02  0.51100000000E-03 0. -1.
        -11    1    3    3    0    0  0.18357684222E+01  0.78553883256E+00 -0.15666603225E+02  0.15793339540E+02  0.51100000000E-03 0.  1.
        -12    1    3    3    0    0 -0.21799743418E+01 -0.51811182749E+01 -0.13931317253E+02  0.15022578844E+02  0.00000000000E+00 0.  1.
</event>
<event>
 7    1  0.1541705E-008  0.4614232E+02  0.7816164E-02  0.1320468E+00
        -11   -1    0    0    0    0  0.00000000000E+00  0.00000000000E+00  0.45593999997E+02  0.45594000000E+02  0.51100000000E-03 0.  1.
         11   -1    0    0    0    0 -0.00000000000E+00 -0.00000000000E+00 -0.45593999997E+02  0.45594000000E+02  0.51100000000E-03 0. -1.
    9900012    2    1    2    0    0 -0.43361346977E+02 -0.11965365320E+02  0.23952211452E+01  0.46142318040E+02  0.10000002545E+02 0.  0.
        -12    1    1    2    0    0  0.43361346977E+02  0.11965365320E+02 -0.23952211452E+01  0.45045681960E+02  0.00000000000E+00 0.  1.
         11    1    3    3    0    0 -0.23677379173E+02 -0.71533148694E+01  0.29831283769E+01  0.24913595752E+02  0.51100000000E-03 0. -1.
        -11    1    3    3    0    0 -0.23289136824E+01  0.44949178865E+00  0.17443720543E+01  0.29442683188E+01  0.51100000000E-03 0.  1.
        -12    1    3    3    0    0 -0.17355054122E+02 -0.52615422388E+01 -0.23322792860E+01  0.18284453970E+02  0.00000000000E+00 0.  1.
</event>
<event>
 7    1  0.1541705E-008  0.4614232E+02  0.7816164E-02  0.1320468E+00
        -11   -1    0    0    0    0  0.00000000000E+00  0.00000000000E+00  0.45593999997E+02  0.45594000000E+02  0.51100000000E-03 0.  1.
         11   -1    0    0    0    0 -0.00000000000E+00 -0.00000000000E+00 -0.45593999997E+02  0.45594000000E+02  0.51100000000E-03 0. -1.
    9900012    2    1    2    0    0 -0.29341506730E+02 -0.29152660922E+02  0.17841296368E+02  0.46142317497E+02  0.99999975951E+01 0.  0.
        -12    1    1    2    0    0  0.29341506730E+02  0.29152660922E+02 -0.17841296368E+02  0.45045682503E+02  0.00000000000E+00 0.  1.
         11    1    3    3    0    0 -0.84430478296E+01 -0.77627446172E+01  0.30245767230E+00  0.11473305607E+02  0.51100000000E-03 0. -1.
        -11    1    3    3    0    0 -0.14628370471E+02 -0.15098599685E+02  0.12258083072E+02  0.24335520047E+02  0.51100000000E-03 0.  1.
         12    1    3    3    0    0 -0.62700884291E+01 -0.62913166195E+01  0.52807556234E+01  0.10333491843E+02  0.00000000000E+00 0. -1.
</event>
<event>
 7    1  0.1541705E-008  0.4614232E+02  0.7816164E-02  0.1320468E+00
        -11   -1    0    0    0    0  0.00000000000E+00  0.00000000000E+00  0.45593999997E+02  0.45594000000E+02  0.51100000000E-03 0.  1.
         11   -1    0    0    0    0 -0.00000000000E+00 -0.00000000000E+00 -0.45593999997E+02  0.45594000000E+02  0.51100000000E-03 0. -1.
    9900012    2    1    2    0    0  0.75735520878E+01  0.14918422031E+02 -0.41823384199E+02  0.46142317932E+02  0.10000001557E+02 0.  0.
        -12    1    1    2    0    0 -0.75735520878E+01 -0.14918422031E+02  0.41823384199E+02  0.45045682068E+02  0.00000000000E+00 0.  1.
         11    1    3    3    0    0  0.77517420496E+01  0.78580910805E+01 -0.31169984223E+02  0.33066705566E+02  0.51100000000E-03 0. -1.
        -11    1    3    3    0    0 -0.79471926171E+00  0.14054144216E+01 -0.10891003895E+01  0.19475390422E+01  0.51100000000E-03 0.  1.
         12    1    3    3    0    0  0.61652929989E+00  0.56549165286E+01 -0.95642995863E+01  0.11128073324E+02  0.00000000000E+00 0. -1.
</event>
<event>
 7    1  0.1541705E-008  0.4614232E+02  0.7816164E-02  0.1320468E+00
        -11   -1    0    0    0    0  0.00000000000E+00  0.00000000000E+00  0.45593999997E+02  0.45594000000E+02  0.51100000000E-03 0. -1.
         11   -1    0    0    0    0 -0.00000000000E+00 -0.00000000000E+00 -0.45593999997E+02  0.45594000000E+02  0.51100000000E-03 0.  1.
    9900012    2    1    2    0    0  0.27109575953E+02 -0.35484563410E+01  0.35799340418E+02  0.46142318463E+02  0.10000006402E+02 0.  0.
        -12    1    1    2    0    0 -0.27109575953E+02  0.35484563410E+01 -0.35799340418E+02  0.45045681537E+02  0.00000000000E+00 0.  1.
         11    1    3    3    0    0  0.15781997183E+02  0.16947246419E+01  0.23038300683E+02  0.27976898065E+02  0.51100000000E-03 0. -1.
        -11    1    3    3    0    0  0.32904675499E+01 -0.18184418277E+01  0.61561099206E+01  0.72132930755E+01  0.51100000000E-03 0.  1.
         12    1    3    3    0    0  0.80371112200E+01 -0.34247391551E+01  0.66049298138E+01  0.10952127322E+02  0.00000000000E+00 0. -1.
</event>
<event>
 7    1  0.1541705E-008  0.4614232E+02  0.7816164E-02  0.1320468E+00
        -11   -1    0    0    0    0  0.00000000000E+00  0.00000000000E+00  0.45593999997E+02  0.45594000000E+02  0.51100000000E-03 0.  1.
         11   -1    0    0    0    0 -0.00000000000E+00 -0.00000000000E+00 -0.45593999997E+02  0.45594000000E+02  0.51100000000E-03 0. -1.
    9900012    2    1    2    0    0 -0.16573668609E+02  0.40886757301E+02  0.90939578499E+01  0.46142317820E+02  0.10000000533E+02 0.  0.
        -12    1    1    2    0    0  0.16573668609E+02 -0.40886757301E+02 -0.90939578499E+01  0.45045682180E+02  0.00000000000E+00 0.  1.
         11    1    3    3    0    0 -0.99870248312E+01  0.12253427861E+02  0.26311017425E+01  0.16025288015E+02  0.51100000000E-03 0. -1.
        -11    1    3    3    0    0 -0.15384723866E+01  0.64675829991E+01  0.86004367479E+00  0.67034470623E+01  0.51100000000E-03 0.  1.
         12    1    3    3    0    0 -0.50481713913E+01  0.22165746441E+02  0.56028124326E+01  0.23413582742E+02  0.00000000000E+00 0. -1.
</event>
<event>
 7    1  0.1541705E-008  0.4614232E+02  0.7816164E-02  0.1320468E+00
        -11   -1    0    0    0    0  0.00000000000E+00  0.00000000000E+00  0.45593999997E+02  0.45594000000E+02  0.51100000000E-03 0. -1.
         11   -1    0    0    0    0 -0.00000000000E+00 -0.00000000000E+00 -0.45593999997E+02  0.45594000000E+02  0.51100000000E-03 0.  1.
    9900012    2    1    2    0    0 -0.11612077581E+02  0.42022518326E+02 -0.11330535153E+02  0.46142318530E+02  0.10000007013E+02 0.  0.
        -12    1    1    2    0    0  0.11612077581E+02 -0.42022518326E+02  0.11330535153E+02  0.45045681470E+02  0.00000000000E+00 0.  1.
         11    1    3    3    0    0 -0.71707808836E+00  0.19431184123E+02 -0.48439421658E+01  0.20038684922E+02  0.51100000000E-03 0. -1.
        -11    1    3    3    0    0 -0.94602264896E+01  0.16979777314E+02 -0.42622608728E+01  0.19899135430E+02  0.51100000000E-03 0.  1.
        -12    1    3    3    0    0 -0.14347730027E+01  0.56115568891E+01 -0.22243321143E+01  0.62044981782E+01  0.00000000000E+00 0.  1.
</event>
<event>
 7    1  0.1541705E-008  0.4614232E+02  0.7816164E-02  0.1320468E+00
        -11   -1    0    0    0    0  0.00000000000E+00  0.00000000000E+00  0.45593999997E+02  0.45594000000E+02  0.51100000000E-03 0. -1.
         11   -1    0    0    0    0 -0.00000000000E+00 -0.00000000000E+00 -0.45593999997E+02  0.45594000000E+02  0.51100000000E-03 0.  1.
    9900012    2    1    2    0    0 -0.41947361858E+02 -0.35581629280E+01  0.16027220019E+02  0.46142317945E+02  0.10000001675E+02 0.  0.
        -12    1    1    2    0    0  0.41947361858E+02  0.35581629280E+01 -0.16027220019E+02  0.45045682055E+02  0.00000000000E+00 0.  1.
         11    1    3    3    0    0 -0.34615530282E+02 -0.39873376694E+00  0.10272644826E+02  0.36109848480E+02  0.51100000000E-03 0. -1.
        -11    1    3    3    0    0 -0.58728363715E+01 -0.22615877542E+01  0.35005161003E+01  0.72012915124E+01  0.51100000000E-03 0.  1.
         12    1    3    3    0    0 -0.14589952048E+01 -0.89784140680E+00  0.22540590934E+01  0.28311779520E+01  0.00000000000E+00 0. -1.
</event>
<event>
 7    1  0.1541705E-008  0.4614232E+02  0.7816164E-02  0.1320468E+00
        -11   -1    0    0    0    0  0.00000000000E+00  0.00000000000E+00  0.45593999997E+02  0.45594000000E+02  0.51100000000E-03 0.  1.
         11   -1    0    0    0    0 -0.00000000000E+00 -0.00000000000E+00 -0.45593999997E+02  0.45594000000E+02  0.51100000000E-03 0. -1.
    9900012    2    1    2    0    0  0.19971983815E+02  0.33813054653E+02 -0.22066051814E+02  0.46142318241E+02  0.10000004378E+02 0.  0.
        -12    1    1    2    0    0 -0.19971983815E+02 -0.33813054653E+02  0.22066051814E+02  0.45045681759E+02  0.00000000000E+00 0.  1.
         11    1    3    3    0    0  0.55669216086E+01  0.95965240828E+01 -0.80351152541E+01  0.13698429402E+02  0.51100000000E-03 0. -1.
        -11    1    3    3    0    0  0.12046022479E+02  0.17525393463E+02 -0.13788379039E+02  0.25344929875E+02  0.51100000000E-03 0.  1.
        -12    1    3    3    0    0  0.23590397266E+01  0.66911371074E+01 -0.24255752063E+00  0.70989589640E+01  0.00000000000E+00 0.  1.
</event>
<event>
 7    1  0.1541705E-008  0.4614232E+02  0.7816164E-02  0.1320468E+00
        -11   -1    0    0    0    0  0.00000000000E+00  0.00000000000E+00  0.45593999997E+02  0.45594000000E+02  0.51100000000E-03 0.  1.
         11   -1    0    0    0    0 -0.00000000000E+00 -0.00000000000E+00 -0.45593999997E+02  0.45594000000E+02  0.51100000000E-03 0. -1.
    9900012    2    1    2    0    0  0.23510575031E+02 -0.37827810079E+02  0.67396345431E+01  0.46142322877E+02  0.10000046651E+02 0.  0.
        -12    1    1    2    0    0 -0.23510575031E+02  0.37827810079E+02 -0.67396345431E+01  0.45045677123E+02  0.00000000000E+00 0.  1.
         11    1    3    3    0    0  0.91647312093E+01 -0.18878698831E+02 -0.27865370860E+00  0.20987501419E+02  0.51100000000E-03 0. -1.
        -11    1    3    3    0    0  0.22285860120E+01 -0.96505166333E+00  0.11642156034E+01  0.26931985738E+01  0.51100000000E-03 0.  1.
        -12    1    3    3    0    0  0.12117257810E+02 -0.17984059585E+02  0.58540726483E+01  0.22461622884E+02  0.00000000000E+00 0.  1.
</event>
<event>
 7    1  0.1541705E-008  0.4614232E+02  0.7816164E-02  0.1320468E+00
        -11   -1    0    0    0    0  0.00000000000E+00  0.00000000000E+00  0.45593999997E+02  0.45594000000E+02  0.51100000000E-03 0. -1.
         11   -1    0    0    0    0 -0.00000000000E+00 -0.00000000000E+00 -0.45593999997E+02  0.45594000000E+02  0.51100000000E-03 0.  1.
    9900012    2    1    2    0    0  0.88868794239E+01 -0.42190858698E+02 -0.13041024563E+02  0.46142317574E+02  0.99999982907E+01 0.  0.
        -12    1    1    2    0    0 -0.88868794239E+01  0.42190858698E+02  0.13041024563E+02  0.45045682426E+02  0.00000000000E+00 0.  1.
         11    1    3    3    0    0  0.84664528022E+01 -0.24487562040E+02 -0.56120963662E+01  0.26510698663E+02  0.51100000000E-03 0. -1.
        -11    1    3    3    0    0  0.40738521093E+00 -0.10491256107E+00 -0.64684979349E+00  0.77161147737E+00  0.51100000000E-03 0.  1.
         12    1    3    3    0    0  0.13041410694E-01 -0.17598384097E+02 -0.67820784035E+01  0.18860007433E+02  0.00000000000E+00 0. -1.
</event>
<event>
 7    1  0.1541705E-008  0.4614232E+02  0.7816164E-02  0.1320468E+00
        -11   -1    0    0    0    0  0.00000000000E+00  0.00000000000E+00  0.45593999997E+02  0.45594000000E+02  0.51100000000E-03 0.  1.
         11   -1    0    0    0    0 -0.00000000000E+00 -0.00000000000E+00 -0.45593999997E+02  0.45594000000E+02  0.51100000000E-03 0. -1.
    9900012    2    1    2    0    0  0.39244978352E+02 -0.27864102341E+01 -0.21935841876E+02  0.46142316892E+02  0.99999920744E+01 0.  0.
        -12    1    1    2    0    0 -0.39244978352E+02  0.27864102341E+01  0.21935841876E+02  0.45045683108E+02  0.00000000000E+00 0.  1.
         11    1    3    3    0    0  0.25004933765E+02 -0.20395651006E+01 -0.13208021755E+02  0.28352396324E+02  0.51100000000E-03 0. -1.
        -11    1    3    3    0    0  0.64112444700E+01 -0.27952737855E+01 -0.61031498489E+01  0.92825669687E+01  0.51100000000E-03 0.  1.
        -12    1    3    3    0    0  0.78288001173E+01  0.20484286521E+01 -0.26246702721E+01  0.85073535989E+01  0.00000000000E+00 0.  1.
</event>
<event>
 7    1  0.1541705E-008  0.4614232E+02  0.7816164E-02  0.1320468E+00
        -11   -1    0    0    0    0  0.00000000000E+00  0.00000000000E+00  0.45593999997E+02  0.45594000000E+02  0.51100000000E-03 0.  1.
         11   -1    0    0    0    0 -0.00000000000E+00 -0.00000000000E+00 -0.45593999997E+02  0.45594000000E+02  0.51100000000E-03 0. -1.
    9900012    2    1    2    0    0  0.18965525069E+02 -0.40423398780E+02 -0.59473748219E+01  0.46142316773E+02  0.99999909913E+01 0.  0.
        -12    1    1    2    0    0 -0.18965525069E+02  0.40423398780E+02  0.59473748219E+01  0.45045683227E+02  0.00000000000E+00 0.  1.
         11    1    3    3    0    0  0.15994536297E+02 -0.32534667134E+02 -0.46478252281E+01  0.36550404053E+02  0.51100000000E-03 0. -1.
        -11    1    3    3    0    0  0.11659870706E+00 -0.23769888453E+01 -0.22943383633E+01  0.33057011383E+01  0.51100000000E-03 0.  1.
         12    1    3    3    0    0  0.28543900654E+01 -0.55117428013E+01  0.99478876948E+00  0.62862115816E+01  0.00000000000E+00 0. -1.
</event>
<event>
 7    1  0.2319164E-008  0.4614232E+02  0.7816164E-02  0.1320468E+00
        -11   -1    0    0    0    0  0.00000000000E+00  0.00000000000E+00  0.45593999997E+02  0.45594000000E+02  0.51100000000E-03 0. -1.
         11   -1    0    0    0    0 -0.00000000000E+00 -0.00000000000E+00 -0.45593999997E+02  0.45594000000E+02  0.51100000000E-03 0.  1.
    9900012    2    1    2    0    0  0.21296370349E+02  0.14779792462E+02  0.36839324300E+02  0.46142317964E+02  0.10000001849E+02 0.  0.
        -12    1    1    2    0    0 -0.21296370349E+02 -0.14779792462E+02 -0.36839324300E+02  0.45045682036E+02  0.00000000000E+00 0.  1.
         11    1    3    3    0    0  0.19741727375E+02  0.13408282209E+02  0.37018592437E+02  0.44044227974E+02  0.51100000000E-03 0. -1.
        -11    1    3    3    0    0  0.10722341381E+01  0.87802380642E+00 -0.31512629561E-02  0.13858650884E+01  0.51100000000E-03 0.  1.
         12    1    3    3    0    0  0.48240883559E+00  0.49348644622E+00 -0.17611687408E+00  0.71222490170E+00  0.00000000000E+00 0. -1.
</event>
<event>
 7    1  0.1541705E-008  0.4614232E+02  0.7816164E-02  0.1320468E+00
        -11   -1    0    0    0    0  0.00000000000E+00  0.00000000000E+00  0.45593999997E+02  0.45594000000E+02  0.51100000000E-03 0.  1.
         11   -1    0    0    0    0 -0.00000000000E+00 -0.00000000000E+00 -0.45593999997E+02  0.45594000000E+02  0.51100000000E-03 0. -1.
    9900012    2    1    2    0    0  0.26017886841E+01 -0.11480959273E+01 -0.44955823524E+02  0.46142317661E+02  0.99999990913E+01 0.  0.
        -12    1    1    2    0    0 -0.26017886841E+01  0.11480959273E+01  0.44955823524E+02  0.45045682339E+02  0.00000000000E+00 0.  1.
         11    1    3    3    0    0  0.25286542515E+01  0.13155397556E+01 -0.42240464959E+01  0.50958126175E+01  0.51100000000E-03 0. -1.
        -11    1    3    3    0    0  0.17432254304E+01 -0.19993443937E+01 -0.33699565051E+02  0.33803800050E+02  0.51100000000E-03 0.  1.
        -12    1    3    3    0    0 -0.16700909979E+01 -0.46429128923E+00 -0.70322119771E+01  0.72427049943E+01  0.00000000000E+00 0.  1.
</event>
<event>
 7    1  0.1541705E-008  0.4614232E+02  0.7816164E-02  0.1320468E+00
        -11   -1    0    0    0    0  0.00000000000E+00  0.00000000000E+00  0.45593999997E+02  0.45594000000E+02  0.51100000000E-03 0.  1.
         11   -1    0    0    0    0 -0.00000000000E+00 -0.00000000000E+00 -0.45593999997E+02  0.45594000000E+02  0.51100000000E-03 0. -1.
    9900012    2    1    2    0    0  0.13719414179E+02 -0.30189472425E+02 -0.30487488878E+02  0.46142317090E+02  0.99999938819E+01 0.  0.
        -12    1    1    2    0    0 -0.13719414179E+02  0.30189472425E+02  0.30487488878E+02  0.45045682910E+02  0.00000000000E+00 0.  1.
         11    1    3    3    0    0  0.54181420806E+01 -0.73451953140E+01 -0.72251561405E+01  0.11640920897E+02  0.51100000000E-03 0. -1.
        -11    1    3    3    0    0 -0.11636933468E+01 -0.10671312354E+01 -0.25130178204E+01  0.29678628853E+01  0.51100000000E-03 0.  1.
         12    1    3    3    0    0  0.94649654451E+01 -0.21777145876E+02 -0.20749314917E+02  0.31533533308E+02  0.00000000000E+00 0. -1.
</event>
<event>
 7    1  0.1541705E-008  0.4614232E+02  0.7816164E-02  0.1320468E+00
        -11   -1    0    0    0    0  0.00000000000E+00  0.00000000000E+00  0.45593999997E+02  0.45594000000E+02  0.51100000000E-03 0. -1.
         11   -1    0    0    0    0 -0.00000000000E+00 -0.00000000000E+00 -0.45593999997E+02  0.45594000000E+02  0.51100000000E-03 0.  1.
    9900012    2    1    2    0    0 -0.12076130703E+02 -0.31431509101E+02  0.29922245849E+02  0.46142317701E+02  0.99999994564E+01 0.  0.
        -12    1    1    2    0    0  0.12076130703E+02  0.31431509101E+02 -0.29922245849E+02  0.45045682299E+02  0.00000000000E+00 0.  1.
         11    1    3    3    0    0 -0.33563504394E+00 -0.69708677264E+01  0.75467053973E+01  0.10279027695E+02  0.51100000000E-03 0. -1.
        -11    1    3    3    0    0 -0.22888484837E+01 -0.28453365250E+01  0.64102631155E+01  0.73774142349E+01  0.51100000000E-03 0.  1.
         12    1    3    3    0    0 -0.94516471751E+01 -0.21615304849E+02  0.15965277336E+02  0.28485875772E+02  0.00000000000E+00 0. -1.
</event>
<event>
 7    1  0.1541705E-008  0.4614232E+02  0.7816164E-02  0.1320468E+00
        -11   -1    0    0    0    0  0.00000000000E+00  0.00000000000E+00  0.45593999997E+02  0.45594000000E+02  0.51100000000E-03 0.  1.
         11   -1    0    0    0    0 -0.00000000000E+00 -0.00000000000E+00 -0.45593999997E+02  0.45594000000E+02  0.51100000000E-03 0. -1.
    9900012    2    1    2    0    0  0.19669787675E+02 -0.34447128609E+02 -0.21344985615E+02  0.46142316217E+02  0.99999859169E+01 0.  0.
        -12    1    1    2    0    0 -0.19669787675E+02  0.34447128609E+02  0.21344985615E+02  0.45045683783E+02  0.00000000000E+00 0.  1.
         11    1    3    3    0    0  0.16600506069E+00 -0.12917146398E+01 -0.20339616652E+01  0.24151779867E+01  0.51100000000E-03 0. -1.
        -11    1    3    3    0    0  0.16263131282E+01 -0.46161799772E+01 -0.54079040163E+01  0.72937944914E+01  0.51100000000E-03 0.  1.
         12    1    3    3    0    0  0.17877469486E+02 -0.28539233992E+02 -0.13903119934E+02  0.36433343739E+02  0.00000000000E+00 0. -1.
</event>
<event>
 7    1  0.1541705E-008  0.4614232E+02  0.7816164E-02  0.1320468E+00
        -11   -1    0    0    0    0  0.00000000000E+00  0.00000000000E+00  0.45593999997E+02  0.45594000000E+02  0.51100000000E-03 0.  1.
         11   -1    0    0    0    0 -0.00000000000E+00 -0.00000000000E+00 -0.45593999997E+02  0.45594000000E+02  0.51100000000E-03 0. -1.
    9900012    2    1    2    0    0 -0.16858272458E+00 -0.43596456370E+02 -0.11332873514E+02  0.46142318184E+02  0.10000003859E+02 0.  0.
        -12    1    1    2    0    0  0.16858272458E+00  0.43596456370E+02  0.11332873514E+02  0.45045681816E+02  0.00000000000E+00 0.  1.
         11    1    3    3    0    0  0.42102953597E+01 -0.18451387035E+02 -0.60611991627E+01  0.19872554090E+02  0.51100000000E-03 0. -1.
        -11    1    3    3    0    0 -0.58529623767E+00 -0.10602303623E+02 -0.11192722574E+01  0.10677274205E+02  0.51100000000E-03 0.  1.
         12    1    3    3    0    0 -0.37935818466E+01 -0.14542765712E+02 -0.41524020943E+01  0.15592489889E+02  0.00000000000E+00 0. -1.
</event>
<event>
 7    1  0.1541705E-008  0.4614232E+02  0.7816164E-02  0.1320468E+00
        -11   -1    0    0    0    0  0.00000000000E+00  0.00000000000E+00  0.45593999997E+02  0.45594000000E+02  0.51100000000E-03 0.  1.
         11   -1    0    0    0    0 -0.00000000000E+00 -0.00000000000E+00 -0.45593999997E+02  0.45594000000E+02  0.51100000000E-03 0. -1.
    9900012    2    1    2    0    0  0.37457712588E+02 -0.22591056520E+02 -0.10755343667E+02  0.46142317805E+02  0.10000000398E+02 0.  0.
        -12    1    1    2    0    0 -0.37457712588E+02  0.22591056520E+02  0.10755343667E+02  0.45045682195E+02  0.00000000000E+00 0.  1.
         11    1    3    3    0    0  0.14296224282E+02 -0.44423783014E+01 -0.55588679801E+01  0.15969275725E+02  0.51100000000E-03 0. -1.
        -11    1    3    3    0    0  0.18028004769E+01 -0.16047595111E+01  0.71508263175E+00  0.25172775134E+01  0.51100000000E-03 0.  1.
        -12    1    3    3    0    0  0.21358687829E+02 -0.16543918708E+02 -0.59115583191E+01  0.27655764566E+02  0.00000000000E+00 0.  1.
</event>
<event>
 7    1  0.1541705E-008  0.4614232E+02  0.7816164E-02  0.1320468E+00
        -11   -1    0    0    0    0  0.00000000000E+00  0.00000000000E+00  0.45593999997E+02  0.45594000000E+02  0.51100000000E-03 0.  1.
         11   -1    0    0    0    0 -0.00000000000E+00 -0.00000000000E+00 -0.45593999997E+02  0.45594000000E+02  0.51100000000E-03 0. -1.
    9900012    2    1    2    0    0 -0.70462654362E+01 -0.43450914980E+02 -0.95646057645E+01  0.46142317048E+02  0.99999934997E+01 0.  0.
        -12    1    1    2    0    0  0.70462654362E+01  0.43450914980E+02  0.95646057645E+01  0.45045682952E+02  0.00000000000E+00 0.  1.
         11    1    3    3    0    0 -0.73984884143E+00 -0.17196422417E+02 -0.74085698345E+01  0.18739029524E+02  0.51100000000E-03 0. -1.
        -11    1    3    3    0    0 -0.49619056995E+01 -0.24106758299E+02 -0.10387490999E+01  0.24634027357E+02  0.51100000000E-03 0.  1.
         12    1    3    3    0    0 -0.13445108953E+01 -0.21477342636E+01 -0.11172868300E+01  0.27692601675E+01  0.00000000000E+00 0. -1.
</event>
<event>
 7    1  0.1541705E-008  0.4614232E+02  0.7816164E-02  0.1320468E+00
        -11   -1    0    0    0    0  0.00000000000E+00  0.00000000000E+00  0.45593999997E+02  0.45594000000E+02  0.51100000000E-03 0.  1.
         11   -1    0    0    0    0 -0.00000000000E+00 -0.00000000000E+00 -0.45593999997E+02  0.45594000000E+02  0.51100000000E-03 0. -1.
    9900012    2    1    2    0    0  0.17121931937E+02 -0.40582789581E+02 -0.94334516430E+01  0.46142319038E+02  0.10000011646E+02 0.  0.
        -12    1    1    2    0    0 -0.17121931937E+02  0.40582789581E+02  0.94334516430E+01  0.45045680962E+02  0.00000000000E+00 0.  1.
         11    1    3    3    0    0  0.15407371564E+01 -0.10102885931E+02  0.89135598976E+00  0.10258493597E+02  0.51100000000E-03 0. -1.
        -11    1    3    3    0    0  0.69427308934E+01 -0.14172003266E+02 -0.63202106512E+01  0.16999772109E+02  0.51100000000E-03 0.  1.
         12    1    3    3    0    0  0.86384638875E+01 -0.16307900383E+02 -0.40045969815E+01  0.18884053332E+02  0.00000000000E+00 0. -1.
</event>
<event>
 7    1  0.1541705E-008  0.4614232E+02  0.7816164E-02  0.1320468E+00
        -11   -1    0    0    0    0  0.00000000000E+00  0.00000000000E+00  0.45593999997E+02  0.45594000000E+02  0.51100000000E-03 0.  1.
         11   -1    0    0    0    0 -0.00000000000E+00 -0.00000000000E+00 -0.45593999997E+02  0.45594000000E+02  0.51100000000E-03 0. -1.
    9900012    2    1    2    0    0 -0.35991040496E+02  0.21146452798E+01 -0.27005310088E+02  0.46142317703E+02  0.99999994681E+01 0.  0.
        -12    1    1    2    0    0  0.35991040496E+02 -0.21146452798E+01  0.27005310088E+02  0.45045682297E+02  0.00000000000E+00 0.  1.
         11    1    3    3    0    0 -0.29154060964E+01 -0.14056916502E+00 -0.28649529547E+01  0.40899031884E+01  0.51100000000E-03 0. -1.
        -11    1    3    3    0    0 -0.19620578968E+02 -0.32463766522E+01 -0.14434451675E+02  0.24573552365E+02  0.51100000000E-03 0.  1.
        -12    1    3    3    0    0 -0.13455055432E+02  0.55015910970E+01 -0.97059054582E+01  0.17478862150E+02  0.00000000000E+00 0.  1.
</event>
<event>
 7    1  0.1541705E-008  0.4614232E+02  0.7816164E-02  0.1320468E+00
        -11   -1    0    0    0    0  0.00000000000E+00  0.00000000000E+00  0.45593999997E+02  0.45594000000E+02  0.51100000000E-03 0.  1.
         11   -1    0    0    0    0 -0.00000000000E+00 -0.00000000000E+00 -0.45593999997E+02  0.45594000000E+02  0.51100000000E-03 0. -1.
    9900012    2    1    2    0    0  0.43802236703E+02  0.80642053045E+01 -0.67413801775E+01  0.46142317032E+02  0.99999933488E+01 0.  0.
        -12    1    1    2    0    0 -0.43802236703E+02 -0.80642053045E+01  0.67413801775E+01  0.45045682968E+02  0.00000000000E+00 0.  1.
         11    1    3    3    0    0  0.16778380821E+02  0.14109115367E+01 -0.49950575297E+01  0.17562896524E+02  0.51100000000E-03 0. -1.
        -11    1    3    3    0    0  0.18642924252E+02  0.41625157369E+01 -0.40741584953E+01  0.19531613596E+02  0.51100000000E-03 0.  1.
        -12    1    3    3    0    0  0.83809316298E+01  0.24907780309E+01  0.23278358475E+01  0.90478069119E+01  0.00000000000E+00 0.  1.
</event>
<event>
 7    1  0.1541705E-008  0.4614232E+02  0.7816164E-02  0.1320468E+00
        -11   -1    0    0    0    0  0.00000000000E+00  0.00000000000E+00  0.45593999997E+02  0.45594000000E+02  0.51100000000E-03 0.  1.
         11   -1    0    0    0    0 -0.00000000000E+00 -0.00000000000E+00 -0.45593999997E+02  0.45594000000E+02  0.51100000000E-03 0. -1.
    9900012    2    1    2    0    0  0.23653277813E+02  0.13376047476E+02 -0.35926553778E+02  0.46142318035E+02  0.10000002493E+02 0.  0.
        -12    1    1    2    0    0 -0.23653277813E+02 -0.13376047476E+02  0.35926553778E+02  0.45045681965E+02  0.00000000000E+00 0.  1.
         11    1    3    3    0    0  0.46710553035E+01  0.37255220473E+01 -0.10562218989E+02  0.12135021319E+02  0.51100000000E-03 0. -1.
        -11    1    3    3    0    0  0.39972011781E+01  0.50155038371E+01 -0.42087645219E+01  0.76711534374E+01  0.51100000000E-03 0.  1.
        -12    1    3    3    0    0  0.14985021331E+02  0.46350215917E+01 -0.21155570267E+02  0.26336143278E+02  0.00000000000E+00 0.  1.
</event>
<event>
 7    1  0.1541705E-008  0.4614232E+02  0.7816164E-02  0.1320468E+00
        -11   -1    0    0    0    0  0.00000000000E+00  0.00000000000E+00  0.45593999997E+02  0.45594000000E+02  0.51100000000E-03 0.  1.
         11   -1    0    0    0    0 -0.00000000000E+00 -0.00000000000E+00 -0.45593999997E+02  0.45594000000E+02  0.51100000000E-03 0. -1.
    9900012    2    1    2    0    0 -0.39380610767E+02 -0.19331009387E+02 -0.10227072554E+02  0.46142318283E+02  0.10000004762E+02 0.  0.
        -12    1    1    2    0    0  0.39380610767E+02  0.19331009387E+02  0.10227072554E+02  0.45045681717E+02  0.00000000000E+00 0.  1.
         11    1    3    3    0    0 -0.36392927349E+01 -0.29009252955E+01 -0.30249550042E+01  0.55506911479E+01  0.51100000000E-03 0. -1.
        -11    1    3    3    0    0 -0.31055874594E+01 -0.25677418150E+01  0.10954918205E+01  0.41758920108E+01  0.51100000000E-03 0.  1.
        -12    1    3    3    0    0 -0.32635730572E+02 -0.13862342277E+02 -0.82976093704E+01  0.36415735125E+02  0.00000000000E+00 0.  1.
</event>
<event>
 7    1  0.1541705E-008  0.4614232E+02  0.7816164E-02  0.1320468E+00
        -11   -1    0    0    0    0  0.00000000000E+00  0.00000000000E+00  0.45593999997E+02  0.45594000000E+02  0.51100000000E-03 0. -1.
         11   -1    0    0    0    0 -0.00000000000E+00 -0.00000000000E+00 -0.45593999997E+02  0.45594000000E+02  0.51100000000E-03 0.  1.
    9900012    2    1    2    0    0  0.35965239573E+02  0.19509143860E+02  0.18841666998E+02  0.46142316889E+02  0.99999920438E+01 0.  0.
        -12    1    1    2    0    0 -0.35965239573E+02 -0.19509143860E+02 -0.18841666998E+02  0.45045683111E+02  0.00000000000E+00 0.  1.
         11    1    3    3    0    0  0.22479734342E+02  0.80594165696E+01  0.10986670802E+02  0.26286871003E+02  0.51100000000E-03 0. -1.
        -11    1    3    3    0    0  0.10461314700E+02  0.10931497139E+02  0.60481361610E+01  0.16294682760E+02  0.51100000000E-03 0.  1.
        -12    1    3    3    0    0  0.30241905308E+01  0.51823015185E+00  0.18068600350E+01  0.35607631265E+01  0.00000000000E+00 0.  1.
</event>
<event>
 7    1  0.1541705E-008  0.4614231E+02  0.7816164E-02  0.1320468E+00
        -11   -1    0    0    0    0  0.00000000000E+00  0.00000000000E+00  0.45593999997E+02  0.45594000000E+02  0.51100000000E-03 0.  1.
         11   -1    0    0    0    0 -0.00000000000E+00 -0.00000000000E+00 -0.45593999997E+02  0.45594000000E+02  0.51100000000E-03 0. -1.
    9900012    2    1    2    0    0  0.15754261430E+02 -0.10927760065E+02 -0.40761515416E+02  0.46142313944E+02  0.99999651966E+01 0.  0.
        -12    1    1    2    0    0 -0.15754261430E+02  0.10927760065E+02  0.40761515416E+02  0.45045686056E+02  0.00000000000E+00 0.  1.
         11    1    3    3    0    0  0.81775859355E+01 -0.87894118502E+01 -0.25791185200E+02  0.28448407806E+02  0.51100000000E-03 0. -1.
        -11    1    3    3    0    0  0.13134083457E+01  0.16382529426E+01 -0.38174735585E+01  0.43568358722E+01  0.51100000000E-03 0.  1.
        -12    1    3    3    0    0  0.62632671489E+01 -0.37766011571E+01 -0.11152856657E+02  0.13337070266E+02  0.00000000000E+00 0.  1.
</event>
<event>
 7    1  0.1541705E-008  0.4614232E+02  0.7816164E-02  0.1320468E+00
        -11   -1    0    0    0    0  0.00000000000E+00  0.00000000000E+00  0.45593999997E+02  0.45594000000E+02  0.51100000000E-03 0.  1.
         11   -1    0    0    0    0 -0.00000000000E+00 -0.00000000000E+00 -0.45593999997E+02  0.45594000000E+02  0.51100000000E-03 0. -1.
    9900012    2    1    2    0    0  0.34259230241E+02 -0.16354701489E+02 -0.24247522202E+02  0.46142318182E+02  0.10000003840E+02 0.  0.
        -12    1    1    2    0    0 -0.34259230241E+02  0.16354701489E+02  0.24247522202E+02  0.45045681818E+02  0.00000000000E+00 0.  1.
         11    1    3    3    0    0  0.39403085077E+01 -0.33737195865E+01 -0.14793646297E+01  0.53941204058E+01  0.51100000000E-03 0. -1.
        -11    1    3    3    0    0 -0.42451995335E+00 -0.14198034660E-01 -0.34904099906E+00  0.54977145718E+00  0.51100000000E-03 0.  1.
        -12    1    3    3    0    0  0.30743441687E+02 -0.12966783868E+02 -0.22419116573E+02  0.40198426319E+02  0.00000000000E+00 0.  1.
</event>
<event>
 7    1  0.1541705E-008  0.4614232E+02  0.7816164E-02  0.1320468E+00
        -11   -1    0    0    0    0  0.00000000000E+00  0.00000000000E+00  0.45593999997E+02  0.45594000000E+02  0.51100000000E-03 0.  1.
         11   -1    0    0    0    0 -0.00000000000E+00 -0.00000000000E+00 -0.45593999997E+02  0.45594000000E+02  0.51100000000E-03 0. -1.
    9900012    2    1    2    0    0 -0.21052306972E+01 -0.44994938042E+02  0.37013707110E+00  0.46142318219E+02  0.10000004175E+02 0.  0.
        -12    1    1    2    0    0  0.21052306972E+01  0.44994938042E+02 -0.37013707110E+00  0.45045681781E+02  0.00000000000E+00 0.  1.
         11    1    3    3    0    0  0.56366030854E+00 -0.14454398575E+02 -0.89228724048E+00  0.14492878523E+02  0.51100000000E-03 0. -1.
        -11    1    3    3    0    0 -0.38548272512E+00 -0.26597132556E+02 -0.87922945285E+00  0.26614452875E+02  0.51100000000E-03 0.  1.
        -12    1    3    3    0    0 -0.22834082806E+01 -0.39434069106E+01  0.21416537644E+01  0.50349868208E+01  0.00000000000E+00 0.  1.
</event>
<event>
 7    1  0.1541705E-008  0.4614231E+02  0.7816164E-02  0.1320468E+00
        -11   -1    0    0    0    0  0.00000000000E+00  0.00000000000E+00  0.45593999997E+02  0.45594000000E+02  0.51100000000E-03 0.  1.
         11   -1    0    0    0    0 -0.00000000000E+00 -0.00000000000E+00 -0.45593999997E+02  0.45594000000E+02  0.51100000000E-03 0. -1.
    9900012    2    1    2    0    0  0.90482940127E+01 -0.21102610340E+02 -0.38754638417E+02  0.46142314452E+02  0.99999698220E+01 0.  0.
        -12    1    1    2    0    0 -0.90482940127E+01  0.21102610340E+02  0.38754638417E+02  0.45045685548E+02  0.00000000000E+00 0.  1.
         11    1    3    3    0    0  0.11673089143E+01 -0.78945647366E+01 -0.13221284136E+02  0.15443092856E+02  0.51100000000E-03 0. -1.
        -11    1    3    3    0    0  0.82714416992E+01 -0.71214186087E+01 -0.15495712403E+02  0.18953850636E+02  0.51100000000E-03 0.  1.
        -12    1    3    3    0    0 -0.39045660077E+00 -0.60866269945E+01 -0.10037641877E+02  0.11745370960E+02  0.00000000000E+00 0.  1.
</event>
<event>
 7    1  0.1541705E-008  0.4614232E+02  0.7816164E-02  0.1320468E+00
        -11   -1    0    0    0    0  0.00000000000E+00  0.00000000000E+00  0.45593999997E+02  0.45594000000E+02  0.51100000000E-03 0.  1.
         11   -1    0    0    0    0 -0.00000000000E+00 -0.00000000000E+00 -0.45593999997E+02  0.45594000000E+02  0.51100000000E-03 0. -1.
    9900012    2    1    2    0    0 -0.32562275751E+01  0.44635594851E+02 -0.51160490288E+01  0.46142319815E+02  0.10000018725E+02 0.  0.
        -12    1    1    2    0    0  0.32562275751E+01 -0.44635594851E+02  0.51160490288E+01  0.45045680185E+02  0.00000000000E+00 0.  1.
         11    1    3    3    0    0 -0.48718867253E+01  0.17579242666E+02 -0.24599163086E+01  0.18406961767E+02  0.51100000000E-03 0. -1.
        -11    1    3    3    0    0  0.10101115639E+01  0.71872631136E+01  0.15388111244E+01  0.74192328696E+01  0.51100000000E-03 0.  1.
         12    1    3    3    0    0  0.60554758618E+00  0.19869089071E+02 -0.41949438446E+01  0.20316125178E+02  0.00000000000E+00 0. -1.
</event>
<event>
 7    1  0.1541705E-008  0.4614232E+02  0.7816164E-02  0.1320468E+00
        -11   -1    0    0    0    0  0.00000000000E+00  0.00000000000E+00  0.45593999997E+02  0.45594000000E+02  0.51100000000E-03 0.  1.
         11   -1    0    0    0    0 -0.00000000000E+00 -0.00000000000E+00 -0.45593999997E+02  0.45594000000E+02  0.51100000000E-03 0. -1.
    9900012    2    1    2    0    0 -0.29361614228E+02  0.84755547680E+01 -0.33093413755E+02  0.46142318158E+02  0.10000003615E+02 0.  0.
        -12    1    1    2    0    0  0.29361614228E+02 -0.84755547680E+01  0.33093413755E+02  0.45045681842E+02  0.00000000000E+00 0.  1.
         11    1    3    3    0    0 -0.22561770150E+02  0.59021923206E+01 -0.23193491897E+02  0.32890840870E+02  0.51100000000E-03 0. -1.
        -11    1    3    3    0    0 -0.36743761558E+01  0.39488636216E+01 -0.60703666316E+01  0.81205858987E+01  0.51100000000E-03 0.  1.
        -12    1    3    3    0    0 -0.31254679223E+01 -0.13755011742E+01 -0.38295552266E+01  0.51308913892E+01  0.00000000000E+00 0.  1.
</event>
<event>
 7    1  0.1541705E-008  0.4614232E+02  0.7816164E-02  0.1320468E+00
        -11   -1    0    0    0    0  0.00000000000E+00  0.00000000000E+00  0.45593999997E+02  0.45594000000E+02  0.51100000000E-03 0.  1.
         11   -1    0    0    0    0 -0.00000000000E+00 -0.00000000000E+00 -0.45593999997E+02  0.45594000000E+02  0.51100000000E-03 0. -1.
    9900012    2    1    2    0    0 -0.26055682837E+02 -0.35496672321E+02  0.94974290317E+01  0.46142317497E+02  0.99999975907E+01 0.  0.
        -12    1    1    2    0    0  0.26055682837E+02  0.35496672321E+02 -0.94974290317E+01  0.45045682503E+02  0.00000000000E+00 0.  1.
         11    1    3    3    0    0 -0.23970393576E+02 -0.27129722422E+02  0.97057063627E+01  0.37480692938E+02  0.51100000000E-03 0. -1.
        -11    1    3    3    0    0 -0.95564997111E+00 -0.44731587634E+01  0.25318612841E+00  0.45811046339E+01  0.51100000000E-03 0.  1.
         12    1    3    3    0    0 -0.11296392903E+01 -0.38937911353E+01 -0.46146345940E+00  0.40805199247E+01  0.00000000000E+00 0. -1.
</event>
<event>
 7    1  0.1541705E-008  0.4614232E+02  0.7816164E-02  0.1320468E+00
        -11   -1    0    0    0    0  0.00000000000E+00  0.00000000000E+00  0.45593999997E+02  0.45594000000E+02  0.51100000000E-03 0.  1.
         11   -1    0    0    0    0 -0.00000000000E+00 -0.00000000000E+00 -0.45593999997E+02  0.45594000000E+02  0.51100000000E-03 0. -1.
    9900012    2    1    2    0    0 -0.28093424520E+01  0.10781615572E+01 -0.44945062662E+02  0.46142317687E+02  0.99999993207E+01 0.  0.
        -12    1    1    2    0    0  0.28093424520E+01 -0.10781615572E+01  0.44945062662E+02  0.45045682313E+02  0.00000000000E+00 0.  1.
         11    1    3    3    0    0  0.29698726058E+00  0.99793600786E+00 -0.21683313953E+02  0.21708297537E+02  0.51100000000E-03 0. -1.
        -11    1    3    3    0    0 -0.47977975287E+01 -0.15954195854E+01 -0.14584955201E+02  0.15436487400E+02  0.51100000000E-03 0.  1.
        -12    1    3    3    0    0  0.16914678162E+01  0.16756451347E+01 -0.86767935083E+01  0.89975327494E+01  0.00000000000E+00 0.  1.
</event>
<event>
 7    1  0.1541705E-008  0.4614232E+02  0.7816164E-02  0.1320468E+00
        -11   -1    0    0    0    0  0.00000000000E+00  0.00000000000E+00  0.45593999997E+02  0.45594000000E+02  0.51100000000E-03 0.  1.
         11   -1    0    0    0    0 -0.00000000000E+00 -0.00000000000E+00 -0.45593999997E+02  0.45594000000E+02  0.51100000000E-03 0. -1.
    9900012    2    1    2    0    0  0.18681110301E+02 -0.25160420642E+02 -0.32358656603E+02  0.46142319784E+02  0.10000018451E+02 0.  0.
        -12    1    1    2    0    0 -0.18681110301E+02  0.25160420642E+02  0.32358656603E+02  0.45045680216E+02  0.00000000000E+00 0.  1.
         11    1    3    3    0    0  0.40352235180E+01 -0.72146760905E+01 -0.72395275808E+01  0.10988418439E+02  0.51100000000E-03 0. -1.
        -11    1    3    3    0    0  0.76798750513E+01 -0.90827267071E+01 -0.69623517324E+01  0.13782262047E+02  0.51100000000E-03 0.  1.
        -12    1    3    3    0    0  0.69660117320E+01 -0.88630178439E+01 -0.18156777289E+02  0.21371639298E+02  0.00000000000E+00 0.  1.
</event>
<event>
 7    1  0.1541705E-008  0.4614232E+02  0.7816164E-02  0.1320468E+00
        -11   -1    0    0    0    0  0.00000000000E+00  0.00000000000E+00  0.45593999997E+02  0.45594000000E+02  0.51100000000E-03 0.  1.
         11   -1    0    0    0    0 -0.00000000000E+00 -0.00000000000E+00 -0.45593999997E+02  0.45594000000E+02  0.51100000000E-03 0. -1.
    9900012    2    1    2    0    0  0.87600317038E+01  0.43054204892E+02 -0.99353305189E+01  0.46142317556E+02  0.99999981324E+01 0.  0.
        -12    1    1    2    0    0 -0.87600317038E+01 -0.43054204892E+02  0.99353305189E+01  0.45045682444E+02  0.00000000000E+00 0.  1.
         11    1    3    3    0    0  0.83868710805E+00  0.12897958630E+02 -0.40591212311E+01  0.13547590130E+02  0.51100000000E-03 0. -1.
        -11    1    3    3    0    0 -0.10727551494E+01  0.87651075058E+01 -0.10454905129E+01  0.88921855510E+01  0.51100000000E-03 0.  1.
         12    1    3    3    0    0  0.89940997451E+01  0.21391138755E+02 -0.48307187748E+01  0.23702541875E+02  0.00000000000E+00 0. -1.
</event>
<event>
 7    1  0.1541705E-008  0.4614232E+02  0.7816164E-02  0.1320468E+00
        -11   -1    0    0    0    0  0.00000000000E+00  0.00000000000E+00  0.45593999997E+02  0.45594000000E+02  0.51100000000E-03 0.  1.
         11   -1    0    0    0    0 -0.00000000000E+00 -0.00000000000E+00 -0.45593999997E+02  0.45594000000E+02  0.51100000000E-03 0. -1.
    9900012    2    1    2    0    0  0.26199571326E+02  0.10449559255E+02 -0.35121256264E+02  0.46142317989E+02  0.10000002081E+02 0.  0.
        -12    1    1    2    0    0 -0.26199571326E+02 -0.10449559255E+02  0.35121256264E+02  0.45045682011E+02  0.00000000000E+00 0.  1.
         11    1    3    3    0    0  0.17555258941E+02  0.11147604315E+02 -0.26740204253E+02  0.33874691470E+02  0.51100000000E-03 0. -1.
        -11    1    3    3    0    0  0.44918675125E+01 -0.93294753866E+00 -0.30626302107E+01  0.55160646233E+01  0.51100000000E-03 0.  1.
         12    1    3    3    0    0  0.41524448724E+01  0.23490247871E+00 -0.53184217998E+01  0.67515618959E+01  0.00000000000E+00 0. -1.
</event>
<event>
 7    1  0.1541705E-008  0.4614232E+02  0.7816164E-02  0.1320468E+00
        -11   -1    0    0    0    0  0.00000000000E+00  0.00000000000E+00  0.45593999997E+02  0.45594000000E+02  0.51100000000E-03 0.  1.
         11   -1    0    0    0    0 -0.00000000000E+00 -0.00000000000E+00 -0.45593999997E+02  0.45594000000E+02  0.51100000000E-03 0. -1.
    9900012    2    1    2    0    0 -0.44503898033E+02 -0.18635060517E+01 -0.67114753344E+01  0.46142317675E+02  0.99999992144E+01 0.  0.
        -12    1    1    2    0    0  0.44503898033E+02  0.18635060517E+01  0.67114753344E+01  0.45045682325E+02  0.00000000000E+00 0.  1.
         11    1    3    3    0    0 -0.24845543002E+02 -0.12481499045E+01 -0.37505925517E+01  0.25158017211E+02  0.51100000000E-03 0. -1.
        -11    1    3    3    0    0 -0.75596958238E+01  0.28873331475E+01 -0.22689211072E+00  0.80955033163E+01  0.51100000000E-03 0.  1.
        -12    1    3    3    0    0 -0.12098659207E+02 -0.35026892947E+01 -0.27339906721E+01  0.12888797147E+02  0.00000000000E+00 0.  1.
</event>
<event>
 7    1  0.1541705E-008  0.4614232E+02  0.7816164E-02  0.1320468E+00
        -11   -1    0    0    0    0  0.00000000000E+00  0.00000000000E+00  0.45593999997E+02  0.45594000000E+02  0.51100000000E-03 0.  1.
         11   -1    0    0    0    0 -0.00000000000E+00 -0.00000000000E+00 -0.45593999997E+02  0.45594000000E+02  0.51100000000E-03 0. -1.
    9900012    2    1    2    0    0 -0.41397597914E+02 -0.99375861559E+01 -0.14717225834E+02  0.46142317988E+02  0.10000002069E+02 0.  0.
        -12    1    1    2    0    0  0.41397597914E+02  0.99375861559E+01  0.14717225834E+02  0.45045682012E+02  0.00000000000E+00 0.  1.
         11    1    3    3    0    0 -0.91042036757E+01 -0.90247222775E+00 -0.70577507732E+01  0.11554775070E+02  0.51100000000E-03 0. -1.
        -11    1    3    3    0    0 -0.21646808431E+02 -0.74773446730E+01 -0.62219407828E+01  0.23731994142E+02  0.51100000000E-03 0.  1.
         12    1    3    3    0    0 -0.10646585808E+02 -0.15577692552E+01 -0.14375342776E+01  0.10855548776E+02  0.00000000000E+00 0. -1.
</event>
<event>
 7    1  0.1541705E-008  0.4614232E+02  0.7816164E-02  0.1320468E+00
        -11   -1    0    0    0    0  0.00000000000E+00  0.00000000000E+00  0.45593999997E+02  0.45594000000E+02  0.51100000000E-03 0.  1.
         11   -1    0    0    0    0 -0.00000000000E+00 -0.00000000000E+00 -0.45593999997E+02  0.45594000000E+02  0.51100000000E-03 0. -1.
    9900012    2    1    2    0    0  0.17583453309E+02 -0.83451568612E+01 -0.40623810230E+02  0.46142318399E+02  0.10000005818E+02 0.  0.
        -12    1    1    2    0    0 -0.17583453309E+02  0.83451568612E+01  0.40623810230E+02  0.45045681601E+02  0.00000000000E+00 0.  1.
         11    1    3    3    0    0  0.71250172678E+01 -0.86911812311E+01 -0.21206605280E+02  0.24000471037E+02  0.51100000000E-03 0. -1.
        -11    1    3    3    0    0  0.23914739312E+01 -0.50889176774E+00 -0.34040792979E+01  0.41911662485E+01  0.51100000000E-03 0.  1.
         12    1    3    3    0    0  0.80669621097E+01  0.85491613773E+00 -0.16013125652E+02  0.17950681113E+02  0.00000000000E+00 0. -1.
</event>
<event>
 7    1  0.1541705E-008  0.4614232E+02  0.7816164E-02  0.1320468E+00
        -11   -1    0    0    0    0  0.00000000000E+00  0.00000000000E+00  0.45593999997E+02  0.45594000000E+02  0.51100000000E-03 0. -1.
         11   -1    0    0    0    0 -0.00000000000E+00 -0.00000000000E+00 -0.45593999997E+02  0.45594000000E+02  0.51100000000E-03 0.  1.
    9900012    2    1    2    0    0 -0.10494430803E+02 -0.43798956527E+02  0.79486056983E+00  0.46142317920E+02  0.10000001445E+02 0.  0.
        -12    1    1    2    0    0  0.10494430803E+02  0.43798956527E+02 -0.79486056983E+00  0.45045682080E+02  0.00000000000E+00 0.  1.
         11    1    3    3    0    0 -0.28969884546E+01 -0.13798566844E+02  0.20936276386E+01  0.14253991231E+02  0.51100000000E-03 0. -1.
        -11    1    3    3    0    0 -0.40196314553E+01 -0.11801889989E+02 -0.41143349387E+01  0.13128967842E+02  0.51100000000E-03 0.  1.
        -12    1    3    3    0    0 -0.35778108935E+01 -0.18198499694E+02  0.28155678699E+01  0.18759358847E+02  0.00000000000E+00 0.  1.
</event>
<event>
 7    1  0.1541705E-008  0.4614232E+02  0.7816164E-02  0.1320468E+00
        -11   -1    0    0    0    0  0.00000000000E+00  0.00000000000E+00  0.45593999997E+02  0.45594000000E+02  0.51100000000E-03 0.  1.
         11   -1    0    0    0    0 -0.00000000000E+00 -0.00000000000E+00 -0.45593999997E+02  0.45594000000E+02  0.51100000000E-03 0. -1.
    9900012    2    1    2    0    0 -0.11043027306E+01 -0.95400645563E+01 -0.44010012540E+02  0.46142317410E+02  0.99999967976E+01 0.  0.
        -12    1    1    2    0    0  0.11043027306E+01  0.95400645563E+01  0.44010012540E+02  0.45045682590E+02  0.00000000000E+00 0.  1.
         11    1    3    3    0    0  0.26604418259E+01 -0.22212339220E+01 -0.70209020429E+01  0.78297443510E+01  0.51100000000E-03 0. -1.
        -11    1    3    3    0    0 -0.39390877647E+00 -0.62225240711E+01 -0.19673039553E+02  0.20637428509E+02  0.51100000000E-03 0.  1.
         12    1    3    3    0    0 -0.33708357799E+01 -0.10963065631E+01 -0.17316070944E+02  0.17675144550E+02  0.00000000000E+00 0. -1.
</event>
<event>
 7    1  0.1541705E-008  0.4614232E+02  0.7816164E-02  0.1320468E+00
        -11   -1    0    0    0    0  0.00000000000E+00  0.00000000000E+00  0.45593999997E+02  0.45594000000E+02  0.51100000000E-03 0. -1.
         11   -1    0    0    0    0 -0.00000000000E+00 -0.00000000000E+00 -0.45593999997E+02  0.45594000000E+02  0.51100000000E-03 0.  1.
    9900012    2    1    2    0    0  0.17589988187E+02  0.58513916199E+01  0.41054439508E+02  0.46142317947E+02  0.10000001695E+02 0.  0.
        -12    1    1    2    0    0 -0.17589988187E+02 -0.58513916199E+01 -0.41054439508E+02  0.45045682053E+02  0.00000000000E+00 0.  1.
         11    1    3    3    0    0  0.23988968969E+01  0.42906334336E+01  0.15165070027E+02  0.15941881657E+02  0.51100000000E-03 0. -1.
        -11    1    3    3    0    0  0.27108425898E+01  0.13757970178E+01  0.58260434700E+01  0.65714737888E+01  0.51100000000E-03 0.  1.
         12    1    3    3    0    0  0.12480248701E+02  0.18496116852E+00  0.20063326010E+02  0.23628962501E+02  0.00000000000E+00 0. -1.
</event>
<event>
 7    1  0.1541705E-008  0.4614232E+02  0.7816164E-02  0.1320468E+00
        -11   -1    0    0    0    0  0.00000000000E+00  0.00000000000E+00  0.45593999997E+02  0.45594000000E+02  0.51100000000E-03 0. -1.
         11   -1    0    0    0    0 -0.00000000000E+00 -0.00000000000E+00 -0.45593999997E+02  0.45594000000E+02  0.51100000000E-03 0.  1.
    9900012    2    1    2    0    0 -0.17248569513E+01 -0.94828888638E+01  0.44002423561E+02  0.46142316611E+02  0.99999895117E+01 0.  0.
        -12    1    1    2    0    0  0.17248569513E+01  0.94828888638E+01 -0.44002423561E+02  0.45045683389E+02  0.00000000000E+00 0.  1.
         11    1    3    3    0    0  0.74904937892E+00  0.15991239580E+01  0.61364952535E+01  0.63855185116E+01  0.51100000000E-03 0. -1.
        -11    1    3    3    0    0 -0.30694142253E+01 -0.66086015448E+01  0.18767148732E+02  0.20132083595E+02  0.51100000000E-03 0.  1.
         12    1    3    3    0    0  0.59550789506E+00 -0.44734112770E+01  0.19098779576E+02  0.19624714505E+02  0.00000000000E+00 0. -1.
</event>
<event>
 7    1  0.1541705E-008  0.4614232E+02  0.7816164E-02  0.1320468E+00
        -11   -1    0    0    0    0  0.00000000000E+00  0.00000000000E+00  0.45593999997E+02  0.45594000000E+02  0.51100000000E-03 0.  1.
         11   -1    0    0    0    0 -0.00000000000E+00 -0.00000000000E+00 -0.45593999997E+02  0.45594000000E+02  0.51100000000E-03 0. -1.
    9900012    2    1    2    0    0 -0.37867950264E+01 -0.42343521923E+02  0.14892943868E+02  0.46142318270E+02  0.10000004642E+02 0.  0.
        -12    1    1    2    0    0  0.37867950264E+01  0.42343521923E+02 -0.14892943868E+02  0.45045681730E+02  0.00000000000E+00 0.  1.
         11    1    3    3    0    0 -0.36987742644E+01 -0.14631283193E+02  0.14580003666E+01  0.15161831824E+02  0.51100000000E-03 0.  1.
        -11    1    3    3    0    0 -0.70915954420E+00 -0.11895389190E+01  0.61118618863E+00  0.15137565581E+01  0.51100000000E-03 0. -1.
         12    1    3    3    0    0  0.62113878218E+00 -0.26522699811E+02  0.12823757313E+02  0.29466729888E+02  0.00000000000E+00 0. -1.
</event>
<event>
 7    1  0.1541705E-008  0.4614232E+02  0.7816164E-02  0.1320468E+00
        -11   -1    0    0    0    0  0.00000000000E+00  0.00000000000E+00  0.45593999997E+02  0.45594000000E+02  0.51100000000E-03 0.  1.
         11   -1    0    0    0    0 -0.00000000000E+00 -0.00000000000E+00 -0.45593999997E+02  0.45594000000E+02  0.51100000000E-03 0. -1.
    9900012    2    1    2    0    0 -0.32788814121E+02 -0.60107681159E+01  0.30296498749E+02  0.46142317618E+02  0.99999986978E+01 0.  0.
        -12    1    1    2    0    0  0.32788814121E+02  0.60107681159E+01 -0.30296498749E+02  0.45045682382E+02  0.00000000000E+00 0.  1.
         11    1    3    3    0    0 -0.23609793239E+02 -0.15393912459E+01  0.23754167361E+02  0.33526892631E+02  0.51100000000E-03 0. -1.
        -11    1    3    3    0    0 -0.36242754818E+01 -0.17716007818E+01  0.46498583928E+01  0.61559016751E+01  0.51100000000E-03 0.  1.
         12    1    3    3    0    0 -0.55547454006E+01 -0.26997760881E+01  0.18924729945E+01  0.64595233126E+01  0.00000000000E+00 0. -1.
</event>
<event>
 7    1  0.1541705E-008  0.4614231E+02  0.7816164E-02  0.1320468E+00
        -11   -1    0    0    0    0  0.00000000000E+00  0.00000000000E+00  0.45593999997E+02  0.45594000000E+02  0.51100000000E-03 0.  1.
         11   -1    0    0    0    0 -0.00000000000E+00 -0.00000000000E+00 -0.45593999997E+02  0.45594000000E+02  0.51100000000E-03 0. -1.
    9900012    2    1    2    0    0  0.18734836039E+02  0.37465982394E+02  0.16565621823E+02  0.46142314917E+02  0.99999740674E+01 0.  0.
        -12    1    1    2    0    0 -0.18734836039E+02 -0.37465982394E+02 -0.16565621823E+02  0.45045685083E+02  0.00000000000E+00 0.  1.
         11    1    3    3    0    0  0.40093624977E+01  0.41725830521E+01  0.23175929769E+01  0.62335122068E+01  0.51100000000E-03 0. -1.
        -11    1    3    3    0    0  0.64667189582E+00  0.94089114014E+01  0.50481312404E+01  0.10697169139E+02  0.51100000000E-03 0.  1.
        -12    1    3    3    0    0  0.14078801645E+02  0.23884487941E+02  0.91998976059E+01  0.29211633572E+02  0.00000000000E+00 0.  1.
</event>
<event>
 7    1  0.1541705E-008  0.4614232E+02  0.7816164E-02  0.1320468E+00
        -11   -1    0    0    0    0  0.00000000000E+00  0.00000000000E+00  0.45593999997E+02  0.45594000000E+02  0.51100000000E-03 0. -1.
         11   -1    0    0    0    0 -0.00000000000E+00 -0.00000000000E+00 -0.45593999997E+02  0.45594000000E+02  0.51100000000E-03 0.  1.
    9900012    2    1    2    0    0  0.10145405467E+02  0.31806402353E+01  0.43772911724E+02  0.46142317353E+02  0.99999962743E+01 0.  0.
        -12    1    1    2    0    0 -0.10145405467E+02 -0.31806402353E+01 -0.43772911724E+02  0.45045682647E+02  0.00000000000E+00 0.  1.
         11    1    3    3    0    0  0.48885578161E+01  0.31491354881E+01  0.91005411937E+01  0.10799763985E+02  0.51100000000E-03 0. -1.
        -11    1    3    3    0    0  0.10634327192E+01 -0.14352512467E+01  0.18001181120E+02  0.18089592512E+02  0.51100000000E-03 0.  1.
        -12    1    3    3    0    0  0.41934149313E+01  0.14667559939E+01  0.16671189411E+02  0.17252960856E+02  0.00000000000E+00 0.  1.
</event>
<event>
 7    1  0.1541705E-008  0.4614232E+02  0.7816164E-02  0.1320468E+00
        -11   -1    0    0    0    0  0.00000000000E+00  0.00000000000E+00  0.45593999997E+02  0.45594000000E+02  0.51100000000E-03 0.  1.
         11   -1    0    0    0    0 -0.00000000000E+00 -0.00000000000E+00 -0.45593999997E+02  0.45594000000E+02  0.51100000000E-03 0. -1.
    9900012    2    1    2    0    0  0.21141242263E+02  0.39574080717E+02 -0.40066880974E+01  0.46142317204E+02  0.99999949211E+01 0.  0.
        -12    1    1    2    0    0 -0.21141242263E+02 -0.39574080717E+02  0.40066880974E+01  0.45045682796E+02  0.00000000000E+00 0.  1.
         11    1    3    3    0    0  0.16553048132E+02  0.32799737154E+02 -0.17873142322E+01  0.36783429045E+02  0.51100000000E-03 0. -1.
        -11    1    3    3    0    0  0.18407981345E+00 -0.65692725227E-01 -0.11349754994E+01  0.11516816214E+01  0.51100000000E-03 0.  1.
         12    1    3    3    0    0  0.44041143167E+01  0.68400362885E+01 -0.10843983659E+01  0.82072065381E+01  0.00000000000E+00 0. -1.
</event>
<event>
 7    1  0.1541705E-008  0.4614232E+02  0.7816164E-02  0.1320468E+00
        -11   -1    0    0    0    0  0.00000000000E+00  0.00000000000E+00  0.45593999997E+02  0.45594000000E+02  0.51100000000E-03 0. -1.
         11   -1    0    0    0    0 -0.00000000000E+00 -0.00000000000E+00 -0.45593999997E+02  0.45594000000E+02  0.51100000000E-03 0.  1.
    9900012    2    1    2    0    0  0.41288606796E+02  0.17955297209E+02  0.14041608246E+01  0.46142318558E+02  0.10000007266E+02 0.  0.
        -12    1    1    2    0    0 -0.41288606796E+02 -0.17955297209E+02 -0.14041608246E+01  0.45045681442E+02  0.00000000000E+00 0.  1.
         11    1    3    3    0    0  0.29445549545E+02  0.11879086182E+02 -0.10184280872E+01  0.31767755233E+02  0.51100000000E-03 0. -1.
        -11    1    3    3    0    0  0.70443014512E+01  0.28867584672E+01  0.37126553768E+01  0.84699095386E+01  0.51100000000E-03 0.  1.
        -12    1    3    3    0    0  0.47987557991E+01  0.31894525596E+01 -0.12900664651E+01  0.59046537861E+01  0.00000000000E+00 0.  1.
</event>
<event>
 7    1  0.1541705E-008  0.4614232E+02  0.7816164E-02  0.1320468E+00
        -11   -1    0    0    0    0  0.00000000000E+00  0.00000000000E+00  0.45593999997E+02  0.45594000000E+02  0.51100000000E-03 0. -1.
         11   -1    0    0    0    0 -0.00000000000E+00 -0.00000000000E+00 -0.45593999997E+02  0.45594000000E+02  0.51100000000E-03 0.  1.
    9900012    2    1    2    0    0 -0.21643873969E+02  0.17164583797E+01  0.39467833568E+02  0.46142318783E+02  0.10000009317E+02 0.  0.
        -12    1    1    2    0    0  0.21643873969E+02 -0.17164583797E+01 -0.39467833568E+02  0.45045681217E+02  0.00000000000E+00 0.  1.
         11    1    3    3    0    0 -0.24472905414E+01  0.43033894576E+00  0.10835552748E+02  0.11116817270E+02  0.51100000000E-03 0. -1.
        -11    1    3    3    0    0 -0.69802735787E+01  0.32826816969E+01  0.94876142266E+01  0.12227634372E+02  0.51100000000E-03 0.  1.
         12    1    3    3    0    0 -0.12216309848E+02 -0.19965622630E+01  0.19144666594E+02  0.22797867141E+02  0.00000000000E+00 0. -1.
</event>
<event>
 7    1  0.1541705E-008  0.4614232E+02  0.7816164E-02  0.1320468E+00
        -11   -1    0    0    0    0  0.00000000000E+00  0.00000000000E+00  0.45593999997E+02  0.45594000000E+02  0.51100000000E-03 0.  1.
         11   -1    0    0    0    0 -0.00000000000E+00 -0.00000000000E+00 -0.45593999997E+02  0.45594000000E+02  0.51100000000E-03 0. -1.
    9900012    2    1    2    0    0  0.37681588110E+02  0.10503659844E+02 -0.22335721921E+02  0.46142318450E+02  0.10000006281E+02 0.  0.
        -12    1    1    2    0    0 -0.37681588110E+02 -0.10503659844E+02  0.22335721921E+02  0.45045681550E+02  0.00000000000E+00 0.  1.
         11    1    3    3    0    0  0.25922623753E+02  0.82573848724E+01 -0.10140522460E+02  0.29034411018E+02  0.51100000000E-03 0.  1.
        -11    1    3    3    0    0  0.72454893206E+01  0.12389458880E+01 -0.79966228358E+01  0.10861771469E+02  0.51100000000E-03 0. -1.
        -12    1    3    3    0    0  0.45134750362E+01  0.10073290838E+01 -0.41985766247E+01  0.62461359623E+01  0.00000000000E+00 0.  1.
</event>
<event>
 7    1  0.1541705E-008  0.4614232E+02  0.7816164E-02  0.1320468E+00
        -11   -1    0    0    0    0  0.00000000000E+00  0.00000000000E+00  0.45593999997E+02  0.45594000000E+02  0.51100000000E-03 0.  1.
         11   -1    0    0    0    0 -0.00000000000E+00 -0.00000000000E+00 -0.45593999997E+02  0.45594000000E+02  0.51100000000E-03 0. -1.
    9900012    2    1    2    0    0 -0.17808084780E+02  0.10589736987E+02 -0.39998036815E+02  0.46142319163E+02  0.10000012782E+02 0.  0.
        -12    1    1    2    0    0  0.17808084780E+02 -0.10589736987E+02  0.39998036815E+02  0.45045680837E+02  0.00000000000E+00 0.  1.
         11    1    3    3    0    0 -0.55490616871E+01  0.65283249661E+01 -0.14755378460E+02  0.17062599633E+02  0.51100000000E-03 0.  1.
        -11    1    3    3    0    0 -0.97537297075E+00  0.26930648437E+01 -0.72771618478E+01  0.78205521228E+01  0.51100000000E-03 0. -1.
         12    1    3    3    0    0 -0.11283650123E+02  0.13683471773E+01 -0.17965496507E+02  0.21259167407E+02  0.00000000000E+00 0. -1.
</event>
<event>
 7    1  0.1541705E-008  0.4614232E+02  0.7816164E-02  0.1320468E+00
        -11   -1    0    0    0    0  0.00000000000E+00  0.00000000000E+00  0.45593999997E+02  0.45594000000E+02  0.51100000000E-03 0. -1.
         11   -1    0    0    0    0 -0.00000000000E+00 -0.00000000000E+00 -0.45593999997E+02  0.45594000000E+02  0.51100000000E-03 0.  1.
    9900012    2    1    2    0    0  0.36179576297E+02  0.81247225722E+01  0.25576172453E+02  0.46142318128E+02  0.10000003350E+02 0.  0.
        -12    1    1    2    0    0 -0.36179576297E+02 -0.81247225722E+01 -0.25576172453E+02  0.45045681872E+02  0.00000000000E+00 0.  1.
         11    1    3    3    0    0  0.13739820406E+02  0.26961052905E+01  0.14229277606E+02  0.19963065646E+02  0.51100000000E-03 0. -1.
        -11    1    3    3    0    0  0.40221167695E+01 -0.62908983222E+00  0.95471875051E+00  0.41814669051E+01  0.51100000000E-03 0.  1.
         12    1    3    3    0    0  0.18417639122E+02  0.60577071140E+01  0.10392176096E+02  0.21997785578E+02  0.00000000000E+00 0. -1.
</event>
<event>
 7    1  0.1541705E-008  0.4614232E+02  0.7816164E-02  0.1320468E+00
        -11   -1    0    0    0    0  0.00000000000E+00  0.00000000000E+00  0.45593999997E+02  0.45594000000E+02  0.51100000000E-03 0. -1.
         11   -1    0    0    0    0 -0.00000000000E+00 -0.00000000000E+00 -0.45593999997E+02  0.45594000000E+02  0.51100000000E-03 0.  1.
    9900012    2    1    2    0    0 -0.11188816696E+00  0.36411990034E+02  0.26519200093E+02  0.46142317513E+02  0.99999977347E+01 0.  0.
        -12    1    1    2    0    0  0.11188816696E+00 -0.36411990034E+02 -0.26519200093E+02  0.45045682487E+02  0.00000000000E+00 0.  1.
         11    1    3    3    0    0  0.21696949507E+01  0.26977458455E+02  0.17537641123E+02  0.32249956547E+02  0.51100000000E-03 0. -1.
        -11    1    3    3    0    0 -0.30058336449E+01  0.41045493473E+01  0.32758728050E+01  0.60509258912E+01  0.51100000000E-03 0.  1.
        -12    1    3    3    0    0  0.72425052727E+00  0.53299822316E+01  0.57056861645E+01  0.78414350742E+01  0.00000000000E+00 0.  1.
</event>
<event>
 7    1  0.1541705E-008  0.4614232E+02  0.7816164E-02  0.1320468E+00
        -11   -1    0    0    0    0  0.00000000000E+00  0.00000000000E+00  0.45593999997E+02  0.45594000000E+02  0.51100000000E-03 0.  1.
         11   -1    0    0    0    0 -0.00000000000E+00 -0.00000000000E+00 -0.45593999997E+02  0.45594000000E+02  0.51100000000E-03 0. -1.
    9900012    2    1    2    0    0  0.26895469658E+02  0.26035249788E+02 -0.25058191839E+02  0.46142317655E+02  0.99999990323E+01 0.  0.
        -12    1    1    2    0    0 -0.26895469658E+02 -0.26035249788E+02  0.25058191839E+02  0.45045682345E+02  0.00000000000E+00 0.  1.
         11    1    3    3    0    0  0.15229431249E+02  0.16145213862E+02 -0.20265473020E+02  0.30054831622E+02  0.51100000000E-03 0. -1.
        -11    1    3    3    0    0  0.15263029821E+01  0.98522845836E+00 -0.17759478061E+00  0.18253262929E+01  0.51100000000E-03 0.  1.
         12    1    3    3    0    0  0.10139735427E+02  0.89048074684E+01 -0.46151240386E+01  0.14262159740E+02  0.00000000000E+00 0. -1.
</event>
<event>
 7    1  0.1541705E-008  0.4614232E+02  0.7816164E-02  0.1320468E+00
        -11   -1    0    0    0    0  0.00000000000E+00  0.00000000000E+00  0.45593999997E+02  0.45594000000E+02  0.51100000000E-03 0.  1.
         11   -1    0    0    0    0 -0.00000000000E+00 -0.00000000000E+00 -0.45593999997E+02  0.45594000000E+02  0.51100000000E-03 0. -1.
    9900012    2    1    2    0    0  0.78250537707E+01 -0.30038258007E+02 -0.32643299979E+02  0.46142318253E+02  0.10000004481E+02 0.  0.
        -12    1    1    2    0    0 -0.78250537707E+01  0.30038258007E+02  0.32643299979E+02  0.45045681747E+02  0.00000000000E+00 0.  1.
         11    1    3    3    0    0  0.57772873197E+01 -0.13934993027E+02 -0.15457456510E+02  0.21598473128E+02  0.51100000000E-03 0. -1.
        -11    1    3    3    0    0 -0.16101821215E+01 -0.56119097517E+01 -0.90620671764E+01  0.10779948019E+02  0.51100000000E-03 0.  1.
        -12    1    3    3    0    0  0.36579485725E+01 -0.10491355228E+02 -0.81237762919E+01  0.13763897105E+02  0.00000000000E+00 0.  1.
</event>
<event>
 7    1  0.1541705E-008  0.4614232E+02  0.7816164E-02  0.1320468E+00
        -11   -1    0    0    0    0  0.00000000000E+00  0.00000000000E+00  0.45593999997E+02  0.45594000000E+02  0.51100000000E-03 0.  1.
         11   -1    0    0    0    0 -0.00000000000E+00 -0.00000000000E+00 -0.45593999997E+02  0.45594000000E+02  0.51100000000E-03 0. -1.
    9900012    2    1    2    0    0 -0.21283511673E+01 -0.80701652052E+01 -0.44265743931E+02  0.46142317289E+02  0.99999956914E+01 0.  0.
        -12    1    1    2    0    0  0.21283511673E+01  0.80701652052E+01  0.44265743931E+02  0.45045682711E+02  0.00000000000E+00 0.  1.
         11    1    3    3    0    0 -0.10433450753E+00 -0.23983609759E+01 -0.20697857674E+02  0.20836610416E+02  0.51100000000E-03 0. -1.
        -11    1    3    3    0    0 -0.38821477881E+01 -0.80199313871E+00 -0.90346647671E+01  0.98660748101E+01  0.51100000000E-03 0.  1.
         12    1    3    3    0    0  0.18581311284E+01 -0.48698110905E+01 -0.14533221490E+02  0.15439632062E+02  0.00000000000E+00 0. -1.
</event>
<event>
 7    1  0.1541705E-008  0.4614232E+02  0.7816164E-02  0.1320468E+00
        -11   -1    0    0    0    0  0.00000000000E+00  0.00000000000E+00  0.45593999997E+02  0.45594000000E+02  0.51100000000E-03 0.  1.
         11   -1    0    0    0    0 -0.00000000000E+00 -0.00000000000E+00 -0.45593999997E+02  0.45594000000E+02  0.51100000000E-03 0. -1.
    9900012    2    1    2    0    0  0.17468650115E+01 -0.15340621403E+02 -0.42316986982E+02  0.46142316637E+02  0.99999897488E+01 0.  0.
        -12    1    1    2    0    0 -0.17468650115E+01  0.15340621403E+02  0.42316986982E+02  0.45045683363E+02  0.00000000000E+00 0.  1.
         11    1    3    3    0    0 -0.10080559614E+01 -0.24018835164E+01 -0.11623020144E+02  0.11911331528E+02  0.51100000000E-03 0. -1.
        -11    1    3    3    0    0  0.14925976124E+01 -0.11867095247E+02 -0.19216594358E+02  0.22634780675E+02  0.51100000000E-03 0.  1.
        -12    1    3    3    0    0  0.12623233605E+01 -0.10716426396E+01 -0.11477372481E+02  0.11596204434E+02  0.00000000000E+00 0.  1.
</event>
<event>
 7    1  0.1541705E-008  0.4614232E+02  0.7816164E-02  0.1320468E+00
        -11   -1    0    0    0    0  0.00000000000E+00  0.00000000000E+00  0.45593999997E+02  0.45594000000E+02  0.51100000000E-03 0. -1.
         11   -1    0    0    0    0 -0.00000000000E+00 -0.00000000000E+00 -0.45593999997E+02  0.45594000000E+02  0.51100000000E-03 0.  1.
    9900012    2    1    2    0    0 -0.42901129078E+02 -0.94214207923E+01 -0.99921702765E+01  0.46142317490E+02  0.99999975292E+01 0.  0.
        -12    1    1    2    0    0  0.42901129078E+02  0.94214207923E+01  0.99921702765E+01  0.45045682510E+02  0.00000000000E+00 0.  1.
         11    1    3    3    0    0 -0.17824392550E+02 -0.64255250892E+01 -0.72012697934E+01  0.20269549313E+02  0.51100000000E-03 0. -1.
        -11    1    3    3    0    0 -0.12357872121E+01  0.35750007104E+00  0.82332360737E+00  0.15273632044E+01  0.51100000000E-03 0.  1.
         12    1    3    3    0    0 -0.23840949317E+02 -0.33533957741E+01 -0.36142240904E+01  0.24345404973E+02  0.00000000000E+00 0. -1.
</event>
<event>
 7    1  0.1541705E-008  0.4614232E+02  0.7816164E-02  0.1320468E+00
        -11   -1    0    0    0    0  0.00000000000E+00  0.00000000000E+00  0.45593999997E+02  0.45594000000E+02  0.51100000000E-03 0.  1.
         11   -1    0    0    0    0 -0.00000000000E+00 -0.00000000000E+00 -0.45593999997E+02  0.45594000000E+02  0.51100000000E-03 0. -1.
    9900012    2    1    2    0    0 -0.32467889821E+02 -0.30882450640E+02 -0.46069412624E+01  0.46142317246E+02  0.99999953039E+01 0.  0.
        -12    1    1    2    0    0  0.32467889821E+02  0.30882450640E+02  0.46069412624E+01  0.45045682754E+02  0.00000000000E+00 0.  1.
         11    1    3    3    0    0 -0.20523252775E+02 -0.17829281876E+02  0.96755468203E+00  0.27203370361E+02  0.51100000000E-03 0. -1.
        -11    1    3    3    0    0 -0.11310217718E+02 -0.12613075520E+02 -0.43493375255E+01  0.17490781460E+02  0.51100000000E-03 0.  1.
        -12    1    3    3    0    0 -0.63441932810E+00 -0.44009324412E+00 -0.12251584190E+01  0.14481654253E+01  0.00000000000E+00 0.  1.
</event>
<event>
 7    1  0.1541705E-008  0.4614232E+02  0.7816164E-02  0.1320468E+00
        -11   -1    0    0    0    0  0.00000000000E+00  0.00000000000E+00  0.45593999997E+02  0.45594000000E+02  0.51100000000E-03 0.  1.
         11   -1    0    0    0    0 -0.00000000000E+00 -0.00000000000E+00 -0.45593999997E+02  0.45594000000E+02  0.51100000000E-03 0. -1.
    9900012    2    1    2    0    0  0.25709390320E+02 -0.36935824474E+02  0.19711578686E+01  0.46142319369E+02  0.10000014664E+02 0.  0.
        -12    1    1    2    0    0 -0.25709390320E+02  0.36935824474E+02 -0.19711578686E+01  0.45045680631E+02  0.00000000000E+00 0.  1.
         11    1    3    3    0    0  0.11410325752E+02 -0.15158770557E+02 -0.37414452198E+01  0.19338621232E+02  0.51100000000E-03 0. -1.
        -11    1    3    3    0    0  0.46228451142E+01 -0.78183805393E+01  0.32228703601E+01  0.96376690557E+01  0.51100000000E-03 0.  1.
         12    1    3    3    0    0  0.96762194531E+01 -0.13958673378E+02  0.24897327283E+01  0.17166029082E+02  0.00000000000E+00 0. -1.
</event>
<event>
 7    1  0.1541705E-008  0.4614232E+02  0.7816164E-02  0.1320468E+00
        -11   -1    0    0    0    0  0.00000000000E+00  0.00000000000E+00  0.45593999997E+02  0.45594000000E+02  0.51100000000E-03 0.  1.
         11   -1    0    0    0    0 -0.00000000000E+00 -0.00000000000E+00 -0.45593999997E+02  0.45594000000E+02  0.51100000000E-03 0. -1.
    9900012    2    1    2    0    0 -0.29153827181E+02 -0.31568567972E+02 -0.13512714674E+02  0.46142316733E+02  0.99999906287E+01 0.  0.
        -12    1    1    2    0    0  0.29153827181E+02  0.31568567972E+02  0.13512714674E+02  0.45045683267E+02  0.00000000000E+00 0.  1.
         11    1    3    3    0    0 -0.12899950770E+02 -0.16465254310E+02 -0.37496669160E+01  0.21250254860E+02  0.51100000000E-03 0. -1.
        -11    1    3    3    0    0 -0.78122620863E+00 -0.23922597685E+01 -0.26173751131E+01  0.36309604697E+01  0.51100000000E-03 0.  1.
         12    1    3    3    0    0 -0.15472650202E+02 -0.12711053894E+02 -0.71456726449E+01  0.21261101404E+02  0.00000000000E+00 0. -1.
</event>
<event>
 7    1  0.1541705E-008  0.4614232E+02  0.7816164E-02  0.1320468E+00
        -11   -1    0    0    0    0  0.00000000000E+00  0.00000000000E+00  0.45593999997E+02  0.45594000000E+02  0.51100000000E-03 0. -1.
         11   -1    0    0    0    0 -0.00000000000E+00 -0.00000000000E+00 -0.45593999997E+02  0.45594000000E+02  0.51100000000E-03 0.  1.
    9900012    2    1    2    0    0 -0.35417921883E+02  0.27829772645E+02  0.43369053114E+00  0.46142317371E+02  0.99999964463E+01 0.  0.
        -12    1    1    2    0    0  0.35417921883E+02 -0.27829772645E+02 -0.43369053114E+00  0.45045682629E+02  0.00000000000E+00 0.  1.
         11    1    3    3    0    0 -0.27682558317E+02  0.25256619372E+02  0.15883068496E+01  0.37506580436E+02  0.51100000000E-03 0. -1.
        -11    1    3    3    0    0 -0.53671163973E+01  0.48437085777E+00 -0.94352469495E+00  0.54709041905E+01  0.51100000000E-03 0.  1.
        -12    1    3    3    0    0 -0.23682471687E+01  0.20887824146E+01 -0.21109162352E+00  0.31648327446E+01  0.00000000000E+00 0.  1.
</event>
<event>
 7    1  0.1541705E-008  0.4614232E+02  0.7816164E-02  0.1320468E+00
        -11   -1    0    0    0    0  0.00000000000E+00  0.00000000000E+00  0.45593999997E+02  0.45594000000E+02  0.51100000000E-03 0.  1.
         11   -1    0    0    0    0 -0.00000000000E+00 -0.00000000000E+00 -0.45593999997E+02  0.45594000000E+02  0.51100000000E-03 0. -1.
    9900012    2    1    2    0    0 -0.38188047182E+01 -0.38036860938E+02 -0.23827031062E+02  0.46142317979E+02  0.10000001986E+02 0.  0.
        -12    1    1    2    0    0  0.38188047182E+01  0.38036860938E+02  0.23827031062E+02  0.45045682021E+02  0.00000000000E+00 0.  1.
         11    1    3    3    0    0 -0.13885931295E+01 -0.12881069959E+02 -0.12320478673E+02  0.17878600314E+02  0.51100000000E-03 0. -1.
        -11    1    3    3    0    0 -0.37838645664E+01 -0.12180921360E+02 -0.52061305633E+01  0.13776656777E+02  0.51100000000E-03 0.  1.
        -12    1    3    3    0    0  0.13536529777E+01 -0.12974869619E+02 -0.63004218252E+01  0.14487060888E+02  0.00000000000E+00 0.  1.
</event>
<event>
 7    1  0.1541705E-008  0.4614232E+02  0.7816164E-02  0.1320468E+00
        -11   -1    0    0    0    0  0.00000000000E+00  0.00000000000E+00  0.45593999997E+02  0.45594000000E+02  0.51100000000E-03 0.  1.
         11   -1    0    0    0    0 -0.00000000000E+00 -0.00000000000E+00 -0.45593999997E+02  0.45594000000E+02  0.51100000000E-03 0. -1.
    9900012    2    1    2    0    0 -0.27535778441E+02  0.33730449740E+02  0.11539112677E+02  0.46142318128E+02  0.10000003341E+02 0.  0.
        -12    1    1    2    0    0  0.27535778441E+02 -0.33730449740E+02 -0.11539112677E+02  0.45045681872E+02  0.00000000000E+00 0.  1.
         11    1    3    3    0    0 -0.27870068899E+01  0.31555488204E+01 -0.61592400818E+00  0.42549099176E+01  0.51100000000E-03 0.  1.
        -11    1    3    3    0    0 -0.12412924883E+02  0.11758390908E+02  0.84949525258E+01  0.19092005646E+02  0.51100000000E-03 0. -1.
        -12    1    3    3    0    0 -0.12335846668E+02  0.18816510011E+02  0.36600841597E+01  0.22795402564E+02  0.00000000000E+00 0.  1.
</event>
<event>
 7    1  0.1541705E-008  0.4614232E+02  0.7816164E-02  0.1320468E+00
        -11   -1    0    0    0    0  0.00000000000E+00  0.00000000000E+00  0.45593999997E+02  0.45594000000E+02  0.51100000000E-03 0.  1.
         11   -1    0    0    0    0 -0.00000000000E+00 -0.00000000000E+00 -0.45593999997E+02  0.45594000000E+02  0.51100000000E-03 0. -1.
    9900012    2    1    2    0    0 -0.22620578452E+02 -0.29864817018E+02 -0.25010304003E+02  0.46142321280E+02  0.10000032088E+02 0.  0.
        -12    1    1    2    0    0  0.22620578452E+02  0.29864817018E+02  0.25010304003E+02  0.45045678720E+02  0.00000000000E+00 0.  1.
         11    1    3    3    0    0 -0.15291435490E+02 -0.21367871553E+02 -0.16650506360E+02  0.31107126134E+02  0.51100000000E-03 0. -1.
        -11    1    3    3    0    0 -0.36581672434E+01 -0.42855317167E+01 -0.88551712669E+00  0.57036927090E+01  0.51100000000E-03 0.  1.
        -12    1    3    3    0    0 -0.36709757184E+01 -0.42114137491E+01 -0.74742805162E+01  0.93315024367E+01  0.00000000000E+00 0.  1.
</event>
<event>
 7    1  0.1541705E-008  0.4614232E+02  0.7816164E-02  0.1320468E+00
        -11   -1    0    0    0    0  0.00000000000E+00  0.00000000000E+00  0.45593999997E+02  0.45594000000E+02  0.51100000000E-03 0.  1.
         11   -1    0    0    0    0 -0.00000000000E+00 -0.00000000000E+00 -0.45593999997E+02  0.45594000000E+02  0.51100000000E-03 0. -1.
    9900012    2    1    2    0    0  0.19532623120E+02 -0.22521412038E+02 -0.33769455181E+02  0.46142317972E+02  0.10000001925E+02 0.  0.
        -12    1    1    2    0    0 -0.19532623120E+02  0.22521412038E+02  0.33769455181E+02  0.45045682028E+02  0.00000000000E+00 0.  1.
         11    1    3    3    0    0  0.17936218311E-01 -0.20014888712E+01 -0.51284610885E+00  0.20662262224E+01  0.51100000000E-03 0. -1.
        -11    1    3    3    0    0  0.22040978626E+01 -0.25255970713E+00 -0.18905063679E+01  0.29147638638E+01  0.51100000000E-03 0.  1.
         12    1    3    3    0    0  0.17310589039E+02 -0.20267363460E+02 -0.31366102704E+02  0.41161327886E+02  0.00000000000E+00 0. -1.
</event>
<event>
 7    1  0.1541705E-008  0.4614232E+02  0.7816164E-02  0.1320468E+00
        -11   -1    0    0    0    0  0.00000000000E+00  0.00000000000E+00  0.45593999997E+02  0.45594000000E+02  0.51100000000E-03 0.  1.
         11   -1    0    0    0    0 -0.00000000000E+00 -0.00000000000E+00 -0.45593999997E+02  0.45594000000E+02  0.51100000000E-03 0. -1.
    9900012    2    1    2    0    0  0.37532533448E+02  0.24857081842E+02 -0.15960624006E+01  0.46142323182E+02  0.10000049435E+02 0.  0.
        -12    1    1    2    0    0 -0.37532533448E+02 -0.24857081842E+02  0.15960624006E+01  0.45045676818E+02  0.00000000000E+00 0.  1.
         11    1    3    3    0    0  0.88409974623E+01  0.37847375263E+01 -0.37436845974E+01  0.10320012059E+02  0.51100000000E-03 0. -1.
        -11    1    3    3    0    0  0.14162488149E+02  0.83222063096E+01  0.11165639122E+01  0.16464565092E+02  0.51100000000E-03 0.  1.
         12    1    3    3    0    0  0.14529047837E+02  0.12750138006E+02  0.10310582846E+01  0.19357746031E+02  0.00000000000E+00 0. -1.
</event>
<event>
 7    1  0.1541705E-008  0.4614232E+02  0.7816164E-02  0.1320468E+00
        -11   -1    0    0    0    0  0.00000000000E+00  0.00000000000E+00  0.45593999997E+02  0.45594000000E+02  0.51100000000E-03 0.  1.
         11   -1    0    0    0    0 -0.00000000000E+00 -0.00000000000E+00 -0.45593999997E+02  0.45594000000E+02  0.51100000000E-03 0. -1.
    9900012    2    1    2    0    0 -0.95852599643E+01  0.19498890297E+02 -0.39459213022E+02  0.46142318479E+02  0.10000006547E+02 0.  0.
        -12    1    1    2    0    0  0.95852599643E+01 -0.19498890297E+02  0.39459213022E+02  0.45045681521E+02  0.00000000000E+00 0.  1.
         11    1    3    3    0    0 -0.19440085515E+01  0.89331976150E+01 -0.25112299625E+02  0.26724684874E+02  0.51100000000E-03 0. -1.
        -11    1    3    3    0    0 -0.55363862753E+01  0.81787598533E+01 -0.10311544986E+02  0.14278362861E+02  0.51100000000E-03 0.  1.
         12    1    3    3    0    0 -0.21048651374E+01  0.23869328284E+01 -0.40353684109E+01  0.51392707445E+01  0.00000000000E+00 0. -1.
</event>
<event>
 7    1  0.1541705E-008  0.4614231E+02  0.7816164E-02  0.1320468E+00
        -11   -1    0    0    0    0  0.00000000000E+00  0.00000000000E+00  0.45593999997E+02  0.45594000000E+02  0.51100000000E-03 0.  1.
         11   -1    0    0    0    0 -0.00000000000E+00 -0.00000000000E+00 -0.45593999997E+02  0.45594000000E+02  0.51100000000E-03 0. -1.
    9900012    2    1    2    0    0  0.21382460724E+02 -0.25554224536E+02 -0.30313130720E+02  0.46142313056E+02  0.99999570905E+01 0.  0.
        -12    1    1    2    0    0 -0.21382460724E+02  0.25554224536E+02  0.30313130720E+02  0.45045686944E+02  0.00000000000E+00 0.  1.
         11    1    3    3    0    0  0.44633285666E+01 -0.84292972733E+01 -0.11496322147E+02  0.14937863890E+02  0.51100000000E-03 0. -1.
        -11    1    3    3    0    0  0.14400057776E+02 -0.11044568869E+02 -0.15331262460E+02  0.23756931080E+02  0.51100000000E-03 0.  1.
        -12    1    3    3    0    0  0.25190743809E+01 -0.60803583935E+01 -0.34855461130E+01  0.74475180856E+01  0.00000000000E+00 0.  1.
</event>
<event>
 7    1  0.1541705E-008  0.4614231E+02  0.7816164E-02  0.1320468E+00
        -11   -1    0    0    0    0  0.00000000000E+00  0.00000000000E+00  0.45593999997E+02  0.45594000000E+02  0.51100000000E-03 0. -1.
         11   -1    0    0    0    0 -0.00000000000E+00 -0.00000000000E+00 -0.45593999997E+02  0.45594000000E+02  0.51100000000E-03 0.  1.
    9900012    2    1    2    0    0  0.29956316558E+02  0.71841607742E+01  0.32865190139E+02  0.46142314406E+02  0.99999694090E+01 0.  0.
        -12    1    1    2    0    0 -0.29956316558E+02 -0.71841607742E+01 -0.32865190139E+02  0.45045685594E+02  0.00000000000E+00 0.  1.
         11    1    3    3    0    0  0.21320594117E+02  0.11403196703E+01  0.24058301201E+02  0.32166285446E+02  0.51100000000E-03 0. -1.
        -11    1    3    3    0    0  0.56820411884E+01  0.46424760334E+01  0.46469677525E+01  0.86851876976E+01  0.51100000000E-03 0.  1.
         12    1    3    3    0    0  0.29536812523E+01  0.14013650705E+01  0.41599211852E+01  0.52908412628E+01  0.00000000000E+00 0. -1.
</event>
<event>
 7    1  0.1541705E-008  0.4614232E+02  0.7816164E-02  0.1320468E+00
        -11   -1    0    0    0    0  0.00000000000E+00  0.00000000000E+00  0.45593999997E+02  0.45594000000E+02  0.51100000000E-03 0.  1.
         11   -1    0    0    0    0 -0.00000000000E+00 -0.00000000000E+00 -0.45593999997E+02  0.45594000000E+02  0.51100000000E-03 0. -1.
    9900012    2    1    2    0    0 -0.46015228910E+01  0.44798282273E+02 -0.10264091756E+01  0.46142316263E+02  0.99999863387E+01 0.  0.
        -12    1    1    2    0    0  0.46015228910E+01 -0.44798282273E+02  0.10264091756E+01  0.45045683737E+02  0.00000000000E+00 0.  1.
         11    1    3    3    0    0  0.33215107960E+00  0.11269094447E+02 -0.25824433024E+01  0.11565977160E+02  0.51100000000E-03 0. -1.
        -11    1    3    3    0    0 -0.18115284127E+01  0.67020631815E+01  0.29247490008E+01  0.75334881069E+01  0.51100000000E-03 0.  1.
         12    1    3    3    0    0 -0.31221455579E+01  0.26827124645E+02 -0.13687148741E+01  0.27042850996E+02  0.00000000000E+00 0. -1.
</event>
<event>
 7    1  0.1541705E-008  0.4614232E+02  0.7816164E-02  0.1320468E+00
        -11   -1    0    0    0    0  0.00000000000E+00  0.00000000000E+00  0.45593999997E+02  0.45594000000E+02  0.51100000000E-03 0.  1.
         11   -1    0    0    0    0 -0.00000000000E+00 -0.00000000000E+00 -0.45593999997E+02  0.45594000000E+02  0.51100000000E-03 0. -1.
    9900012    2    1    2    0    0 -0.36361534836E+02 -0.17628749127E+01 -0.26530069024E+02  0.46142317566E+02  0.99999982177E+01 0.  0.
        -12    1    1    2    0    0  0.36361534836E+02  0.17628749127E+01  0.26530069024E+02  0.45045682434E+02  0.00000000000E+00 0.  1.
         11    1    3    3    0    0 -0.16850741317E+02 -0.45308831064E+00 -0.90260319219E+01  0.19121245369E+02  0.51100000000E-03 0. -1.
        -11    1    3    3    0    0 -0.70415990403E+01 -0.30978326539E+01 -0.89122575023E+01  0.11773233126E+02  0.51100000000E-03 0.  1.
        -12    1    3    3    0    0 -0.12469194478E+02  0.17880460519E+01 -0.85917795996E+01  0.15247839070E+02  0.00000000000E+00 0.  1.
</event>
<event>
 7    1  0.1541705E-008  0.4614232E+02  0.7816164E-02  0.1320468E+00
        -11   -1    0    0    0    0  0.00000000000E+00  0.00000000000E+00  0.45593999997E+02  0.45594000000E+02  0.51100000000E-03 0.  1.
         11   -1    0    0    0    0 -0.00000000000E+00 -0.00000000000E+00 -0.45593999997E+02  0.45594000000E+02  0.51100000000E-03 0. -1.
    9900012    2    1    2    0    0  0.23483320178E+02 -0.17067530095E+02 -0.34443382617E+02  0.46142317452E+02  0.99999971813E+01 0.  0.
        -12    1    1    2    0    0 -0.23483320178E+02  0.17067530095E+02  0.34443382617E+02  0.45045682548E+02  0.00000000000E+00 0.  1.
         11    1    3    3    0    0  0.11210240291E+02 -0.12179340207E+02 -0.20090365670E+02  0.26031300549E+02  0.51100000000E-03 0. -1.
        -11    1    3    3    0    0  0.24014494215E+01 -0.65847723562E+00 -0.42955998685E+00  0.25268703246E+01  0.51100000000E-03 0.  1.
         12    1    3    3    0    0  0.98716304654E+01 -0.42297126521E+01 -0.13923456960E+02  0.17584146578E+02  0.00000000000E+00 0. -1.
</event>
<event>
 7    1  0.1541705E-008  0.4614232E+02  0.7816164E-02  0.1320468E+00
        -11   -1    0    0    0    0  0.00000000000E+00  0.00000000000E+00  0.45593999997E+02  0.45594000000E+02  0.51100000000E-03 0. -1.
         11   -1    0    0    0    0 -0.00000000000E+00 -0.00000000000E+00 -0.45593999997E+02  0.45594000000E+02  0.51100000000E-03 0.  1.
    9900012    2    1    2    0    0  0.36117975109E+02  0.12172955260E+02  0.24008843490E+02  0.46142317282E+02  0.99999956326E+01 0.  0.
        -12    1    1    2    0    0 -0.36117975109E+02 -0.12172955260E+02 -0.24008843490E+02  0.45045682718E+02  0.00000000000E+00 0.  1.
         11    1    3    3    0    0  0.82014528956E+01  0.29056136706E+01  0.10332826287E+01  0.87620827235E+01  0.51100000000E-03 0. -1.
        -11    1    3    3    0    0  0.23851795312E+01  0.40199820005E+00  0.24505465367E+01  0.34432343136E+01  0.51100000000E-03 0.  1.
         12    1    3    3    0    0  0.25531342683E+02  0.88653433894E+01  0.20525014325E+02  0.33937000245E+02  0.00000000000E+00 0. -1.
</event>
<event>
 7    1  0.1541705E-008  0.4614233E+02  0.7816164E-02  0.1320468E+00
        -11   -1    0    0    0    0  0.00000000000E+00  0.00000000000E+00  0.45593999997E+02  0.45594000000E+02  0.51100000000E-03 0. -1.
         11   -1    0    0    0    0 -0.00000000000E+00 -0.00000000000E+00 -0.45593999997E+02  0.45594000000E+02  0.51100000000E-03 0.  1.
    9900012    2    1    2    0    0 -0.26283737661E+02 -0.28984287843E+02  0.22320137295E+02  0.46142330552E+02  0.10000116635E+02 0.  0.
        -12    1    1    2    0    0  0.26283737661E+02  0.28984287843E+02 -0.22320137295E+02  0.45045669448E+02  0.00000000000E+00 0.  1.
         11    1    3    3    0    0 -0.56871447319E+01 -0.89817632395E+01  0.90208670796E+01  0.13942443445E+02  0.51100000000E-03 0. -1.
        -11    1    3    3    0    0 -0.18211253130E+02 -0.18142262966E+02  0.96442821965E+01  0.27455484433E+02  0.51100000000E-03 0.  1.
        -12    1    3    3    0    0 -0.23853397986E+01 -0.18602616375E+01  0.36549880188E+01  0.47444026739E+01  0.00000000000E+00 0.  1.
</event>
<event>
 7    1  0.1541705E-008  0.4614230E+02  0.7816164E-02  0.1320468E+00
        -11   -1    0    0    0    0  0.00000000000E+00  0.00000000000E+00  0.45593999997E+02  0.45594000000E+02  0.51100000000E-03 0. -1.
         11   -1    0    0    0    0 -0.00000000000E+00 -0.00000000000E+00 -0.45593999997E+02  0.45594000000E+02  0.51100000000E-03 0.  1.
    9900012    2    1    2    0    0  0.37864704751E+02 -0.24360989105E+02 -0.13860412973E+01  0.46142303573E+02  0.99998706244E+01 0.  0.
        -12    1    1    2    0    0 -0.37864704751E+02  0.24360989105E+02  0.13860412973E+01  0.45045696427E+02  0.00000000000E+00 0.  1.
         11    1    3    3    0    0  0.10316953636E+02 -0.38563416974E+01 -0.29648881800E+01  0.11406202952E+02  0.51100000000E-03 0. -1.
        -11    1    3    3    0    0  0.19109805267E+02 -0.11324338304E+02  0.15475329791E+01  0.22267019422E+02  0.51100000000E-03 0.  1.
        -12    1    3    3    0    0  0.84379458483E+01 -0.91803091037E+01  0.31313903554E-01  0.12469081199E+02  0.00000000000E+00 0.  1.
</event>
<event>
 7    1  0.1541705E-008  0.4614232E+02  0.7816164E-02  0.1320468E+00
        -11   -1    0    0    0    0  0.00000000000E+00  0.00000000000E+00  0.45593999997E+02  0.45594000000E+02  0.51100000000E-03 0.  1.
         11   -1    0    0    0    0 -0.00000000000E+00 -0.00000000000E+00 -0.45593999997E+02  0.45594000000E+02  0.51100000000E-03 0. -1.
    9900012    2    1    2    0    0  0.43144654063E+02  0.52876350968E+01 -0.11819185010E+02  0.46142318815E+02  0.10000009613E+02 0.  0.
        -12    1    1    2    0    0 -0.43144654063E+02 -0.52876350968E+01  0.11819185010E+02  0.45045681185E+02  0.00000000000E+00 0.  1.
         11    1    3    3    0    0  0.51013071170E+01  0.29054997195E+01 -0.36888255330E+01  0.69334476991E+01  0.51100000000E-03 0. -1.
        -11    1    3    3    0    0  0.25886813125E+02 -0.35438398315E+00 -0.58308903132E+01  0.26537746022E+02  0.51100000000E-03 0.  1.
         12    1    3    3    0    0  0.12156533820E+02  0.27365193605E+01 -0.22994691635E+01  0.12671125095E+02  0.00000000000E+00 0. -1.
</event>
<event>
 7    1  0.1541705E-008  0.4614232E+02  0.7816164E-02  0.1320468E+00
        -11   -1    0    0    0    0  0.00000000000E+00  0.00000000000E+00  0.45593999997E+02  0.45594000000E+02  0.51100000000E-03 0. -1.
         11   -1    0    0    0    0 -0.00000000000E+00 -0.00000000000E+00 -0.45593999997E+02  0.45594000000E+02  0.51100000000E-03 0.  1.
    9900012    2    1    2    0    0  0.13352417113E+02 -0.16007667921E+02  0.39932204342E+02  0.46142318535E+02  0.10000007058E+02 0.  0.
        -12    1    1    2    0    0 -0.13352417113E+02  0.16007667921E+02 -0.39932204342E+02  0.45045681465E+02  0.00000000000E+00 0.  1.
         11    1    3    3    0    0  0.46509110021E+01 -0.11155939071E+02  0.26307930900E+02  0.28951566075E+02  0.51100000000E-03 0. -1.
        -11    1    3    3    0    0  0.75454077205E+01 -0.51559688139E+01  0.12843104888E+02  0.15762694424E+02  0.51100000000E-03 0.  1.
         12    1    3    3    0    0  0.11560983904E+01  0.30423996425E+00  0.78116855397E+00  0.14280580359E+01  0.00000000000E+00 0. -1.
</event>
<event>
 7    1  0.1541705E-008  0.4614232E+02  0.7816164E-02  0.1320468E+00
        -11   -1    0    0    0    0  0.00000000000E+00  0.00000000000E+00  0.45593999997E+02  0.45594000000E+02  0.51100000000E-03 0.  1.
         11   -1    0    0    0    0 -0.00000000000E+00 -0.00000000000E+00 -0.45593999997E+02  0.45594000000E+02  0.51100000000E-03 0. -1.
    9900012    2    1    2    0    0 -0.56386568755E+01  0.23231973580E+01 -0.44630952198E+02  0.46142316617E+02  0.99999895689E+01 0.  0.
        -12    1    1    2    0    0  0.56386568755E+01 -0.23231973580E+01  0.44630952198E+02  0.45045683383E+02  0.00000000000E+00 0.  1.
         11    1    3    3    0    0 -0.61357127823E+00  0.45991237280E+01 -0.14462137364E+02  0.15188213397E+02  0.51100000000E-03 0. -1.
        -11    1    3    3    0    0 -0.18749597412E+01 -0.81263989993E+00 -0.34447987422E+01  0.40053085116E+01  0.51100000000E-03 0.  1.
         12    1    3    3    0    0 -0.31501258561E+01 -0.14632864700E+01 -0.26724016091E+02  0.26948794709E+02  0.00000000000E+00 0. -1.
</event>
<event>
 7    1  0.1541705E-008  0.4614232E+02  0.7816164E-02  0.1320468E+00
        -11   -1    0    0    0    0  0.00000000000E+00  0.00000000000E+00  0.45593999997E+02  0.45594000000E+02  0.51100000000E-03 0. -1.
         11   -1    0    0    0    0 -0.00000000000E+00 -0.00000000000E+00 -0.45593999997E+02  0.45594000000E+02  0.51100000000E-03 0.  1.
    9900012    2    1    2    0    0 -0.13501021207E+02  0.63659430788E+00  0.42970113943E+02  0.46142317429E+02  0.99999969759E+01 0.  0.
        -12    1    1    2    0    0  0.13501021207E+02 -0.63659430788E+00 -0.42970113943E+02  0.45045682571E+02  0.00000000000E+00 0.  1.
         11    1    3    3    0    0 -0.28266743152E+01  0.30856502167E+01  0.88925316627E+01  0.98279420316E+01  0.51100000000E-03 0. -1.
        -11    1    3    3    0    0 -0.11272870666E+02 -0.30320889687E+01  0.30989796141E+02  0.33115534748E+02  0.51100000000E-03 0.  1.
        -12    1    3    3    0    0  0.59852377352E+00  0.58303305993E+00  0.30877861397E+01  0.31988406495E+01  0.00000000000E+00 0.  1.
</event>
<event>
 7    1  0.1541705E-008  0.4614232E+02  0.7816164E-02  0.1320468E+00
        -11   -1    0    0    0    0  0.00000000000E+00  0.00000000000E+00  0.45593999997E+02  0.45594000000E+02  0.51100000000E-03 0.  1.
         11   -1    0    0    0    0 -0.00000000000E+00 -0.00000000000E+00 -0.45593999997E+02  0.45594000000E+02  0.51100000000E-03 0. -1.
    9900012    2    1    2    0    0  0.27325906263E+02 -0.66952047543E+01 -0.35179291498E+02  0.46142317964E+02  0.10000001852E+02 0.  0.
        -12    1    1    2    0    0 -0.27325906263E+02  0.66952047543E+01  0.35179291498E+02  0.45045682036E+02  0.00000000000E+00 0.  1.
         11    1    3    3    0    0  0.19035128248E+02 -0.56829433378E+01 -0.30095977181E+02  0.36061056490E+02  0.51100000000E-03 0. -1.
        -11    1    3    3    0    0  0.73897309416E+01 -0.46384142267E+00 -0.51580603965E+01  0.90237940784E+01  0.51100000000E-03 0.  1.
        -12    1    3    3    0    0  0.90104707252E+00 -0.54841999382E+00  0.74746079908E-01  0.10574673957E+01  0.00000000000E+00 0.  1.
</event>
<event>
 7    1  0.1541705E-008  0.4614232E+02  0.7816164E-02  0.1320468E+00
        -11   -1    0    0    0    0  0.00000000000E+00  0.00000000000E+00  0.45593999997E+02  0.45594000000E+02  0.51100000000E-03 0.  1.
         11   -1    0    0    0    0 -0.00000000000E+00 -0.00000000000E+00 -0.45593999997E+02  0.45594000000E+02  0.51100000000E-03 0. -1.
    9900012    2    1    2    0    0  0.13909994924E+02 -0.30204825156E+02 -0.30385753872E+02  0.46142318078E+02  0.10000002886E+02 0.  0.
        -12    1    1    2    0    0 -0.13909994924E+02  0.30204825156E+02  0.30385753872E+02  0.45045681922E+02  0.00000000000E+00 0.  1.
         11    1    3    3    0    0  0.96038384258E+01 -0.24761710373E+02 -0.24419181455E+02  0.36078697819E+02  0.51100000000E-03 0. -1.
        -11    1    3    3    0    0  0.37285460598E+01 -0.22152478479E+01 -0.50542312869E+01  0.66599273952E+01  0.51100000000E-03 0.  1.
         12    1    3    3    0    0  0.57761043800E+00 -0.32278669356E+01 -0.91234112949E+00  0.34036928634E+01  0.00000000000E+00 0. -1.
</event>
<event>
 7    1  0.1541705E-008  0.4614232E+02  0.7816164E-02  0.1320468E+00
        -11   -1    0    0    0    0  0.00000000000E+00  0.00000000000E+00  0.45593999997E+02  0.45594000000E+02  0.51100000000E-03 0.  1.
         11   -1    0    0    0    0 -0.00000000000E+00 -0.00000000000E+00 -0.45593999997E+02  0.45594000000E+02  0.51100000000E-03 0. -1.
    9900012    2    1    2    0    0  0.28489491838E+01  0.28060968613E+01 -0.44867836820E+02  0.46142317943E+02  0.10000001659E+02 0.  0.
        -12    1    1    2    0    0 -0.28489491838E+01 -0.28060968613E+01  0.44867836820E+02  0.45045682057E+02  0.00000000000E+00 0.  1.
         11    1    3    3    0    0  0.53599163856E+01  0.19052655293E+01 -0.37948819886E+02  0.38372798587E+02  0.51100000000E-03 0. -1.
        -11    1    3    3    0    0 -0.29350147643E+00  0.31886118730E+00  0.47030156393E-01  0.43592163306E+00  0.51100000000E-03 0.  1.
         12    1    3    3    0    0 -0.22174657254E+01  0.58197014472E+00 -0.69660470906E+01  0.73335977229E+01  0.00000000000E+00 0. -1.
</event>
<event>
 7    1  0.1541705E-008  0.4614232E+02  0.7816164E-02  0.1320468E+00
        -11   -1    0    0    0    0  0.00000000000E+00  0.00000000000E+00  0.45593999997E+02  0.45594000000E+02  0.51100000000E-03 0. -1.
         11   -1    0    0    0    0 -0.00000000000E+00 -0.00000000000E+00 -0.45593999997E+02  0.45594000000E+02  0.51100000000E-03 0.  1.
    9900012    2    1    2    0    0 -0.34059703421E+02 -0.26499293043E+02  0.12916555536E+02  0.46142319454E+02  0.10000015441E+02 0.  0.
        -12    1    1    2    0    0  0.34059703421E+02  0.26499293043E+02 -0.12916555536E+02  0.45045680546E+02  0.00000000000E+00 0.  1.
         11    1    3    3    0    0 -0.28876365862E+01 -0.28731639103E+01  0.26919808234E+01  0.48826506043E+01  0.51100000000E-03 0. -1.
        -11    1    3    3    0    0 -0.70037555916E+01 -0.55445870832E+01 -0.11446624956E+01  0.90058475892E+01  0.51100000000E-03 0.  1.
        -12    1    3    3    0    0 -0.24168311243E+02 -0.18081542050E+02  0.11369237208E+02  0.32253821261E+02  0.00000000000E+00 0.  1.
</event>
<event>
 7    1  0.1541705E-008  0.4614231E+02  0.7816164E-02  0.1320468E+00
        -11   -1    0    0    0    0  0.00000000000E+00  0.00000000000E+00  0.45593999997E+02  0.45594000000E+02  0.51100000000E-03 0.  1.
         11   -1    0    0    0    0 -0.00000000000E+00 -0.00000000000E+00 -0.45593999997E+02  0.45594000000E+02  0.51100000000E-03 0. -1.
    9900012    2    1    2    0    0  0.34197005927E+02  0.47650597054E+01 -0.28930493089E+02  0.46142307212E+02  0.99999038001E+01 0.  0.
        -12    1    1    2    0    0 -0.34197005927E+02 -0.47650597054E+01  0.28930493089E+02  0.45045692788E+02  0.00000000000E+00 0.  1.
         11    1    3    3    0    0  0.13330362274E+02  0.46816308263E+00 -0.12210234031E+02  0.18083350088E+02  0.51100000000E-03 0. -1.
        -11    1    3    3    0    0  0.13883934089E+02  0.58418373268E+01 -0.13454977684E+02  0.20197205596E+02  0.51100000000E-03 0.  1.
        -12    1    3    3    0    0  0.69827095636E+01 -0.15449407040E+01 -0.32652813736E+01  0.78617515273E+01  0.00000000000E+00 0.  1.
</event>
<event>
 7    1  0.1541705E-008  0.4614232E+02  0.7816164E-02  0.1320468E+00
        -11   -1    0    0    0    0  0.00000000000E+00  0.00000000000E+00  0.45593999997E+02  0.45594000000E+02  0.51100000000E-03 0. -1.
         11   -1    0    0    0    0 -0.00000000000E+00 -0.00000000000E+00 -0.45593999997E+02  0.45594000000E+02  0.51100000000E-03 0.  1.
    9900012    2    1    2    0    0  0.18774480264E+02  0.25461877389E+02  0.32067509932E+02  0.46142317603E+02  0.99999985579E+01 0.  0.
        -12    1    1    2    0    0 -0.18774480264E+02 -0.25461877389E+02 -0.32067509932E+02  0.45045682397E+02  0.00000000000E+00 0.  1.
         11    1    3    3    0    0  0.74161292631E+01  0.10579236907E+02  0.15949283895E+02  0.20525566589E+02  0.51100000000E-03 0. -1.
        -11    1    3    3    0    0  0.97575552964E+01  0.73681669803E+01  0.99566883447E+01  0.15768177227E+02  0.51100000000E-03 0.  1.
        -12    1    3    3    0    0  0.16007957045E+01  0.75144735016E+01  0.61615376926E+01  0.98485737867E+01  0.00000000000E+00 0.  1.
</event>
<event>
 7    1  0.1541705E-008  0.4614232E+02  0.7816164E-02  0.1320468E+00
        -11   -1    0    0    0    0  0.00000000000E+00  0.00000000000E+00  0.45593999997E+02  0.45594000000E+02  0.51100000000E-03 0.  1.
         11   -1    0    0    0    0 -0.00000000000E+00 -0.00000000000E+00 -0.45593999997E+02  0.45594000000E+02  0.51100000000E-03 0. -1.
    9900012    2    1    2    0    0 -0.38287457141E+02  0.83979514072E+01 -0.22195914391E+02  0.46142316769E+02  0.99999909490E+01 0.  0.
        -12    1    1    2    0    0  0.38287457141E+02 -0.83979514072E+01  0.22195914391E+02  0.45045683231E+02  0.00000000000E+00 0.  1.
         11    1    3    3    0    0 -0.20099155312E+02  0.67050483864E+01 -0.13201925602E+02  0.24964465906E+02  0.51100000000E-03 0. -1.
        -11    1    3    3    0    0 -0.71438687349E+01 -0.17603013833E+01 -0.51635992872E+01  0.89886750593E+01  0.51100000000E-03 0.  1.
        -12    1    3    3    0    0 -0.11044433094E+02  0.34532044041E+01 -0.38303895011E+01  0.12189175803E+02  0.00000000000E+00 0.  1.
</event>
<event>
 7    1  0.1541705E-008  0.4614232E+02  0.7816164E-02  0.1320468E+00
        -11   -1    0    0    0    0  0.00000000000E+00  0.00000000000E+00  0.45593999997E+02  0.45594000000E+02  0.51100000000E-03 0.  1.
         11   -1    0    0    0    0 -0.00000000000E+00 -0.00000000000E+00 -0.45593999997E+02  0.45594000000E+02  0.51100000000E-03 0. -1.
    9900012    2    1    2    0    0  0.44460426215E+02 -0.34450597493E+01  0.63651928209E+01  0.46142316350E+02  0.99999871317E+01 0.  0.
        -12    1    1    2    0    0 -0.44460426215E+02  0.34450597493E+01 -0.63651928209E+01  0.45045683650E+02  0.00000000000E+00 0.  1.
         11    1    3    3    0    0  0.15394265926E+02  0.14638179337E+01  0.42030272557E+01  0.16024719178E+02  0.51100000000E-03 0. -1.
        -11    1    3    3    0    0  0.25635211228E+02 -0.36985448815E+01  0.29973664428E-01  0.25900659984E+02  0.51100000000E-03 0.  1.
        -12    1    3    3    0    0  0.34309490605E+01 -0.12103328015E+01  0.21321919008E+01  0.42169371880E+01  0.00000000000E+00 0.  1.
</event>
<event>
 7    1  0.1541705E-008  0.4614232E+02  0.7816164E-02  0.1320468E+00
        -11   -1    0    0    0    0  0.00000000000E+00  0.00000000000E+00  0.45593999997E+02  0.45594000000E+02  0.51100000000E-03 0.  1.
         11   -1    0    0    0    0 -0.00000000000E+00 -0.00000000000E+00 -0.45593999997E+02  0.45594000000E+02  0.51100000000E-03 0. -1.
    9900012    2    1    2    0    0  0.49236850674E+01  0.79375969969E+01 -0.44066601875E+02  0.46142317393E+02  0.99999966456E+01 0.  0.
        -12    1    1    2    0    0 -0.49236850674E+01 -0.79375969969E+01  0.44066601875E+02  0.45045682607E+02  0.00000000000E+00 0.  1.
         11    1    3    3    0    0  0.14880453814E+01  0.25422445156E+01 -0.17615282052E+02  0.17859883769E+02  0.51100000000E-03 0. -1.
        -11    1    3    3    0    0 -0.20270474495E+00  0.42653837107E+00  0.46965522552E+00  0.66603339826E+00  0.51100000000E-03 0.  1.
        -12    1    3    3    0    0  0.36383444309E+01  0.49688141103E+01 -0.26920975048E+02  0.27616400226E+02  0.00000000000E+00 0.  1.
</event>
<event>
 7    1  0.1541705E-008  0.4614232E+02  0.7816164E-02  0.1320468E+00
        -11   -1    0    0    0    0  0.00000000000E+00  0.00000000000E+00  0.45593999997E+02  0.45594000000E+02  0.51100000000E-03 0. -1.
         11   -1    0    0    0    0 -0.00000000000E+00 -0.00000000000E+00 -0.45593999997E+02  0.45594000000E+02  0.51100000000E-03 0.  1.
    9900012    2    1    2    0    0  0.30078780469E+02  0.31079146844E+02  0.12588369207E+02  0.46142318272E+02  0.10000004659E+02 0.  0.
        -12    1    1    2    0    0 -0.30078780469E+02 -0.31079146844E+02 -0.12588369207E+02  0.45045681728E+02  0.00000000000E+00 0.  1.
         11    1    3    3    0    0  0.17772535406E+02  0.12788021265E+02  0.55236563946E+01  0.22581126696E+02  0.51100000000E-03 0. -1.
        -11    1    3    3    0    0  0.17453724705E+01  0.20811714337E+01 -0.54749055452E+00  0.27708023685E+01  0.51100000000E-03 0.  1.
         12    1    3    3    0    0  0.10560872593E+02  0.16209954146E+02  0.76122033667E+01  0.20790389208E+02  0.00000000000E+00 0. -1.
</event>
<event>
 7    1  0.1541705E-008  0.4614232E+02  0.7816164E-02  0.1320468E+00
        -11   -1    0    0    0    0  0.00000000000E+00  0.00000000000E+00  0.45593999997E+02  0.45594000000E+02  0.51100000000E-03 0.  1.
         11   -1    0    0    0    0 -0.00000000000E+00 -0.00000000000E+00 -0.45593999997E+02  0.45594000000E+02  0.51100000000E-03 0. -1.
    9900012    2    1    2    0    0  0.41344898503E+02 -0.17880355988E+02  0.75790954988E-01  0.46142317557E+02  0.99999981381E+01 0.  0.
        -12    1    1    2    0    0 -0.41344898503E+02  0.17880355988E+02 -0.75790954988E-01  0.45045682443E+02  0.00000000000E+00 0.  1.
         11    1    3    3    0    0  0.11518611424E+01 -0.26043020232E+01 -0.51985577170E+00  0.28947233726E+01  0.51100000000E-03 0. -1.
        -11    1    3    3    0    0  0.38623090544E+02 -0.13603778689E+02  0.62770156365E+00  0.40953631430E+02  0.51100000000E-03 0.  1.
        -12    1    3    3    0    0  0.15699468169E+01 -0.16722752761E+01 -0.32054836959E-01  0.22939627546E+01  0.00000000000E+00 0.  1.
</event>
<event>
 7    1  0.1541705E-008  0.4614232E+02  0.7816164E-02  0.1320468E+00
        -11   -1    0    0    0    0  0.00000000000E+00  0.00000000000E+00  0.45593999997E+02  0.45594000000E+02  0.51100000000E-03 0.  1.
         11   -1    0    0    0    0 -0.00000000000E+00 -0.00000000000E+00 -0.45593999997E+02  0.45594000000E+02  0.51100000000E-03 0. -1.
    9900012    2    1    2    0    0  0.52072339714E+01 -0.15229377918E+01 -0.44717768838E+02  0.46142317910E+02  0.10000001357E+02 0.  0.
        -12    1    1    2    0    0 -0.52072339714E+01  0.15229377918E+01  0.44717768838E+02  0.45045682090E+02  0.00000000000E+00 0.  1.
         11    1    3    3    0    0  0.31338613726E+01 -0.16486448666E+01 -0.18149900512E+02  0.18492106582E+02  0.51100000000E-03 0. -1.
        -11    1    3    3    0    0  0.39788170182E+01 -0.17071249361E+01 -0.10362852087E+02  0.11230937808E+02  0.51100000000E-03 0.  1.
         12    1    3    3    0    0 -0.19054444193E+01  0.18328320109E+01 -0.16205016239E+02  0.16419273520E+02  0.00000000000E+00 0. -1.
</event>
<event>
 7    1  0.1541705E-008  0.4614232E+02  0.7816164E-02  0.1320468E+00
        -11   -1    0    0    0    0  0.00000000000E+00  0.00000000000E+00  0.45593999997E+02  0.45594000000E+02  0.51100000000E-03 0.  1.
         11   -1    0    0    0    0 -0.00000000000E+00 -0.00000000000E+00 -0.45593999997E+02  0.45594000000E+02  0.51100000000E-03 0. -1.
    9900012    2    1    2    0    0  0.97930226706E+01  0.38810371426E+02 -0.20663133208E+02  0.46142319883E+02  0.10000019348E+02 0.  0.
        -12    1    1    2    0    0 -0.97930226706E+01 -0.38810371426E+02  0.20663133208E+02  0.45045680117E+02  0.00000000000E+00 0.  1.
         11    1    3    3    0    0  0.65397562592E+01  0.25947532523E+02 -0.12105923103E+02  0.29369988601E+02  0.51100000000E-03 0. -1.
        -11    1    3    3    0    0  0.42909185515E+01  0.90156027225E+01 -0.79039541766E+01  0.12734424461E+02  0.51100000000E-03 0.  1.
         12    1    3    3    0    0 -0.10376521402E+01  0.38472361799E+01 -0.65325592899E+00  0.40379068212E+01  0.00000000000E+00 0. -1.
</event>
<event>
 7    1  0.1541705E-008  0.4614232E+02  0.7816164E-02  0.1320468E+00
        -11   -1    0    0    0    0  0.00000000000E+00  0.00000000000E+00  0.45593999997E+02  0.45594000000E+02  0.51100000000E-03 0.  1.
         11   -1    0    0    0    0 -0.00000000000E+00 -0.00000000000E+00 -0.45593999997E+02  0.45594000000E+02  0.51100000000E-03 0. -1.
    9900012    2    1    2    0    0  0.26481929201E+01 -0.39691264694E+02 -0.21135378436E+02  0.46142316074E+02  0.99999846128E+01 0.  0.
        -12    1    1    2    0    0 -0.26481929201E+01  0.39691264694E+02  0.21135378436E+02  0.45045683926E+02  0.00000000000E+00 0.  1.
         11    1    3    3    0    0 -0.21733658564E+01 -0.14891633583E+02 -0.51937679873E+01  0.15920411304E+02  0.51100000000E-03 0.  1.
        -11    1    3    3    0    0  0.29413811922E+01 -0.22545401092E+02 -0.13956581221E+02  0.26678324411E+02  0.51100000000E-03 0. -1.
        -12    1    3    3    0    0  0.18801775843E+01 -0.22542300187E+01 -0.19850292272E+01  0.35435803587E+01  0.00000000000E+00 0.  1.
</event>
<event>
 7    1  0.1541705E-008  0.4614232E+02  0.7816164E-02  0.1320468E+00
        -11   -1    0    0    0    0  0.00000000000E+00  0.00000000000E+00  0.45593999997E+02  0.45594000000E+02  0.51100000000E-03 0. -1.
         11   -1    0    0    0    0 -0.00000000000E+00 -0.00000000000E+00 -0.45593999997E+02  0.45594000000E+02  0.51100000000E-03 0.  1.
    9900012    2    1    2    0    0  0.23242686781E+02  0.38576826566E+02 -0.84820891964E+00  0.46142317687E+02  0.99999993200E+01 0.  0.
        -12    1    1    2    0    0 -0.23242686781E+02 -0.38576826566E+02  0.84820891964E+00  0.45045682313E+02  0.00000000000E+00 0.  1.
         11    1    3    3    0    0  0.89424715705E+01  0.90393808934E+01 -0.12737835357E+01  0.12778917383E+02  0.51100000000E-03 0. -1.
        -11    1    3    3    0    0  0.14592857959E+02  0.26125567273E+02  0.11654457298E+00  0.29925078975E+02  0.51100000000E-03 0.  1.
        -12    1    3    3    0    0 -0.29264274830E+00  0.34118783998E+01  0.30903004303E+00  0.34383213289E+01  0.00000000000E+00 0.  1.
</event>
<event>
 7    1  0.1541705E-008  0.4614232E+02  0.7816164E-02  0.1320468E+00
        -11   -1    0    0    0    0  0.00000000000E+00  0.00000000000E+00  0.45593999997E+02  0.45594000000E+02  0.51100000000E-03 0. -1.
         11   -1    0    0    0    0 -0.00000000000E+00 -0.00000000000E+00 -0.45593999997E+02  0.45594000000E+02  0.51100000000E-03 0.  1.
    9900012    2    1    2    0    0 -0.35056145174E+02 -0.65267686299E+00  0.28279927172E+02  0.46142316718E+02  0.99999904845E+01 0.  0.
        -12    1    1    2    0    0  0.35056145174E+02  0.65267686299E+00 -0.28279927172E+02  0.45045683282E+02  0.00000000000E+00 0.  1.
         11    1    3    3    0    0 -0.16368088219E+02 -0.18693018408E+01  0.17019559281E+02  0.23687000648E+02  0.51100000000E-03 0. -1.
        -11    1    3    3    0    0 -0.10965419462E+02 -0.15802417271E+01  0.77651863705E+01  0.13529068982E+02  0.51100000000E-03 0.  1.
         12    1    3    3    0    0 -0.77226374925E+01  0.27968667049E+01  0.34951815207E+01  0.89262470876E+01  0.00000000000E+00 0. -1.
</event>
<event>
 7    1  0.1541705E-008  0.4614231E+02  0.7816164E-02  0.1320468E+00
        -11   -1    0    0    0    0  0.00000000000E+00  0.00000000000E+00  0.45593999997E+02  0.45594000000E+02  0.51100000000E-03 0. -1.
         11   -1    0    0    0    0 -0.00000000000E+00 -0.00000000000E+00 -0.45593999997E+02  0.45594000000E+02  0.51100000000E-03 0.  1.
    9900012    2    1    2    0    0  0.19427200034E+02 -0.31140758516E+02  0.26114197413E+02  0.46142309322E+02  0.99999230463E+01 0.  0.
        -12    1    1    2    0    0 -0.19427200034E+02  0.31140758516E+02 -0.26114197413E+02  0.45045690678E+02  0.00000000000E+00 0.  1.
         11    1    3    3    0    0  0.83943682538E+01 -0.13286638640E+02  0.83272014668E+01  0.17786018927E+02  0.51100000000E-03 0. -1.
        -11    1    3    3    0    0  0.11097744424E+02 -0.18000943095E+02  0.18208044843E+02  0.27905676499E+02  0.51100000000E-03 0.  1.
        -12    1    3    3    0    0 -0.64912643522E-01  0.14682321901E+00 -0.42104889758E+00  0.45061389580E+00  0.00000000000E+00 0.  1.
</event>
<event>
 7    1  0.1541705E-008  0.4614232E+02  0.7816164E-02  0.1320468E+00
        -11   -1    0    0    0    0  0.00000000000E+00  0.00000000000E+00  0.45593999997E+02  0.45594000000E+02  0.51100000000E-03 0.  1.
         11   -1    0    0    0    0 -0.00000000000E+00 -0.00000000000E+00 -0.45593999997E+02  0.45594000000E+02  0.51100000000E-03 0. -1.
    9900012    2    1    2    0    0  0.30323199065E+02 -0.32506456549E+02 -0.72764976972E+01  0.46142317214E+02  0.99999950089E+01 0.  0.
        -12    1    1    2    0    0 -0.30323199065E+02  0.32506456549E+02  0.72764976972E+01  0.45045682786E+02  0.00000000000E+00 0.  1.
         11    1    3    3    0    0  0.13768906926E+02 -0.10408656721E+02  0.33712167534E+00  0.17263736095E+02  0.51100000000E-03 0. -1.
        -11    1    3    3    0    0  0.28403835265E+01 -0.20619035792E+01 -0.16432884276E+01  0.38755157160E+01  0.51100000000E-03 0.  1.
         12    1    3    3    0    0  0.13713908613E+02 -0.20035896250E+02 -0.59703309449E+01  0.25003065403E+02  0.00000000000E+00 0. -1.
</event>
<event>
 7    1  0.1541705E-008  0.4614232E+02  0.7816164E-02  0.1320468E+00
        -11   -1    0    0    0    0  0.00000000000E+00  0.00000000000E+00  0.45593999997E+02  0.45594000000E+02  0.51100000000E-03 0.  1.
         11   -1    0    0    0    0 -0.00000000000E+00 -0.00000000000E+00 -0.45593999997E+02  0.45594000000E+02  0.51100000000E-03 0. -1.
    9900012    2    1    2    0    0  0.35475440835E+02 -0.27564274949E+02  0.32889592630E+01  0.46142318643E+02  0.10000008041E+02 0.  0.
        -12    1    1    2    0    0 -0.35475440835E+02  0.27564274949E+02 -0.32889592630E+01  0.45045681357E+02  0.00000000000E+00 0.  1.
         11    1    3    3    0    0  0.17949601227E+02 -0.17847825832E+02 -0.15507903539E+01  0.25360166050E+02  0.51100000000E-03 0. -1.
        -11    1    3    3    0    0  0.80459074513E+01 -0.37735213258E+01  0.95408268354E+00  0.89379172036E+01  0.51100000000E-03 0.  1.
         12    1    3    3    0    0  0.94799321570E+01 -0.59429277917E+01  0.38856669333E+01  0.11844235389E+02  0.00000000000E+00 0. -1.
</event>
<event>
 7    1  0.1541705E-008  0.4614232E+02  0.7816164E-02  0.1320468E+00
        -11   -1    0    0    0    0  0.00000000000E+00  0.00000000000E+00  0.45593999997E+02  0.45594000000E+02  0.51100000000E-03 0.  1.
         11   -1    0    0    0    0 -0.00000000000E+00 -0.00000000000E+00 -0.45593999997E+02  0.45594000000E+02  0.51100000000E-03 0. -1.
    9900012    2    1    2    0    0 -0.29462955856E+02  0.46228533131E+01 -0.33759103305E+02  0.46142316561E+02  0.99999890550E+01 0.  0.
        -12    1    1    2    0    0  0.29462955856E+02 -0.46228533131E+01  0.33759103305E+02  0.45045683439E+02  0.00000000000E+00 0.  1.
         11    1    3    3    0    0 -0.97648101783E+01  0.23752401117E+01 -0.13990385467E+02  0.17225683417E+02  0.51100000000E-03 0. -1.
        -11    1    3    3    0    0 -0.18080573797E+02 -0.28979754387E+00 -0.16603162784E+02  0.24549055911E+02  0.51100000000E-03 0.  1.
        -12    1    3    3    0    0 -0.16175718806E+01  0.25374107453E+01 -0.31655550540E+01  0.43675772322E+01  0.00000000000E+00 0.  1.
</event>
<event>
 7    1  0.1541705E-008  0.4614232E+02  0.7816164E-02  0.1320468E+00
        -11   -1    0    0    0    0  0.00000000000E+00  0.00000000000E+00  0.45593999997E+02  0.45594000000E+02  0.51100000000E-03 0. -1.
         11   -1    0    0    0    0 -0.00000000000E+00 -0.00000000000E+00 -0.45593999997E+02  0.45594000000E+02  0.51100000000E-03 0.  1.
    9900012    2    1    2    0    0  0.29754469272E+02  0.10974656197E+02  0.31989715853E+02  0.46142318291E+02  0.10000004828E+02 0.  0.
        -12    1    1    2    0    0 -0.29754469272E+02 -0.10974656197E+02 -0.31989715853E+02  0.45045681709E+02  0.00000000000E+00 0.  1.
         11    1    3    3    0    0  0.85832137434E+01  0.69115091238E+01  0.96184510085E+01  0.14627204675E+02  0.51100000000E-03 0. -1.
        -11    1    3    3    0    0  0.21353765498E+02  0.35580430420E+01  0.21656065156E+02  0.30620714060E+02  0.51100000000E-03 0.  1.
        -12    1    3    3    0    0 -0.18250996944E+00  0.50510403080E+00  0.71519968855E+00  0.89439955578E+00  0.00000000000E+00 0.  1.
</event>
<event>
 7    1  0.1541705E-008  0.4614232E+02  0.7816164E-02  0.1320468E+00
        -11   -1    0    0    0    0  0.00000000000E+00  0.00000000000E+00  0.45593999997E+02  0.45594000000E+02  0.51100000000E-03 0.  1.
         11   -1    0    0    0    0 -0.00000000000E+00 -0.00000000000E+00 -0.45593999997E+02  0.45594000000E+02  0.51100000000E-03 0. -1.
    9900012    2    1    2    0    0  0.13460992939E+02 -0.15694395358E+02 -0.40020009090E+02  0.46142317586E+02  0.99999984034E+01 0.  0.
        -12    1    1    2    0    0 -0.13460992939E+02  0.15694395358E+02  0.40020009090E+02  0.45045682414E+02  0.00000000000E+00 0.  1.
         11    1    3    3    0    0  0.38666131085E+01 -0.30460419782E+01 -0.17841291724E+02  0.18507856691E+02  0.51100000000E-03 0. -1.
        -11    1    3    3    0    0  0.86925191875E+01 -0.93630859879E+01 -0.15108147481E+02  0.19785939190E+02  0.51100000000E-03 0.  1.
         12    1    3    3    0    0  0.90186064304E+00 -0.32852673916E+01 -0.70705698853E+01  0.78485217051E+01  0.00000000000E+00 0. -1.
</event>
<event>
 7    1  0.1541705E-008  0.4614232E+02  0.7816164E-02  0.1320468E+00
        -11   -1    0    0    0    0  0.00000000000E+00  0.00000000000E+00  0.45593999997E+02  0.45594000000E+02  0.51100000000E-03 0.  1.
         11   -1    0    0    0    0 -0.00000000000E+00 -0.00000000000E+00 -0.45593999997E+02  0.45594000000E+02  0.51100000000E-03 0. -1.
    9900012    2    1    2    0    0  0.18561574669E+02  0.24636799829E+02 -0.32826962379E+02  0.46142318530E+02  0.10000007013E+02 0.  0.
        -12    1    1    2    0    0 -0.18561574669E+02 -0.24636799829E+02  0.32826962379E+02  0.45045681470E+02  0.00000000000E+00 0.  1.
         11    1    3    3    0    0  0.42283271658E+01  0.12735221268E+02 -0.12944708276E+02  0.18644840679E+02  0.51100000000E-03 0. -1.
        -11    1    3    3    0    0  0.36514008977E+01  0.17044408770E+01 -0.60116031378E+01  0.72372107725E+01  0.51100000000E-03 0.  1.
         12    1    3    3    0    0  0.10681846606E+02  0.10197137684E+02 -0.13870650966E+02  0.20260267078E+02  0.00000000000E+00 0. -1.
</event>
<event>
 7    1  0.1541705E-008  0.4614232E+02  0.7816164E-02  0.1320468E+00
        -11   -1    0    0    0    0  0.00000000000E+00  0.00000000000E+00  0.45593999997E+02  0.45594000000E+02  0.51100000000E-03 0. -1.
         11   -1    0    0    0    0 -0.00000000000E+00 -0.00000000000E+00 -0.45593999997E+02  0.45594000000E+02  0.51100000000E-03 0.  1.
    9900012    2    1    2    0    0 -0.43611689947E+01  0.32546983453E+02  0.30834845361E+02  0.46142316352E+02  0.99999871489E+01 0.  0.
        -12    1    1    2    0    0  0.43611689947E+01 -0.32546983453E+02 -0.30834845361E+02  0.45045683648E+02  0.00000000000E+00 0.  1.
         11    1    3    3    0    0  0.16769879585E+01  0.68992698777E+01  0.37249722445E+01  0.80179568433E+01  0.51100000000E-03 0. -1.
        -11    1    3    3    0    0 -0.48210105672E+01  0.15760866909E+02  0.13778943424E+02  0.21482698870E+02  0.51100000000E-03 0.  1.
        -12    1    3    3    0    0 -0.12171463861E+01  0.98868466667E+01  0.13330929692E+02  0.16641660638E+02  0.00000000000E+00 0.  1.
</event>
<event>
 7    1  0.1541705E-008  0.4614232E+02  0.7816164E-02  0.1320468E+00
        -11   -1    0    0    0    0  0.00000000000E+00  0.00000000000E+00  0.45593999997E+02  0.45594000000E+02  0.51100000000E-03 0. -1.
         11   -1    0    0    0    0 -0.00000000000E+00 -0.00000000000E+00 -0.45593999997E+02  0.45594000000E+02  0.51100000000E-03 0.  1.
    9900012    2    1    2    0    0 -0.93656297460E+01 -0.38935369324E+02 -0.20626090697E+02  0.46142316274E+02  0.99999864349E+01 0.  0.
        -12    1    1    2    0    0  0.93656297460E+01  0.38935369324E+02  0.20626090697E+02  0.45045683726E+02  0.00000000000E+00 0.  1.
         11    1    3    3    0    0 -0.37333378736E+01 -0.29841364701E+01 -0.30691655198E+01  0.56800228344E+01  0.51100000000E-03 0. -1.
        -11    1    3    3    0    0 -0.80856418803E+00 -0.96564423403E+01 -0.54148859431E+01  0.11100524526E+02  0.51100000000E-03 0.  1.
         12    1    3    3    0    0 -0.48237276843E+01 -0.26294790514E+02 -0.12142039234E+02  0.29361768913E+02  0.00000000000E+00 0. -1.
</event>
<event>
 7    1  0.1541705E-008  0.4614232E+02  0.7816164E-02  0.1320468E+00
        -11   -1    0    0    0    0  0.00000000000E+00  0.00000000000E+00  0.45593999997E+02  0.45594000000E+02  0.51100000000E-03 0.  1.
         11   -1    0    0    0    0 -0.00000000000E+00 -0.00000000000E+00 -0.45593999997E+02  0.45594000000E+02  0.51100000000E-03 0. -1.
    9900012    2    1    2    0    0  0.27232563090E+02 -0.46377790308E+01 -0.35580780724E+02  0.46142318257E+02  0.10000004523E+02 0.  0.
        -12    1    1    2    0    0 -0.27232563090E+02  0.46377790308E+01  0.35580780724E+02  0.45045681743E+02  0.00000000000E+00 0.  1.
         11    1    3    3    0    0  0.99785369996E+01 -0.37776984331E+01 -0.20282199853E+02  0.22917457042E+02  0.51100000000E-03 0. -1.
        -11    1    3    3    0    0  0.53650943924E+01 -0.11626578809E+01 -0.37550503965E+01  0.66510461530E+01  0.51100000000E-03 0.  1.
         12    1    3    3    0    0  0.11888931698E+02  0.30257728318E+00 -0.11543530474E+02  0.16573815063E+02  0.00000000000E+00 0. -1.
</event>
<event>
 7    1  0.1541705E-008  0.4614232E+02  0.7816164E-02  0.1320468E+00
        -11   -1    0    0    0    0  0.00000000000E+00  0.00000000000E+00  0.45593999997E+02  0.45594000000E+02  0.51100000000E-03 0.  1.
         11   -1    0    0    0    0 -0.00000000000E+00 -0.00000000000E+00 -0.45593999997E+02  0.45594000000E+02  0.51100000000E-03 0. -1.
    9900012    2    1    2    0    0  0.44695724633E+02 -0.52218437122E+01  0.20342131153E+01  0.46142317907E+02  0.10000001329E+02 0.  0.
        -12    1    1    2    0    0 -0.44695724633E+02  0.52218437122E+01 -0.20342131153E+01  0.45045682093E+02  0.00000000000E+00 0.  1.
         11    1    3    3    0    0  0.41400517395E+02 -0.36800262419E+01  0.47068300114E+00  0.41566416450E+02  0.51100000000E-03 0. -1.
        -11    1    3    3    0    0 -0.34007470949E+00  0.21247013211E-01  0.81070598124E-01  0.35024983456E+00  0.51100000000E-03 0.  1.
         12    1    3    3    0    0  0.36352819475E+01 -0.15630644835E+01  0.14824595161E+01  0.42256516224E+01  0.00000000000E+00 0. -1.
</event>
<event>
 7    1  0.1541705E-008  0.4614232E+02  0.7816164E-02  0.1320468E+00
        -11   -1    0    0    0    0  0.00000000000E+00  0.00000000000E+00  0.45593999997E+02  0.45594000000E+02  0.51100000000E-03 0.  1.
         11   -1    0    0    0    0 -0.00000000000E+00 -0.00000000000E+00 -0.45593999997E+02  0.45594000000E+02  0.51100000000E-03 0. -1.
    9900012    2    1    2    0    0 -0.55393508500E+01  0.11590168648E+00 -0.44703643784E+02  0.46142316427E+02  0.99999878323E+01 0.  0.
        -12    1    1    2    0    0  0.55393508500E+01 -0.11590168648E+00  0.44703643784E+02  0.45045683573E+02  0.00000000000E+00 0.  1.
         11    1    3    3    0    0 -0.38376530682E+00  0.22335392589E+01 -0.12095691735E+02  0.12306166431E+02  0.51100000000E-03 0. -1.
        -11    1    3    3    0    0 -0.62901503546E+01 -0.18827497961E+01 -0.31675678967E+02  0.32349024352E+02  0.51100000000E-03 0.  1.
        -12    1    3    3    0    0  0.11345648114E+01 -0.23488777640E+00 -0.93227308219E+00  0.14871256432E+01  0.00000000000E+00 0.  1.
</event>
<event>
 7    1  0.1541705E-008  0.4614232E+02  0.7816164E-02  0.1320468E+00
        -11   -1    0    0    0    0  0.00000000000E+00  0.00000000000E+00  0.45593999997E+02  0.45594000000E+02  0.51100000000E-03 0. -1.
         11   -1    0    0    0    0 -0.00000000000E+00 -0.00000000000E+00 -0.45593999997E+02  0.45594000000E+02  0.51100000000E-03 0.  1.
    9900012    2    1    2    0    0  0.37703148509E+02  0.16950916761E+02  0.17895599292E+02  0.46142318070E+02  0.10000002817E+02 0.  0.
        -12    1    1    2    0    0 -0.37703148509E+02 -0.16950916761E+02 -0.17895599292E+02  0.45045681930E+02  0.00000000000E+00 0.  1.
         11    1    3    3    0    0  0.14296022002E+01  0.25714542160E+01  0.43738841756E+00  0.29744660235E+01  0.51100000000E-03 0. -1.
        -11    1    3    3    0    0  0.45172356868E+01  0.58017151764E+00  0.40793789972E+00  0.45725737645E+01  0.51100000000E-03 0.  1.
         12    1    3    3    0    0  0.31756310622E+02  0.13799291027E+02  0.17050272975E+02  0.38595278282E+02  0.00000000000E+00 0. -1.
</event>
<event>
 7    1  0.1541705E-008  0.4614232E+02  0.7816164E-02  0.1320468E+00
        -11   -1    0    0    0    0  0.00000000000E+00  0.00000000000E+00  0.45593999997E+02  0.45594000000E+02  0.51100000000E-03 0. -1.
         11   -1    0    0    0    0 -0.00000000000E+00 -0.00000000000E+00 -0.45593999997E+02  0.45594000000E+02  0.51100000000E-03 0.  1.
    9900012    2    1    2    0    0  0.44477859395E+02 -0.16272194709E+01  0.69415869878E+01  0.46142318193E+02  0.10000003938E+02 0.  0.
        -12    1    1    2    0    0 -0.44477859395E+02  0.16272194709E+01 -0.69415869878E+01  0.45045681807E+02  0.00000000000E+00 0.  1.
         11    1    3    3    0    0  0.35999001694E+02 -0.11188212525E+00  0.30942371845E+01  0.36131910337E+02  0.51100000000E-03 0. -1.
        -11    1    3    3    0    0  0.43837512536E+01 -0.13497728235E+01  0.37270909143E+01  0.59101919320E+01  0.51100000000E-03 0.  1.
        -12    1    3    3    0    0  0.40951064467E+01 -0.16556452212E+00  0.12025888905E+00  0.41002159237E+01  0.00000000000E+00 0.  1.
</event>
<event>
 7    1  0.1541705E-008  0.4614232E+02  0.7816164E-02  0.1320468E+00
        -11   -1    0    0    0    0  0.00000000000E+00  0.00000000000E+00  0.45593999997E+02  0.45594000000E+02  0.51100000000E-03 0.  1.
         11   -1    0    0    0    0 -0.00000000000E+00 -0.00000000000E+00 -0.45593999997E+02  0.45594000000E+02  0.51100000000E-03 0. -1.
    9900012    2    1    2    0    0  0.36976071810E+01 -0.26805423988E+02 -0.36012643163E+02  0.46142317392E+02  0.99999966363E+01 0.  0.
        -12    1    1    2    0    0 -0.36976071810E+01  0.26805423988E+02  0.36012643163E+02  0.45045682608E+02  0.00000000000E+00 0.  1.
         11    1    3    3    0    0 -0.26999816002E+01 -0.48974013713E+01 -0.97175450962E+01  0.11211829636E+02  0.51100000000E-03 0. -1.
        -11    1    3    3    0    0  0.39978937978E+01 -0.17146940650E+02 -0.19127393364E+02  0.25997267273E+02  0.51100000000E-03 0.  1.
         12    1    3    3    0    0  0.23996949833E+01 -0.47610819661E+01 -0.71677047023E+01  0.89332204831E+01  0.00000000000E+00 0. -1.
</event>
<event>
 7    1  0.1541705E-008  0.4614232E+02  0.7816164E-02  0.1320468E+00
        -11   -1    0    0    0    0  0.00000000000E+00  0.00000000000E+00  0.45593999997E+02  0.45594000000E+02  0.51100000000E-03 0. -1.
         11   -1    0    0    0    0 -0.00000000000E+00 -0.00000000000E+00 -0.45593999997E+02  0.45594000000E+02  0.51100000000E-03 0.  1.
    9900012    2    1    2    0    0 -0.40747506581E+02 -0.16710420952E+02 -0.94612851454E+01  0.46142318991E+02  0.10000011216E+02 0.  0.
        -12    1    1    2    0    0  0.40747506581E+02  0.16710420952E+02  0.94612851454E+01  0.45045681009E+02  0.00000000000E+00 0.  1.
         11    1    3    3    0    0 -0.28301410303E+02 -0.89682862911E+01 -0.39332903086E+01  0.29947800537E+02  0.51100000000E-03 0. -1.
        -11    1    3    3    0    0 -0.31346778552E+01 -0.24286146138E+01 -0.34883946466E+01  0.52814081143E+01  0.51100000000E-03 0.  1.
         12    1    3    3    0    0 -0.93114184230E+01 -0.53135200475E+01 -0.20396001902E+01  0.10913110339E+02  0.00000000000E+00 0. -1.
</event>
<event>
 7    1  0.1541705E-008  0.4614232E+02  0.7816164E-02  0.1320468E+00
        -11   -1    0    0    0    0  0.00000000000E+00  0.00000000000E+00  0.45593999997E+02  0.45594000000E+02  0.51100000000E-03 0.  1.
         11   -1    0    0    0    0 -0.00000000000E+00 -0.00000000000E+00 -0.45593999997E+02  0.45594000000E+02  0.51100000000E-03 0. -1.
    9900012    2    1    2    0    0 -0.21429418234E+02 -0.25326997893E+02 -0.30470257927E+02  0.46142318673E+02  0.10000008313E+02 0.  0.
        -12    1    1    2    0    0  0.21429418234E+02  0.25326997893E+02  0.30470257927E+02  0.45045681327E+02  0.00000000000E+00 0.  1.
         11    1    3    3    0    0 -0.93197594649E+01 -0.16228649591E+02 -0.16201079262E+02  0.24752817084E+02  0.51100000000E-03 0. -1.
        -11    1    3    3    0    0 -0.40047718135E+01 -0.14577415409E+01 -0.66350262842E+01  0.78858596064E+01  0.51100000000E-03 0.  1.
        -12    1    3    3    0    0 -0.81048869557E+01 -0.76406067605E+01 -0.76341523801E+01  0.13503641983E+02  0.00000000000E+00 0.  1.
</event>
<event>
 7    1  0.1541705E-008  0.4614232E+02  0.7816164E-02  0.1320468E+00
        -11   -1    0    0    0    0  0.00000000000E+00  0.00000000000E+00  0.45593999997E+02  0.45594000000E+02  0.51100000000E-03 0.  1.
         11   -1    0    0    0    0 -0.00000000000E+00 -0.00000000000E+00 -0.45593999997E+02  0.45594000000E+02  0.51100000000E-03 0. -1.
    9900012    2    1    2    0    0 -0.16456124937E+02 -0.16245916310E+01 -0.41900717301E+02  0.46142318118E+02  0.10000003254E+02 0.  0.
        -12    1    1    2    0    0  0.16456124937E+02  0.16245916310E+01  0.41900717301E+02  0.45045681882E+02  0.00000000000E+00 0.  1.
         11    1    3    3    0    0 -0.16383385445E+02 -0.17924016295E+01 -0.30010439428E+02  0.34238202306E+02  0.51100000000E-03 0. -1.
        -11    1    3    3    0    0 -0.96578584057E-01 -0.18586314030E+00 -0.34043440372E+01  0.34107815988E+01  0.51100000000E-03 0.  1.
         12    1    3    3    0    0  0.23839092300E-01  0.35367313882E+00 -0.84859338354E+01  0.84933342128E+01  0.00000000000E+00 0. -1.
</event>
<event>
 7    1  0.1541705E-008  0.4614232E+02  0.7816164E-02  0.1320468E+00
        -11   -1    0    0    0    0  0.00000000000E+00  0.00000000000E+00  0.45593999997E+02  0.45594000000E+02  0.51100000000E-03 0.  1.
         11   -1    0    0    0    0 -0.00000000000E+00 -0.00000000000E+00 -0.45593999997E+02  0.45594000000E+02  0.51100000000E-03 0. -1.
    9900012    2    1    2    0    0  0.42667233252E+02  0.32691047529E+01 -0.14068888046E+02  0.46142318185E+02  0.10000003869E+02 0.  0.
        -12    1    1    2    0    0 -0.42667233252E+02 -0.32691047529E+01  0.14068888046E+02  0.45045681815E+02  0.00000000000E+00 0.  1.
         11    1    3    3    0    0  0.10677130622E+02 -0.10274187889E+01 -0.74325407486E+01  0.13049880073E+02  0.51100000000E-03 0.  1.
        -11    1    3    3    0    0  0.29669981595E+02  0.43454136308E+01 -0.68595995576E+01  0.30761087982E+02  0.51100000000E-03 0. -1.
        -12    1    3    3    0    0  0.23201210348E+01 -0.48890088949E-01  0.22325226003E+00  0.23313501300E+01  0.00000000000E+00 0.  1.
</event>
<event>
 7    1  0.1541705E-008  0.4614231E+02  0.7816164E-02  0.1320468E+00
        -11   -1    0    0    0    0  0.00000000000E+00  0.00000000000E+00  0.45593999997E+02  0.45594000000E+02  0.51100000000E-03 0.  1.
         11   -1    0    0    0    0 -0.00000000000E+00 -0.00000000000E+00 -0.45593999997E+02  0.45594000000E+02  0.51100000000E-03 0. -1.
    9900012    2    1    2    0    0 -0.13286722754E+02  0.13362250069E+02 -0.40914879056E+02  0.46142311453E+02  0.99999424807E+01 0.  0.
        -12    1    1    2    0    0  0.13286722754E+02 -0.13362250069E+02  0.40914879056E+02  0.45045688547E+02  0.00000000000E+00 0.  1.
         11    1    3    3    0    0 -0.10140592318E+02  0.77246193102E+01 -0.34037271863E+02  0.36346075884E+02  0.51100000000E-03 0. -1.
        -11    1    3    3    0    0 -0.24976291968E+01  0.49469810120E+01 -0.41926473175E+01  0.69490333521E+01  0.51100000000E-03 0.  1.
        -12    1    3    3    0    0 -0.64850123930E+00  0.69064974654E+00 -0.26849598758E+01  0.28472022170E+01  0.00000000000E+00 0.  1.
</event>
<event>
 7    1  0.1541705E-008  0.4614232E+02  0.7816164E-02  0.1320468E+00
        -11   -1    0    0    0    0  0.00000000000E+00  0.00000000000E+00  0.45593999997E+02  0.45594000000E+02  0.51100000000E-03 0.  1.
         11   -1    0    0    0    0 -0.00000000000E+00 -0.00000000000E+00 -0.45593999997E+02  0.45594000000E+02  0.51100000000E-03 0. -1.
    9900012    2    1    2    0    0 -0.25912797980E+02 -0.59690638832E+01 -0.36359464110E+02  0.46142318152E+02  0.10000003567E+02 0.  0.
        -12    1    1    2    0    0  0.25912797980E+02  0.59690638832E+01  0.36359464110E+02  0.45045681848E+02  0.00000000000E+00 0.  1.
         11    1    3    3    0    0 -0.17657020666E+02 -0.48368616787E+01 -0.30052523574E+02  0.35189768159E+02  0.51100000000E-03 0. -1.
        -11    1    3    3    0    0 -0.74771821426E+01 -0.19753413002E+01 -0.59268398595E+01  0.97435956929E+01  0.51100000000E-03 0.  1.
         12    1    3    3    0    0 -0.77859517144E+00  0.84313909568E+00 -0.38010067638E+00  0.12089543001E+01  0.00000000000E+00 0. -1.
</event>
<event>
 7    1  0.1541705E-008  0.4614233E+02  0.7816164E-02  0.1320468E+00
        -11   -1    0    0    0    0  0.00000000000E+00  0.00000000000E+00  0.45593999997E+02  0.45594000000E+02  0.51100000000E-03 0.  1.
         11   -1    0    0    0    0 -0.00000000000E+00 -0.00000000000E+00 -0.45593999997E+02  0.45594000000E+02  0.51100000000E-03 0. -1.
    9900012    2    1    2    0    0 -0.26975328929E+02  0.12427667644E+02 -0.33867351814E+02  0.46142325260E+02  0.10000068383E+02 0.  0.
        -12    1    1    2    0    0  0.26975328929E+02 -0.12427667644E+02  0.33867351814E+02  0.45045674740E+02  0.00000000000E+00 0.  1.
         11    1    3    3    0    0 -0.37931042219E+01 -0.10089013161E+01 -0.37708066343E+01  0.54428397402E+01  0.51100000000E-03 0. -1.
        -11    1    3    3    0    0 -0.96132962674E+01  0.24040615364E+01 -0.11007298695E+02  0.14810658386E+02  0.51100000000E-03 0.  1.
         12    1    3    3    0    0 -0.13568928439E+02  0.11032507424E+02 -0.19089246485E+02  0.25888827135E+02  0.00000000000E+00 0. -1.
</event>
<event>
 7    1  0.1541705E-008  0.4614232E+02  0.7816164E-02  0.1320468E+00
        -11   -1    0    0    0    0  0.00000000000E+00  0.00000000000E+00  0.45593999997E+02  0.45594000000E+02  0.51100000000E-03 0.  1.
         11   -1    0    0    0    0 -0.00000000000E+00 -0.00000000000E+00 -0.45593999997E+02  0.45594000000E+02  0.51100000000E-03 0. -1.
    9900012    2    1    2    0    0 -0.36802524778E+02  0.20461518145E+02 -0.16000436321E+02  0.46142317440E+02  0.99999970716E+01 0.  0.
        -12    1    1    2    0    0  0.36802524778E+02 -0.20461518145E+02  0.16000436321E+02  0.45045682560E+02  0.00000000000E+00 0.  1.
         11    1    3    3    0    0 -0.10003890707E+02  0.75024089651E+01 -0.38478133834E+01  0.13083181481E+02  0.51100000000E-03 0. -1.
        -11    1    3    3    0    0 -0.21406429067E+01  0.50491901031E+00 -0.34585482089E+01  0.40986401691E+01  0.51100000000E-03 0.  1.
        -12    1    3    3    0    0 -0.24657991164E+02  0.12454190169E+02 -0.86940747292E+01  0.28960495790E+02  0.00000000000E+00 0.  1.
</event>
<event>
 7    1  0.1541705E-008  0.4614233E+02  0.7816164E-02  0.1320468E+00
        -11   -1    0    0    0    0  0.00000000000E+00  0.00000000000E+00  0.45593999997E+02  0.45594000000E+02  0.51100000000E-03 0. -1.
         11   -1    0    0    0    0 -0.00000000000E+00 -0.00000000000E+00 -0.45593999997E+02  0.45594000000E+02  0.51100000000E-03 0.  1.
    9900012    2    1    2    0    0  0.18894240290E+02 -0.31311139995E+02  0.26300815711E+02  0.46142326390E+02  0.10000078682E+02 0.  0.
        -12    1    1    2    0    0 -0.18894240290E+02  0.31311139995E+02 -0.26300815711E+02  0.45045673610E+02  0.00000000000E+00 0.  1.
         11    1    3    3    0    0  0.59542645586E+01 -0.60903848917E+01  0.62784460763E+01  0.10581348683E+02  0.51100000000E-03 0. -1.
        -11    1    3    3    0    0  0.24810671007E+01 -0.83563163467E+01  0.10204691893E+02  0.13420858904E+02  0.51100000000E-03 0.  1.
        -12    1    3    3    0    0  0.10458908631E+02 -0.16864438756E+02  0.98176777425E+01  0.22140118802E+02  0.00000000000E+00 0.  1.
</event>
<event>
 7    1  0.1541705E-008  0.4614232E+02  0.7816164E-02  0.1320468E+00
        -11   -1    0    0    0    0  0.00000000000E+00  0.00000000000E+00  0.45593999997E+02  0.45594000000E+02  0.51100000000E-03 0.  1.
         11   -1    0    0    0    0 -0.00000000000E+00 -0.00000000000E+00 -0.45593999997E+02  0.45594000000E+02  0.51100000000E-03 0. -1.
    9900012    2    1    2    0    0  0.15490952248E+02  0.39698637181E+02  0.14600070787E+02  0.46142318048E+02  0.10000002613E+02 0.  0.
        -12    1    1    2    0    0 -0.15490952248E+02 -0.39698637181E+02 -0.14600070787E+02  0.45045681952E+02  0.00000000000E+00 0.  1.
         11    1    3    3    0    0  0.44933067396E+01  0.62596404039E+01  0.23557854997E+01  0.80574579753E+01  0.51100000000E-03 0. -1.
        -11    1    3    3    0    0  0.45368282235E+01  0.25136745975E+02  0.86365759698E+01  0.26963479992E+02  0.51100000000E-03 0.  1.
        -12    1    3    3    0    0  0.64608172852E+01  0.83022508021E+01  0.36077093170E+01  0.11121380080E+02  0.00000000000E+00 0.  1.
</event>
<event>
 7    1  0.1541705E-008  0.4614232E+02  0.7816164E-02  0.1320468E+00
        -11   -1    0    0    0    0  0.00000000000E+00  0.00000000000E+00  0.45593999997E+02  0.45594000000E+02  0.51100000000E-03 0.  1.
         11   -1    0    0    0    0 -0.00000000000E+00 -0.00000000000E+00 -0.45593999997E+02  0.45594000000E+02  0.51100000000E-03 0. -1.
    9900012    2    1    2    0    0 -0.28147503954E+02 -0.13911097997E+02 -0.32300353737E+02  0.46142317878E+02  0.10000001066E+02 0.  0.
        -12    1    1    2    0    0  0.28147503954E+02  0.13911097997E+02  0.32300353737E+02  0.45045682122E+02  0.00000000000E+00 0.  1.
         11    1    3    3    0    0 -0.59091245457E+01 -0.35109886238E+01 -0.58102972475E+01  0.90002415733E+01  0.51100000000E-03 0. -1.
        -11    1    3    3    0    0 -0.31311263172E+01 -0.16246150803E+01 -0.27724615201E+00  0.35383883144E+01  0.51100000000E-03 0.  1.
        -12    1    3    3    0    0 -0.19107253091E+02 -0.87754942926E+01 -0.26212810337E+02  0.33603687990E+02  0.00000000000E+00 0.  1.
</event>
<event>
 7    1  0.1541705E-008  0.4614232E+02  0.7816164E-02  0.1320468E+00
        -11   -1    0    0    0    0  0.00000000000E+00  0.00000000000E+00  0.45593999997E+02  0.45594000000E+02  0.51100000000E-03 0.  1.
         11   -1    0    0    0    0 -0.00000000000E+00 -0.00000000000E+00 -0.45593999997E+02  0.45594000000E+02  0.51100000000E-03 0. -1.
    9900012    2    1    2    0    0  0.30241355237E+02 -0.33005755002E+02 -0.50193610188E+01  0.46142318577E+02  0.10000007439E+02 0.  0.
        -12    1    1    2    0    0 -0.30241355237E+02  0.33005755002E+02  0.50193610188E+01  0.45045681423E+02  0.00000000000E+00 0.  1.
         11    1    3    3    0    0  0.36589371968E+01 -0.41998668404E+01 -0.62911346521E+00  0.56055764111E+01  0.51100000000E-03 0. -1.
        -11    1    3    3    0    0  0.16124037667E+02 -0.10931678747E+02 -0.36163262315E+01  0.19813228071E+02  0.51100000000E-03 0.  1.
        -12    1    3    3    0    0  0.10458380373E+02 -0.17874209414E+02 -0.77392132213E+00  0.20723514095E+02  0.00000000000E+00 0.  1.
</event>
<event>
 7    1  0.1541705E-008  0.4614232E+02  0.7816164E-02  0.1320468E+00
        -11   -1    0    0    0    0  0.00000000000E+00  0.00000000000E+00  0.45593999997E+02  0.45594000000E+02  0.51100000000E-03 0.  1.
         11   -1    0    0    0    0 -0.00000000000E+00 -0.00000000000E+00 -0.45593999997E+02  0.45594000000E+02  0.51100000000E-03 0. -1.
    9900012    2    1    2    0    0  0.25162464166E+01  0.42328530574E+02 -0.15201233579E+02  0.46142317644E+02  0.99999989323E+01 0.  0.
        -12    1    1    2    0    0 -0.25162464166E+01 -0.42328530574E+02  0.15201233579E+02  0.45045682356E+02  0.00000000000E+00 0.  1.
         11    1    3    3    0    0 -0.85392285810E+00  0.26067824633E+02 -0.72441318339E+01  0.27069135775E+02  0.51100000000E-03 0. -1.
        -11    1    3    3    0    0  0.45108124050E+01  0.13108957764E+02 -0.72614603448E+01  0.15649952358E+02  0.51100000000E-03 0.  1.
         12    1    3    3    0    0 -0.11406431303E+01  0.31517481773E+01 -0.69564139994E+00  0.34232295104E+01  0.00000000000E+00 0. -1.
</event>
<event>
 7    1  0.1541705E-008  0.4614232E+02  0.7816164E-02  0.1320468E+00
        -11   -1    0    0    0    0  0.00000000000E+00  0.00000000000E+00  0.45593999997E+02  0.45594000000E+02  0.51100000000E-03 0.  1.
         11   -1    0    0    0    0 -0.00000000000E+00 -0.00000000000E+00 -0.45593999997E+02  0.45594000000E+02  0.51100000000E-03 0. -1.
    9900012    2    1    2    0    0  0.19436191473E+02  0.21427699815E+02 -0.34528273373E+02  0.46142317405E+02  0.99999967519E+01 0.  0.
        -12    1    1    2    0    0 -0.19436191473E+02 -0.21427699815E+02  0.34528273373E+02  0.45045682595E+02  0.00000000000E+00 0.  1.
         11    1    3    3    0    0  0.12153468041E+02  0.11006531085E+02 -0.22558245217E+02  0.27887720227E+02  0.51100000000E-03 0. -1.
        -11    1    3    3    0    0  0.65839878815E+01  0.65918829996E+01 -0.58485115516E+01  0.11000313883E+02  0.51100000000E-03 0.  1.
        -12    1    3    3    0    0  0.69873555076E+00  0.38292857304E+01 -0.61215166045E+01  0.72542832943E+01  0.00000000000E+00 0.  1.
</event>
<event>
 7    1  0.1541705E-008  0.4614232E+02  0.7816164E-02  0.1320468E+00
        -11   -1    0    0    0    0  0.00000000000E+00  0.00000000000E+00  0.45593999997E+02  0.45594000000E+02  0.51100000000E-03 0.  1.
         11   -1    0    0    0    0 -0.00000000000E+00 -0.00000000000E+00 -0.45593999997E+02  0.45594000000E+02  0.51100000000E-03 0. -1.
    9900012    2    1    2    0    0  0.44110769926E+02 -0.42956632725E+01 -0.80560987070E+01  0.46142317934E+02  0.10000001578E+02 0.  0.
        -12    1    1    2    0    0 -0.44110769926E+02  0.42956632725E+01  0.80560987070E+01  0.45045682066E+02  0.00000000000E+00 0.  1.
         11    1    3    3    0    0  0.10956147590E+02 -0.25344607084E+01 -0.88620772982E+00  0.11280338004E+02  0.51100000000E-03 0. -1.
        -11    1    3    3    0    0  0.73827682939E+01 -0.17731438960E+01 -0.47969867445E+01  0.89811129068E+01  0.51100000000E-03 0.  1.
        -12    1    3    3    0    0  0.25771854042E+02  0.11941331907E-01 -0.23729042327E+01  0.25880867023E+02  0.00000000000E+00 0.  1.
</event>
<event>
 7    1  0.1541705E-008  0.4614232E+02  0.7816164E-02  0.1320468E+00
        -11   -1    0    0    0    0  0.00000000000E+00  0.00000000000E+00  0.45593999997E+02  0.45594000000E+02  0.51100000000E-03 0.  1.
         11   -1    0    0    0    0 -0.00000000000E+00 -0.00000000000E+00 -0.45593999997E+02  0.45594000000E+02  0.51100000000E-03 0. -1.
    9900012    2    1    2    0    0  0.31850928907E+02  0.27208757768E+02 -0.16562470252E+02  0.46142316607E+02  0.99999894765E+01 0.  0.
        -12    1    1    2    0    0 -0.31850928907E+02 -0.27208757768E+02  0.16562470252E+02  0.45045683393E+02  0.00000000000E+00 0.  1.
         11    1    3    3    0    0  0.25186484258E+02  0.22753215595E+02 -0.17031959439E+02  0.37975721873E+02  0.51100000000E-03 0. -1.
        -11    1    3    3    0    0  0.48972122805E+01  0.24409809659E+01  0.38620487907E+00  0.54854562860E+01  0.51100000000E-03 0.  1.
         12    1    3    3    0    0  0.17672323687E+01  0.20145612068E+01  0.83284308626E-01  0.26811384479E+01  0.00000000000E+00 0. -1.
</event>
<event>
 7    1  0.1541705E-008  0.4614231E+02  0.7816164E-02  0.1320468E+00
        -11   -1    0    0    0    0  0.00000000000E+00  0.00000000000E+00  0.45593999997E+02  0.45594000000E+02  0.51100000000E-03 0.  1.
         11   -1    0    0    0    0 -0.00000000000E+00 -0.00000000000E+00 -0.45593999997E+02  0.45594000000E+02  0.51100000000E-03 0. -1.
    9900012    2    1    2    0    0  0.25146461621E+01 -0.27342303799E+02 -0.35709790278E+02  0.46142310483E+02  0.99999336330E+01 0.  0.
        -12    1    1    2    0    0 -0.25146461621E+01  0.27342303799E+02  0.35709790278E+02  0.45045689517E+02  0.00000000000E+00 0.  1.
         11    1    3    3    0    0  0.22098540046E+01 -0.71103592685E+01 -0.15064179412E+02  0.16803873519E+02  0.51100000000E-03 0. -1.
        -11    1    3    3    0    0 -0.18208223868E+00 -0.15732833559E+02 -0.12806940628E+02  0.20287260393E+02  0.51100000000E-03 0.  1.
        -12    1    3    3    0    0  0.48687439612E+00 -0.44991109714E+01 -0.78386702380E+01  0.90511765705E+01  0.00000000000E+00 0.  1.
</event>
<event>
 7    1  0.1541705E-008  0.4614231E+02  0.7816164E-02  0.1320468E+00
        -11   -1    0    0    0    0  0.00000000000E+00  0.00000000000E+00  0.45593999997E+02  0.45594000000E+02  0.51100000000E-03 0. -1.
         11   -1    0    0    0    0 -0.00000000000E+00 -0.00000000000E+00 -0.45593999997E+02  0.45594000000E+02  0.51100000000E-03 0.  1.
    9900012    2    1    2    0    0  0.10173018427E+02 -0.74950318256E+01  0.43237116006E+02  0.46142312010E+02  0.99999475599E+01 0.  0.
        -12    1    1    2    0    0 -0.10173018427E+02  0.74950318256E+01 -0.43237116006E+02  0.45045687990E+02  0.00000000000E+00 0.  1.
         11    1    3    3    0    0  0.45715760044E+01 -0.61648655334E+00  0.17388002603E+02  0.17989496870E+02  0.51100000000E-03 0. -1.
        -11    1    3    3    0    0  0.37957141285E+00 -0.46750611524E+01  0.66722406564E+01  0.81559221964E+01  0.51100000000E-03 0.  1.
        -12    1    3    3    0    0  0.52218710093E+01 -0.22034841198E+01  0.19176872746E+02  0.19996892944E+02  0.00000000000E+00 0.  1.
</event>
<event>
 7    1  0.1541705E-008  0.4614231E+02  0.7816164E-02  0.1320468E+00
        -11   -1    0    0    0    0  0.00000000000E+00  0.00000000000E+00  0.45593999997E+02  0.45594000000E+02  0.51100000000E-03 0.  1.
         11   -1    0    0    0    0 -0.00000000000E+00 -0.00000000000E+00 -0.45593999997E+02  0.45594000000E+02  0.51100000000E-03 0. -1.
    9900012    2    1    2    0    0 -0.43060227258E+02  0.12273739787E+02 -0.49280979104E+01  0.46142311983E+02  0.99999473118E+01 0.  0.
        -12    1    1    2    0    0  0.43060227258E+02 -0.12273739787E+02  0.49280979104E+01  0.45045688017E+02  0.00000000000E+00 0.  1.
         11    1    3    3    0    0 -0.39949906868E+01  0.43199381083E+01 -0.14265367633E+01  0.60544878598E+01  0.51100000000E-03 0. -1.
        -11    1    3    3    0    0 -0.49126516187E+01  0.80288454587E+00  0.30766845407E+00  0.49873269052E+01  0.51100000000E-03 0.  1.
         12    1    3    3    0    0 -0.34152584953E+02  0.71509171327E+01 -0.38092296012E+01  0.35100497218E+02  0.00000000000E+00 0. -1.
</event>
<event>
 7    1  0.1541705E-008  0.4614231E+02  0.7816164E-02  0.1320468E+00
        -11   -1    0    0    0    0  0.00000000000E+00  0.00000000000E+00  0.45593999997E+02  0.45594000000E+02  0.51100000000E-03 0. -1.
         11   -1    0    0    0    0 -0.00000000000E+00 -0.00000000000E+00 -0.45593999997E+02  0.45594000000E+02  0.51100000000E-03 0.  1.
    9900012    2    1    2    0    0  0.40383505045E+01  0.63828948721E+01  0.44407933341E+02  0.46142310246E+02  0.99999314748E+01 0.  0.
        -12    1    1    2    0    0 -0.40383505045E+01 -0.63828948721E+01 -0.44407933341E+02  0.45045689754E+02  0.00000000000E+00 0.  1.
         11    1    3    3    0    0  0.26098137422E+01  0.49078290810E+01  0.34764027555E+02  0.35205617821E+02  0.51100000000E-03 0. -1.
        -11    1    3    3    0    0 -0.14432289468E+01  0.14327152565E+01  0.24092108749E+01  0.31527575391E+01  0.51100000000E-03 0.  1.
        -12    1    3    3    0    0  0.28717657091E+01  0.42350534548E-01  0.72346949111E+01  0.77839348861E+01  0.00000000000E+00 0.  1.
</event>
<event>
 7    1  0.1541705E-008  0.4614232E+02  0.7816164E-02  0.1320468E+00
        -11   -1    0    0    0    0  0.00000000000E+00  0.00000000000E+00  0.45593999997E+02  0.45594000000E+02  0.51100000000E-03 0.  1.
         11   -1    0    0    0    0 -0.00000000000E+00 -0.00000000000E+00 -0.45593999997E+02  0.45594000000E+02  0.51100000000E-03 0. -1.
    9900012    2    1    2    0    0 -0.89511646689E+01 -0.82945019471E+01 -0.43361174325E+02  0.46142317073E+02  0.99999937276E+01 0.  0.
        -12    1    1    2    0    0  0.89511646689E+01  0.82945019471E+01  0.43361174325E+02  0.45045682927E+02  0.00000000000E+00 0.  1.
         11    1    3    3    0    0 -0.28200677293E+01 -0.24891742304E+01 -0.13879626358E+02  0.14380292016E+02  0.51100000000E-03 0. -1.
        -11    1    3    3    0    0 -0.62253611326E+01 -0.30943387384E+01 -0.10533583837E+02  0.12620873273E+02  0.51100000000E-03 0.  1.
        -12    1    3    3    0    0  0.94264192984E-01 -0.27109889783E+01 -0.18947964130E+02  0.19141151785E+02  0.00000000000E+00 0.  1.
</event>
<event>
 7    1  0.1541705E-008  0.4614232E+02  0.7816164E-02  0.1320468E+00
        -11   -1    0    0    0    0  0.00000000000E+00  0.00000000000E+00  0.45593999997E+02  0.45594000000E+02  0.51100000000E-03 0.  1.
         11   -1    0    0    0    0 -0.00000000000E+00 -0.00000000000E+00 -0.45593999997E+02  0.45594000000E+02  0.51100000000E-03 0. -1.
    9900012    2    1    2    0    0 -0.22602519153E+02  0.26147216488E+02 -0.28888799750E+02  0.46142317042E+02  0.99999934455E+01 0.  0.
        -12    1    1    2    0    0  0.22602519153E+02 -0.26147216488E+02  0.28888799750E+02  0.45045682958E+02  0.00000000000E+00 0.  1.
         11    1    3    3    0    0 -0.16029429466E+02  0.21732203528E+02 -0.25246571134E+02  0.36967832415E+02  0.51100000000E-03 0. -1.
        -11    1    3    3    0    0 -0.67785356956E+01  0.38100641497E+01 -0.34532739133E+01  0.85082451765E+01  0.51100000000E-03 0.  1.
         12    1    3    3    0    0  0.20544600897E+00  0.60494881032E+00 -0.18895470237E+00  0.66623945039E+00  0.00000000000E+00 0. -1.
</event>
<event>
 7    1  0.1541705E-008  0.4614232E+02  0.7816164E-02  0.1320468E+00
        -11   -1    0    0    0    0  0.00000000000E+00  0.00000000000E+00  0.45593999997E+02  0.45594000000E+02  0.51100000000E-03 0.  1.
         11   -1    0    0    0    0 -0.00000000000E+00 -0.00000000000E+00 -0.45593999997E+02  0.45594000000E+02  0.51100000000E-03 0. -1.
    9900012    2    1    2    0    0  0.37778413650E+02  0.14631857414E+02 -0.19692986969E+02  0.46142317354E+02  0.99999962893E+01 0.  0.
        -12    1    1    2    0    0 -0.37778413650E+02 -0.14631857414E+02  0.19692986969E+02  0.45045682646E+02  0.00000000000E+00 0.  1.
         11    1    3    3    0    0  0.22360363094E+02  0.53570607949E+01 -0.14884828579E+02  0.27390546913E+02  0.51100000000E-03 0. -1.
        -11    1    3    3    0    0  0.29254949686E+00  0.12371054613E+00  0.20295959055E+00  0.37693814327E+00  0.51100000000E-03 0.  1.
         12    1    3    3    0    0  0.15125501058E+02  0.91510860727E+01 -0.50111179804E+01  0.18374832298E+02  0.00000000000E+00 0. -1.
</event>
<event>
 7    1  0.1541705E-008  0.4614232E+02  0.7816164E-02  0.1320468E+00
        -11   -1    0    0    0    0  0.00000000000E+00  0.00000000000E+00  0.45593999997E+02  0.45594000000E+02  0.51100000000E-03 0.  1.
         11   -1    0    0    0    0 -0.00000000000E+00 -0.00000000000E+00 -0.45593999997E+02  0.45594000000E+02  0.51100000000E-03 0. -1.
    9900012    2    1    2    0    0  0.22532981871E+02  0.46458820329E+01 -0.38727175245E+02  0.46142316584E+02  0.99999892706E+01 0.  0.
        -12    1    1    2    0    0 -0.22532981871E+02 -0.46458820329E+01  0.38727175245E+02  0.45045683416E+02  0.00000000000E+00 0.  1.
         11    1    3    3    0    0  0.90371015221E+01  0.38761952374E+01 -0.12008166407E+02  0.15520636397E+02  0.51100000000E-03 0. -1.
        -11    1    3    3    0    0  0.26161090724E+01  0.25400027947E+01 -0.95103811662E+01  0.10185430333E+02  0.51100000000E-03 0.  1.
         12    1    3    3    0    0  0.10879771277E+02 -0.17703159992E+01 -0.17208627672E+02  0.20436249855E+02  0.00000000000E+00 0. -1.
</event>
<event>
 7    1  0.1541705E-008  0.4614232E+02  0.7816164E-02  0.1320468E+00
        -11   -1    0    0    0    0  0.00000000000E+00  0.00000000000E+00  0.45593999997E+02  0.45594000000E+02  0.51100000000E-03 0.  1.
         11   -1    0    0    0    0 -0.00000000000E+00 -0.00000000000E+00 -0.45593999997E+02  0.45594000000E+02  0.51100000000E-03 0. -1.
    9900012    2    1    2    0    0 -0.19006098311E+02 -0.31613748540E+02 -0.25854450279E+02  0.46142317976E+02  0.10000001960E+02 0.  0.
        -12    1    1    2    0    0  0.19006098311E+02  0.31613748540E+02  0.25854450279E+02  0.45045682024E+02  0.00000000000E+00 0.  1.
         11    1    3    3    0    0 -0.16830461792E+02 -0.28851754028E+02 -0.21450902543E+02  0.39696717431E+02  0.51100000000E-03 0. -1.
        -11    1    3    3    0    0 -0.10768726606E+01 -0.85564935909E+00 -0.39719390241E+01  0.42033427680E+01  0.51100000000E-03 0.  1.
         12    1    3    3    0    0 -0.10987638579E+01 -0.19063451527E+01 -0.43160871222E+00  0.22422577766E+01  0.00000000000E+00 0. -1.
</event>
<event>
 7    1  0.1541705E-008  0.4614232E+02  0.7816164E-02  0.1320468E+00
        -11   -1    0    0    0    0  0.00000000000E+00  0.00000000000E+00  0.45593999997E+02  0.45594000000E+02  0.51100000000E-03 0.  1.
         11   -1    0    0    0    0 -0.00000000000E+00 -0.00000000000E+00 -0.45593999997E+02  0.45594000000E+02  0.51100000000E-03 0. -1.
    9900012    2    1    2    0    0 -0.45208018378E+00  0.41716873789E+02  0.16988570730E+02  0.46142317957E+02  0.10000001790E+02 0.  0.
        -12    1    1    2    0    0  0.45208018378E+00 -0.41716873789E+02 -0.16988570730E+02  0.45045682043E+02  0.00000000000E+00 0.  1.
         11    1    3    3    0    0  0.93847080268E+00  0.18896963981E+02  0.64077064416E+01  0.19975852353E+02  0.51100000000E-03 0. -1.
        -11    1    3    3    0    0 -0.36216425330E+01  0.13434519446E+02  0.84762716164E+01  0.16292629872E+02  0.51100000000E-03 0.  1.
        -12    1    3    3    0    0  0.22310915465E+01  0.93853903622E+01  0.21045926719E+01  0.98738357316E+01  0.00000000000E+00 0.  1.
</event>
<event>
 7    1  0.1541705E-008  0.4614232E+02  0.7816164E-02  0.1320468E+00
        -11   -1    0    0    0    0  0.00000000000E+00  0.00000000000E+00  0.45593999997E+02  0.45594000000E+02  0.51100000000E-03 0.  1.
         11   -1    0    0    0    0 -0.00000000000E+00 -0.00000000000E+00 -0.45593999997E+02  0.45594000000E+02  0.51100000000E-03 0. -1.
    9900012    2    1    2    0    0  0.11141515646E+02  0.38985321866E+02 -0.19624599405E+02  0.46142316592E+02  0.99999893424E+01 0.  0.
        -12    1    1    2    0    0 -0.11141515646E+02 -0.38985321866E+02  0.19624599405E+02  0.45045683408E+02  0.00000000000E+00 0.  1.
         11    1    3    3    0    0  0.25047524210E+01  0.23458006925E+02 -0.93297964629E+01  0.25369213151E+02  0.51100000000E-03 0. -1.
        -11    1    3    3    0    0  0.62061807008E+01  0.13479760392E+02 -0.80545800104E+01  0.16884812067E+02  0.51100000000E-03 0.  1.
         12    1    3    3    0    0  0.24305825238E+01  0.20475545488E+01 -0.22402229315E+01  0.38882913751E+01  0.00000000000E+00 0. -1.
</event>
<event>
 7    1  0.1748463E-008  0.4614232E+02  0.7816164E-02  0.1320468E+00
        -11   -1    0    0    0    0  0.00000000000E+00  0.00000000000E+00  0.45593999997E+02  0.45594000000E+02  0.51100000000E-03 0. -1.
         11   -1    0    0    0    0 -0.00000000000E+00 -0.00000000000E+00 -0.45593999997E+02  0.45594000000E+02  0.51100000000E-03 0.  1.
    9900012    2    1    2    0    0  0.14026455251E+02  0.22326697213E+02  0.36522467654E+02  0.46142317645E+02  0.99999989371E+01 0.  0.
        -12    1    1    2    0    0 -0.14026455251E+02 -0.22326697213E+02 -0.36522467654E+02  0.45045682355E+02  0.00000000000E+00 0.  1.
         11    1    3    3    0    0  0.16583715625E+01  0.72943041782E+01  0.15068184314E+02  0.16822819278E+02  0.51100000000E-03 0. -1.
        -11    1    3    3    0    0  0.56761801735E+00  0.19140373766E+01  0.79060843035E+00  0.21472753070E+01  0.51100000000E-03 0.  1.
         12    1    3    3    0    0  0.11800465671E+02  0.13118355658E+02  0.20663674910E+02  0.27172223059E+02  0.00000000000E+00 0. -1.
</event>
<event>
 7    1  0.1541705E-008  0.4614232E+02  0.7816164E-02  0.1320468E+00
        -11   -1    0    0    0    0  0.00000000000E+00  0.00000000000E+00  0.45593999997E+02  0.45594000000E+02  0.51100000000E-03 0. -1.
         11   -1    0    0    0    0 -0.00000000000E+00 -0.00000000000E+00 -0.45593999997E+02  0.45594000000E+02  0.51100000000E-03 0.  1.
    9900012    2    1    2    0    0 -0.29078773546E+02 -0.33603845122E+02  0.73702125035E+01  0.46142317518E+02  0.99999977845E+01 0.  0.
        -12    1    1    2    0    0  0.29078773546E+02  0.33603845122E+02 -0.73702125035E+01  0.45045682482E+02  0.00000000000E+00 0.  1.
         11    1    3    3    0    0 -0.19536138933E+02 -0.19571709522E+02  0.45810123800E+01  0.28030308823E+02  0.51100000000E-03 0. -1.
        -11    1    3    3    0    0 -0.13248850075E+01 -0.28501854294E+01  0.28384526213E+01  0.42350549948E+01  0.51100000000E-03 0.  1.
         12    1    3    3    0    0 -0.82177496053E+01 -0.11181950171E+02 -0.49252497809E-01  0.13876953700E+02  0.00000000000E+00 0. -1.
</event>
<event>
 7    1  0.1541705E-008  0.4614232E+02  0.7816164E-02  0.1320468E+00
        -11   -1    0    0    0    0  0.00000000000E+00  0.00000000000E+00  0.45593999997E+02  0.45594000000E+02  0.51100000000E-03 0. -1.
         11   -1    0    0    0    0 -0.00000000000E+00 -0.00000000000E+00 -0.45593999997E+02  0.45594000000E+02  0.51100000000E-03 0.  1.
    9900012    2    1    2    0    0  0.39292827063E+02  0.17567628341E+02  0.13287803825E+02  0.46142317026E+02  0.99999932975E+01 0.  0.
        -12    1    1    2    0    0 -0.39292827063E+02 -0.17567628341E+02 -0.13287803825E+02  0.45045682974E+02  0.00000000000E+00 0.  1.
         11    1    3    3    0    0  0.88195914685E+01  0.19299565622E+01  0.47135129132E+01  0.10184651700E+02  0.51100000000E-03 0. -1.
        -11    1    3    3    0    0  0.17441073228E+02  0.99142417951E+01  0.16515052443E+01  0.20129845890E+02  0.51100000000E-03 0.  1.
        -12    1    3    3    0    0  0.13032162366E+02  0.57234299835E+01  0.69227856673E+01  0.15827819436E+02  0.00000000000E+00 0.  1.
</event>
<event>
 7    1  0.1541705E-008  0.4614232E+02  0.7816164E-02  0.1320468E+00
        -11   -1    0    0    0    0  0.00000000000E+00  0.00000000000E+00  0.45593999997E+02  0.45594000000E+02  0.51100000000E-03 0.  1.
         11   -1    0    0    0    0 -0.00000000000E+00 -0.00000000000E+00 -0.45593999997E+02  0.45594000000E+02  0.51100000000E-03 0. -1.
    9900012    2    1    2    0    0  0.20819431915E+02 -0.14166860952E+02 -0.37349226056E+02  0.46142318947E+02  0.10000010817E+02 0.  0.
        -12    1    1    2    0    0 -0.20819431915E+02  0.14166860952E+02  0.37349226056E+02  0.45045681053E+02  0.00000000000E+00 0.  1.
         11    1    3    3    0    0  0.36454248974E+01 -0.47172950440E+00 -0.15095804768E+01  0.39737243092E+01  0.51100000000E-03 0. -1.
        -11    1    3    3    0    0 -0.12896639932E+00 -0.21293007721E-01 -0.74106508790E-01  0.15025897676E+00  0.51100000000E-03 0.  1.
         12    1    3    3    0    0  0.17302973416E+02 -0.13673838440E+02 -0.35765539071E+02  0.42018335661E+02  0.00000000000E+00 0. -1.
</event>
<event>
 7    1  0.1541705E-008  0.4614231E+02  0.7816164E-02  0.1320468E+00
        -11   -1    0    0    0    0  0.00000000000E+00  0.00000000000E+00  0.45593999997E+02  0.45594000000E+02  0.51100000000E-03 0.  1.
         11   -1    0    0    0    0 -0.00000000000E+00 -0.00000000000E+00 -0.45593999997E+02  0.45594000000E+02  0.51100000000E-03 0. -1.
    9900012    2    1    2    0    0  0.22544800409E+02  0.72059012319E+01 -0.38326502033E+02  0.46142314345E+02  0.99999688491E+01 0.  0.
        -12    1    1    2    0    0 -0.22544800409E+02 -0.72059012319E+01  0.38326502033E+02  0.45045685655E+02  0.00000000000E+00 0.  1.
         11    1    3    3    0    0  0.14615769323E+02  0.47711929498E+01 -0.24042914307E+02  0.28538512990E+02  0.51100000000E-03 0. -1.
        -11    1    3    3    0    0  0.23677940880E+01  0.38295982114E+01 -0.54019901355E+01  0.70323373774E+01  0.51100000000E-03 0.  1.
         12    1    3    3    0    0  0.55612369980E+01 -0.13948899293E+01 -0.88815975905E+01  0.10571463977E+02  0.00000000000E+00 0. -1.
</event>
<event>
 7    1  0.1541705E-008  0.4614232E+02  0.7816164E-02  0.1320468E+00
        -11   -1    0    0    0    0  0.00000000000E+00  0.00000000000E+00  0.45593999997E+02  0.45594000000E+02  0.51100000000E-03 0.  1.
         11   -1    0    0    0    0 -0.00000000000E+00 -0.00000000000E+00 -0.45593999997E+02  0.45594000000E+02  0.51100000000E-03 0. -1.
    9900012    2    1    2    0    0 -0.11056007813E+02  0.23646213335E+02 -0.36711508515E+02  0.46142316841E+02  0.99999916086E+01 0.  0.
        -12    1    1    2    0    0  0.11056007813E+02 -0.23646213335E+02  0.36711508515E+02  0.45045683159E+02  0.00000000000E+00 0.  1.
         11    1    3    3    0    0 -0.84356621859E+01  0.21880433155E+02 -0.30672437556E+02  0.38609742002E+02  0.51100000000E-03 0. -1.
        -11    1    3    3    0    0 -0.12559289906E+01  0.87647790064E-01 -0.16100696394E+00  0.12692372780E+01  0.51100000000E-03 0.  1.
         12    1    3    3    0    0 -0.13644166365E+01  0.16781323900E+01 -0.58780639947E+01  0.62633375609E+01  0.00000000000E+00 0. -1.
</event>
<event>
 7    1  0.1541705E-008  0.4614232E+02  0.7816164E-02  0.1320468E+00
        -11   -1    0    0    0    0  0.00000000000E+00  0.00000000000E+00  0.45593999997E+02  0.45594000000E+02  0.51100000000E-03 0.  1.
         11   -1    0    0    0    0 -0.00000000000E+00 -0.00000000000E+00 -0.45593999997E+02  0.45594000000E+02  0.51100000000E-03 0. -1.
    9900012    2    1    2    0    0 -0.22917205043E+02  0.38630307246E+02 -0.34080124983E+01  0.46142317920E+02  0.10000001448E+02 0.  0.
        -12    1    1    2    0    0  0.22917205043E+02 -0.38630307246E+02  0.34080124983E+01  0.45045682080E+02  0.00000000000E+00 0.  1.
         11    1    3    3    0    0 -0.19300710374E+02  0.35389472533E+02 -0.32292808016E+01  0.40439590031E+02  0.51100000000E-03 0. -1.
        -11    1    3    3    0    0  0.33417143531E+00 -0.16299559140E+00 -0.31332566380E+00  0.48622149655E+00  0.51100000000E-03 0.  1.
         12    1    3    3    0    0 -0.39506661046E+01  0.34038303036E+01  0.13459396712E+00  0.52165063924E+01  0.00000000000E+00 0. -1.
</event>
<event>
 7    1  0.1541705E-008  0.4614232E+02  0.7816164E-02  0.1320468E+00
        -11   -1    0    0    0    0  0.00000000000E+00  0.00000000000E+00  0.45593999997E+02  0.45594000000E+02  0.51100000000E-03 0.  1.
         11   -1    0    0    0    0 -0.00000000000E+00 -0.00000000000E+00 -0.45593999997E+02  0.45594000000E+02  0.51100000000E-03 0. -1.
    9900012    2    1    2    0    0 -0.41175262779E+02  0.60587643443E+01 -0.17233761725E+02  0.46142318370E+02  0.10000005556E+02 0.  0.
        -12    1    1    2    0    0  0.41175262779E+02 -0.60587643443E+01  0.17233761725E+02  0.45045681630E+02  0.00000000000E+00 0.  1.
         11    1    3    3    0    0 -0.51113458257E+01  0.42196082210E+01 -0.19319931316E+01  0.69038791567E+01  0.51100000000E-03 0. -1.
        -11    1    3    3    0    0 -0.12890622021E+02  0.74426841421E+00 -0.48385640304E+01  0.13788900380E+02  0.51100000000E-03 0.  1.
         12    1    3    3    0    0 -0.23173294932E+02  0.10948877090E+01 -0.10463204562E+02  0.25449538833E+02  0.00000000000E+00 0. -1.
</event>
<event>
 7    1  0.1541705E-008  0.4614232E+02  0.7816164E-02  0.1320468E+00
        -11   -1    0    0    0    0  0.00000000000E+00  0.00000000000E+00  0.45593999997E+02  0.45594000000E+02  0.51100000000E-03 0.  1.
         11   -1    0    0    0    0 -0.00000000000E+00 -0.00000000000E+00 -0.45593999997E+02  0.45594000000E+02  0.51100000000E-03 0. -1.
    9900012    2    1    2    0    0  0.19501926345E+02  0.24485601464E+02 -0.32392031500E+02  0.46142317466E+02  0.99999973123E+01 0.  0.
        -12    1    1    2    0    0 -0.19501926345E+02 -0.24485601464E+02  0.32392031500E+02  0.45045682534E+02  0.00000000000E+00 0.  1.
         11    1    3    3    0    0  0.84030530402E+01  0.10511405794E+02 -0.12749875681E+02  0.18538076553E+02  0.51100000000E-03 0. -1.
        -11    1    3    3    0    0  0.74452525326E+01  0.13668725677E+02 -0.17209920473E+02  0.23204465300E+02  0.51100000000E-03 0.  1.
        -12    1    3    3    0    0  0.36536207721E+01  0.30546999230E+00 -0.24322353468E+01  0.43997756130E+01  0.00000000000E+00 0.  1.
</event>
<event>
 7    1  0.1541705E-008  0.4614232E+02  0.7816164E-02  0.1320468E+00
        -11   -1    0    0    0    0  0.00000000000E+00  0.00000000000E+00  0.45593999997E+02  0.45594000000E+02  0.51100000000E-03 0.  1.
         11   -1    0    0    0    0 -0.00000000000E+00 -0.00000000000E+00 -0.45593999997E+02  0.45594000000E+02  0.51100000000E-03 0. -1.
    9900012    2    1    2    0    0  0.15891335567E+02  0.38917349948E+02 -0.16186995423E+02  0.46142317700E+02  0.99999994392E+01 0.  0.
        -12    1    1    2    0    0 -0.15891335567E+02 -0.38917349948E+02  0.16186995423E+02  0.45045682300E+02  0.00000000000E+00 0.  1.
         11    1    3    3    0    0  0.93928033213E+01  0.19422359474E+02 -0.13381135820E+02  0.25387154190E+02  0.51100000000E-03 0. -1.
        -11    1    3    3    0    0  0.44177816098E+01  0.12219279064E+02 -0.15789575208E+01  0.13088952682E+02  0.51100000000E-03 0.  1.
         12    1    3    3    0    0  0.20807506355E+01  0.72757114104E+01 -0.12269020815E+01  0.76662108275E+01  0.00000000000E+00 0. -1.
</event>
<event>
 7    1  0.1541705E-008  0.4614232E+02  0.7816164E-02  0.1320468E+00
        -11   -1    0    0    0    0  0.00000000000E+00  0.00000000000E+00  0.45593999997E+02  0.45594000000E+02  0.51100000000E-03 0.  1.
         11   -1    0    0    0    0 -0.00000000000E+00 -0.00000000000E+00 -0.45593999997E+02  0.45594000000E+02  0.51100000000E-03 0. -1.
    9900012    2    1    2    0    0  0.74168132169E+01  0.16059506594E+02 -0.41427002935E+02  0.46142318270E+02  0.10000004644E+02 0.  0.
        -12    1    1    2    0    0 -0.74168132169E+01 -0.16059506594E+02  0.41427002935E+02  0.45045681730E+02  0.00000000000E+00 0.  1.
         11    1    3    3    0    0  0.41393836377E+00  0.80527676211E+01 -0.10249287174E+02  0.13040947019E+02  0.51100000000E-03 0.  1.
        -11    1    3    3    0    0  0.40641209775E+01  0.62858905855E+01 -0.24299210351E+02  0.25425993072E+02  0.51100000000E-03 0. -1.
         12    1    3    3    0    0  0.29387538756E+01  0.17208483877E+01 -0.68785054101E+01  0.76753781791E+01  0.00000000000E+00 0. -1.
</event>
<event>
 7    1  0.1541705E-008  0.4614232E+02  0.7816164E-02  0.1320468E+00
        -11   -1    0    0    0    0  0.00000000000E+00  0.00000000000E+00  0.45593999997E+02  0.45594000000E+02  0.51100000000E-03 0.  1.
         11   -1    0    0    0    0 -0.00000000000E+00 -0.00000000000E+00 -0.45593999997E+02  0.45594000000E+02  0.51100000000E-03 0. -1.
    9900012    2    1    2    0    0  0.14803115601E+02 -0.29230845220E+02 -0.30911793136E+02  0.46142317647E+02  0.99999989570E+01 0.  0.
        -12    1    1    2    0    0 -0.14803115601E+02  0.29230845220E+02  0.30911793136E+02  0.45045682353E+02  0.00000000000E+00 0.  1.
         11    1    3    3    0    0 -0.69078070964E+00 -0.30765443531E+01 -0.42744545501E+01  0.53116160541E+01  0.51100000000E-03 0. -1.
        -11    1    3    3    0    0  0.12506648398E+02 -0.17311239071E+02 -0.16041839561E+02  0.26710220311E+02  0.51100000000E-03 0.  1.
         12    1    3    3    0    0  0.29872479129E+01 -0.88430617962E+01 -0.10595499025E+02  0.14120481281E+02  0.00000000000E+00 0. -1.
</event>
<event>
 7    1  0.1541705E-008  0.4614232E+02  0.7816164E-02  0.1320468E+00
        -11   -1    0    0    0    0  0.00000000000E+00  0.00000000000E+00  0.45593999997E+02  0.45594000000E+02  0.51100000000E-03 0.  1.
         11   -1    0    0    0    0 -0.00000000000E+00 -0.00000000000E+00 -0.45593999997E+02  0.45594000000E+02  0.51100000000E-03 0. -1.
    9900012    2    1    2    0    0  0.10414490747E+02 -0.34372035288E+02 -0.27188509945E+02  0.46142317628E+02  0.99999987829E+01 0.  0.
        -12    1    1    2    0    0 -0.10414490747E+02  0.34372035288E+02  0.27188509945E+02  0.45045682372E+02  0.00000000000E+00 0.  1.
         11    1    3    3    0    0  0.28555507441E+01 -0.78861813520E+01 -0.82207056205E+01  0.11744191225E+02  0.51100000000E-03 0.  1.
        -11    1    3    3    0    0  0.25971748142E+01 -0.46304546763E+01 -0.75935790274E+01  0.92654665415E+01  0.51100000000E-03 0. -1.
        -12    1    3    3    0    0  0.49617651888E+01 -0.21855399260E+02 -0.11374225297E+02  0.25132659861E+02  0.00000000000E+00 0.  1.
</event>
<event>
 7    1  0.1541705E-008  0.4614232E+02  0.7816164E-02  0.1320468E+00
        -11   -1    0    0    0    0  0.00000000000E+00  0.00000000000E+00  0.45593999997E+02  0.45594000000E+02  0.51100000000E-03 0.  1.
         11   -1    0    0    0    0 -0.00000000000E+00 -0.00000000000E+00 -0.45593999997E+02  0.45594000000E+02  0.51100000000E-03 0. -1.
    9900012    2    1    2    0    0  0.67426521080E+01  0.37355411108E+02 -0.24253317555E+02  0.46142317532E+02  0.99999979152E+01 0.  0.
        -12    1    1    2    0    0 -0.67426521080E+01 -0.37355411108E+02  0.24253317555E+02  0.45045682468E+02  0.00000000000E+00 0.  1.
         11    1    3    3    0    0  0.44186560279E+01  0.28746283184E+02 -0.19106550509E+02  0.34798471096E+02  0.51100000000E-03 0. -1.
        -11    1    3    3    0    0  0.26907037008E+01  0.20085577149E+01 -0.86416024380E+00  0.34671261424E+01  0.51100000000E-03 0.  1.
        -12    1    3    3    0    0 -0.36670762070E+00  0.66005702094E+01 -0.42826068025E+01  0.78767202942E+01  0.00000000000E+00 0.  1.
</event>
<event>
 7    1  0.1541705E-008  0.4614232E+02  0.7816164E-02  0.1320468E+00
        -11   -1    0    0    0    0  0.00000000000E+00  0.00000000000E+00  0.45593999997E+02  0.45594000000E+02  0.51100000000E-03 0.  1.
         11   -1    0    0    0    0 -0.00000000000E+00 -0.00000000000E+00 -0.45593999997E+02  0.45594000000E+02  0.51100000000E-03 0. -1.
    9900012    2    1    2    0    0 -0.21273735259E+02 -0.31404439893E+02 -0.24296148777E+02  0.46142317607E+02  0.99999985972E+01 0.  0.
        -12    1    1    2    0    0  0.21273735259E+02  0.31404439893E+02  0.24296148777E+02  0.45045682393E+02  0.00000000000E+00 0.  1.
         11    1    3    3    0    0 -0.81614098465E+01 -0.20381738608E+02 -0.15149811994E+02  0.26674719925E+02  0.51100000000E-03 0. -1.
        -11    1    3    3    0    0 -0.11639894139E+02 -0.10285622483E+02 -0.84108663718E+01  0.17664196523E+02  0.51100000000E-03 0.  1.
         12    1    3    3    0    0 -0.14724312733E+01 -0.73707880146E+00 -0.73547041175E+00  0.18034011591E+01  0.00000000000E+00 0. -1.
</event>
<event>
 7    1  0.1541705E-008  0.4614232E+02  0.7816164E-02  0.1320468E+00
        -11   -1    0    0    0    0  0.00000000000E+00  0.00000000000E+00  0.45593999997E+02  0.45594000000E+02  0.51100000000E-03 0.  1.
         11   -1    0    0    0    0 -0.00000000000E+00 -0.00000000000E+00 -0.45593999997E+02  0.45594000000E+02  0.51100000000E-03 0. -1.
    9900012    2    1    2    0    0  0.15226454789E+02 -0.40041826118E+02  0.13925544162E+02  0.46142317137E+02  0.99999943125E+01 0.  0.
        -12    1    1    2    0    0 -0.15226454789E+02  0.40041826118E+02 -0.13925544162E+02  0.45045682863E+02  0.00000000000E+00 0.  1.
         11    1    3    3    0    0  0.12431293642E+02 -0.26060085415E+02  0.51331176088E+01  0.29325995466E+02  0.51100000000E-03 0. -1.
        -11    1    3    3    0    0  0.13801333219E+01 -0.73255423118E+01  0.54540328898E+01  0.92366018195E+01  0.51100000000E-03 0.  1.
         12    1    3    3    0    0  0.14150278259E+01 -0.66561983918E+01  0.33383936638E+01  0.75797198519E+01  0.00000000000E+00 0. -1.
</event>
<event>
 7    1  0.1541705E-008  0.4614232E+02  0.7816164E-02  0.1320468E+00
        -11   -1    0    0    0    0  0.00000000000E+00  0.00000000000E+00  0.45593999997E+02  0.45594000000E+02  0.51100000000E-03 0. -1.
         11   -1    0    0    0    0 -0.00000000000E+00 -0.00000000000E+00 -0.45593999997E+02  0.45594000000E+02  0.51100000000E-03 0.  1.
    9900012    2    1    2    0    0  0.26756680474E+02  0.36189683835E+02  0.18709754436E+01  0.46142315244E+02  0.99999770480E+01 0.  0.
        -12    1    1    2    0    0 -0.26756680474E+02 -0.36189683835E+02 -0.18709754436E+01  0.45045684756E+02  0.00000000000E+00 0.  1.
         11    1    3    3    0    0  0.67064669781E+01  0.16811893017E+02  0.93842425299E+00  0.18124488585E+02  0.51100000000E-03 0. -1.
        -11    1    3    3    0    0  0.93752877157E+00  0.69103219931E+00 -0.45858053165E+00  0.12517116534E+01  0.51100000000E-03 0.  1.
         12    1    3    3    0    0  0.19112684724E+02  0.18686758619E+02  0.13911317223E+01  0.26766115006E+02  0.00000000000E+00 0. -1.
</event>
<event>
 7    1  0.1541705E-008  0.4614231E+02  0.7816164E-02  0.1320468E+00
        -11   -1    0    0    0    0  0.00000000000E+00  0.00000000000E+00  0.45593999997E+02  0.45594000000E+02  0.51100000000E-03 0. -1.
         11   -1    0    0    0    0 -0.00000000000E+00 -0.00000000000E+00 -0.45593999997E+02  0.45594000000E+02  0.51100000000E-03 0.  1.
    9900012    2    1    2    0    0  0.29783957340E+02 -0.14009982451E+01  0.33764876067E+02  0.46142314671E+02  0.99999718256E+01 0.  0.
        -12    1    1    2    0    0 -0.29783957340E+02  0.14009982451E+01 -0.33764876067E+02  0.45045685329E+02  0.00000000000E+00 0.  1.
         11    1    3    3    0    0  0.12366428180E+02 -0.65651101655E+00  0.15134200981E+02  0.19555142348E+02  0.51100000000E-03 0. -1.
        -11    1    3    3    0    0  0.15008617843E+02  0.10731908836E+01  0.11808088888E+02  0.19126978635E+02  0.51100000000E-03 0.  1.
        -12    1    3    3    0    0  0.24089113164E+01 -0.18176781122E+01  0.68225861979E+01  0.74601936890E+01  0.00000000000E+00 0.  1.
</event>
<event>
 7    1  0.1541705E-008  0.4614232E+02  0.7816164E-02  0.1320468E+00
        -11   -1    0    0    0    0  0.00000000000E+00  0.00000000000E+00  0.45593999997E+02  0.45594000000E+02  0.51100000000E-03 0.  1.
         11   -1    0    0    0    0 -0.00000000000E+00 -0.00000000000E+00 -0.45593999997E+02  0.45594000000E+02  0.51100000000E-03 0. -1.
    9900012    2    1    2    0    0  0.27712678214E+02  0.35503255828E+02 -0.79988185470E+00  0.46142317419E+02  0.99999968794E+01 0.  0.
        -12    1    1    2    0    0 -0.27712678214E+02 -0.35503255828E+02  0.79988185470E+00  0.45045682581E+02  0.00000000000E+00 0.  1.
         11    1    3    3    0    0  0.54862577046E+01  0.56901555664E+01  0.25359102126E+01  0.83010682950E+01  0.51100000000E-03 0. -1.
        -11    1    3    3    0    0  0.27232723946E+01  0.15667175993E+01 -0.14605855445E+01  0.34646972400E+01  0.51100000000E-03 0.  1.
         12    1    3    3    0    0  0.19503148115E+02  0.28246382662E+02 -0.18752065228E+01  0.34376551884E+02  0.00000000000E+00 0. -1.
</event>
<event>
 7    1  0.1541705E-008  0.4614232E+02  0.7816164E-02  0.1320468E+00
        -11   -1    0    0    0    0  0.00000000000E+00  0.00000000000E+00  0.45593999997E+02  0.45594000000E+02  0.51100000000E-03 0.  1.
         11   -1    0    0    0    0 -0.00000000000E+00 -0.00000000000E+00 -0.45593999997E+02  0.45594000000E+02  0.51100000000E-03 0. -1.
    9900012    2    1    2    0    0 -0.31338566877E+02  0.29886718369E+02 -0.12401262904E+02  0.46142322844E+02  0.10000046353E+02 0.  0.
        -12    1    1    2    0    0  0.31338566877E+02 -0.29886718369E+02  0.12401262904E+02  0.45045677156E+02  0.00000000000E+00 0.  1.
         11    1    3    3    0    0 -0.11840977916E+02  0.13741501817E+02 -0.46363106793E+00  0.18145318521E+02  0.51100000000E-03 0. -1.
        -11    1    3    3    0    0 -0.16744848787E+02  0.13896576778E+02 -0.99873883877E+01  0.23942696885E+02  0.51100000000E-03 0.  1.
        -12    1    3    3    0    0 -0.27527401738E+01  0.22486397746E+01 -0.19502434486E+01  0.40543074389E+01  0.00000000000E+00 0.  1.
</event>
<event>
 7    1  0.1541705E-008  0.4614232E+02  0.7816164E-02  0.1320468E+00
        -11   -1    0    0    0    0  0.00000000000E+00  0.00000000000E+00  0.45593999997E+02  0.45594000000E+02  0.51100000000E-03 0.  1.
         11   -1    0    0    0    0 -0.00000000000E+00 -0.00000000000E+00 -0.45593999997E+02  0.45594000000E+02  0.51100000000E-03 0. -1.
    9900012    2    1    2    0    0 -0.65754064974E+01 -0.31051535640E+02 -0.31963723983E+02  0.46142317775E+02  0.10000000130E+02 0.  0.
        -12    1    1    2    0    0  0.65754064974E+01  0.31051535640E+02  0.31963723983E+02  0.45045682225E+02  0.00000000000E+00 0.  1.
         11    1    3    3    0    0 -0.40086032189E+01 -0.14305763792E+02 -0.90918206313E+01  0.17417949940E+02  0.51100000000E-03 0. -1.
        -11    1    3    3    0    0 -0.35499400879E+01 -0.14189420360E+02 -0.19635548475E+02  0.24484617395E+02  0.51100000000E-03 0.  1.
        -12    1    3    3    0    0  0.98313680936E+00 -0.25563514879E+01 -0.32363548761E+01  0.42397504408E+01  0.00000000000E+00 0.  1.
</event>
<event>
 7    1  0.1541705E-008  0.4614232E+02  0.7816164E-02  0.1320468E+00
        -11   -1    0    0    0    0  0.00000000000E+00  0.00000000000E+00  0.45593999997E+02  0.45594000000E+02  0.51100000000E-03 0.  1.
         11   -1    0    0    0    0 -0.00000000000E+00 -0.00000000000E+00 -0.45593999997E+02  0.45594000000E+02  0.51100000000E-03 0. -1.
    9900012    2    1    2    0    0  0.27379838636E+02  0.34537716386E+02 -0.93061293162E+01  0.46142318079E+02  0.10000002896E+02 0.  0.
        -12    1    1    2    0    0 -0.27379838636E+02 -0.34537716386E+02  0.93061293162E+01  0.45045681921E+02  0.00000000000E+00 0.  1.
         11    1    3    3    0    0  0.11943739013E+02  0.15068553817E+02 -0.30646753586E+01  0.19470656154E+02  0.51100000000E-03 0. -1.
        -11    1    3    3    0    0  0.39229785345E+01  0.80737150450E+01  0.79281044296E+00  0.90112809228E+01  0.51100000000E-03 0.  1.
        -12    1    3    3    0    0  0.11513121089E+02  0.11395447524E+02 -0.70342644005E+01  0.17660381002E+02  0.00000000000E+00 0.  1.
</event>
<event>
 7    1  0.1541705E-008  0.4614232E+02  0.7816164E-02  0.1320468E+00
        -11   -1    0    0    0    0  0.00000000000E+00  0.00000000000E+00  0.45593999997E+02  0.45594000000E+02  0.51100000000E-03 0.  1.
         11   -1    0    0    0    0 -0.00000000000E+00 -0.00000000000E+00 -0.45593999997E+02  0.45594000000E+02  0.51100000000E-03 0. -1.
    9900012    2    1    2    0    0  0.30039492325E+02 -0.67048671110E+01 -0.32890530678E+02  0.46142319292E+02  0.10000013964E+02 0.  0.
        -12    1    1    2    0    0 -0.30039492325E+02  0.67048671110E+01  0.32890530678E+02  0.45045680708E+02  0.00000000000E+00 0.  1.
         11    1    3    3    0    0  0.15269363627E+02 -0.41115314498E+01 -0.19878191280E+02  0.25400800091E+02  0.51100000000E-03 0. -1.
        -11    1    3    3    0    0  0.49450502169E+01 -0.34334312221E+01 -0.31474648981E+01  0.67932692535E+01  0.51100000000E-03 0.  1.
        -12    1    3    3    0    0  0.98250784812E+01  0.84009556090E+00 -0.98648744993E+01  0.13948249948E+02  0.00000000000E+00 0.  1.
</event>
<event>
 7    1  0.1541705E-008  0.4614232E+02  0.7816164E-02  0.1320468E+00
        -11   -1    0    0    0    0  0.00000000000E+00  0.00000000000E+00  0.45593999997E+02  0.45594000000E+02  0.51100000000E-03 0.  1.
         11   -1    0    0    0    0 -0.00000000000E+00 -0.00000000000E+00 -0.45593999997E+02  0.45594000000E+02  0.51100000000E-03 0. -1.
    9900012    2    1    2    0    0  0.22252485736E+02 -0.88482982632E+01 -0.38152952394E+02  0.46142320075E+02  0.10000021096E+02 0.  0.
        -12    1    1    2    0    0 -0.22252485736E+02  0.88482982632E+01  0.38152952394E+02  0.45045679925E+02  0.00000000000E+00 0.  1.
         11    1    3    3    0    0  0.46797009057E+01 -0.19267668756E+01 -0.80798816107E+01  0.95339665545E+01  0.51100000000E-03 0. -1.
        -11    1    3    3    0    0  0.45449533655E+01  0.18018314643E+01 -0.10059404344E+02  0.11184579283E+02  0.51100000000E-03 0.  1.
        -12    1    3    3    0    0  0.13027831465E+02 -0.87233628519E+01 -0.20013666439E+02  0.25423774237E+02  0.00000000000E+00 0.  1.
</event>
<event>
 7    1  0.1541705E-008  0.4614232E+02  0.7816164E-02  0.1320468E+00
        -11   -1    0    0    0    0  0.00000000000E+00  0.00000000000E+00  0.45593999997E+02  0.45594000000E+02  0.51100000000E-03 0.  1.
         11   -1    0    0    0    0 -0.00000000000E+00 -0.00000000000E+00 -0.45593999997E+02  0.45594000000E+02  0.51100000000E-03 0. -1.
    9900012    2    1    2    0    0  0.26347760918E+02  0.29010986490E+02 -0.22209720383E+02  0.46142317388E+02  0.99999965977E+01 0.  0.
        -12    1    1    2    0    0 -0.26347760918E+02 -0.29010986490E+02  0.22209720383E+02  0.45045682612E+02  0.00000000000E+00 0.  1.
         11    1    3    3    0    0  0.13636323050E+02  0.15413143744E+02 -0.14356109030E+02  0.25092073910E+02  0.51100000000E-03 0. -1.
        -11    1    3    3    0    0 -0.29105701873E+00 -0.28035063494E+00  0.13047517862E+00  0.42465833327E+00  0.51100000000E-03 0.  1.
         12    1    3    3    0    0  0.13002494888E+02  0.13878193381E+02 -0.79840865313E+01  0.20625585144E+02  0.00000000000E+00 0. -1.
</event>
<event>
 7    1  0.1541705E-008  0.4614232E+02  0.7816164E-02  0.1320468E+00
        -11   -1    0    0    0    0  0.00000000000E+00  0.00000000000E+00  0.45593999997E+02  0.45594000000E+02  0.51100000000E-03 0.  1.
         11   -1    0    0    0    0 -0.00000000000E+00 -0.00000000000E+00 -0.45593999997E+02  0.45594000000E+02  0.51100000000E-03 0. -1.
    9900012    2    1    2    0    0  0.11340512951E+02 -0.14367537505E+02 -0.41159202807E+02  0.46142319368E+02  0.10000014653E+02 0.  0.
        -12    1    1    2    0    0 -0.11340512951E+02  0.14367537505E+02  0.41159202807E+02  0.45045680632E+02  0.00000000000E+00 0.  1.
         11    1    3    3    0    0  0.48662699708E+01 -0.45784222716E+01 -0.25789048314E+02  0.26640524528E+02  0.51100000000E-03 0.  1.
        -11    1    3    3    0    0  0.64529034734E+01 -0.91683121600E+01 -0.15140226139E+02  0.18839436268E+02  0.51100000000E-03 0. -1.
        -12    1    3    3    0    0  0.21339506427E-01 -0.62080307297E+00 -0.22992835379E+00  0.66235857193E+00  0.00000000000E+00 0.  1.
</event>
<event>
 7    1  0.1541705E-008  0.4614232E+02  0.7816164E-02  0.1320468E+00
        -11   -1    0    0    0    0  0.00000000000E+00  0.00000000000E+00  0.45593999997E+02  0.45594000000E+02  0.51100000000E-03 0.  1.
         11   -1    0    0    0    0 -0.00000000000E+00 -0.00000000000E+00 -0.45593999997E+02  0.45594000000E+02  0.51100000000E-03 0. -1.
    9900012    2    1    2    0    0  0.41883362552E+01 -0.11034735788E+02 -0.43471898536E+02  0.46142317445E+02  0.99999971186E+01 0.  0.
        -12    1    1    2    0    0 -0.41883362552E+01  0.11034735788E+02  0.43471898536E+02  0.45045682555E+02  0.00000000000E+00 0.  1.
         11    1    3    3    0    0  0.19624213788E+01  0.57005551959E+00 -0.81366462485E+01  0.83893428466E+01  0.51100000000E-03 0.  1.
        -11    1    3    3    0    0  0.35619444227E+01 -0.91604778574E+01 -0.31601033605E+02  0.33094215927E+02  0.51100000000E-03 0. -1.
        -12    1    3    3    0    0 -0.13360295463E+01 -0.24443134501E+01 -0.37342186826E+01  0.46587586716E+01  0.00000000000E+00 0.  1.
</event>
<event>
 7    1  0.1541705E-008  0.4614231E+02  0.7816164E-02  0.1320468E+00
        -11   -1    0    0    0    0  0.00000000000E+00  0.00000000000E+00  0.45593999997E+02  0.45594000000E+02  0.51100000000E-03 0.  1.
         11   -1    0    0    0    0 -0.00000000000E+00 -0.00000000000E+00 -0.45593999997E+02  0.45594000000E+02  0.51100000000E-03 0. -1.
    9900012    2    1    2    0    0  0.15301183796E+01 -0.31447089091E+02 -0.32215734563E+02  0.46142309552E+02  0.99999251419E+01 0.  0.
        -12    1    1    2    0    0 -0.15301183796E+01  0.31447089091E+02  0.32215734563E+02  0.45045690448E+02  0.00000000000E+00 0.  1.
         11    1    3    3    0    0 -0.38056917556E+01 -0.18802215168E+02 -0.17279625674E+02  0.25818443963E+02  0.51100000000E-03 0. -1.
        -11    1    3    3    0    0  0.43628289938E+01 -0.90488629614E+01 -0.11266647549E+02  0.15094818481E+02  0.51100000000E-03 0.  1.
         12    1    3    3    0    0  0.97298114142E+00 -0.35960109610E+01 -0.36694613400E+01  0.52290471082E+01  0.00000000000E+00 0. -1.
</event>
<event>
 7    1  0.1541705E-008  0.4614232E+02  0.7816164E-02  0.1320468E+00
        -11   -1    0    0    0    0  0.00000000000E+00  0.00000000000E+00  0.45593999997E+02  0.45594000000E+02  0.51100000000E-03 0.  1.
         11   -1    0    0    0    0 -0.00000000000E+00 -0.00000000000E+00 -0.45593999997E+02  0.45594000000E+02  0.51100000000E-03 0. -1.
    9900012    2    1    2    0    0  0.33598665005E+02 -0.34669980249E+00 -0.30002049536E+02  0.46142317996E+02  0.10000002140E+02 0.  0.
        -12    1    1    2    0    0 -0.33598665005E+02  0.34669980249E+00  0.30002049536E+02  0.45045682004E+02  0.00000000000E+00 0.  1.
         11    1    3    3    0    0  0.40320794841E+01 -0.10361193124E+01 -0.38789652234E+01  0.56901300214E+01  0.51100000000E-03 0. -1.
        -11    1    3    3    0    0  0.14195334649E+02  0.18535224553E+01 -0.71375399408E+01  0.15996485488E+02  0.51100000000E-03 0.  1.
        -12    1    3    3    0    0  0.15371250872E+02 -0.11641029454E+01 -0.18985544371E+02  0.24455702487E+02  0.00000000000E+00 0.  1.
</event>
<event>
 7    1  0.1541705E-008  0.4614231E+02  0.7816164E-02  0.1320468E+00
        -11   -1    0    0    0    0  0.00000000000E+00  0.00000000000E+00  0.45593999997E+02  0.45594000000E+02  0.51100000000E-03 0. -1.
         11   -1    0    0    0    0 -0.00000000000E+00 -0.00000000000E+00 -0.45593999997E+02  0.45594000000E+02  0.51100000000E-03 0.  1.
    9900012    2    1    2    0    0  0.12817636897E+02  0.38582566263E+02  0.19396070662E+02  0.46142314388E+02  0.99999692447E+01 0.  0.
        -12    1    1    2    0    0 -0.12817636897E+02 -0.38582566263E+02 -0.19396070662E+02  0.45045685612E+02  0.00000000000E+00 0.  1.
         11    1    3    3    0    0  0.78427214874E+01  0.25836279888E+02  0.94331955948E+01  0.28600818487E+02  0.51100000000E-03 0.  1.
        -11    1    3    3    0    0  0.35506872419E+01  0.51721701423E+01  0.23238644569E+01  0.66902219803E+01  0.51100000000E-03 0. -1.
        -12    1    3    3    0    0  0.14242281674E+01  0.75741162334E+01  0.76390106107E+01  0.10851273921E+02  0.00000000000E+00 0.  1.
</event>
<event>
 7    1  0.1541705E-008  0.4614232E+02  0.7816164E-02  0.1320468E+00
        -11   -1    0    0    0    0  0.00000000000E+00  0.00000000000E+00  0.45593999997E+02  0.45594000000E+02  0.51100000000E-03 0.  1.
         11   -1    0    0    0    0 -0.00000000000E+00 -0.00000000000E+00 -0.45593999997E+02  0.45594000000E+02  0.51100000000E-03 0. -1.
    9900012    2    1    2    0    0  0.30450044475E+02 -0.30315305169E+02 -0.13523706616E+02  0.46142316781E+02  0.99999910669E+01 0.  0.
        -12    1    1    2    0    0 -0.30450044475E+02  0.30315305169E+02  0.13523706616E+02  0.45045683219E+02  0.00000000000E+00 0.  1.
         11    1    3    3    0    0  0.11880607404E+00 -0.81334913474E+00  0.73421072163E+00  0.11021421610E+01  0.51100000000E-03 0. -1.
        -11    1    3    3    0    0  0.12264363819E+02 -0.14585519815E+02 -0.87669645136E+01  0.20976455258E+02  0.51100000000E-03 0.  1.
         12    1    3    3    0    0  0.18066874582E+02 -0.14916436220E+02 -0.54909528241E+01  0.24063719363E+02  0.00000000000E+00 0. -1.
</event>
<event>
 7    1  0.1541705E-008  0.4614230E+02  0.7816164E-02  0.1320468E+00
        -11   -1    0    0    0    0  0.00000000000E+00  0.00000000000E+00  0.45593999997E+02  0.45594000000E+02  0.51100000000E-03 0.  1.
         11   -1    0    0    0    0 -0.00000000000E+00 -0.00000000000E+00 -0.45593999997E+02  0.45594000000E+02  0.51100000000E-03 0. -1.
    9900012    2    1    2    0    0 -0.24268538203E+02  0.18640091835E+02 -0.33056008323E+02  0.46142304796E+02  0.99998817755E+01 0.  0.
        -12    1    1    2    0    0  0.24268538203E+02 -0.18640091835E+02  0.33056008323E+02  0.45045695204E+02  0.00000000000E+00 0.  1.
         11    1    3    3    0    0 -0.16378982346E+02  0.14804379162E+02 -0.17971797875E+02  0.28467985953E+02  0.51100000000E-03 0. -1.
        -11    1    3    3    0    0 -0.26400947133E+01  0.27371126594E+00 -0.63230001849E+01  0.68575031572E+01  0.51100000000E-03 0.  1.
         12    1    3    3    0    0 -0.52494611431E+01  0.35620014073E+01 -0.87612102629E+01  0.10816815686E+02  0.00000000000E+00 0. -1.
</event>
<event>
 7    1  0.1541705E-008  0.4614232E+02  0.7816164E-02  0.1320468E+00
        -11   -1    0    0    0    0  0.00000000000E+00  0.00000000000E+00  0.45593999997E+02  0.45594000000E+02  0.51100000000E-03 0.  1.
         11   -1    0    0    0    0 -0.00000000000E+00 -0.00000000000E+00 -0.45593999997E+02  0.45594000000E+02  0.51100000000E-03 0. -1.
    9900012    2    1    2    0    0  0.22554437530E+02 -0.25320282867E+02 -0.29652894392E+02  0.46142317381E+02  0.99999965350E+01 0.  0.
        -12    1    1    2    0    0 -0.22554437530E+02  0.25320282867E+02  0.29652894392E+02  0.45045682619E+02  0.00000000000E+00 0.  1.
         11    1    3    3    0    0  0.13475295349E+02 -0.12516847074E+02 -0.15883513828E+02  0.24301050537E+02  0.51100000000E-03 0. -1.
        -11    1    3    3    0    0  0.52687909199E+01 -0.11917676210E+02 -0.10240530486E+02  0.16572858199E+02  0.51100000000E-03 0.  1.
        -12    1    3    3    0    0  0.38103512612E+01 -0.88575958297E+00 -0.35288500782E+01  0.52684086446E+01  0.00000000000E+00 0.  1.
</event>
<event>
 7    1  0.1541705E-008  0.4614232E+02  0.7816164E-02  0.1320468E+00
        -11   -1    0    0    0    0  0.00000000000E+00  0.00000000000E+00  0.45593999997E+02  0.45594000000E+02  0.51100000000E-03 0.  1.
         11   -1    0    0    0    0 -0.00000000000E+00 -0.00000000000E+00 -0.45593999997E+02  0.45594000000E+02  0.51100000000E-03 0. -1.
    9900012    2    1    2    0    0  0.30158488700E+02 -0.21441115805E+02 -0.25687697242E+02  0.46142315665E+02  0.99999808818E+01 0.  0.
        -12    1    1    2    0    0 -0.30158488700E+02  0.21441115805E+02  0.25687697242E+02  0.45045684335E+02  0.00000000000E+00 0.  1.
         11    1    3    3    0    0  0.17107382113E+02 -0.17277604059E+02 -0.16971684778E+02  0.29651580215E+02  0.51100000000E-03 0. -1.
        -11    1    3    3    0    0  0.74296494888E+01 -0.32097793296E+01 -0.37098454957E+01  0.89031078132E+01  0.51100000000E-03 0.  1.
         12    1    3    3    0    0  0.56214570984E+01 -0.95373241633E+00 -0.50061669687E+01  0.75876276365E+01  0.00000000000E+00 0. -1.
</event>
<event>
 7    1  0.1541705E-008  0.4614232E+02  0.7816164E-02  0.1320468E+00
        -11   -1    0    0    0    0  0.00000000000E+00  0.00000000000E+00  0.45593999997E+02  0.45594000000E+02  0.51100000000E-03 0. -1.
         11   -1    0    0    0    0 -0.00000000000E+00 -0.00000000000E+00 -0.45593999997E+02  0.45594000000E+02  0.51100000000E-03 0.  1.
    9900012    2    1    2    0    0 -0.33929761832E+02 -0.43494689690E+01  0.29308132112E+02  0.46142320672E+02  0.10000026541E+02 0.  0.
        -12    1    1    2    0    0  0.33929761832E+02  0.43494689690E+01 -0.29308132112E+02  0.45045679328E+02  0.00000000000E+00 0.  1.
         11    1    3    3    0    0 -0.17559973302E+02  0.20569791648E+01  0.11709208067E+02  0.21205880775E+02  0.51100000000E-03 0. -1.
        -11    1    3    3    0    0 -0.12033291569E+02 -0.42093197269E+01  0.13609567109E+02  0.18647755781E+02  0.51100000000E-03 0.  1.
         12    1    3    3    0    0 -0.43364969611E+01 -0.21971284070E+01  0.39893569366E+01  0.62886841149E+01  0.00000000000E+00 0. -1.
</event>
<event>
 7    1  0.1541705E-008  0.4614232E+02  0.7816164E-02  0.1320468E+00
        -11   -1    0    0    0    0  0.00000000000E+00  0.00000000000E+00  0.45593999997E+02  0.45594000000E+02  0.51100000000E-03 0. -1.
         11   -1    0    0    0    0 -0.00000000000E+00 -0.00000000000E+00 -0.45593999997E+02  0.45594000000E+02  0.51100000000E-03 0.  1.
    9900012    2    1    2    0    0 -0.45224698452E+01 -0.43447855651E+02  0.10997484992E+02  0.46142316852E+02  0.99999917073E+01 0.  0.
        -12    1    1    2    0    0  0.45224698452E+01  0.43447855651E+02 -0.10997484992E+02  0.45045683148E+02  0.00000000000E+00 0.  1.
         11    1    3    3    0    0 -0.50201558849E+01 -0.39337367143E+02  0.98954989901E+01  0.40872378440E+02  0.51100000000E-03 0. -1.
        -11    1    3    3    0    0 -0.12329083171E+01 -0.10642791650E+01  0.57393071968E+00  0.17268902083E+01  0.51100000000E-03 0.  1.
        -12    1    3    3    0    0  0.17305943568E+01 -0.30462093434E+01  0.52805528177E+00  0.35430482034E+01  0.00000000000E+00 0.  1.
</event>
<event>
 7    1  0.1541705E-008  0.4614231E+02  0.7816164E-02  0.1320468E+00
        -11   -1    0    0    0    0  0.00000000000E+00  0.00000000000E+00  0.45593999997E+02  0.45594000000E+02  0.51100000000E-03 0. -1.
         11   -1    0    0    0    0 -0.00000000000E+00 -0.00000000000E+00 -0.45593999997E+02  0.45594000000E+02  0.51100000000E-03 0.  1.
    9900012    2    1    2    0    0  0.11878535017E+01 -0.39293045551E+02  0.21994530354E+02  0.46142314412E+02  0.99999694569E+01 0.  0.
        -12    1    1    2    0    0 -0.11878535017E+01  0.39293045551E+02 -0.21994530354E+02  0.45045685588E+02  0.00000000000E+00 0.  1.
         11    1    3    3    0    0 -0.20937818040E+01 -0.34877986645E+02  0.20050500466E+02  0.40284990304E+02  0.51100000000E-03 0. -1.
        -11    1    3    3    0    0  0.29385636966E+01 -0.39672239897E+01  0.15707032875E+01  0.51808427753E+01  0.51100000000E-03 0.  1.
         12    1    3    3    0    0  0.34307160912E+00 -0.44783491654E+00  0.37332660122E+00  0.67648133206E+00  0.00000000000E+00 0. -1.
</event>
<event>
 7    1  0.1541705E-008  0.4614232E+02  0.7816164E-02  0.1320468E+00
        -11   -1    0    0    0    0  0.00000000000E+00  0.00000000000E+00  0.45593999997E+02  0.45594000000E+02  0.51100000000E-03 0. -1.
         11   -1    0    0    0    0 -0.00000000000E+00 -0.00000000000E+00 -0.45593999997E+02  0.45594000000E+02  0.51100000000E-03 0.  1.
    9900012    2    1    2    0    0 -0.69675710920E+01 -0.30843770336E+02  0.32081587656E+02  0.46142317832E+02  0.10000000643E+02 0.  0.
        -12    1    1    2    0    0  0.69675710920E+01  0.30843770336E+02 -0.32081587656E+02  0.45045682168E+02  0.00000000000E+00 0.  1.
         11    1    3    3    0    0 -0.52248088462E+01 -0.15980324928E+02  0.21214589230E+02  0.27068952856E+02  0.51100000000E-03 0. -1.
        -11    1    3    3    0    0  0.85546110022E+00 -0.44583010567E+00  0.30031273900E+00  0.10103297380E+01  0.51100000000E-03 0.  1.
         12    1    3    3    0    0 -0.25982233459E+01 -0.14417615302E+02  0.10566685687E+02  0.18063035237E+02  0.00000000000E+00 0. -1.
</event>
<event>
 7    1  0.1541705E-008  0.4614232E+02  0.7816164E-02  0.1320468E+00
        -11   -1    0    0    0    0  0.00000000000E+00  0.00000000000E+00  0.45593999997E+02  0.45594000000E+02  0.51100000000E-03 0.  1.
         11   -1    0    0    0    0 -0.00000000000E+00 -0.00000000000E+00 -0.45593999997E+02  0.45594000000E+02  0.51100000000E-03 0. -1.
    9900012    2    1    2    0    0 -0.28265753600E+02  0.92954526271E+01 -0.33819449633E+02  0.46142318302E+02  0.10000004934E+02 0.  0.
        -12    1    1    2    0    0  0.28265753600E+02 -0.92954526271E+01  0.33819449633E+02  0.45045681698E+02  0.00000000000E+00 0.  1.
         11    1    3    3    0    0 -0.42888281257E+01  0.52399587038E+01 -0.94808673151E+01  0.11650667758E+02  0.51100000000E-03 0. -1.
        -11    1    3    3    0    0 -0.10324819080E+02  0.57504233714E+00 -0.98096727003E+01  0.14253499271E+02  0.51100000000E-03 0.  1.
         12    1    3    3    0    0 -0.13652106394E+02  0.34804515861E+01 -0.14528909618E+02  0.20238151272E+02  0.00000000000E+00 0. -1.
</event>
<event>
 7    1  0.1541705E-008  0.4614232E+02  0.7816164E-02  0.1320468E+00
        -11   -1    0    0    0    0  0.00000000000E+00  0.00000000000E+00  0.45593999997E+02  0.45594000000E+02  0.51100000000E-03 0.  1.
         11   -1    0    0    0    0 -0.00000000000E+00 -0.00000000000E+00 -0.45593999997E+02  0.45594000000E+02  0.51100000000E-03 0. -1.
    9900012    2    1    2    0    0  0.22875239613E+02 -0.15991258825E+02 -0.35356981185E+02  0.46142322464E+02  0.10000042885E+02 0.  0.
        -12    1    1    2    0    0 -0.22875239613E+02  0.15991258825E+02  0.35356981185E+02  0.45045677536E+02  0.00000000000E+00 0.  1.
         11    1    3    3    0    0  0.19761432611E+02 -0.15500674991E+02 -0.33381157517E+02  0.41774236336E+02  0.51100000000E-03 0. -1.
        -11    1    3    3    0    0  0.17010954017E+01 -0.87963950580E+00 -0.85723653289E-02  0.19150887636E+01  0.51100000000E-03 0.  1.
         12    1    3    3    0    0  0.14127115993E+01  0.38905567261E+00 -0.19672513034E+01  0.24529973645E+01  0.00000000000E+00 0. -1.
</event>
<event>
 7    1  0.1541705E-008  0.4614232E+02  0.7816164E-02  0.1320468E+00
        -11   -1    0    0    0    0  0.00000000000E+00  0.00000000000E+00  0.45593999997E+02  0.45594000000E+02  0.51100000000E-03 0. -1.
         11   -1    0    0    0    0 -0.00000000000E+00 -0.00000000000E+00 -0.45593999997E+02  0.45594000000E+02  0.51100000000E-03 0.  1.
    9900012    2    1    2    0    0  0.12293099701E+02  0.74748112000E+01  0.42686302499E+02  0.46142317368E+02  0.99999964162E+01 0.  0.
        -12    1    1    2    0    0 -0.12293099701E+02 -0.74748112000E+01 -0.42686302499E+02  0.45045682632E+02  0.00000000000E+00 0.  1.
         11    1    3    3    0    0  0.53304557070E+01  0.32499643340E+00  0.13684507465E+02  0.14689626461E+02  0.51100000000E-03 0. -1.
        -11    1    3    3    0    0  0.65574979339E+01  0.21837298257E+01  0.13445058336E+02  0.15117508029E+02  0.51100000000E-03 0.  1.
        -12    1    3    3    0    0  0.40514606038E+00  0.49660849409E+01  0.15556736698E+02  0.16335182878E+02  0.00000000000E+00 0.  1.
</event>
<event>
 7    1  0.1541705E-008  0.4614232E+02  0.7816164E-02  0.1320468E+00
        -11   -1    0    0    0    0  0.00000000000E+00  0.00000000000E+00  0.45593999997E+02  0.45594000000E+02  0.51100000000E-03 0.  1.
         11   -1    0    0    0    0 -0.00000000000E+00 -0.00000000000E+00 -0.45593999997E+02  0.45594000000E+02  0.51100000000E-03 0. -1.
    9900012    2    1    2    0    0 -0.42607535870E+02  0.13727910647E+02 -0.50255241322E+01  0.46142317227E+02  0.99999951323E+01 0.  0.
        -12    1    1    2    0    0  0.42607535870E+02 -0.13727910647E+02  0.50255241322E+01  0.45045682773E+02  0.00000000000E+00 0.  1.
         11    1    3    3    0    0 -0.23507959564E+02  0.84450142479E+01 -0.62806328907E+01  0.25756334721E+02  0.51100000000E-03 0. -1.
        -11    1    3    3    0    0 -0.38306332732E+01 -0.45431963579E+00  0.13124848522E+01  0.40746502124E+01  0.51100000000E-03 0.  1.
        -12    1    3    3    0    0 -0.15268943033E+02  0.57372160352E+01 -0.57376093752E-01  0.16311332294E+02  0.00000000000E+00 0.  1.
</event>
<event>
 7    1  0.1541705E-008  0.4614232E+02  0.7816164E-02  0.1320468E+00
        -11   -1    0    0    0    0  0.00000000000E+00  0.00000000000E+00  0.45593999997E+02  0.45594000000E+02  0.51100000000E-03 0.  1.
         11   -1    0    0    0    0 -0.00000000000E+00 -0.00000000000E+00 -0.45593999997E+02  0.45594000000E+02  0.51100000000E-03 0. -1.
    9900012    2    1    2    0    0 -0.77566257019E+01  0.13439961392E+02 -0.42288481351E+02  0.46142318082E+02  0.10000002924E+02 0.  0.
        -12    1    1    2    0    0  0.77566257019E+01 -0.13439961392E+02  0.42288481351E+02  0.45045681918E+02  0.00000000000E+00 0.  1.
         11    1    3    3    0    0  0.13302451364E+01  0.16288877466E+01 -0.42747136924E+01  0.47640324125E+01  0.51100000000E-03 0.  1.
        -11    1    3    3    0    0 -0.96352084613E+01  0.12203328827E+02 -0.35136192559E+02  0.38422786265E+02  0.51100000000E-03 0. -1.
         12    1    3    3    0    0  0.54833762296E+00 -0.39225518127E+00 -0.28775750995E+01  0.29554994044E+01  0.00000000000E+00 0. -1.
</event>
<event>
 7    1  0.1541705E-008  0.4614231E+02  0.7816164E-02  0.1320468E+00
        -11   -1    0    0    0    0  0.00000000000E+00  0.00000000000E+00  0.45593999997E+02  0.45594000000E+02  0.51100000000E-03 0. -1.
         11   -1    0    0    0    0 -0.00000000000E+00 -0.00000000000E+00 -0.45593999997E+02  0.45594000000E+02  0.51100000000E-03 0.  1.
    9900012    2    1    2    0    0  0.33740462556E+02 -0.17449881049E+02  0.24211498867E+02  0.46142313863E+02  0.99999644566E+01 0.  0.
        -12    1    1    2    0    0 -0.33740462556E+02  0.17449881049E+02 -0.24211498867E+02  0.45045686137E+02  0.00000000000E+00 0.  1.
         11    1    3    3    0    0  0.28035038391E+02 -0.14100746129E+02  0.18175826710E+02  0.36265067156E+02  0.51100000000E-03 0. -1.
        -11    1    3    3    0    0  0.54291082374E+01 -0.18011533529E+01  0.60207230903E+01  0.83047261512E+01  0.51100000000E-03 0.  1.
        -12    1    3    3    0    0  0.27631592698E+00 -0.15479815671E+01  0.14949067254E-01  0.15725205557E+01  0.00000000000E+00 0.  1.
</event>
<event>
 7    1  0.1541705E-008  0.4614232E+02  0.7816164E-02  0.1320468E+00
        -11   -1    0    0    0    0  0.00000000000E+00  0.00000000000E+00  0.45593999997E+02  0.45594000000E+02  0.51100000000E-03 0.  1.
         11   -1    0    0    0    0 -0.00000000000E+00 -0.00000000000E+00 -0.45593999997E+02  0.45594000000E+02  0.51100000000E-03 0. -1.
    9900012    2    1    2    0    0  0.67135917126E+01 -0.32407232674E+02 -0.30558346219E+02  0.46142316889E+02  0.99999920493E+01 0.  0.
        -12    1    1    2    0    0 -0.67135917126E+01  0.32407232674E+02  0.30558346219E+02  0.45045683111E+02  0.00000000000E+00 0.  1.
         11    1    3    3    0    0  0.12407993910E+01 -0.32640657792E+01 -0.66841148585E+01  0.75412930087E+01  0.51100000000E-03 0. -1.
        -11    1    3    3    0    0  0.21944809120E+01 -0.66167303369E+01 -0.25896654260E+01  0.74366144249E+01  0.51100000000E-03 0.  1.
         12    1    3    3    0    0  0.32783114097E+01 -0.22526436558E+02 -0.21284565934E+02  0.31164409456E+02  0.00000000000E+00 0. -1.
</event>
<event>
 7    1  0.1541705E-008  0.4614231E+02  0.7816164E-02  0.1320468E+00
        -11   -1    0    0    0    0  0.00000000000E+00  0.00000000000E+00  0.45593999997E+02  0.45594000000E+02  0.51100000000E-03 0. -1.
         11   -1    0    0    0    0 -0.00000000000E+00 -0.00000000000E+00 -0.45593999997E+02  0.45594000000E+02  0.51100000000E-03 0.  1.
    9900012    2    1    2    0    0  0.14160089246E+02  0.32522355967E+02  0.27765121908E+02  0.46142314749E+02  0.99999725355E+01 0.  0.
        -12    1    1    2    0    0 -0.14160089246E+02 -0.32522355967E+02 -0.27765121908E+02  0.45045685251E+02  0.00000000000E+00 0.  1.
         11    1    3    3    0    0  0.55983252031E+01  0.47506052599E+01  0.79395479215E+01  0.10814153544E+02  0.51100000000E-03 0. -1.
        -11    1    3    3    0    0  0.60139471755E+01  0.14769832322E+02  0.98577044778E+01  0.18748062441E+02  0.51100000000E-03 0.  1.
         12    1    3    3    0    0  0.25478168677E+01  0.13001918385E+02  0.99678695090E+01  0.16580098764E+02  0.00000000000E+00 0. -1.
</event>
<event>
 7    1  0.1541705E-008  0.4614232E+02  0.7816164E-02  0.1320468E+00
        -11   -1    0    0    0    0  0.00000000000E+00  0.00000000000E+00  0.45593999997E+02  0.45594000000E+02  0.51100000000E-03 0.  1.
         11   -1    0    0    0    0 -0.00000000000E+00 -0.00000000000E+00 -0.45593999997E+02  0.45594000000E+02  0.51100000000E-03 0. -1.
    9900012    2    1    2    0    0 -0.67351420932E+01 -0.36977643661E+02 -0.24827508582E+02  0.46142318164E+02  0.10000003670E+02 0.  0.
        -12    1    1    2    0    0  0.67351420932E+01  0.36977643661E+02  0.24827508582E+02  0.45045681836E+02  0.00000000000E+00 0.  1.
         11    1    3    3    0    0 -0.49384666003E+00 -0.76035409248E+01 -0.69901440495E+01  0.10340204699E+02  0.51100000000E-03 0. -1.
        -11    1    3    3    0    0 -0.10673939277E+01 -0.11308515233E+01 -0.32344130775E+01  0.35888136176E+01  0.51100000000E-03 0.  1.
        -12    1    3    3    0    0 -0.51739015055E+01 -0.28243251212E+02 -0.14602951456E+02  0.32213299847E+02  0.00000000000E+00 0.  1.
</event>
<event>
 7    1  0.1541705E-008  0.4614232E+02  0.7816164E-02  0.1320468E+00
        -11   -1    0    0    0    0  0.00000000000E+00  0.00000000000E+00  0.45593999997E+02  0.45594000000E+02  0.51100000000E-03 0. -1.
         11   -1    0    0    0    0 -0.00000000000E+00 -0.00000000000E+00 -0.45593999997E+02  0.45594000000E+02  0.51100000000E-03 0.  1.
    9900012    2    1    2    0    0  0.14461282284E+02 -0.42594456203E+02 -0.23868610173E+01  0.46142317743E+02  0.99999998329E+01 0.  0.
        -12    1    1    2    0    0 -0.14461282284E+02  0.42594456203E+02  0.23868610173E+01  0.45045682257E+02  0.00000000000E+00 0.  1.
         11    1    3    3    0    0  0.94737536212E+01 -0.18139613901E+02 -0.16722902856E+01  0.20532758101E+02  0.51100000000E-03 0. -1.
        -11    1    3    3    0    0  0.19704012945E+01 -0.15868108517E+02 -0.28967217248E+01  0.16250241419E+02  0.51100000000E-03 0.  1.
         12    1    3    3    0    0  0.30171273685E+01 -0.85867337848E+01  0.21821509931E+01  0.93593182234E+01  0.00000000000E+00 0. -1.
</event>
<event>
 7    1  0.1541705E-008  0.4614232E+02  0.7816164E-02  0.1320468E+00
        -11   -1    0    0    0    0  0.00000000000E+00  0.00000000000E+00  0.45593999997E+02  0.45594000000E+02  0.51100000000E-03 0.  1.
         11   -1    0    0    0    0 -0.00000000000E+00 -0.00000000000E+00 -0.45593999997E+02  0.45594000000E+02  0.51100000000E-03 0. -1.
    9900012    2    1    2    0    0 -0.68213752405E+01 -0.43096056612E+02 -0.11194289235E+02  0.46142319106E+02  0.10000012267E+02 0.  0.
        -12    1    1    2    0    0  0.68213752405E+01  0.43096056612E+02  0.11194289235E+02  0.45045680894E+02  0.00000000000E+00 0.  1.
         11    1    3    3    0    0 -0.60335173844E+01 -0.32488982477E+02 -0.94097507590E+01  0.34358124571E+02  0.51100000000E-03 0. -1.
        -11    1    3    3    0    0  0.11374266795E+01 -0.33538032567E+01 -0.23631335572E+01  0.42574800300E+01  0.51100000000E-03 0.  1.
         12    1    3    3    0    0 -0.19252845356E+01 -0.72532708783E+01  0.57859508129E+00  0.75267145054E+01  0.00000000000E+00 0. -1.
</event>
<event>
 7    1  0.1541705E-008  0.4614232E+02  0.7816164E-02  0.1320468E+00
        -11   -1    0    0    0    0  0.00000000000E+00  0.00000000000E+00  0.45593999997E+02  0.45594000000E+02  0.51100000000E-03 0.  1.
         11   -1    0    0    0    0 -0.00000000000E+00 -0.00000000000E+00 -0.45593999997E+02  0.45594000000E+02  0.51100000000E-03 0. -1.
    9900012    2    1    2    0    0 -0.99343997645E+01 -0.43356492231E+02 -0.71158723725E+01  0.46142319221E+02  0.10000013311E+02 0.  0.
        -12    1    1    2    0    0  0.99343997645E+01  0.43356492231E+02  0.71158723725E+01  0.45045680779E+02  0.00000000000E+00 0.  1.
         11    1    3    3    0    0 -0.84485549558E+01 -0.25762585925E+02 -0.67496470718E+01  0.27940054585E+02  0.51100000000E-03 0. -1.
        -11    1    3    3    0    0 -0.26755984193E+01 -0.10239790293E+02  0.99112335300E+00  0.10629885132E+02  0.51100000000E-03 0.  1.
        -12    1    3    3    0    0  0.11897536105E+01 -0.73541160126E+01 -0.13573486537E+01  0.75723795037E+01  0.00000000000E+00 0.  1.
</event>
<event>
 7    1  0.1541705E-008  0.4614232E+02  0.7816164E-02  0.1320468E+00
        -11   -1    0    0    0    0  0.00000000000E+00  0.00000000000E+00  0.45593999997E+02  0.45594000000E+02  0.51100000000E-03 0.  1.
         11   -1    0    0    0    0 -0.00000000000E+00 -0.00000000000E+00 -0.45593999997E+02  0.45594000000E+02  0.51100000000E-03 0. -1.
    9900012    2    1    2    0    0 -0.98345047947E+01  0.33595729599E+02 -0.28350008010E+02  0.46142317787E+02  0.10000000234E+02 0.  0.
        -12    1    1    2    0    0  0.98345047947E+01 -0.33595729599E+02  0.28350008010E+02  0.45045682213E+02  0.00000000000E+00 0.  1.
         11    1    3    3    0    0 -0.11804884486E+01  0.16497171373E+02 -0.16766569913E+02  0.23551392383E+02  0.51100000000E-03 0. -1.
        -11    1    3    3    0    0 -0.70166043550E+01  0.14974335034E+02 -0.88276049574E+01  0.18745400927E+02  0.51100000000E-03 0.  1.
        -12    1    3    3    0    0 -0.16374119912E+01  0.21242231921E+01 -0.27558331402E+01  0.38455244760E+01  0.00000000000E+00 0.  1.
</event>
<event>
 7    1  0.1541705E-008  0.4614232E+02  0.7816164E-02  0.1320468E+00
        -11   -1    0    0    0    0  0.00000000000E+00  0.00000000000E+00  0.45593999997E+02  0.45594000000E+02  0.51100000000E-03 0.  1.
         11   -1    0    0    0    0 -0.00000000000E+00 -0.00000000000E+00 -0.45593999997E+02  0.45594000000E+02  0.51100000000E-03 0. -1.
    9900012    2    1    2    0    0  0.21678032949E+02  0.30284401929E+02 -0.25338332592E+02  0.46142320836E+02  0.10000028042E+02 0.  0.
        -12    1    1    2    0    0 -0.21678032949E+02 -0.30284401929E+02  0.25338332592E+02  0.45045679164E+02  0.00000000000E+00 0.  1.
         11    1    3    3    0    0  0.83240139118E+01  0.15335579796E+02 -0.11641842603E+02  0.20976217837E+02  0.51100000000E-03 0. -1.
        -11    1    3    3    0    0  0.10551670713E+02  0.69903243821E+01 -0.77074372077E+01  0.14819142296E+02  0.51100000000E-03 0.  1.
        -12    1    3    3    0    0  0.28023483241E+01  0.79584977507E+01 -0.59890527815E+01  0.10346960703E+02  0.00000000000E+00 0.  1.
</event>
<event>
 7    1  0.1541705E-008  0.4614232E+02  0.7816164E-02  0.1320468E+00
        -11   -1    0    0    0    0  0.00000000000E+00  0.00000000000E+00  0.45593999997E+02  0.45594000000E+02  0.51100000000E-03 0. -1.
         11   -1    0    0    0    0 -0.00000000000E+00 -0.00000000000E+00 -0.45593999997E+02  0.45594000000E+02  0.51100000000E-03 0.  1.
    9900012    2    1    2    0    0  0.35860963195E+02  0.93114907948E+01  0.25620323500E+02  0.46142317428E+02  0.99999969618E+01 0.  0.
        -12    1    1    2    0    0 -0.35860963195E+02 -0.93114907948E+01 -0.25620323500E+02  0.45045682572E+02  0.00000000000E+00 0.  1.
         11    1    3    3    0    0  0.12979452074E+02  0.65741988527E+01  0.13940550641E+02  0.20150067472E+02  0.51100000000E-03 0. -1.
        -11    1    3    3    0    0  0.10207543338E+02  0.19281973814E+01  0.38827459039E+01  0.11089977554E+02  0.51100000000E-03 0.  1.
         12    1    3    3    0    0  0.12673967784E+02  0.80909456061E+00  0.77970269551E+01  0.14902272402E+02  0.00000000000E+00 0. -1.
</event>
<event>
 7    1  0.1541705E-008  0.4614232E+02  0.7816164E-02  0.1320468E+00
        -11   -1    0    0    0    0  0.00000000000E+00  0.00000000000E+00  0.45593999997E+02  0.45594000000E+02  0.51100000000E-03 0. -1.
         11   -1    0    0    0    0 -0.00000000000E+00 -0.00000000000E+00 -0.45593999997E+02  0.45594000000E+02  0.51100000000E-03 0.  1.
    9900012    2    1    2    0    0 -0.23285704462E+02 -0.35686181460E+02  0.14607738142E+02  0.46142316599E+02  0.99999894001E+01 0.  0.
        -12    1    1    2    0    0  0.23285704462E+02  0.35686181460E+02 -0.14607738142E+02  0.45045683401E+02  0.00000000000E+00 0.  1.
         11    1    3    3    0    0 -0.30040703360E+01 -0.35853994040E+01  0.63973785137E-01  0.46779931997E+01  0.51100000000E-03 0. -1.
        -11    1    3    3    0    0 -0.42747546435E+01 -0.76557264188E+01 -0.12552536670E+00  0.87692320725E+01  0.51100000000E-03 0.  1.
        -12    1    3    3    0    0 -0.16006879482E+02 -0.24445055637E+02  0.14669289724E+02  0.32695091327E+02  0.00000000000E+00 0.  1.
</event>
<event>
 7    1  0.1541705E-008  0.4614232E+02  0.7816164E-02  0.1320468E+00
        -11   -1    0    0    0    0  0.00000000000E+00  0.00000000000E+00  0.45593999997E+02  0.45594000000E+02  0.51100000000E-03 0. -1.
         11   -1    0    0    0    0 -0.00000000000E+00 -0.00000000000E+00 -0.45593999997E+02  0.45594000000E+02  0.51100000000E-03 0.  1.
    9900012    2    1    2    0    0  0.76809155928E+01  0.43005270934E+02 -0.10984703144E+02  0.46142317681E+02  0.99999992707E+01 0.  0.
        -12    1    1    2    0    0 -0.76809155928E+01 -0.43005270934E+02  0.10984703144E+02  0.45045682319E+02  0.00000000000E+00 0.  1.
         11    1    3    3    0    0  0.97738088716E+01  0.30727148743E+02 -0.74399625347E+01  0.33091359182E+02  0.51100000000E-03 0. -1.
        -11    1    3    3    0    0 -0.11602999744E+01  0.98045001800E+01 -0.32344113769E+01  0.10389222157E+02  0.51100000000E-03 0.  1.
         12    1    3    3    0    0 -0.93259330448E+00  0.24736220102E+01 -0.31032923203E+00  0.26617363418E+01  0.00000000000E+00 0. -1.
</event>
<event>
 7    1  0.1541705E-008  0.4614232E+02  0.7816164E-02  0.1320468E+00
        -11   -1    0    0    0    0  0.00000000000E+00  0.00000000000E+00  0.45593999997E+02  0.45594000000E+02  0.51100000000E-03 0. -1.
         11   -1    0    0    0    0 -0.00000000000E+00 -0.00000000000E+00 -0.45593999997E+02  0.45594000000E+02  0.51100000000E-03 0.  1.
    9900012    2    1    2    0    0  0.37078622396E+02  0.31679396124E+00  0.25577117276E+02  0.46142317351E+02  0.99999962565E+01 0.  0.
        -12    1    1    2    0    0 -0.37078622396E+02 -0.31679396124E+00 -0.25577117276E+02  0.45045682649E+02  0.00000000000E+00 0.  1.
         11    1    3    3    0    0  0.83652416471E+01  0.37614623366E+01  0.58579884379E+01  0.10883101374E+02  0.51100000000E-03 0. -1.
        -11    1    3    3    0    0  0.13230053414E+02 -0.26293689195E+01  0.11415441858E+02  0.17670885867E+02  0.51100000000E-03 0.  1.
        -12    1    3    3    0    0  0.15483327335E+02 -0.81529945590E+00  0.83036869796E+01  0.17588330109E+02  0.00000000000E+00 0.  1.
</event>
<event>
 7    1  0.1541705E-008  0.4614232E+02  0.7816164E-02  0.1320468E+00
        -11   -1    0    0    0    0  0.00000000000E+00  0.00000000000E+00  0.45593999997E+02  0.45594000000E+02  0.51100000000E-03 0.  1.
         11   -1    0    0    0    0 -0.00000000000E+00 -0.00000000000E+00 -0.45593999997E+02  0.45594000000E+02  0.51100000000E-03 0. -1.
    9900012    2    1    2    0    0 -0.23907454472E+02  0.10352139110E+02 -0.36747522593E+02  0.46142316742E+02  0.99999907034E+01 0.  0.
        -12    1    1    2    0    0  0.23907454472E+02 -0.10352139110E+02  0.36747522593E+02  0.45045683258E+02  0.00000000000E+00 0.  1.
         11    1    3    3    0    0 -0.54776335378E+01  0.33370342026E+00 -0.86050250874E+01  0.10205992561E+02  0.51100000000E-03 0.  1.
        -11    1    3    3    0    0 -0.47033802629E+01  0.45622145968E+01 -0.14133633129E+02  0.15578676889E+02  0.51100000000E-03 0. -1.
         12    1    3    3    0    0 -0.13726440671E+02  0.54562210925E+01 -0.14008864377E+02  0.20357647292E+02  0.00000000000E+00 0. -1.
</event>
<event>
 7    1  0.1541705E-008  0.4614232E+02  0.7816164E-02  0.1320468E+00
        -11   -1    0    0    0    0  0.00000000000E+00  0.00000000000E+00  0.45593999997E+02  0.45594000000E+02  0.51100000000E-03 0.  1.
         11   -1    0    0    0    0 -0.00000000000E+00 -0.00000000000E+00 -0.45593999997E+02  0.45594000000E+02  0.51100000000E-03 0. -1.
    9900012    2    1    2    0    0 -0.37037993310E+02  0.15098882393E+02  0.20720141932E+02  0.46142317858E+02  0.10000000882E+02 0.  0.
        -12    1    1    2    0    0  0.37037993310E+02 -0.15098882393E+02 -0.20720141932E+02  0.45045682142E+02  0.00000000000E+00 0.  1.
         11    1    3    3    0    0 -0.22389149268E+02  0.97258526859E+01  0.11606562328E+02  0.27029215763E+02  0.51100000000E-03 0.  1.
        -11    1    3    3    0    0 -0.51706074061E+01  0.50594747372E+01  0.30107089848E+01  0.78356770235E+01  0.51100000000E-03 0. -1.
        -12    1    3    3    0    0 -0.94782366360E+01  0.31355496956E+00  0.61028706192E+01  0.11277425071E+02  0.00000000000E+00 0.  1.
</event>
<event>
 7    1  0.1541705E-008  0.4614232E+02  0.7816164E-02  0.1320468E+00
        -11   -1    0    0    0    0  0.00000000000E+00  0.00000000000E+00  0.45593999997E+02  0.45594000000E+02  0.51100000000E-03 0.  1.
         11   -1    0    0    0    0 -0.00000000000E+00 -0.00000000000E+00 -0.45593999997E+02  0.45594000000E+02  0.51100000000E-03 0. -1.
    9900012    2    1    2    0    0 -0.43083568391E+02 -0.10417778707E+02 -0.80243063486E+01  0.46142317955E+02  0.10000001767E+02 0.  0.
        -12    1    1    2    0    0  0.43083568391E+02  0.10417778707E+02  0.80243063486E+01  0.45045682045E+02  0.00000000000E+00 0.  1.
         11    1    3    3    0    0 -0.11377107379E+02 -0.14565427768E+01 -0.62039521000E+01  0.13040287999E+02  0.51100000000E-03 0. -1.
        -11    1    3    3    0    0 -0.27148279101E+02 -0.71003546376E+01 -0.79331856390E+00  0.28072645916E+02  0.51100000000E-03 0.  1.
        -12    1    3    3    0    0 -0.45581819116E+01 -0.18608812929E+01 -0.10270356847E+01  0.50293840401E+01  0.00000000000E+00 0.  1.
</event>
<event>
 7    1  0.1541705E-008  0.4614232E+02  0.7816164E-02  0.1320468E+00
        -11   -1    0    0    0    0  0.00000000000E+00  0.00000000000E+00  0.45593999997E+02  0.45594000000E+02  0.51100000000E-03 0.  1.
         11   -1    0    0    0    0 -0.00000000000E+00 -0.00000000000E+00 -0.45593999997E+02  0.45594000000E+02  0.51100000000E-03 0. -1.
    9900012    2    1    2    0    0  0.78821240141E+01 -0.63368284526E+01 -0.43895674889E+02  0.46142317102E+02  0.99999939906E+01 0.  0.
        -12    1    1    2    0    0 -0.78821240141E+01  0.63368284526E+01  0.43895674889E+02  0.45045682898E+02  0.00000000000E+00 0.  1.
         11    1    3    3    0    0  0.69888469404E+00 -0.32438968439E+01 -0.28719034798E+02  0.28910106651E+02  0.51100000000E-03 0.  1.
        -11    1    3    3    0    0  0.19722987789E+01  0.31089573507E-02 -0.25289551885E+01  0.32071150191E+01  0.51100000000E-03 0. -1.
        -12    1    3    3    0    0  0.52109405411E+01 -0.30960405660E+01 -0.12647684902E+02  0.14025095432E+02  0.00000000000E+00 0.  1.
</event>
<event>
 7    1  0.1541705E-008  0.4614232E+02  0.7816164E-02  0.1320468E+00
        -11   -1    0    0    0    0  0.00000000000E+00  0.00000000000E+00  0.45593999997E+02  0.45594000000E+02  0.51100000000E-03 0.  1.
         11   -1    0    0    0    0 -0.00000000000E+00 -0.00000000000E+00 -0.45593999997E+02  0.45594000000E+02  0.51100000000E-03 0. -1.
    9900012    2    1    2    0    0 -0.36267709515E+01 -0.42568495221E+02 -0.14278768698E+02  0.46142317760E+02  0.99999999924E+01 0.  0.
        -12    1    1    2    0    0  0.36267709515E+01  0.42568495221E+02  0.14278768698E+02  0.45045682240E+02  0.00000000000E+00 0.  1.
         11    1    3    3    0    0 -0.44145664871E+01 -0.20347193345E+02 -0.29892273585E+01  0.21034071283E+02  0.51100000000E-03 0. -1.
        -11    1    3    3    0    0 -0.33478813807E+00 -0.71300777557E+00 -0.89902001339E+00  0.11952825737E+01  0.51100000000E-03 0.  1.
         12    1    3    3    0    0  0.11225836736E+01 -0.21508294100E+02 -0.10390521326E+02  0.23912963903E+02  0.00000000000E+00 0. -1.
</event>
<event>
 7    1  0.1541705E-008  0.4614232E+02  0.7816164E-02  0.1320468E+00
        -11   -1    0    0    0    0  0.00000000000E+00  0.00000000000E+00  0.45593999997E+02  0.45594000000E+02  0.51100000000E-03 0.  1.
         11   -1    0    0    0    0 -0.00000000000E+00 -0.00000000000E+00 -0.45593999997E+02  0.45594000000E+02  0.51100000000E-03 0. -1.
    9900012    2    1    2    0    0  0.40076522925E+02  0.46409187039E+01 -0.20036157920E+02  0.46142318293E+02  0.10000004854E+02 0.  0.
        -12    1    1    2    0    0 -0.40076522925E+02 -0.46409187039E+01  0.20036157920E+02  0.45045681707E+02  0.00000000000E+00 0.  1.
         11    1    3    3    0    0  0.12522032880E+02  0.46256248093E+01 -0.78070367926E+01  0.15464395755E+02  0.51100000000E-03 0. -1.
        -11    1    3    3    0    0  0.46000324509E+01 -0.21311936694E+01 -0.18813331438E+01  0.54075594925E+01  0.51100000000E-03 0.  1.
         12    1    3    3    0    0  0.22954457594E+02  0.21464875640E+01 -0.10347787984E+02  0.25270363046E+02  0.00000000000E+00 0. -1.
</event>
<event>
 7    1  0.1541705E-008  0.4614231E+02  0.7816164E-02  0.1320468E+00
        -11   -1    0    0    0    0  0.00000000000E+00  0.00000000000E+00  0.45593999997E+02  0.45594000000E+02  0.51100000000E-03 0.  1.
         11   -1    0    0    0    0 -0.00000000000E+00 -0.00000000000E+00 -0.45593999997E+02  0.45594000000E+02  0.51100000000E-03 0. -1.
    9900012    2    1    2    0    0 -0.29018052644E+02 -0.44355297555E+01 -0.34167132543E+02  0.46142309311E+02  0.99999229427E+01 0.  0.
        -12    1    1    2    0    0  0.29018052644E+02  0.44355297555E+01  0.34167132543E+02  0.45045690689E+02  0.00000000000E+00 0.  1.
         11    1    3    3    0    0 -0.11396884747E+02 -0.19747372704E+01 -0.19695035842E+02  0.22840381046E+02  0.51100000000E-03 0. -1.
        -11    1    3    3    0    0 -0.65088470376E+01 -0.24453035562E+01 -0.39412856047E+01  0.79923921149E+01  0.51100000000E-03 0.  1.
         12    1    3    3    0    0 -0.11112320860E+02 -0.15488928933E-01 -0.10530811096E+02  0.15309536150E+02  0.00000000000E+00 0. -1.
</event>
<event>
 7    1  0.1541705E-008  0.4614232E+02  0.7816164E-02  0.1320468E+00
        -11   -1    0    0    0    0  0.00000000000E+00  0.00000000000E+00  0.45593999997E+02  0.45594000000E+02  0.51100000000E-03 0.  1.
         11   -1    0    0    0    0 -0.00000000000E+00 -0.00000000000E+00 -0.45593999997E+02  0.45594000000E+02  0.51100000000E-03 0. -1.
    9900012    2    1    2    0    0  0.21288940625E+02 -0.34217889743E+02 -0.20125370523E+02  0.46142317520E+02  0.99999977989E+01 0.  0.
        -12    1    1    2    0    0 -0.21288940625E+02  0.34217889743E+02  0.20125370523E+02  0.45045682480E+02  0.00000000000E+00 0.  1.
         11    1    3    3    0    0  0.11487722241E+02 -0.14351861504E+02 -0.75640009560E+01  0.19878576449E+02  0.51100000000E-03 0. -1.
        -11    1    3    3    0    0  0.65139734909E+01 -0.18293205582E+02 -0.10433745453E+02  0.22043962111E+02  0.51100000000E-03 0.  1.
        -12    1    3    3    0    0  0.32872448937E+01 -0.15728226576E+01 -0.21276241139E+01  0.42197789602E+01  0.00000000000E+00 0.  1.
</event>
<event>
 7    1  0.1541705E-008  0.4614232E+02  0.7816164E-02  0.1320468E+00
        -11   -1    0    0    0    0  0.00000000000E+00  0.00000000000E+00  0.45593999997E+02  0.45594000000E+02  0.51100000000E-03 0.  1.
         11   -1    0    0    0    0 -0.00000000000E+00 -0.00000000000E+00 -0.45593999997E+02  0.45594000000E+02  0.51100000000E-03 0. -1.
    9900012    2    1    2    0    0 -0.43908726219E+02 -0.73211845906E+01 -0.68947467845E+01  0.46142317464E+02  0.99999972871E+01 0.  0.
        -12    1    1    2    0    0  0.43908726219E+02  0.73211845906E+01  0.68947467845E+01  0.45045682536E+02  0.00000000000E+00 0.  1.
         11    1    3    3    0    0 -0.26389971985E+02 -0.19166512557E+01 -0.69832853472E+01  0.27365497399E+02  0.51100000000E-03 0. -1.
        -11    1    3    3    0    0 -0.17652930565E+02 -0.55062387065E+01 -0.14084141723E+00  0.18492281059E+02  0.51100000000E-03 0.  1.
        -12    1    3    3    0    0  0.13417633082E+00  0.10170537155E+00  0.22937997988E+00  0.28453900527E+00  0.00000000000E+00 0.  1.
</event>
<event>
 7    1  0.1541705E-008  0.4614232E+02  0.7816164E-02  0.1320468E+00
        -11   -1    0    0    0    0  0.00000000000E+00  0.00000000000E+00  0.45593999997E+02  0.45594000000E+02  0.51100000000E-03 0. -1.
         11   -1    0    0    0    0 -0.00000000000E+00 -0.00000000000E+00 -0.45593999997E+02  0.45594000000E+02  0.51100000000E-03 0.  1.
    9900012    2    1    2    0    0  0.27393051068E+02  0.61855672048E+01  0.35220349347E+02  0.46142317670E+02  0.99999991666E+01 0.  0.
        -12    1    1    2    0    0 -0.27393051068E+02 -0.61855672048E+01 -0.35220349347E+02  0.45045682330E+02  0.00000000000E+00 0.  1.
         11    1    3    3    0    0  0.71497615876E+01  0.20512877447E+01  0.44148387424E+01  0.86497210101E+01  0.51100000000E-03 0.  1.
        -11    1    3    3    0    0  0.49822376354E+01 -0.29785397223E+00  0.42992057822E+01  0.65874562210E+01  0.51100000000E-03 0. -1.
         12    1    3    3    0    0  0.15261051845E+02  0.44321334324E+01  0.26506304823E+02  0.30905140439E+02  0.00000000000E+00 0. -1.
</event>
<event>
 7    1  0.1541705E-008  0.4614232E+02  0.7816164E-02  0.1320468E+00
        -11   -1    0    0    0    0  0.00000000000E+00  0.00000000000E+00  0.45593999997E+02  0.45594000000E+02  0.51100000000E-03 0.  1.
         11   -1    0    0    0    0 -0.00000000000E+00 -0.00000000000E+00 -0.45593999997E+02  0.45594000000E+02  0.51100000000E-03 0. -1.
    9900012    2    1    2    0    0  0.12149199031E+02  0.35902231249E+02 -0.24342149531E+02  0.46142317748E+02  0.99999998841E+01 0.  0.
        -12    1    1    2    0    0 -0.12149199031E+02 -0.35902231249E+02  0.24342149531E+02  0.45045682252E+02  0.00000000000E+00 0.  1.
         11    1    3    3    0    0  0.16364984032E+01  0.11926267565E+01 -0.23486610615E+01  0.31010795938E+01  0.51100000000E-03 0. -1.
        -11    1    3    3    0    0  0.49655628346E+00  0.88264115360E+01 -0.81617589627E+01  0.12031891720E+02  0.51100000000E-03 0.  1.
        -12    1    3    3    0    0  0.10016144344E+02  0.25883192956E+02 -0.13831729507E+02  0.31009346434E+02  0.00000000000E+00 0.  1.
</event>
<event>
 7    1  0.1541705E-008  0.4614232E+02  0.7816164E-02  0.1320468E+00
        -11   -1    0    0    0    0  0.00000000000E+00  0.00000000000E+00  0.45593999997E+02  0.45594000000E+02  0.51100000000E-03 0.  1.
         11   -1    0    0    0    0 -0.00000000000E+00 -0.00000000000E+00 -0.45593999997E+02  0.45594000000E+02  0.51100000000E-03 0. -1.
    9900012    2    1    2    0    0  0.27530922632E+02  0.18478083051E+02 -0.30491346387E+02  0.46142318091E+02  0.10000003005E+02 0.  0.
        -12    1    1    2    0    0 -0.27530922632E+02 -0.18478083051E+02  0.30491346387E+02  0.45045681909E+02  0.00000000000E+00 0.  1.
         11    1    3    3    0    0  0.45357131468E+01  0.22602199421E+01 -0.15089193597E+01  0.52875444047E+01  0.51100000000E-03 0.  1.
        -11    1    3    3    0    0  0.71778872892E+01  0.30008357979E+01 -0.50776232748E+01  0.92902820089E+01  0.51100000000E-03 0. -1.
        -12    1    3    3    0    0  0.15817322196E+02  0.13217027311E+02 -0.23904803753E+02  0.31564491677E+02  0.00000000000E+00 0.  1.
</event>
<event>
 7    1  0.1541705E-008  0.4614232E+02  0.7816164E-02  0.1320468E+00
        -11   -1    0    0    0    0  0.00000000000E+00  0.00000000000E+00  0.45593999997E+02  0.45594000000E+02  0.51100000000E-03 0.  1.
         11   -1    0    0    0    0 -0.00000000000E+00 -0.00000000000E+00 -0.45593999997E+02  0.45594000000E+02  0.51100000000E-03 0. -1.
    9900012    2    1    2    0    0  0.34162642007E+02  0.18221189439E+02  0.23022069623E+02  0.46142317152E+02  0.99999944494E+01 0.  0.
        -12    1    1    2    0    0 -0.34162642007E+02 -0.18221189439E+02 -0.23022069623E+02  0.45045682848E+02  0.00000000000E+00 0.  1.
         11    1    3    3    0    0  0.11870518732E+02  0.31536812705E+01  0.53696852580E+01  0.13404791701E+02  0.51100000000E-03 0. -1.
        -11    1    3    3    0    0  0.10998802812E+02  0.10622321878E+02  0.81755440038E+01  0.17339172569E+02  0.51100000000E-03 0.  1.
         12    1    3    3    0    0  0.11293320463E+02  0.44451862911E+01  0.94768403611E+01  0.15398352882E+02  0.00000000000E+00 0. -1.
</event>
<event>
 7    1  0.1541705E-008  0.4614232E+02  0.7816164E-02  0.1320468E+00
        -11   -1    0    0    0    0  0.00000000000E+00  0.00000000000E+00  0.45593999997E+02  0.45594000000E+02  0.51100000000E-03 0.  1.
         11   -1    0    0    0    0 -0.00000000000E+00 -0.00000000000E+00 -0.45593999997E+02  0.45594000000E+02  0.51100000000E-03 0. -1.
    9900012    2    1    2    0    0  0.21425839918E+02 -0.37748619167E+02 -0.12045270279E+02  0.46142318728E+02  0.10000008814E+02 0.  0.
        -12    1    1    2    0    0 -0.21425839918E+02  0.37748619167E+02  0.12045270279E+02  0.45045681272E+02  0.00000000000E+00 0.  1.
         11    1    3    3    0    0  0.34913556198E+01 -0.55625681358E+01 -0.46752809278E+01  0.80616363317E+01  0.51100000000E-03 0. -1.
        -11    1    3    3    0    0  0.96524094959E+01 -0.14231563932E+02 -0.68925818046E+00  0.17209924408E+02  0.51100000000E-03 0.  1.
        -12    1    3    3    0    0  0.82820748021E+01 -0.17954487099E+02 -0.66807311710E+01  0.20870757988E+02  0.00000000000E+00 0.  1.
</event>
<event>
 7    1  0.1541705E-008  0.4614232E+02  0.7816164E-02  0.1320468E+00
        -11   -1    0    0    0    0  0.00000000000E+00  0.00000000000E+00  0.45593999997E+02  0.45594000000E+02  0.51100000000E-03 0. -1.
         11   -1    0    0    0    0 -0.00000000000E+00 -0.00000000000E+00 -0.45593999997E+02  0.45594000000E+02  0.51100000000E-03 0.  1.
    9900012    2    1    2    0    0 -0.31407049900E+02 -0.17586419081E+02  0.27081886147E+02  0.46142317890E+02  0.10000001171E+02 0.  0.
        -12    1    1    2    0    0  0.31407049900E+02  0.17586419081E+02 -0.27081886147E+02  0.45045682110E+02  0.00000000000E+00 0.  1.
         11    1    3    3    0    0 -0.12018591912E+02 -0.86340333984E+01  0.74426794317E+01  0.16564617763E+02  0.51100000000E-03 0. -1.
        -11    1    3    3    0    0 -0.35688379408E+01 -0.34497937426E+01  0.70622122695E+01  0.86320636880E+01  0.51100000000E-03 0.  1.
         12    1    3    3    0    0 -0.15819620047E+02 -0.55025919403E+01  0.12576994446E+02  0.20945636438E+02  0.00000000000E+00 0. -1.
</event>
<event>
 7    1  0.1541705E-008  0.4614232E+02  0.7816164E-02  0.1320468E+00
        -11   -1    0    0    0    0  0.00000000000E+00  0.00000000000E+00  0.45593999997E+02  0.45594000000E+02  0.51100000000E-03 0.  1.
         11   -1    0    0    0    0 -0.00000000000E+00 -0.00000000000E+00 -0.45593999997E+02  0.45594000000E+02  0.51100000000E-03 0. -1.
    9900012    2    1    2    0    0  0.18905882685E+02  0.91864990407E+01 -0.39840799976E+02  0.46142317550E+02  0.99999980717E+01 0.  0.
        -12    1    1    2    0    0 -0.18905882685E+02 -0.91864990407E+01  0.39840799976E+02  0.45045682450E+02  0.00000000000E+00 0.  1.
         11    1    3    3    0    0  0.11800426001E+02  0.98056270468E+01 -0.28960362179E+02  0.32773509934E+02  0.51100000000E-03 0. -1.
        -11    1    3    3    0    0  0.13537465152E+01 -0.14180829928E+01 -0.26800393260E+01  0.33205722477E+01  0.51100000000E-03 0.  1.
         12    1    3    3    0    0  0.57517101688E+01  0.79895498673E+00 -0.82003984703E+01  0.10048235368E+02  0.00000000000E+00 0. -1.
</event>
<event>
 7    1  0.1541705E-008  0.4614232E+02  0.7816164E-02  0.1320468E+00
        -11   -1    0    0    0    0  0.00000000000E+00  0.00000000000E+00  0.45593999997E+02  0.45594000000E+02  0.51100000000E-03 0. -1.
         11   -1    0    0    0    0 -0.00000000000E+00 -0.00000000000E+00 -0.45593999997E+02  0.45594000000E+02  0.51100000000E-03 0.  1.
    9900012    2    1    2    0    0 -0.31814334353E+02  0.30937215702E+02 -0.77362876758E+01  0.46142319488E+02  0.10000015751E+02 0.  0.
        -12    1    1    2    0    0  0.31814334353E+02 -0.30937215702E+02  0.77362876758E+01  0.45045680512E+02  0.00000000000E+00 0.  1.
         11    1    3    3    0    0 -0.91808352238E+01  0.15329719777E+02 -0.26112024435E+01  0.18058416938E+02  0.51100000000E-03 0. -1.
        -11    1    3    3    0    0 -0.12325023569E+02  0.72696194673E+01 -0.34579882281E+01  0.14721115991E+02  0.51100000000E-03 0.  1.
         12    1    3    3    0    0 -0.10308475560E+02  0.83378764580E+01 -0.16670970043E+01  0.13362786559E+02  0.00000000000E+00 0. -1.
</event>
<event>
 7    1  0.1541705E-008  0.4614232E+02  0.7816164E-02  0.1320468E+00
        -11   -1    0    0    0    0  0.00000000000E+00  0.00000000000E+00  0.45593999997E+02  0.45594000000E+02  0.51100000000E-03 0. -1.
         11   -1    0    0    0    0 -0.00000000000E+00 -0.00000000000E+00 -0.45593999997E+02  0.45594000000E+02  0.51100000000E-03 0.  1.
    9900012    2    1    2    0    0 -0.92034479452E+01  0.78116988207E+01  0.43398011675E+02  0.46142317522E+02  0.99999978233E+01 0.  0.
        -12    1    1    2    0    0  0.92034479452E+01 -0.78116988207E+01 -0.43398011675E+02  0.45045682478E+02  0.00000000000E+00 0.  1.
         11    1    3    3    0    0 -0.60567317252E+01  0.43210370654E+01  0.17386267483E+02  0.18911310313E+02  0.51100000000E-03 0. -1.
        -11    1    3    3    0    0  0.15271435926E+01  0.91407787110E+00  0.22065716167E+01  0.28349011389E+01  0.51100000000E-03 0.  1.
        -12    1    3    3    0    0 -0.46738598126E+01  0.25765838842E+01  0.23805172576E+02  0.24396106071E+02  0.00000000000E+00 0.  1.
</event>
<event>
 7    1  0.1541705E-008  0.4614232E+02  0.7816164E-02  0.1320468E+00
        -11   -1    0    0    0    0  0.00000000000E+00  0.00000000000E+00  0.45593999997E+02  0.45594000000E+02  0.51100000000E-03 0. -1.
         11   -1    0    0    0    0 -0.00000000000E+00 -0.00000000000E+00 -0.45593999997E+02  0.45594000000E+02  0.51100000000E-03 0.  1.
    9900012    2    1    2    0    0 -0.20853964064E+02 -0.33055813554E+02 -0.22395063863E+02  0.46142317495E+02  0.99999975711E+01 0.  0.
        -12    1    1    2    0    0  0.20853964064E+02  0.33055813554E+02  0.22395063863E+02  0.45045682505E+02  0.00000000000E+00 0.  1.
         11    1    3    3    0    0 -0.13681117820E+02 -0.19948845601E+02 -0.13081675760E+02  0.27500175755E+02  0.51100000000E-03 0. -1.
        -11    1    3    3    0    0 -0.14264333883E+00 -0.43807408012E+01 -0.55182439827E+00  0.44176631285E+01  0.51100000000E-03 0.  1.
        -12    1    3    3    0    0 -0.70302029047E+01 -0.87262271527E+01 -0.87615637051E+01  0.14224478611E+02  0.00000000000E+00 0.  1.
</event>
<event>
 7    1  0.1541705E-008  0.4614232E+02  0.7816164E-02  0.1320468E+00
        -11   -1    0    0    0    0  0.00000000000E+00  0.00000000000E+00  0.45593999997E+02  0.45594000000E+02  0.51100000000E-03 0.  1.
         11   -1    0    0    0    0 -0.00000000000E+00 -0.00000000000E+00 -0.45593999997E+02  0.45594000000E+02  0.51100000000E-03 0. -1.
    9900012    2    1    2    0    0 -0.67834958180E+01  0.13546695081E+01 -0.44511374601E+02  0.46142318588E+02  0.10000007539E+02 0.  0.
        -12    1    1    2    0    0  0.67834958180E+01 -0.13546695081E+01  0.44511374601E+02  0.45045681412E+02  0.00000000000E+00 0.  1.
         11    1    3    3    0    0 -0.15853955858E+01  0.37264241785E+01 -0.30843194131E+02  0.31107914439E+02  0.51100000000E-03 0. -1.
        -11    1    3    3    0    0 -0.22688813759E+01 -0.23324594234E+01 -0.59973956085E+01  0.68232649081E+01  0.51100000000E-03 0.  1.
         12    1    3    3    0    0 -0.29292188564E+01 -0.39295246937E-01 -0.76707848621E+01  0.82111392404E+01  0.00000000000E+00 0. -1.
</event>
<event>
 7    1  0.1541705E-008  0.4614232E+02  0.7816164E-02  0.1320468E+00
        -11   -1    0    0    0    0  0.00000000000E+00  0.00000000000E+00  0.45593999997E+02  0.45594000000E+02  0.51100000000E-03 0.  1.
         11   -1    0    0    0    0 -0.00000000000E+00 -0.00000000000E+00 -0.45593999997E+02  0.45594000000E+02  0.51100000000E-03 0. -1.
    9900012    2    1    2    0    0  0.25326893457E+02  0.35407145368E+01 -0.37082681943E+02  0.46142317724E+02  0.99999996610E+01 0.  0.
        -12    1    1    2    0    0 -0.25326893457E+02 -0.35407145368E+01  0.37082681943E+02  0.45045682276E+02  0.00000000000E+00 0.  1.
         11    1    3    3    0    0  0.11786342100E+02  0.24480984101E+01 -0.25521565478E+02  0.28218103243E+02  0.51100000000E-03 0. -1.
        -11    1    3    3    0    0 -0.69355221794E-02 -0.81706560062E-01 -0.11015664838E-01  0.82738560647E-01  0.51100000000E-03 0.  1.
         12    1    3    3    0    0  0.13547486879E+02  0.11743226867E+01 -0.11550100801E+02  0.17841475921E+02  0.00000000000E+00 0. -1.
</event>
<event>
 7    1  0.1541705E-008  0.4614232E+02  0.7816164E-02  0.1320468E+00
        -11   -1    0    0    0    0  0.00000000000E+00  0.00000000000E+00  0.45593999997E+02  0.45594000000E+02  0.51100000000E-03 0.  1.
         11   -1    0    0    0    0 -0.00000000000E+00 -0.00000000000E+00 -0.45593999997E+02  0.45594000000E+02  0.51100000000E-03 0. -1.
    9900012    2    1    2    0    0 -0.28887668126E+02  0.13859566441E+02 -0.31662723397E+02  0.46142323131E+02  0.10000048962E+02 0.  0.
        -12    1    1    2    0    0  0.28887668126E+02 -0.13859566441E+02  0.31662723397E+02  0.45045676869E+02  0.00000000000E+00 0.  1.
         11    1    3    3    0    0 -0.71215211505E+01  0.39924425862E+01 -0.74597823180E+01  0.11059114512E+02  0.51100000000E-03 0. -1.
        -11    1    3    3    0    0 -0.21600814988E+02  0.91406755342E+01 -0.20028951401E+02  0.30843249697E+02  0.51100000000E-03 0.  1.
        -12    1    3    3    0    0 -0.16533198831E+00  0.72644832062E+00 -0.41739896775E+01  0.42399589216E+01  0.00000000000E+00 0.  1.
</event>
<event>
 7    1  0.1541705E-008  0.4614232E+02  0.7816164E-02  0.1320468E+00
        -11   -1    0    0    0    0  0.00000000000E+00  0.00000000000E+00  0.45593999997E+02  0.45594000000E+02  0.51100000000E-03 0.  1.
         11   -1    0    0    0    0 -0.00000000000E+00 -0.00000000000E+00 -0.45593999997E+02  0.45594000000E+02  0.51100000000E-03 0. -1.
    9900012    2    1    2    0    0 -0.48063778759E+01 -0.17414291732E+02 -0.41264447241E+02  0.46142318399E+02  0.10000005813E+02 0.  0.
        -12    1    1    2    0    0  0.48063778759E+01  0.17414291732E+02  0.41264447241E+02  0.45045681601E+02  0.00000000000E+00 0.  1.
         11    1    3    3    0    0 -0.51856725608E+01 -0.91908193829E+01 -0.22926967261E+02  0.25239021155E+02  0.51100000000E-03 0. -1.
        -11    1    3    3    0    0  0.20453363186E+01 -0.23018224747E+01 -0.10487120213E+02  0.10929843456E+02  0.51100000000E-03 0.  1.
        -12    1    3    3    0    0 -0.16660416337E+01 -0.59216498747E+01 -0.78503597678E+01  0.99734537874E+01  0.00000000000E+00 0.  1.
</event>
<event>
 7    1  0.1541705E-008  0.4614232E+02  0.7816164E-02  0.1320468E+00
        -11   -1    0    0    0    0  0.00000000000E+00  0.00000000000E+00  0.45593999997E+02  0.45594000000E+02  0.51100000000E-03 0. -1.
         11   -1    0    0    0    0 -0.00000000000E+00 -0.00000000000E+00 -0.45593999997E+02  0.45594000000E+02  0.51100000000E-03 0.  1.
    9900012    2    1    2    0    0  0.38702572797E+02 -0.98721388874E+01  0.20827030076E+02  0.46142318197E+02  0.10000003972E+02 0.  0.
        -12    1    1    2    0    0 -0.38702572797E+02  0.98721388874E+01 -0.20827030076E+02  0.45045681803E+02  0.00000000000E+00 0.  1.
         11    1    3    3    0    0  0.13108476876E+02 -0.56245210162E+01  0.88869143147E+01  0.16806089640E+02  0.51100000000E-03 0.  1.
        -11    1    3    3    0    0  0.16285365300E+02 -0.59242283207E+01  0.80753743665E+01  0.19118610712E+02  0.51100000000E-03 0. -1.
        -12    1    3    3    0    0  0.93087306212E+01  0.16766104495E+01  0.38647413949E+01  0.10217617845E+02  0.00000000000E+00 0.  1.
</event>
<event>
 7    1  0.1541705E-008  0.4614232E+02  0.7816164E-02  0.1320468E+00
        -11   -1    0    0    0    0  0.00000000000E+00  0.00000000000E+00  0.45593999997E+02  0.45594000000E+02  0.51100000000E-03 0. -1.
         11   -1    0    0    0    0 -0.00000000000E+00 -0.00000000000E+00 -0.45593999997E+02  0.45594000000E+02  0.51100000000E-03 0.  1.
    9900012    2    1    2    0    0  0.66467598092E+01  0.26370545068E+01  0.44474488247E+02  0.46142316774E+02  0.99999910003E+01 0.  0.
        -12    1    1    2    0    0 -0.66467598092E+01 -0.26370545068E+01 -0.44474488247E+02  0.45045683226E+02  0.00000000000E+00 0.  1.
         11    1    3    3    0    0  0.62877251195E+01 -0.70150731516E+00  0.35885940150E+02  0.36439378431E+02  0.51100000000E-03 0. -1.
        -11    1    3    3    0    0 -0.11412358973E+01  0.17731379620E+01  0.26865625575E+01  0.34152681069E+01  0.51100000000E-03 0.  1.
         12    1    3    3    0    0  0.15002705870E+01  0.15654238600E+01  0.59019855393E+01  0.62876702364E+01  0.00000000000E+00 0. -1.
</event>
<event>
 7    1  0.1541705E-008  0.4614232E+02  0.7816164E-02  0.1320468E+00
        -11   -1    0    0    0    0  0.00000000000E+00  0.00000000000E+00  0.45593999997E+02  0.45594000000E+02  0.51100000000E-03 0.  1.
         11   -1    0    0    0    0 -0.00000000000E+00 -0.00000000000E+00 -0.45593999997E+02  0.45594000000E+02  0.51100000000E-03 0. -1.
    9900012    2    1    2    0    0 -0.25606800276E+02 -0.78669603107E+01 -0.36214860968E+02  0.46142318300E+02  0.10000004916E+02 0.  0.
        -12    1    1    2    0    0  0.25606800276E+02  0.78669603107E+01  0.36214860968E+02  0.45045681700E+02  0.00000000000E+00 0.  1.
         11    1    3    3    0    0 -0.45030297711E+01 -0.35909559844E+01 -0.38239204170E+01  0.69133645657E+01  0.51100000000E-03 0.  1.
        -11    1    3    3    0    0 -0.94682290105E+01 -0.43629528039E+01 -0.13766181588E+02  0.17268192538E+02  0.51100000000E-03 0. -1.
         12    1    3    3    0    0 -0.11635541494E+02  0.86948477552E-01 -0.18624758963E+02  0.21960761196E+02  0.00000000000E+00 0. -1.
</event>
<event>
 7    1  0.1541705E-008  0.4614232E+02  0.7816164E-02  0.1320468E+00
        -11   -1    0    0    0    0  0.00000000000E+00  0.00000000000E+00  0.45593999997E+02  0.45594000000E+02  0.51100000000E-03 0.  1.
         11   -1    0    0    0    0 -0.00000000000E+00 -0.00000000000E+00 -0.45593999997E+02  0.45594000000E+02  0.51100000000E-03 0. -1.
    9900012    2    1    2    0    0  0.30308951765E+02 -0.68756628007E+01 -0.32606843786E+02  0.46142316992E+02  0.99999929821E+01 0.  0.
        -12    1    1    2    0    0 -0.30308951765E+02  0.68756628007E+01  0.32606843786E+02  0.45045683008E+02  0.00000000000E+00 0.  1.
         11    1    3    3    0    0  0.14022315573E+02 -0.68783476205E+01 -0.12585060528E+02  0.20057934808E+02  0.51100000000E-03 0. -1.
        -11    1    3    3    0    0  0.84401767639E+01  0.16217689410E+01 -0.88472611022E+01  0.12334534753E+02  0.51100000000E-03 0.  1.
         12    1    3    3    0    0  0.78464594278E+01 -0.16190841213E+01 -0.11174522156E+02  0.13749847430E+02  0.00000000000E+00 0. -1.
</event>
<event>
 7    1  0.1541705E-008  0.4614232E+02  0.7816164E-02  0.1320468E+00
        -11   -1    0    0    0    0  0.00000000000E+00  0.00000000000E+00  0.45593999997E+02  0.45594000000E+02  0.51100000000E-03 0.  1.
         11   -1    0    0    0    0 -0.00000000000E+00 -0.00000000000E+00 -0.45593999997E+02  0.45594000000E+02  0.51100000000E-03 0. -1.
    9900012    2    1    2    0    0  0.35540813225E+02 -0.17748454366E+02 -0.21235733607E+02  0.46142318532E+02  0.10000007026E+02 0.  0.
        -12    1    1    2    0    0 -0.35540813225E+02  0.17748454366E+02  0.21235733607E+02  0.45045681468E+02  0.00000000000E+00 0.  1.
         11    1    3    3    0    0  0.81882760767E+01 -0.43872408974E+01 -0.55558037976E+01  0.10824172204E+02  0.51100000000E-03 0. -1.
        -11    1    3    3    0    0  0.14394201201E+01 -0.16775024618E+01 -0.40334801052E+01  0.45994463593E+01  0.51100000000E-03 0.  1.
        -12    1    3    3    0    0  0.25913117029E+02 -0.11683711007E+02 -0.11646449705E+02  0.30718699968E+02  0.00000000000E+00 0.  1.
</event>
<event>
 7    1  0.1541705E-008  0.4614232E+02  0.7816164E-02  0.1320468E+00
        -11   -1    0    0    0    0  0.00000000000E+00  0.00000000000E+00  0.45593999997E+02  0.45594000000E+02  0.51100000000E-03 0.  1.
         11   -1    0    0    0    0 -0.00000000000E+00 -0.00000000000E+00 -0.45593999997E+02  0.45594000000E+02  0.51100000000E-03 0. -1.
    9900012    2    1    2    0    0 -0.30042831086E+02  0.11948070814E+02 -0.31365351722E+02  0.46142318914E+02  0.10000010513E+02 0.  0.
        -12    1    1    2    0    0  0.30042831086E+02 -0.11948070814E+02  0.31365351722E+02  0.45045681086E+02  0.00000000000E+00 0.  1.
         11    1    3    3    0    0 -0.53641441810E+01  0.43738466979E+01 -0.88235333622E+01  0.11214246251E+02  0.51100000000E-03 0. -1.
        -11    1    3    3    0    0 -0.19968572125E+02  0.72265186825E+01 -0.14889976482E+02  0.25936033715E+02  0.51100000000E-03 0.  1.
         12    1    3    3    0    0 -0.47101147806E+01  0.34770543321E+00 -0.76518418776E+01  0.89920389476E+01  0.00000000000E+00 0. -1.
</event>
<event>
 7    1  0.1541705E-008  0.4614232E+02  0.7816164E-02  0.1320468E+00
        -11   -1    0    0    0    0  0.00000000000E+00  0.00000000000E+00  0.45593999997E+02  0.45594000000E+02  0.51100000000E-03 0. -1.
         11   -1    0    0    0    0 -0.00000000000E+00 -0.00000000000E+00 -0.45593999997E+02  0.45594000000E+02  0.51100000000E-03 0.  1.
    9900012    2    1    2    0    0 -0.26987939584E+02  0.36055332110E+02  0.88170137909E+00  0.46142320364E+02  0.10000023738E+02 0.  0.
        -12    1    1    2    0    0  0.26987939584E+02 -0.36055332110E+02 -0.88170137909E+00  0.45045679636E+02  0.00000000000E+00 0.  1.
         11    1    3    3    0    0 -0.83942614650E+01  0.86079206137E+01  0.95893337160E+00  0.12061487317E+02  0.51100000000E-03 0. -1.
        -11    1    3    3    0    0 -0.88966682223E+01  0.18886481319E+02 -0.21233554260E+01  0.20984721123E+02  0.51100000000E-03 0.  1.
        -12    1    3    3    0    0 -0.96970098966E+01  0.85609301769E+01  0.20461234334E+01  0.13096111924E+02  0.00000000000E+00 0.  1.
</event>
<event>
 7    1  0.1541705E-008  0.4614232E+02  0.7816164E-02  0.1320468E+00
        -11   -1    0    0    0    0  0.00000000000E+00  0.00000000000E+00  0.45593999997E+02  0.45594000000E+02  0.51100000000E-03 0.  1.
         11   -1    0    0    0    0 -0.00000000000E+00 -0.00000000000E+00 -0.45593999997E+02  0.45594000000E+02  0.51100000000E-03 0. -1.
    9900012    2    1    2    0    0 -0.77574109773E+01  0.20213434307E+01 -0.44326632134E+02  0.46142316848E+02  0.99999916708E+01 0.  0.
        -12    1    1    2    0    0  0.77574109773E+01 -0.20213434307E+01  0.44326632134E+02  0.45045683152E+02  0.00000000000E+00 0.  1.
         11    1    3    3    0    0 -0.68437768073E+01  0.52126454448E+01 -0.33559021998E+02  0.34644146854E+02  0.51100000000E-03 0. -1.
        -11    1    3    3    0    0  0.37784207696E+00 -0.22331805621E+01 -0.46430896700E+01  0.51660567169E+01  0.51100000000E-03 0.  1.
        -12    1    3    3    0    0 -0.12914762469E+01 -0.95812145201E+00 -0.61245204657E+01  0.63321132767E+01  0.00000000000E+00 0.  1.
</event>
<event>
 7    1  0.1541705E-008  0.4614232E+02  0.7816164E-02  0.1320468E+00
        -11   -1    0    0    0    0  0.00000000000E+00  0.00000000000E+00  0.45593999997E+02  0.45594000000E+02  0.51100000000E-03 0. -1.
         11   -1    0    0    0    0 -0.00000000000E+00 -0.00000000000E+00 -0.45593999997E+02  0.45594000000E+02  0.51100000000E-03 0.  1.
    9900012    2    1    2    0    0  0.39437282898E+02 -0.84878302161E+01  0.20044225820E+02  0.46142317267E+02  0.99999954925E+01 0.  0.
        -12    1    1    2    0    0 -0.39437282898E+02  0.84878302161E+01 -0.20044225820E+02  0.45045682733E+02  0.00000000000E+00 0.  1.
         11    1    3    3    0    0  0.11384855810E+02 -0.46347704607E+01  0.20401903694E+01  0.12460273514E+02  0.51100000000E-03 0.  1.
        -11    1    3    3    0    0  0.18669570454E+02 -0.11686545513E+01  0.11699673648E+02  0.22063566759E+02  0.51100000000E-03 0. -1.
        -12    1    3    3    0    0  0.93828566338E+01 -0.26844052042E+01  0.63043618025E+01  0.11618476993E+02  0.00000000000E+00 0.  1.
</event>
<event>
 7    1  0.1541705E-008  0.4614232E+02  0.7816164E-02  0.1320468E+00
        -11   -1    0    0    0    0  0.00000000000E+00  0.00000000000E+00  0.45593999997E+02  0.45594000000E+02  0.51100000000E-03 0. -1.
         11   -1    0    0    0    0 -0.00000000000E+00 -0.00000000000E+00 -0.45593999997E+02  0.45594000000E+02  0.51100000000E-03 0.  1.
    9900012    2    1    2    0    0  0.22275157010E+02 -0.28235479984E+02  0.27123578132E+02  0.46142318293E+02  0.10000004854E+02 0.  0.
        -12    1    1    2    0    0 -0.22275157010E+02  0.28235479984E+02 -0.27123578132E+02  0.45045681707E+02  0.00000000000E+00 0.  1.
         11    1    3    3    0    0  0.48816767706E+01 -0.54831808716E+01  0.70625825357E+01  0.10187056145E+02  0.51100000000E-03 0. -1.
        -11    1    3    3    0    0  0.26542153330E+01 -0.13402949072E+00  0.30523250794E+01  0.40471609295E+01  0.51100000000E-03 0.  1.
        -12    1    3    3    0    0  0.14739264906E+02 -0.22618269622E+02  0.17008670517E+02  0.31908101219E+02  0.00000000000E+00 0.  1.
</event>
<event>
 7    1  0.1541705E-008  0.4614232E+02  0.7816164E-02  0.1320468E+00
        -11   -1    0    0    0    0  0.00000000000E+00  0.00000000000E+00  0.45593999997E+02  0.45594000000E+02  0.51100000000E-03 0. -1.
         11   -1    0    0    0    0 -0.00000000000E+00 -0.00000000000E+00 -0.45593999997E+02  0.45594000000E+02  0.51100000000E-03 0.  1.
    9900012    2    1    2    0    0  0.26598152184E+02  0.35050664636E+02  0.96489620292E+01  0.46142320304E+02  0.10000023188E+02 0.  0.
        -12    1    1    2    0    0 -0.26598152184E+02 -0.35050664636E+02 -0.96489620292E+01  0.45045679696E+02  0.00000000000E+00 0.  1.
         11    1    3    3    0    0  0.14509551578E+02  0.13499453670E+02  0.78273699131E+01  0.21307981049E+02  0.51100000000E-03 0. -1.
        -11    1    3    3    0    0  0.49333109218E+01  0.77983230650E+01  0.25946370035E-01  0.92277880748E+01  0.51100000000E-03 0.  1.
         12    1    3    3    0    0  0.71552896840E+01  0.13752887901E+02  0.17956457460E+01  0.15606551180E+02  0.00000000000E+00 0. -1.
</event>
<event>
 7    1  0.1541705E-008  0.4614232E+02  0.7816164E-02  0.1320468E+00
        -11   -1    0    0    0    0  0.00000000000E+00  0.00000000000E+00  0.45593999997E+02  0.45594000000E+02  0.51100000000E-03 0. -1.
         11   -1    0    0    0    0 -0.00000000000E+00 -0.00000000000E+00 -0.45593999997E+02  0.45594000000E+02  0.51100000000E-03 0.  1.
    9900012    2    1    2    0    0 -0.42563396057E+02  0.13478038102E+02  0.59844208128E+01  0.46142317772E+02  0.10000000095E+02 0.  0.
        -12    1    1    2    0    0  0.42563396057E+02 -0.13478038102E+02 -0.59844208128E+01  0.45045682228E+02  0.00000000000E+00 0.  1.
         11    1    3    3    0    0 -0.10282318239E+02  0.16404818610E+01  0.25210903873E+01  0.10713222956E+02  0.51100000000E-03 0. -1.
        -11    1    3    3    0    0 -0.10702770951E+02  0.42435052598E+01  0.48906755922E+01  0.12509010790E+02  0.51100000000E-03 0.  1.
        -12    1    3    3    0    0 -0.21578306866E+02  0.75940509808E+01 -0.14273451666E+01  0.22920084026E+02  0.00000000000E+00 0.  1.
</event>
<event>
 7    1  0.1541705E-008  0.4614232E+02  0.7816164E-02  0.1320468E+00
        -11   -1    0    0    0    0  0.00000000000E+00  0.00000000000E+00  0.45593999997E+02  0.45594000000E+02  0.51100000000E-03 0.  1.
         11   -1    0    0    0    0 -0.00000000000E+00 -0.00000000000E+00 -0.45593999997E+02  0.45594000000E+02  0.51100000000E-03 0. -1.
    9900012    2    1    2    0    0  0.25569407874E+02  0.35262757326E+02 -0.11482894432E+02  0.46142317212E+02  0.99999949972E+01 0.  0.
        -12    1    1    2    0    0 -0.25569407874E+02 -0.35262757326E+02  0.11482894432E+02  0.45045682788E+02  0.00000000000E+00 0.  1.
         11    1    3    3    0    0  0.16833713804E+02  0.20079137865E+02 -0.50455219367E+01  0.26683384150E+02  0.51100000000E-03 0. -1.
        -11    1    3    3    0    0  0.90551222321E+01  0.13424324516E+02 -0.69160077345E+01  0.17607921245E+02  0.51100000000E-03 0.  1.
         12    1    3    3    0    0 -0.31942816124E+00  0.17592949452E+01  0.47863523963E+00  0.18510118171E+01  0.00000000000E+00 0. -1.
</event>
<event>
 7    1  0.1541705E-008  0.4614232E+02  0.7816164E-02  0.1320468E+00
        -11   -1    0    0    0    0  0.00000000000E+00  0.00000000000E+00  0.45593999997E+02  0.45594000000E+02  0.51100000000E-03 0. -1.
         11   -1    0    0    0    0 -0.00000000000E+00 -0.00000000000E+00 -0.45593999997E+02  0.45594000000E+02  0.51100000000E-03 0.  1.
    9900012    2    1    2    0    0  0.18949188043E+02  0.93937901416E+01  0.39771830185E+02  0.46142317665E+02  0.99999991263E+01 0.  0.
        -12    1    1    2    0    0 -0.18949188043E+02 -0.93937901416E+01 -0.39771830185E+02  0.45045682335E+02  0.00000000000E+00 0.  1.
         11    1    3    3    0    0  0.69920039834E+01  0.36713090477E+01  0.13587792280E+02  0.15716065956E+02  0.51100000000E-03 0. -1.
        -11    1    3    3    0    0  0.79856967873E+01  0.65378136169E+01  0.23200492593E+02  0.25392463781E+02  0.51100000000E-03 0.  1.
        -12    1    3    3    0    0  0.39714872718E+01 -0.81533252305E+00  0.29835453130E+01  0.50337879284E+01  0.00000000000E+00 0.  1.
</event>
<event>
 7    1  0.1541705E-008  0.4614232E+02  0.7816164E-02  0.1320468E+00
        -11   -1    0    0    0    0  0.00000000000E+00  0.00000000000E+00  0.45593999997E+02  0.45594000000E+02  0.51100000000E-03 0.  1.
         11   -1    0    0    0    0 -0.00000000000E+00 -0.00000000000E+00 -0.45593999997E+02  0.45594000000E+02  0.51100000000E-03 0. -1.
    9900012    2    1    2    0    0  0.76212637518E+01  0.33584382720E+01 -0.44269069131E+02  0.46142320401E+02  0.10000024074E+02 0.  0.
        -12    1    1    2    0    0 -0.76212637518E+01 -0.33584382720E+01  0.44269069131E+02  0.45045679599E+02  0.00000000000E+00 0.  1.
         11    1    3    3    0    0 -0.87071489752E-01  0.31459780560E+01 -0.60559472186E+01  0.68248997318E+01  0.51100000000E-03 0. -1.
        -11    1    3    3    0    0  0.12442557362E+01  0.16617668736E+01 -0.44482464188E+01  0.49088224599E+01  0.51100000000E-03 0.  1.
         12    1    3    3    0    0  0.64640795054E+01 -0.14493066576E+01 -0.33764875494E+02  0.34408598209E+02  0.00000000000E+00 0. -1.
</event>
<event>
 7    1  0.1541705E-008  0.4614232E+02  0.7816164E-02  0.1320468E+00
        -11   -1    0    0    0    0  0.00000000000E+00  0.00000000000E+00  0.45593999997E+02  0.45594000000E+02  0.51100000000E-03 0.  1.
         11   -1    0    0    0    0 -0.00000000000E+00 -0.00000000000E+00 -0.45593999997E+02  0.45594000000E+02  0.51100000000E-03 0. -1.
    9900012    2    1    2    0    0  0.19180320854E+02 -0.24727167919E+02 -0.32400549246E+02  0.46142321708E+02  0.10000035991E+02 0.  0.
        -12    1    1    2    0    0 -0.19180320854E+02  0.24727167919E+02  0.32400549246E+02  0.45045678292E+02  0.00000000000E+00 0.  1.
         11    1    3    3    0    0  0.14873991211E+02 -0.20540893985E+02 -0.22062497517E+02  0.33614249020E+02  0.51100000000E-03 0. -1.
        -11    1    3    3    0    0  0.14129506735E+01 -0.60680791445E+00 -0.41996176751E+00  0.15940557073E+01  0.51100000000E-03 0.  1.
         12    1    3    3    0    0  0.28933789690E+01 -0.35794660198E+01 -0.99180899617E+01  0.10934016981E+02  0.00000000000E+00 0. -1.
</event>
<event>
 7    1  0.1541705E-008  0.4614232E+02  0.7816164E-02  0.1320468E+00
        -11   -1    0    0    0    0  0.00000000000E+00  0.00000000000E+00  0.45593999997E+02  0.45594000000E+02  0.51100000000E-03 0.  1.
         11   -1    0    0    0    0 -0.00000000000E+00 -0.00000000000E+00 -0.45593999997E+02  0.45594000000E+02  0.51100000000E-03 0. -1.
    9900012    2    1    2    0    0 -0.25184997064E+02  0.30720603675E+02  0.21238498746E+02  0.46142318783E+02  0.10000009322E+02 0.  0.
        -12    1    1    2    0    0  0.25184997064E+02 -0.30720603675E+02 -0.21238498746E+02  0.45045681217E+02  0.00000000000E+00 0.  1.
         11    1    3    3    0    0 -0.16520889113E+02  0.24967281839E+02  0.12507976921E+02  0.32446177378E+02  0.51100000000E-03 0. -1.
        -11    1    3    3    0    0 -0.66315264154E+01  0.34631248053E+01  0.59291512967E+01  0.95459526175E+01  0.51100000000E-03 0.  1.
        -12    1    3    3    0    0 -0.20325815359E+01  0.22901970304E+01  0.28013705286E+01  0.41501887881E+01  0.00000000000E+00 0.  1.
</event>
<event>
 7    1  0.1541705E-008  0.4614232E+02  0.7816164E-02  0.1320468E+00
        -11   -1    0    0    0    0  0.00000000000E+00  0.00000000000E+00  0.45593999997E+02  0.45594000000E+02  0.51100000000E-03 0. -1.
         11   -1    0    0    0    0 -0.00000000000E+00 -0.00000000000E+00 -0.45593999997E+02  0.45594000000E+02  0.51100000000E-03 0.  1.
    9900012    2    1    2    0    0  0.83259411449E+01 -0.15432988189E+02  0.41492351848E+02  0.46142315609E+02  0.99999803754E+01 0.  0.
        -12    1    1    2    0    0 -0.83259411449E+01  0.15432988189E+02 -0.41492351848E+02  0.45045684391E+02  0.00000000000E+00 0.  1.
         11    1    3    3    0    0  0.62220227341E+01 -0.10068566176E+02  0.16781894981E+02  0.20535861101E+02  0.51100000000E-03 0. -1.
        -11    1    3    3    0    0  0.30038718702E+01 -0.37773792674E+01  0.19401633744E+02  0.19992879546E+02  0.51100000000E-03 0.  1.
        -12    1    3    3    0    0 -0.89995345936E+00 -0.15870427451E+01  0.53088231228E+01  0.56135749619E+01  0.00000000000E+00 0.  1.
</event>
<event>
 7    1  0.1541705E-008  0.4614232E+02  0.7816164E-02  0.1320468E+00
        -11   -1    0    0    0    0  0.00000000000E+00  0.00000000000E+00  0.45593999997E+02  0.45594000000E+02  0.51100000000E-03 0. -1.
         11   -1    0    0    0    0 -0.00000000000E+00 -0.00000000000E+00 -0.45593999997E+02  0.45594000000E+02  0.51100000000E-03 0.  1.
    9900012    2    1    2    0    0  0.37100661609E+02  0.18276405075E+02  0.17850135502E+02  0.46142318612E+02  0.10000007756E+02 0.  0.
        -12    1    1    2    0    0 -0.37100661609E+02 -0.18276405075E+02 -0.17850135502E+02  0.45045681388E+02  0.00000000000E+00 0.  1.
         11    1    3    3    0    0  0.20736785277E+02  0.88866679129E+01  0.90034744427E+01  0.24290938280E+02  0.51100000000E-03 0. -1.
        -11    1    3    3    0    0  0.22058027953E+00  0.23270707146E+01  0.71108853563E+00  0.24432684947E+01  0.51100000000E-03 0.  1.
        -12    1    3    3    0    0  0.16143296052E+02  0.70626664475E+01  0.81355725242E+01  0.19408111837E+02  0.00000000000E+00 0.  1.
</event>
<event>
 7    1  0.1541705E-008  0.4614231E+02  0.7816164E-02  0.1320468E+00
        -11   -1    0    0    0    0  0.00000000000E+00  0.00000000000E+00  0.45593999997E+02  0.45594000000E+02  0.51100000000E-03 0. -1.
         11   -1    0    0    0    0 -0.00000000000E+00 -0.00000000000E+00 -0.45593999997E+02  0.45594000000E+02  0.51100000000E-03 0.  1.
    9900012    2    1    2    0    0 -0.28925179669E+01 -0.22197140361E+01  0.44897884629E+02  0.46142313916E+02  0.99999649391E+01 0.  0.
        -12    1    1    2    0    0  0.28925179669E+01  0.22197140361E+01 -0.44897884629E+02  0.45045686084E+02  0.00000000000E+00 0.  1.
         11    1    3    3    0    0 -0.31174929593E+01 -0.83551288564E+00  0.11819544749E+02  0.12252284785E+02  0.51100000000E-03 0. -1.
        -11    1    3    3    0    0  0.39387210754E+00  0.20172175769E+00 -0.26020593739E+00  0.51335591513E+00  0.51100000000E-03 0.  1.
         12    1    3    3    0    0 -0.16889711515E+00 -0.15859229082E+01  0.33338545818E+02  0.33376673216E+02  0.00000000000E+00 0. -1.
</event>
<event>
 7    1  0.1541705E-008  0.4614232E+02  0.7816164E-02  0.1320468E+00
        -11   -1    0    0    0    0  0.00000000000E+00  0.00000000000E+00  0.45593999997E+02  0.45594000000E+02  0.51100000000E-03 0. -1.
         11   -1    0    0    0    0 -0.00000000000E+00 -0.00000000000E+00 -0.45593999997E+02  0.45594000000E+02  0.51100000000E-03 0.  1.
    9900012    2    1    2    0    0 -0.34093033692E+02  0.70358902397E+01  0.28588016447E+02  0.46142318940E+02  0.10000010750E+02 0.  0.
        -12    1    1    2    0    0  0.34093033692E+02 -0.70358902397E+01 -0.28588016447E+02  0.45045681060E+02  0.00000000000E+00 0.  1.
         11    1    3    3    0    0 -0.23297193201E+02  0.59526052853E+01  0.23428306035E+02  0.33571986010E+02  0.51100000000E-03 0. -1.
        -11    1    3    3    0    0  0.40578487571E-01  0.57721601499E+00  0.55506060044E-01  0.58129693397E+00  0.51100000000E-03 0.  1.
         12    1    3    3    0    0 -0.10836418979E+02  0.50606893944E+00  0.51042043521E+01  0.11989035996E+02  0.00000000000E+00 0. -1.
</event>
<event>
 7    1  0.1541705E-008  0.4614232E+02  0.7816164E-02  0.1320468E+00
        -11   -1    0    0    0    0  0.00000000000E+00  0.00000000000E+00  0.45593999997E+02  0.45594000000E+02  0.51100000000E-03 0.  1.
         11   -1    0    0    0    0 -0.00000000000E+00 -0.00000000000E+00 -0.45593999997E+02  0.45594000000E+02  0.51100000000E-03 0. -1.
    9900012    2    1    2    0    0  0.39662977423E+01  0.21383216050E+02 -0.39447941293E+02  0.46142317425E+02  0.99999969371E+01 0.  0.
        -12    1    1    2    0    0 -0.39662977423E+01 -0.21383216050E+02  0.39447941293E+02  0.45045682575E+02  0.00000000000E+00 0.  1.
         11    1    3    3    0    0  0.44489194729E+01  0.14593689853E+02 -0.28146284865E+02  0.32015340385E+02  0.51100000000E-03 0. -1.
        -11    1    3    3    0    0 -0.20132723623E+01  0.30804028663E+01 -0.24856810138E+01  0.44408059840E+01  0.51100000000E-03 0.  1.
        -12    1    3    3    0    0  0.15306506317E+01  0.37091233306E+01 -0.88159754135E+01  0.96861710562E+01  0.00000000000E+00 0.  1.
</event>
<event>
 7    1  0.1541705E-008  0.4614232E+02  0.7816164E-02  0.1320468E+00
        -11   -1    0    0    0    0  0.00000000000E+00  0.00000000000E+00  0.45593999997E+02  0.45594000000E+02  0.51100000000E-03 0. -1.
         11   -1    0    0    0    0 -0.00000000000E+00 -0.00000000000E+00 -0.45593999997E+02  0.45594000000E+02  0.51100000000E-03 0.  1.
    9900012    2    1    2    0    0 -0.30382616935E+02  0.14968437691E+02  0.29697744705E+02  0.46142316752E+02  0.99999907969E+01 0.  0.
        -12    1    1    2    0    0  0.30382616935E+02 -0.14968437691E+02 -0.29697744705E+02  0.45045683248E+02  0.00000000000E+00 0.  1.
         11    1    3    3    0    0 -0.11075606867E+02  0.73982361423E+01  0.17185026658E+02  0.21742311446E+02  0.51100000000E-03 0. -1.
        -11    1    3    3    0    0 -0.12682773689E+02  0.35351412971E+01  0.72981106268E+01  0.15053650435E+02  0.51100000000E-03 0.  1.
         12    1    3    3    0    0 -0.66242363784E+01  0.40350602511E+01  0.52146074204E+01  0.93463548711E+01  0.00000000000E+00 0. -1.
</event>
<event>
 7    1  0.1541705E-008  0.4614232E+02  0.7816164E-02  0.1320468E+00
        -11   -1    0    0    0    0  0.00000000000E+00  0.00000000000E+00  0.45593999997E+02  0.45594000000E+02  0.51100000000E-03 0.  1.
         11   -1    0    0    0    0 -0.00000000000E+00 -0.00000000000E+00 -0.45593999997E+02  0.45594000000E+02  0.51100000000E-03 0. -1.
    9900012    2    1    2    0    0 -0.56046599603E+01 -0.31211568403E+02 -0.31992798233E+02  0.46142319250E+02  0.10000013578E+02 0.  0.
        -12    1    1    2    0    0  0.56046599603E+01  0.31211568403E+02  0.31992798233E+02  0.45045680750E+02  0.00000000000E+00 0.  1.
         11    1    3    3    0    0 -0.60723880814E+00 -0.11263861959E+02 -0.11164385103E+02  0.15870942637E+02  0.51100000000E-03 0. -1.
        -11    1    3    3    0    0 -0.32979980501E+01 -0.82549270980E+01 -0.40959490812E+01  0.97876152187E+01  0.51100000000E-03 0.  1.
        -12    1    3    3    0    0 -0.16994231020E+01 -0.11692779346E+02 -0.16732464049E+02  0.20483761394E+02  0.00000000000E+00 0.  1.
</event>
<event>
 7    1  0.1541705E-008  0.4614232E+02  0.7816164E-02  0.1320468E+00
        -11   -1    0    0    0    0  0.00000000000E+00  0.00000000000E+00  0.45593999997E+02  0.45594000000E+02  0.51100000000E-03 0. -1.
         11   -1    0    0    0    0 -0.00000000000E+00 -0.00000000000E+00 -0.45593999997E+02  0.45594000000E+02  0.51100000000E-03 0.  1.
    9900012    2    1    2    0    0 -0.28927314390E+02 -0.29386140184E+02 -0.18132262119E+02  0.46142315609E+02  0.99999803752E+01 0.  0.
        -12    1    1    2    0    0  0.28927314390E+02  0.29386140184E+02  0.18132262119E+02  0.45045684391E+02  0.00000000000E+00 0.  1.
         11    1    3    3    0    0 -0.24002704943E+00 -0.14927488706E+01  0.33247374003E+00  0.15480475523E+01  0.51100000000E-03 0. -1.
        -11    1    3    3    0    0 -0.10640105137E+02 -0.84763163981E+01 -0.30927225164E+01  0.13950796029E+02  0.51100000000E-03 0.  1.
        -12    1    3    3    0    0 -0.18047182204E+02 -0.19417074915E+02 -0.15372013342E+02  0.30643472028E+02  0.00000000000E+00 0.  1.
</event>
<event>
 7    1  0.1541705E-008  0.4614232E+02  0.7816164E-02  0.1320468E+00
        -11   -1    0    0    0    0  0.00000000000E+00  0.00000000000E+00  0.45593999997E+02  0.45594000000E+02  0.51100000000E-03 0. -1.
         11   -1    0    0    0    0 -0.00000000000E+00 -0.00000000000E+00 -0.45593999997E+02  0.45594000000E+02  0.51100000000E-03 0.  1.
    9900012    2    1    2    0    0  0.41297622706E+02 -0.74689705651E+01  0.16365643844E+02  0.46142318066E+02  0.10000002782E+02 0.  0.
        -12    1    1    2    0    0 -0.41297622706E+02  0.74689705651E+01 -0.16365643844E+02  0.45045681934E+02  0.00000000000E+00 0.  1.
         11    1    3    3    0    0  0.13687590756E+02 -0.22629213946E+01  0.80522561430E+01  0.16040878504E+02  0.51100000000E-03 0. -1.
        -11    1    3    3    0    0  0.67434368038E+01 -0.28193804024E+01 -0.49642264121E+00  0.73259321236E+01  0.51100000000E-03 0.  1.
        -12    1    3    3    0    0  0.20866595146E+02 -0.23866687681E+01  0.88098103424E+01  0.22775507438E+02  0.00000000000E+00 0.  1.
</event>
<event>
 7    1  0.1541705E-008  0.4614232E+02  0.7816164E-02  0.1320468E+00
        -11   -1    0    0    0    0  0.00000000000E+00  0.00000000000E+00  0.45593999997E+02  0.45594000000E+02  0.51100000000E-03 0.  1.
         11   -1    0    0    0    0 -0.00000000000E+00 -0.00000000000E+00 -0.45593999997E+02  0.45594000000E+02  0.51100000000E-03 0. -1.
    9900012    2    1    2    0    0 -0.26453318807E+02 -0.31640564347E+01 -0.36322502141E+02  0.46142317734E+02  0.99999997511E+01 0.  0.
        -12    1    1    2    0    0  0.26453318807E+02  0.31640564347E+01  0.36322502141E+02  0.45045682266E+02  0.00000000000E+00 0.  1.
         11    1    3    3    0    0 -0.32378912415E+01 -0.40063292733E+00 -0.23040479425E+01  0.39941311467E+01  0.51100000000E-03 0. -1.
        -11    1    3    3    0    0 -0.59484879227E+01 -0.45767174669E+01 -0.10986113253E+02  0.13305094363E+02  0.51100000000E-03 0.  1.
        -12    1    3    3    0    0 -0.17266939643E+02  0.18132939596E+01 -0.23032340945E+02  0.28843092224E+02  0.00000000000E+00 0.  1.
</event>
<event>
 7    1  0.1541705E-008  0.4614232E+02  0.7816164E-02  0.1320468E+00
        -11   -1    0    0    0    0  0.00000000000E+00  0.00000000000E+00  0.45593999997E+02  0.45594000000E+02  0.51100000000E-03 0.  1.
         11   -1    0    0    0    0 -0.00000000000E+00 -0.00000000000E+00 -0.45593999997E+02  0.45594000000E+02  0.51100000000E-03 0. -1.
    9900012    2    1    2    0    0  0.16868828164E+02 -0.23194683136E+02 -0.34735612851E+02  0.46142317748E+02  0.99999998767E+01 0.  0.
        -12    1    1    2    0    0 -0.16868828164E+02  0.23194683136E+02  0.34735612851E+02  0.45045682252E+02  0.00000000000E+00 0.  1.
         11    1    3    3    0    0  0.30941729580E+01 -0.81462598509E+01 -0.12560923250E+02  0.15287650212E+02  0.51100000000E-03 0. -1.
        -11    1    3    3    0    0  0.31182016925E+01 -0.20531901190E+01 -0.81545800124E+01  0.89686089724E+01  0.51100000000E-03 0.  1.
        -12    1    3    3    0    0  0.10656453514E+02 -0.12995233167E+02 -0.14020109589E+02  0.21886058563E+02  0.00000000000E+00 0.  1.
</event>
<event>
 7    1  0.1541705E-008  0.4614232E+02  0.7816164E-02  0.1320468E+00
        -11   -1    0    0    0    0  0.00000000000E+00  0.00000000000E+00  0.45593999997E+02  0.45594000000E+02  0.51100000000E-03 0.  1.
         11   -1    0    0    0    0 -0.00000000000E+00 -0.00000000000E+00 -0.45593999997E+02  0.45594000000E+02  0.51100000000E-03 0. -1.
    9900012    2    1    2    0    0  0.26938395486E+02  0.10010266908E+01 -0.36089255022E+02  0.46142317256E+02  0.99999953980E+01 0.  0.
        -12    1    1    2    0    0 -0.26938395486E+02 -0.10010266908E+01  0.36089255022E+02  0.45045682744E+02  0.00000000000E+00 0.  1.
         11    1    3    3    0    0  0.12938551296E+00 -0.72492085325E+00  0.37496040211E+00  0.82634521764E+00  0.51100000000E-03 0.  1.
        -11    1    3    3    0    0  0.10487970594E+02  0.20173193235E+00 -0.13314489948E+02  0.16950335271E+02  0.51100000000E-03 0. -1.
        -12    1    3    3    0    0  0.16321039379E+02  0.15242156117E+01 -0.23149725476E+02  0.28365636768E+02  0.00000000000E+00 0.  1.
</event>
<event>
 7    1  0.1541705E-008  0.4614232E+02  0.7816164E-02  0.1320468E+00
        -11   -1    0    0    0    0  0.00000000000E+00  0.00000000000E+00  0.45593999997E+02  0.45594000000E+02  0.51100000000E-03 0.  1.
         11   -1    0    0    0    0 -0.00000000000E+00 -0.00000000000E+00 -0.45593999997E+02  0.45594000000E+02  0.51100000000E-03 0. -1.
    9900012    2    1    2    0    0 -0.38149272267E+02 -0.21330117768E+02  0.10898284950E+02  0.46142317484E+02  0.99999974693E+01 0.  0.
        -12    1    1    2    0    0  0.38149272267E+02  0.21330117768E+02 -0.10898284950E+02  0.45045682516E+02  0.00000000000E+00 0.  1.
         11    1    3    3    0    0 -0.11034592262E+02 -0.39748734573E+01  0.48957644674E+01  0.12709459287E+02  0.51100000000E-03 0. -1.
        -11    1    3    3    0    0 -0.26635723775E+02 -0.17159615973E+02  0.46999383289E+01  0.32031291293E+02  0.51100000000E-03 0.  1.
        -12    1    3    3    0    0 -0.47895623029E+00 -0.19562833790E+00  0.13025821537E+01  0.14015669033E+01  0.00000000000E+00 0.  1.
</event>
<event>
 7    1  0.1541705E-008  0.4614232E+02  0.7816164E-02  0.1320468E+00
        -11   -1    0    0    0    0  0.00000000000E+00  0.00000000000E+00  0.45593999997E+02  0.45594000000E+02  0.51100000000E-03 0.  1.
         11   -1    0    0    0    0 -0.00000000000E+00 -0.00000000000E+00 -0.45593999997E+02  0.45594000000E+02  0.51100000000E-03 0. -1.
    9900012    2    1    2    0    0 -0.31612627328E+02 -0.31990618298E+02 -0.25210498621E+01  0.46142316987E+02  0.99999929432E+01 0.  0.
        -12    1    1    2    0    0  0.31612627328E+02  0.31990618298E+02  0.25210498621E+01  0.45045683013E+02  0.00000000000E+00 0.  1.
         11    1    3    3    0    0 -0.28779012613E+01 -0.44334121167E+01 -0.87213121721E+00  0.53570581280E+01  0.51100000000E-03 0. -1.
        -11    1    3    3    0    0 -0.22823068143E+02 -0.17465517738E+02  0.11396360043E+01  0.28761702310E+02  0.51100000000E-03 0.  1.
        -12    1    3    3    0    0 -0.59116579239E+01 -0.10091688444E+02 -0.27885546492E+01  0.12023556549E+02  0.00000000000E+00 0.  1.
</event>
<event>
 7    1  0.1541705E-008  0.4614232E+02  0.7816164E-02  0.1320468E+00
        -11   -1    0    0    0    0  0.00000000000E+00  0.00000000000E+00  0.45593999997E+02  0.45594000000E+02  0.51100000000E-03 0.  1.
         11   -1    0    0    0    0 -0.00000000000E+00 -0.00000000000E+00 -0.45593999997E+02  0.45594000000E+02  0.51100000000E-03 0. -1.
    9900012    2    1    2    0    0  0.30855916309E+02 -0.16736690467E+02 -0.28229578127E+02  0.46142318073E+02  0.10000002841E+02 0.  0.
        -12    1    1    2    0    0 -0.30855916309E+02  0.16736690467E+02  0.28229578127E+02  0.45045681927E+02  0.00000000000E+00 0.  1.
         11    1    3    3    0    0  0.10851023808E+02 -0.37922537821E+01 -0.62936651370E+01  0.13104813144E+02  0.51100000000E-03 0. -1.
        -11    1    3    3    0    0  0.79838363839E+01 -0.38635968311E+01 -0.12261792086E+02  0.15133425564E+02  0.51100000000E-03 0.  1.
         12    1    3    3    0    0  0.12021056118E+02 -0.90808398533E+01 -0.96741209040E+01  0.17904079365E+02  0.00000000000E+00 0. -1.
</event>
<event>
 7    1  0.1541705E-008  0.4614232E+02  0.7816164E-02  0.1320468E+00
        -11   -1    0    0    0    0  0.00000000000E+00  0.00000000000E+00  0.45593999997E+02  0.45594000000E+02  0.51100000000E-03 0.  1.
         11   -1    0    0    0    0 -0.00000000000E+00 -0.00000000000E+00 -0.45593999997E+02  0.45594000000E+02  0.51100000000E-03 0. -1.
    9900012    2    1    2    0    0  0.20721097367E+01  0.33220079630E+02 -0.30352037831E+02  0.46142317300E+02  0.99999957951E+01 0.  0.
        -12    1    1    2    0    0 -0.20721097367E+01 -0.33220079630E+02  0.30352037831E+02  0.45045682700E+02  0.00000000000E+00 0.  1.
         11    1    3    3    0    0 -0.23848487132E+01  0.10480543197E+02 -0.62403760113E+01  0.12428659707E+02  0.51100000000E-03 0. -1.
        -11    1    3    3    0    0 -0.30814217539E+00  0.25304388699E+00  0.33776528135E-02  0.39874111734E+00  0.51100000000E-03 0.  1.
         12    1    3    3    0    0  0.47651006253E+01  0.22486492546E+02 -0.24115039473E+02  0.33314916476E+02  0.00000000000E+00 0. -1.
</event>
<event>
 7    1  0.1541705E-008  0.4614232E+02  0.7816164E-02  0.1320468E+00
        -11   -1    0    0    0    0  0.00000000000E+00  0.00000000000E+00  0.45593999997E+02  0.45594000000E+02  0.51100000000E-03 0. -1.
         11   -1    0    0    0    0 -0.00000000000E+00 -0.00000000000E+00 -0.45593999997E+02  0.45594000000E+02  0.51100000000E-03 0.  1.
    9900012    2    1    2    0    0  0.10635207521E+02  0.43297874802E+02 -0.64264932343E+01  0.46142318556E+02  0.10000007251E+02 0.  0.
        -12    1    1    2    0    0 -0.10635207521E+02 -0.43297874802E+02  0.64264932343E+01  0.45045681444E+02  0.00000000000E+00 0.  1.
         11    1    3    3    0    0  0.69038294232E+01  0.34276339253E+02 -0.20731925195E+01  0.35026110557E+02  0.51100000000E-03 0. -1.
        -11    1    3    3    0    0  0.24265100169E+01  0.22689464121E+01 -0.18127508306E+01  0.37844596072E+01  0.51100000000E-03 0.  1.
         12    1    3    3    0    0  0.13048680813E+01  0.67525891378E+01 -0.25405498841E+01  0.73317483923E+01  0.00000000000E+00 0. -1.
</event>
<event>
 7    1  0.1541705E-008  0.4614232E+02  0.7816164E-02  0.1320468E+00
        -11   -1    0    0    0    0  0.00000000000E+00  0.00000000000E+00  0.45593999997E+02  0.45594000000E+02  0.51100000000E-03 0.  1.
         11   -1    0    0    0    0 -0.00000000000E+00 -0.00000000000E+00 -0.45593999997E+02  0.45594000000E+02  0.51100000000E-03 0. -1.
    9900012    2    1    2    0    0  0.17048787167E+02 -0.28652328917E+02 -0.30290203392E+02  0.46142317435E+02  0.99999970272E+01 0.  0.
        -12    1    1    2    0    0 -0.17048787167E+02  0.28652328917E+02  0.30290203392E+02  0.45045682565E+02  0.00000000000E+00 0.  1.
         11    1    3    3    0    0 -0.41603845370E+00 -0.10776722416E+00 -0.87322947244E+00  0.97325831218E+00  0.51100000000E-03 0. -1.
        -11    1    3    3    0    0  0.50721318251E+01 -0.74690792098E+01 -0.39157851491E+01  0.98410893243E+01  0.51100000000E-03 0.  1.
         12    1    3    3    0    0  0.12392693795E+02 -0.21075482483E+02 -0.25501188771E+02  0.35327969799E+02  0.00000000000E+00 0. -1.
</event>
<event>
 7    1  0.1541705E-008  0.4614232E+02  0.7816164E-02  0.1320468E+00
        -11   -1    0    0    0    0  0.00000000000E+00  0.00000000000E+00  0.45593999997E+02  0.45594000000E+02  0.51100000000E-03 0. -1.
         11   -1    0    0    0    0 -0.00000000000E+00 -0.00000000000E+00 -0.45593999997E+02  0.45594000000E+02  0.51100000000E-03 0.  1.
    9900012    2    1    2    0    0  0.32472548669E+02 -0.11326217173E+02  0.29092335836E+02  0.46142316334E+02  0.99999869871E+01 0.  0.
        -12    1    1    2    0    0 -0.32472548669E+02  0.11326217173E+02 -0.29092335836E+02  0.45045683666E+02  0.00000000000E+00 0.  1.
         11    1    3    3    0    0  0.13891931796E+02 -0.44342055787E+01  0.15025895715E+02  0.20938612429E+02  0.51100000000E-03 0. -1.
        -11    1    3    3    0    0  0.11121635217E+02 -0.74963087952E+01  0.95216936497E+01  0.16448345378E+02  0.51100000000E-03 0.  1.
        -12    1    3    3    0    0  0.74589816561E+01  0.60429720049E+00  0.45447464710E+01  0.87553585271E+01  0.00000000000E+00 0.  1.
</event>
<event>
 7    1  0.1541705E-008  0.4614232E+02  0.7816164E-02  0.1320468E+00
        -11   -1    0    0    0    0  0.00000000000E+00  0.00000000000E+00  0.45593999997E+02  0.45594000000E+02  0.51100000000E-03 0. -1.
         11   -1    0    0    0    0 -0.00000000000E+00 -0.00000000000E+00 -0.45593999997E+02  0.45594000000E+02  0.51100000000E-03 0.  1.
    9900012    2    1    2    0    0 -0.37159285631E+02 -0.20834963051E+00  0.25460904055E+02  0.46142317039E+02  0.99999934116E+01 0.  0.
        -12    1    1    2    0    0  0.37159285631E+02  0.20834963051E+00 -0.25460904055E+02  0.45045682961E+02  0.00000000000E+00 0.  1.
         11    1    3    3    0    0 -0.11418401774E+02  0.40363655519E+01  0.57483836626E+01  0.13405821904E+02  0.51100000000E-03 0. -1.
        -11    1    3    3    0    0 -0.13738430589E+02 -0.28690108350E+01  0.11234722627E+02  0.17977616388E+02  0.51100000000E-03 0.  1.
         12    1    3    3    0    0 -0.12002453268E+02 -0.13757043474E+01  0.84777977646E+01  0.14758878746E+02  0.00000000000E+00 0. -1.
</event>
<event>
 7    1  0.1541705E-008  0.4614232E+02  0.7816164E-02  0.1320468E+00
        -11   -1    0    0    0    0  0.00000000000E+00  0.00000000000E+00  0.45593999997E+02  0.45594000000E+02  0.51100000000E-03 0.  1.
         11   -1    0    0    0    0 -0.00000000000E+00 -0.00000000000E+00 -0.45593999997E+02  0.45594000000E+02  0.51100000000E-03 0. -1.
    9900012    2    1    2    0    0  0.21616580925E+02 -0.63273919696E+00 -0.39515015526E+02  0.46142318944E+02  0.10000010786E+02 0.  0.
        -12    1    1    2    0    0 -0.21616580925E+02  0.63273919696E+00  0.39515015526E+02  0.45045681056E+02  0.00000000000E+00 0.  1.
         11    1    3    3    0    0  0.14255228854E+02 -0.37216179639E+01 -0.24663207102E+02  0.28728657727E+02  0.51100000000E-03 0. -1.
        -11    1    3    3    0    0  0.38828789399E+01  0.81081780600E+00 -0.11192908119E+02  0.11874989129E+02  0.51100000000E-03 0.  1.
        -12    1    3    3    0    0  0.34784731309E+01  0.22780609610E+01 -0.36589003045E+01  0.55386720884E+01  0.00000000000E+00 0.  1.
</event>
<event>
 7    1  0.1541705E-008  0.4614231E+02  0.7816164E-02  0.1320468E+00
        -11   -1    0    0    0    0  0.00000000000E+00  0.00000000000E+00  0.45593999997E+02  0.45594000000E+02  0.51100000000E-03 0.  1.
         11   -1    0    0    0    0 -0.00000000000E+00 -0.00000000000E+00 -0.45593999997E+02  0.45594000000E+02  0.51100000000E-03 0. -1.
    9900012    2    1    2    0    0  0.34176826030E+02  0.11928159482E+02 -0.26810023546E+02  0.46142314428E+02  0.99999696106E+01 0.  0.
        -12    1    1    2    0    0 -0.34176826030E+02 -0.11928159482E+02  0.26810023546E+02  0.45045685572E+02  0.00000000000E+00 0.  1.
         11    1    3    3    0    0  0.91863420688E+01  0.63376079027E+01 -0.45372779398E+01  0.12047449767E+02  0.51100000000E-03 0.  1.
        -11    1    3    3    0    0  0.13664757357E+02  0.46159002135E+01 -0.11730975908E+02  0.18591608979E+02  0.51100000000E-03 0. -1.
        -12    1    3    3    0    0  0.11325726604E+02  0.97465136601E+00 -0.10541769697E+02  0.15503255682E+02  0.00000000000E+00 0.  1.
</event>
<event>
 7    1  0.1541705E-008  0.4614231E+02  0.7816164E-02  0.1320468E+00
        -11   -1    0    0    0    0  0.00000000000E+00  0.00000000000E+00  0.45593999997E+02  0.45594000000E+02  0.51100000000E-03 0.  1.
         11   -1    0    0    0    0 -0.00000000000E+00 -0.00000000000E+00 -0.45593999997E+02  0.45594000000E+02  0.51100000000E-03 0. -1.
    9900012    2    1    2    0    0  0.22348120522E+02  0.15548384439E+02 -0.35887644465E+02  0.46142314582E+02  0.99999710136E+01 0.  0.
        -12    1    1    2    0    0 -0.22348120522E+02 -0.15548384439E+02  0.35887644465E+02  0.45045685418E+02  0.00000000000E+00 0.  1.
         11    1    3    3    0    0  0.87450434928E+01  0.21493123868E+01 -0.13214055205E+02  0.15990828142E+02  0.51100000000E-03 0. -1.
        -11    1    3    3    0    0  0.64337106272E+00 -0.19181977850E+00  0.48805136861E-01  0.67312952266E+00  0.51100000000E-03 0.  1.
         12    1    3    3    0    0  0.12959705966E+02  0.13590891831E+02 -0.22722394396E+02  0.29478356918E+02  0.00000000000E+00 0. -1.
</event>
<event>
 7    1  0.1541705E-008  0.4614232E+02  0.7816164E-02  0.1320468E+00
        -11   -1    0    0    0    0  0.00000000000E+00  0.00000000000E+00  0.45593999997E+02  0.45594000000E+02  0.51100000000E-03 0.  1.
         11   -1    0    0    0    0 -0.00000000000E+00 -0.00000000000E+00 -0.45593999997E+02  0.45594000000E+02  0.51100000000E-03 0. -1.
    9900012    2    1    2    0    0  0.31791282129E+02  0.28704310873E+02 -0.13945981251E+02  0.46142317908E+02  0.10000001341E+02 0.  0.
        -12    1    1    2    0    0 -0.31791282129E+02 -0.28704310873E+02  0.13945981251E+02  0.45045682092E+02  0.00000000000E+00 0.  1.
         11    1    3    3    0    0  0.21974605324E+01  0.11267093891E+01 -0.20987332995E+01  0.32408314616E+01  0.51100000000E-03 0.  1.
        -11    1    3    3    0    0  0.13770279631E+02  0.12299788994E+02 -0.13035859711E+01  0.18509585275E+02  0.51100000000E-03 0. -1.
         12    1    3    3    0    0  0.15823541966E+02  0.15277812489E+02 -0.10543661980E+02  0.24391901171E+02  0.00000000000E+00 0. -1.
</event>
<event>
 7    1  0.1541705E-008  0.4614232E+02  0.7816164E-02  0.1320468E+00
        -11   -1    0    0    0    0  0.00000000000E+00  0.00000000000E+00  0.45593999997E+02  0.45594000000E+02  0.51100000000E-03 0.  1.
         11   -1    0    0    0    0 -0.00000000000E+00 -0.00000000000E+00 -0.45593999997E+02  0.45594000000E+02  0.51100000000E-03 0. -1.
    9900012    2    1    2    0    0 -0.13996844353E+02 -0.29478526094E+02 -0.31051868643E+02  0.46142315426E+02  0.99999787092E+01 0.  0.
        -12    1    1    2    0    0  0.13996844353E+02  0.29478526094E+02  0.31051868643E+02  0.45045684574E+02  0.00000000000E+00 0.  1.
         11    1    3    3    0    0 -0.10374940307E+02 -0.13152013208E+02 -0.16901135403E+02  0.23796285760E+02  0.51100000000E-03 0. -1.
        -11    1    3    3    0    0 -0.38761141967E+00 -0.20352369438E+01 -0.14593811046E+00  0.20769521476E+01  0.51100000000E-03 0.  1.
         12    1    3    3    0    0 -0.32342926263E+01 -0.14291275942E+02 -0.14004795130E+02  0.20269077519E+02  0.00000000000E+00 0. -1.
</event>
<event>
 7    1  0.1541705E-008  0.4614232E+02  0.7816164E-02  0.1320468E+00
        -11   -1    0    0    0    0  0.00000000000E+00  0.00000000000E+00  0.45593999997E+02  0.45594000000E+02  0.51100000000E-03 0. -1.
         11   -1    0    0    0    0 -0.00000000000E+00 -0.00000000000E+00 -0.45593999997E+02  0.45594000000E+02  0.51100000000E-03 0.  1.
    9900012    2    1    2    0    0 -0.86988913598E+01 -0.43936240423E+02  0.48009928014E+01  0.46142318017E+02  0.10000002338E+02 0.  0.
        -12    1    1    2    0    0  0.86988913598E+01  0.43936240423E+02 -0.48009928014E+01  0.45045681983E+02  0.00000000000E+00 0.  1.
         11    1    3    3    0    0 -0.10429847864E+01 -0.18214271414E+02  0.25886376245E+01  0.18426843067E+02  0.51100000000E-03 0. -1.
        -11    1    3    3    0    0 -0.43052846150E+01 -0.21409472850E+02  0.34682737833E+01  0.22111759917E+02  0.51100000000E-03 0.  1.
        -12    1    3    3    0    0 -0.33506219585E+01 -0.43124961591E+01 -0.12559186064E+01  0.56037150335E+01  0.00000000000E+00 0.  1.
</event>
<event>
 7    1  0.1541705E-008  0.4614232E+02  0.7816164E-02  0.1320468E+00
        -11   -1    0    0    0    0  0.00000000000E+00  0.00000000000E+00  0.45593999997E+02  0.45594000000E+02  0.51100000000E-03 0. -1.
         11   -1    0    0    0    0 -0.00000000000E+00 -0.00000000000E+00 -0.45593999997E+02  0.45594000000E+02  0.51100000000E-03 0.  1.
    9900012    2    1    2    0    0  0.34622845389E+02 -0.91431333035E+01  0.27327187221E+02  0.46142317955E+02  0.10000001772E+02 0.  0.
        -12    1    1    2    0    0 -0.34622845389E+02  0.91431333035E+01 -0.27327187221E+02  0.45045682045E+02  0.00000000000E+00 0.  1.
         11    1    3    3    0    0  0.16835205148E+02 -0.33611346732E+01  0.80010002529E+01  0.18940363354E+02  0.51100000000E-03 0. -1.
        -11    1    3    3    0    0  0.52277568095E+01  0.24090405236E-01  0.42395965172E+01  0.67308395090E+01  0.51100000000E-03 0.  1.
         12    1    3    3    0    0  0.12559883432E+02 -0.58060890355E+01  0.15086590451E+02  0.20471115093E+02  0.00000000000E+00 0. -1.
</event>
<event>
 7    1  0.1541705E-008  0.4614232E+02  0.7816164E-02  0.1320468E+00
        -11   -1    0    0    0    0  0.00000000000E+00  0.00000000000E+00  0.45593999997E+02  0.45594000000E+02  0.51100000000E-03 0.  1.
         11   -1    0    0    0    0 -0.00000000000E+00 -0.00000000000E+00 -0.45593999997E+02  0.45594000000E+02  0.51100000000E-03 0. -1.
    9900012    2    1    2    0    0  0.35833990505E+01 -0.14659337452E+01 -0.44878989912E+02  0.46142318231E+02  0.10000004289E+02 0.  0.
        -12    1    1    2    0    0 -0.35833990505E+01  0.14659337452E+01  0.44878989912E+02  0.45045681769E+02  0.00000000000E+00 0.  1.
         11    1    3    3    0    0  0.11181334349E+01  0.67370077230E+00 -0.12805436603E+02  0.12871802591E+02  0.51100000000E-03 0. -1.
        -11    1    3    3    0    0  0.45550148026E+01 -0.35221424573E+01 -0.27058491825E+02  0.27664338551E+02  0.51100000000E-03 0.  1.
        -12    1    3    3    0    0 -0.20897491869E+01  0.13825079397E+01 -0.50150614843E+01  0.56061770895E+01  0.00000000000E+00 0.  1.
</event>
<event>
 7    1  0.1541705E-008  0.4614232E+02  0.7816164E-02  0.1320468E+00
        -11   -1    0    0    0    0  0.00000000000E+00  0.00000000000E+00  0.45593999997E+02  0.45594000000E+02  0.51100000000E-03 0.  1.
         11   -1    0    0    0    0 -0.00000000000E+00 -0.00000000000E+00 -0.45593999997E+02  0.45594000000E+02  0.51100000000E-03 0. -1.
    9900012    2    1    2    0    0 -0.12500855652E+02 -0.89093369495E+01 -0.42349325839E+02  0.46142322339E+02  0.10000041741E+02 0.  0.
        -12    1    1    2    0    0  0.12500855652E+02  0.89093369495E+01  0.42349325839E+02  0.45045677661E+02  0.00000000000E+00 0.  1.
         11    1    3    3    0    0 -0.55840795677E+01 -0.10922250615E+01 -0.79955606588E+01  0.98134545759E+01  0.51100000000E-03 0. -1.
        -11    1    3    3    0    0 -0.14377473333E+01 -0.29412775159E+01 -0.19388384498E+02  0.19662850366E+02  0.51100000000E-03 0.  1.
         12    1    3    3    0    0 -0.54790287514E+01 -0.48758343722E+01 -0.14965380683E+02  0.16666017397E+02  0.00000000000E+00 0. -1.
</event>
<event>
 7    1  0.1541705E-008  0.4614232E+02  0.7816164E-02  0.1320468E+00
        -11   -1    0    0    0    0  0.00000000000E+00  0.00000000000E+00  0.45593999997E+02  0.45594000000E+02  0.51100000000E-03 0.  1.
         11   -1    0    0    0    0 -0.00000000000E+00 -0.00000000000E+00 -0.45593999997E+02  0.45594000000E+02  0.51100000000E-03 0. -1.
    9900012    2    1    2    0    0 -0.30014034812E+02  0.31661628378E+02  0.11216614569E+02  0.46142318302E+02  0.10000004931E+02 0.  0.
        -12    1    1    2    0    0  0.30014034812E+02 -0.31661628378E+02 -0.11216614569E+02  0.45045681698E+02  0.00000000000E+00 0.  1.
         11    1    3    3    0    0 -0.67844896606E+01  0.75332420064E+01 -0.12006883954E+01  0.10208853411E+02  0.51100000000E-03 0. -1.
        -11    1    3    3    0    0 -0.69806761336E+01  0.68957748046E+01  0.55483240948E+01  0.11272331168E+02  0.51100000000E-03 0.  1.
         12    1    3    3    0    0 -0.16248869018E+02  0.17232611567E+02  0.68689788701E+01  0.24661133723E+02  0.00000000000E+00 0. -1.
</event>
<event>
 7    1  0.1541705E-008  0.4614232E+02  0.7816164E-02  0.1320468E+00
        -11   -1    0    0    0    0  0.00000000000E+00  0.00000000000E+00  0.45593999997E+02  0.45594000000E+02  0.51100000000E-03 0.  1.
         11   -1    0    0    0    0 -0.00000000000E+00 -0.00000000000E+00 -0.45593999997E+02  0.45594000000E+02  0.51100000000E-03 0. -1.
    9900012    2    1    2    0    0 -0.13770933282E+02  0.20550948176E+02 -0.37644832374E+02  0.46142317867E+02  0.10000000963E+02 0.  0.
        -12    1    1    2    0    0  0.13770933282E+02 -0.20550948176E+02  0.37644832374E+02  0.45045682133E+02  0.00000000000E+00 0.  1.
         11    1    3    3    0    0 -0.50660475572E+01  0.24824091227E+01 -0.60962750555E+01  0.83061280220E+01  0.51100000000E-03 0. -1.
        -11    1    3    3    0    0  0.58507612735E-01  0.21375286238E+01 -0.67879082756E+01  0.71167514203E+01  0.51100000000E-03 0.  1.
         12    1    3    3    0    0 -0.87633933371E+01  0.15931010430E+02 -0.24760649043E+02  0.30719438424E+02  0.00000000000E+00 0. -1.
</event>
<event>
 7    1  0.1541705E-008  0.4614232E+02  0.7816164E-02  0.1320468E+00
        -11   -1    0    0    0    0  0.00000000000E+00  0.00000000000E+00  0.45593999997E+02  0.45594000000E+02  0.51100000000E-03 0.  1.
         11   -1    0    0    0    0 -0.00000000000E+00 -0.00000000000E+00 -0.45593999997E+02  0.45594000000E+02  0.51100000000E-03 0. -1.
    9900012    2    1    2    0    0 -0.28090107024E+02  0.10822688487E+02 -0.33510129684E+02  0.46142317741E+02  0.99999998210E+01 0.  0.
        -12    1    1    2    0    0  0.28090107024E+02 -0.10822688487E+02  0.33510129684E+02  0.45045682259E+02  0.00000000000E+00 0.  1.
         11    1    3    3    0    0 -0.12873928019E+02  0.85454115787E+01 -0.18972348866E+02  0.24468594226E+02  0.51100000000E-03 0. -1.
        -11    1    3    3    0    0 -0.13416071419E+02  0.82305799778E+00 -0.13752042941E+02  0.19229848728E+02  0.51100000000E-03 0.  1.
         12    1    3    3    0    0 -0.18001075867E+01  0.14542189105E+01 -0.78573787674E+00  0.24438747869E+01  0.00000000000E+00 0. -1.
</event>
<event>
 7    1  0.1541705E-008  0.4614232E+02  0.7816164E-02  0.1320468E+00
        -11   -1    0    0    0    0  0.00000000000E+00  0.00000000000E+00  0.45593999997E+02  0.45594000000E+02  0.51100000000E-03 0.  1.
         11   -1    0    0    0    0 -0.00000000000E+00 -0.00000000000E+00 -0.45593999997E+02  0.45594000000E+02  0.51100000000E-03 0. -1.
    9900012    2    1    2    0    0  0.32933618226E+02 -0.70349931703E+01 -0.29916536409E+02  0.46142317753E+02  0.99999999266E+01 0.  0.
        -12    1    1    2    0    0 -0.32933618226E+02  0.70349931703E+01  0.29916536409E+02  0.45045682247E+02  0.00000000000E+00 0.  1.
         11    1    3    3    0    0  0.17577705671E+02 -0.13642432062E+01 -0.18818925509E+02  0.25787377800E+02  0.51100000000E-03 0. -1.
        -11    1    3    3    0    0  0.15187157064E+02 -0.61587013067E+01 -0.11170814072E+02  0.19833467391E+02  0.51100000000E-03 0.  1.
        -12    1    3    3    0    0  0.16875549088E+00  0.48795134261E+00  0.73203172422E-01  0.52147256199E+00  0.00000000000E+00 0.  1.
</event>
<event>
 7    1  0.1541705E-008  0.4614231E+02  0.7816164E-02  0.1320468E+00
        -11   -1    0    0    0    0  0.00000000000E+00  0.00000000000E+00  0.45593999997E+02  0.45594000000E+02  0.51100000000E-03 0.  1.
         11   -1    0    0    0    0 -0.00000000000E+00 -0.00000000000E+00 -0.45593999997E+02  0.45594000000E+02  0.51100000000E-03 0. -1.
    9900012    2    1    2    0    0  0.72641139552E+01  0.40635728587E+02 -0.18030084692E+02  0.46142314931E+02  0.99999741903E+01 0.  0.
        -12    1    1    2    0    0 -0.72641139552E+01 -0.40635728587E+02  0.18030084692E+02  0.45045685069E+02  0.00000000000E+00 0.  1.
         11    1    3    3    0    0  0.20582068915E+01  0.15200040646E+02 -0.31311971229E+01  0.15655090129E+02  0.51100000000E-03 0. -1.
        -11    1    3    3    0    0  0.53400180407E+01  0.24295615750E+02 -0.15376049393E+02  0.29244070041E+02  0.51100000000E-03 0.  1.
        -12    1    3    3    0    0 -0.13411097708E+00  0.11400721907E+01  0.47716182384E+00  0.12431547612E+01  0.00000000000E+00 0.  1.
</event>
<event>
 7    1  0.1541705E-008  0.4614232E+02  0.7816164E-02  0.1320468E+00
        -11   -1    0    0    0    0  0.00000000000E+00  0.00000000000E+00  0.45593999997E+02  0.45594000000E+02  0.51100000000E-03 0.  1.
         11   -1    0    0    0    0 -0.00000000000E+00 -0.00000000000E+00 -0.45593999997E+02  0.45594000000E+02  0.51100000000E-03 0. -1.
    9900012    2    1    2    0    0 -0.18828823715E+02 -0.29811956533E+02 -0.28032769096E+02  0.46142317654E+02  0.99999990241E+01 0.  0.
        -12    1    1    2    0    0  0.18828823715E+02  0.29811956533E+02  0.28032769096E+02  0.45045682346E+02  0.00000000000E+00 0.  1.
         11    1    3    3    0    0 -0.18378816691E+02 -0.23884336329E+02 -0.23525960855E+02  0.38232358798E+02  0.51100000000E-03 0. -1.
        -11    1    3    3    0    0  0.68092173599E+00 -0.43240721656E+01 -0.38817462036E+01  0.58505733355E+01  0.51100000000E-03 0.  1.
         12    1    3    3    0    0 -0.11309287603E+01 -0.16035480386E+01 -0.62506203731E+00  0.20593855209E+01  0.00000000000E+00 0. -1.
</event>
<event>
 7    1  0.1541705E-008  0.4614233E+02  0.7816164E-02  0.1320468E+00
        -11   -1    0    0    0    0  0.00000000000E+00  0.00000000000E+00  0.45593999997E+02  0.45594000000E+02  0.51100000000E-03 0. -1.
         11   -1    0    0    0    0 -0.00000000000E+00 -0.00000000000E+00 -0.45593999997E+02  0.45594000000E+02  0.51100000000E-03 0.  1.
    9900012    2    1    2    0    0  0.16918813555E+02  0.10326284509E+02  0.40450387138E+02  0.46142331801E+02  0.10000128026E+02 0.  0.
        -12    1    1    2    0    0 -0.16918813555E+02 -0.10326284509E+02 -0.40450387138E+02  0.45045668199E+02  0.00000000000E+00 0.  1.
         11    1    3    3    0    0  0.17052644242E+01  0.32770801713E+01  0.53176162285E+01  0.64748917999E+01  0.51100000000E-03 0. -1.
        -11    1    3    3    0    0  0.71109944837E+01  0.74540403487E+01  0.19318686358E+02  0.21893848518E+02  0.51100000000E-03 0.  1.
        -12    1    3    3    0    0  0.81025546466E+01 -0.40483601109E+00  0.15814084552E+02  0.17773591483E+02  0.00000000000E+00 0.  1.
</event>
<event>
 7    1  0.1541705E-008  0.4614232E+02  0.7816164E-02  0.1320468E+00
        -11   -1    0    0    0    0  0.00000000000E+00  0.00000000000E+00  0.45593999997E+02  0.45594000000E+02  0.51100000000E-03 0.  1.
         11   -1    0    0    0    0 -0.00000000000E+00 -0.00000000000E+00 -0.45593999997E+02  0.45594000000E+02  0.51100000000E-03 0. -1.
    9900012    2    1    2    0    0 -0.36961659879E+02  0.66772050460E+01 -0.24866929771E+02  0.46142316916E+02  0.99999922963E+01 0.  0.
        -12    1    1    2    0    0  0.36961659879E+02 -0.66772050460E+01  0.24866929771E+02  0.45045683084E+02  0.00000000000E+00 0.  1.
         11    1    3    3    0    0 -0.12311879733E+02  0.18681191836E+01 -0.36308225608E+01  0.12971319307E+02  0.51100000000E-03 0. -1.
        -11    1    3    3    0    0 -0.21312831886E+02  0.26190747808E+01 -0.17448473503E+02  0.27668494422E+02  0.51100000000E-03 0.  1.
         12    1    3    3    0    0 -0.33369482601E+01  0.21900110816E+01 -0.37876337070E+01  0.55025031873E+01  0.00000000000E+00 0. -1.
</event>
<event>
 7    1  0.1541705E-008  0.4614232E+02  0.7816164E-02  0.1320468E+00
        -11   -1    0    0    0    0  0.00000000000E+00  0.00000000000E+00  0.45593999997E+02  0.45594000000E+02  0.51100000000E-03 0.  1.
         11   -1    0    0    0    0 -0.00000000000E+00 -0.00000000000E+00 -0.45593999997E+02  0.45594000000E+02  0.51100000000E-03 0. -1.
    9900012    2    1    2    0    0  0.26344615585E+02  0.34260342651E+02 -0.12700528158E+02  0.46142320248E+02  0.10000022673E+02 0.  0.
        -12    1    1    2    0    0 -0.26344615585E+02 -0.34260342651E+02  0.12700528158E+02  0.45045679752E+02  0.00000000000E+00 0.  1.
         11    1    3    3    0    0  0.11292078376E+02  0.15800715874E+02 -0.67939975606E+01  0.20575034855E+02  0.51100000000E-03 0. -1.
        -11    1    3    3    0    0  0.66752127075E+01  0.30654335818E+01 -0.15295288148E+01  0.75029864982E+01  0.51100000000E-03 0.  1.
        -12    1    3    3    0    0  0.83773245011E+01  0.15394193195E+02 -0.43770017825E+01  0.18064298894E+02  0.00000000000E+00 0.  1.
</event>
<event>
 7    1  0.1541705E-008  0.4614232E+02  0.7816164E-02  0.1320468E+00
        -11   -1    0    0    0    0  0.00000000000E+00  0.00000000000E+00  0.45593999997E+02  0.45594000000E+02  0.51100000000E-03 0.  1.
         11   -1    0    0    0    0 -0.00000000000E+00 -0.00000000000E+00 -0.45593999997E+02  0.45594000000E+02  0.51100000000E-03 0. -1.
    9900012    2    1    2    0    0 -0.19404708188E+02 -0.27084029904E+02 -0.30315443267E+02  0.46142317897E+02  0.10000001235E+02 0.  0.
        -12    1    1    2    0    0  0.19404708188E+02  0.27084029904E+02  0.30315443267E+02  0.45045682103E+02  0.00000000000E+00 0.  1.
         11    1    3    3    0    0 -0.68472189944E+01 -0.17167656249E+02 -0.13348235637E+02  0.22798864531E+02  0.51100000000E-03 0. -1.
        -11    1    3    3    0    0 -0.84868426159E+01 -0.61070895465E+01 -0.11212689443E+02  0.15331257128E+02  0.51100000000E-03 0.  1.
         12    1    3    3    0    0 -0.40706465776E+01 -0.38092841086E+01 -0.57545181874E+01  0.80121962376E+01  0.00000000000E+00 0. -1.
</event>
<event>
 7    1  0.1541705E-008  0.4614232E+02  0.7816164E-02  0.1320468E+00
        -11   -1    0    0    0    0  0.00000000000E+00  0.00000000000E+00  0.45593999997E+02  0.45594000000E+02  0.51100000000E-03 0.  1.
         11   -1    0    0    0    0 -0.00000000000E+00 -0.00000000000E+00 -0.45593999997E+02  0.45594000000E+02  0.51100000000E-03 0. -1.
    9900012    2    1    2    0    0 -0.77888992065E+01  0.13349795265E+02 -0.42311106225E+02  0.46142315473E+02  0.99999791385E+01 0.  0.
        -12    1    1    2    0    0  0.77888992065E+01 -0.13349795265E+02  0.42311106225E+02  0.45045684527E+02  0.00000000000E+00 0.  1.
         11    1    3    3    0    0 -0.50180648251E+01  0.86860808371E+01 -0.17414178104E+02  0.20096829954E+02  0.51100000000E-03 0. -1.
        -11    1    3    3    0    0 -0.40989383664E+01  0.32567809744E+01 -0.21575994041E+02  0.22202059300E+02  0.51100000000E-03 0.  1.
        -12    1    3    3    0    0  0.13281039851E+01  0.14069334535E+01 -0.33209340805E+01  0.38434262195E+01  0.00000000000E+00 0.  1.
</event>
<event>
 7    1  0.1541705E-008  0.4614233E+02  0.7816164E-02  0.1320468E+00
        -11   -1    0    0    0    0  0.00000000000E+00  0.00000000000E+00  0.45593999997E+02  0.45594000000E+02  0.51100000000E-03 0.  1.
         11   -1    0    0    0    0 -0.00000000000E+00 -0.00000000000E+00 -0.45593999997E+02  0.45594000000E+02  0.51100000000E-03 0. -1.
    9900012    2    1    2    0    0  0.26775038608E+02 -0.16875416926E+02 -0.32053555744E+02  0.46142325128E+02  0.10000067176E+02 0.  0.
        -12    1    1    2    0    0 -0.26775038608E+02  0.16875416926E+02  0.32053555744E+02  0.45045674872E+02  0.00000000000E+00 0.  1.
         11    1    3    3    0    0  0.11231087698E+02 -0.48301868477E+01 -0.93602538726E+01  0.15397479946E+02  0.51100000000E-03 0. -1.
        -11    1    3    3    0    0  0.14477986820E+02 -0.12439684160E+02 -0.19210956384E+02  0.27081703968E+02  0.51100000000E-03 0.  1.
        -12    1    3    3    0    0  0.10659640898E+01  0.39445408171E+00 -0.34823454873E+01  0.36631412144E+01  0.00000000000E+00 0.  1.
</event>
<event>
 7    1  0.1541705E-008  0.4614232E+02  0.7816164E-02  0.1320468E+00
        -11   -1    0    0    0    0  0.00000000000E+00  0.00000000000E+00  0.45593999997E+02  0.45594000000E+02  0.51100000000E-03 0.  1.
         11   -1    0    0    0    0 -0.00000000000E+00 -0.00000000000E+00 -0.45593999997E+02  0.45594000000E+02  0.51100000000E-03 0. -1.
    9900012    2    1    2    0    0  0.16960696991E+02 -0.39536046045E+02 -0.13354749281E+02  0.46142317547E+02  0.99999980494E+01 0.  0.
        -12    1    1    2    0    0 -0.16960696991E+02  0.39536046045E+02  0.13354749281E+02  0.45045682453E+02  0.00000000000E+00 0.  1.
         11    1    3    3    0    0  0.97317591586E+01 -0.21622926984E+02 -0.29359252499E+01  0.23893048466E+02  0.51100000000E-03 0. -1.
        -11    1    3    3    0    0  0.40655865515E+01 -0.14075590416E+02 -0.71934848980E+01  0.16321686947E+02  0.51100000000E-03 0.  1.
        -12    1    3    3    0    0  0.31633512808E+01 -0.38375286449E+01 -0.32253391336E+01  0.59275821338E+01  0.00000000000E+00 0.  1.
</event>
<event>
 7    1  0.1541705E-008  0.4614232E+02  0.7816164E-02  0.1320468E+00
        -11   -1    0    0    0    0  0.00000000000E+00  0.00000000000E+00  0.45593999997E+02  0.45594000000E+02  0.51100000000E-03 0. -1.
         11   -1    0    0    0    0 -0.00000000000E+00 -0.00000000000E+00 -0.45593999997E+02  0.45594000000E+02  0.51100000000E-03 0.  1.
    9900012    2    1    2    0    0  0.36620526018E+02  0.19544231847E+02 -0.17494957965E+02  0.46142317870E+02  0.10000000991E+02 0.  0.
        -12    1    1    2    0    0 -0.36620526018E+02 -0.19544231847E+02  0.17494957965E+02  0.45045682130E+02  0.00000000000E+00 0.  1.
         11    1    3    3    0    0  0.14631750075E+00  0.82916192348E+00 -0.18680017669E+01  0.20489873520E+01  0.51100000000E-03 0. -1.
        -11    1    3    3    0    0  0.14719717915E+02  0.75687271069E+01 -0.86378806093E+01  0.18669994836E+02  0.51100000000E-03 0.  1.
         12    1    3    3    0    0  0.21754490603E+02  0.11146342817E+02 -0.69890755889E+01  0.25423335681E+02  0.00000000000E+00 0. -1.
</event>
<event>
 7    1  0.1541705E-008  0.4614232E+02  0.7816164E-02  0.1320468E+00
        -11   -1    0    0    0    0  0.00000000000E+00  0.00000000000E+00  0.45593999997E+02  0.45594000000E+02  0.51100000000E-03 0. -1.
         11   -1    0    0    0    0 -0.00000000000E+00 -0.00000000000E+00 -0.45593999997E+02  0.45594000000E+02  0.51100000000E-03 0.  1.
    9900012    2    1    2    0    0  0.22929696699E+02 -0.30746483618E+02  0.23621943008E+02  0.46142318330E+02  0.10000005190E+02 0.  0.
        -12    1    1    2    0    0 -0.22929696699E+02  0.30746483618E+02 -0.23621943008E+02  0.45045681670E+02  0.00000000000E+00 0.  1.
         11    1    3    3    0    0  0.10665581672E+02 -0.18351606959E+02  0.10908533006E+02  0.23864873831E+02  0.51100000000E-03 0. -1.
        -11    1    3    3    0    0  0.12471582037E+02 -0.10293595344E+02  0.11487715524E+02  0.19835979226E+02  0.51100000000E-03 0.  1.
         12    1    3    3    0    0 -0.20746701046E+00 -0.21012813152E+01  0.12256944784E+01  0.24414652733E+01  0.00000000000E+00 0. -1.
</event>
<event>
 7    1  0.1541705E-008  0.4614232E+02  0.7816164E-02  0.1320468E+00
        -11   -1    0    0    0    0  0.00000000000E+00  0.00000000000E+00  0.45593999997E+02  0.45594000000E+02  0.51100000000E-03 0. -1.
         11   -1    0    0    0    0 -0.00000000000E+00 -0.00000000000E+00 -0.45593999997E+02  0.45594000000E+02  0.51100000000E-03 0.  1.
    9900012    2    1    2    0    0 -0.10743236708E+02  0.21679639837E+02  0.37995911564E+02  0.46142320806E+02  0.10000027768E+02 0.  0.
        -12    1    1    2    0    0  0.10743236708E+02 -0.21679639837E+02 -0.37995911564E+02  0.45045679194E+02  0.00000000000E+00 0.  1.
         11    1    3    3    0    0 -0.45683725470E+01  0.12219470275E+02  0.26151340263E+02  0.29224614272E+02  0.51100000000E-03 0. -1.
        -11    1    3    3    0    0  0.40473800615E+00  0.22723957442E+01  0.27288977482E+01  0.35741402397E+01  0.51100000000E-03 0.  1.
        -12    1    3    3    0    0 -0.65796021674E+01  0.71877738176E+01  0.91156735533E+01  0.13343566295E+02  0.00000000000E+00 0.  1.
</event>
<event>
 7    1  0.1541705E-008  0.4614232E+02  0.7816164E-02  0.1320468E+00
        -11   -1    0    0    0    0  0.00000000000E+00  0.00000000000E+00  0.45593999997E+02  0.45594000000E+02  0.51100000000E-03 0.  1.
         11   -1    0    0    0    0 -0.00000000000E+00 -0.00000000000E+00 -0.45593999997E+02  0.45594000000E+02  0.51100000000E-03 0. -1.
    9900012    2    1    2    0    0 -0.55927169043E+01 -0.10611661262E+02 -0.43419208161E+02  0.46142317916E+02  0.10000001408E+02 0.  0.
        -12    1    1    2    0    0  0.55927169043E+01  0.10611661262E+02  0.43419208161E+02  0.45045682084E+02  0.00000000000E+00 0.  1.
         11    1    3    3    0    0 -0.28221691735E+00  0.23474341961E-01 -0.53747053424E+01  0.53821608311E+01  0.51100000000E-03 0. -1.
        -11    1    3    3    0    0 -0.73204458016E+01 -0.78511455720E+01 -0.32613921294E+02  0.34335073554E+02  0.51100000000E-03 0.  1.
        -12    1    3    3    0    0  0.20099458147E+01 -0.27839900315E+01 -0.54305815244E+01  0.64250835299E+01  0.00000000000E+00 0.  1.
</event>
<event>
 7    1  0.1541705E-008  0.4614232E+02  0.7816164E-02  0.1320468E+00
        -11   -1    0    0    0    0  0.00000000000E+00  0.00000000000E+00  0.45593999997E+02  0.45594000000E+02  0.51100000000E-03 0.  1.
         11   -1    0    0    0    0 -0.00000000000E+00 -0.00000000000E+00 -0.45593999997E+02  0.45594000000E+02  0.51100000000E-03 0. -1.
    9900012    2    1    2    0    0 -0.12070816070E+02  0.33823678153E+02 -0.27191310183E+02  0.46142321474E+02  0.10000033857E+02 0.  0.
        -12    1    1    2    0    0  0.12070816070E+02 -0.33823678153E+02  0.27191310183E+02  0.45045678526E+02  0.00000000000E+00 0.  1.
         11    1    3    3    0    0 -0.41315779267E+01  0.21010106941E+02 -0.13444867322E+02  0.25283571492E+02  0.51100000000E-03 0. -1.
        -11    1    3    3    0    0 -0.58463111268E+01  0.54574528895E+01 -0.77933496070E+01  0.11166890534E+02  0.51100000000E-03 0.  1.
        -12    1    3    3    0    0 -0.20929270167E+01  0.73561183224E+01 -0.59530932542E+01  0.96918594482E+01  0.00000000000E+00 0.  1.
</event>
<event>
 7    1  0.1541705E-008  0.4614232E+02  0.7816164E-02  0.1320468E+00
        -11   -1    0    0    0    0  0.00000000000E+00  0.00000000000E+00  0.45593999997E+02  0.45594000000E+02  0.51100000000E-03 0. -1.
         11   -1    0    0    0    0 -0.00000000000E+00 -0.00000000000E+00 -0.45593999997E+02  0.45594000000E+02  0.51100000000E-03 0.  1.
    9900012    2    1    2    0    0 -0.36959880944E+02  0.23856846364E+02 -0.96918180059E+01  0.46142320362E+02  0.10000023716E+02 0.  0.
        -12    1    1    2    0    0  0.36959880944E+02 -0.23856846364E+02  0.96918180059E+01  0.45045679638E+02  0.00000000000E+00 0.  1.
         11    1    3    3    0    0 -0.23329319530E+02  0.17051062381E+02 -0.42600958063E+01  0.29208633905E+02  0.51100000000E-03 0. -1.
        -11    1    3    3    0    0 -0.23426965620E+01  0.10129477192E+01  0.96027684927E+00  0.27269804091E+01  0.51100000000E-03 0.  1.
         12    1    3    3    0    0 -0.11287864852E+02  0.57928362634E+01 -0.63919990489E+01  0.14206706048E+02  0.00000000000E+00 0. -1.
</event>
<event>
 7    1  0.1541705E-008  0.4614232E+02  0.7816164E-02  0.1320468E+00
        -11   -1    0    0    0    0  0.00000000000E+00  0.00000000000E+00  0.45593999997E+02  0.45594000000E+02  0.51100000000E-03 0.  1.
         11   -1    0    0    0    0 -0.00000000000E+00 -0.00000000000E+00 -0.45593999997E+02  0.45594000000E+02  0.51100000000E-03 0. -1.
    9900012    2    1    2    0    0  0.11673490311E+02  0.42582433932E+01 -0.43297927159E+02  0.46142317531E+02  0.99999979022E+01 0.  0.
        -12    1    1    2    0    0 -0.11673490311E+02 -0.42582433932E+01  0.43297927159E+02  0.45045682469E+02  0.00000000000E+00 0.  1.
         11    1    3    3    0    0  0.12659801482E+00  0.20486309714E+00 -0.66872220736E+01  0.66915570138E+01  0.51100000000E-03 0. -1.
        -11    1    3    3    0    0  0.10333301492E+02  0.56123594734E+01 -0.24451692990E+02  0.27132286836E+02  0.51100000000E-03 0.  1.
        -12    1    3    3    0    0  0.12135908040E+01 -0.15589791773E+01 -0.12159012095E+02  0.12318473682E+02  0.00000000000E+00 0.  1.
</event>
<event>
 7    1  0.1541705E-008  0.4614232E+02  0.7816164E-02  0.1320468E+00
        -11   -1    0    0    0    0  0.00000000000E+00  0.00000000000E+00  0.45593999997E+02  0.45594000000E+02  0.51100000000E-03 0. -1.
         11   -1    0    0    0    0 -0.00000000000E+00 -0.00000000000E+00 -0.45593999997E+02  0.45594000000E+02  0.51100000000E-03 0.  1.
    9900012    2    1    2    0    0 -0.33730230392E+02  0.75885134613E+01  0.28875589165E+02  0.46142316206E+02  0.99999858178E+01 0.  0.
        -12    1    1    2    0    0  0.33730230392E+02 -0.75885134613E+01 -0.28875589165E+02  0.45045683794E+02  0.00000000000E+00 0.  1.
         11    1    3    3    0    0 -0.25907586709E+02  0.58724229707E+01  0.22171773099E+02  0.34601675151E+02  0.51100000000E-03 0. -1.
        -11    1    3    3    0    0 -0.34555271045E+01  0.21074730942E+01  0.57857318054E+01  0.70609350088E+01  0.51100000000E-03 0.  1.
         12    1    3    3    0    0 -0.43671165783E+01 -0.39138260349E+00  0.91808426110E+00  0.44797060463E+01  0.00000000000E+00 0. -1.
</event>
<event>
 7    1  0.1541705E-008  0.4614232E+02  0.7816164E-02  0.1320468E+00
        -11   -1    0    0    0    0  0.00000000000E+00  0.00000000000E+00  0.45593999997E+02  0.45594000000E+02  0.51100000000E-03 0. -1.
         11   -1    0    0    0    0 -0.00000000000E+00 -0.00000000000E+00 -0.45593999997E+02  0.45594000000E+02  0.51100000000E-03 0.  1.
    9900012    2    1    2    0    0 -0.31688042789E+02 -0.96191390537E+01  0.30536102705E+02  0.46142318072E+02  0.10000002834E+02 0.  0.
        -12    1    1    2    0    0  0.31688042789E+02  0.96191390537E+01 -0.30536102705E+02  0.45045681928E+02  0.00000000000E+00 0.  1.
         11    1    3    3    0    0 -0.36814774928E+01  0.12396553095E+01  0.47689835082E+01  0.61508719527E+01  0.51100000000E-03 0. -1.
        -11    1    3    3    0    0 -0.26369355555E+02 -0.11573105835E+02  0.24215624696E+02  0.37625472365E+02  0.51100000000E-03 0.  1.
        -12    1    3    3    0    0 -0.16372097418E+01  0.71431147181E+00  0.15514945008E+01  0.23659737538E+01  0.00000000000E+00 0.  1.
</event>
<event>
 7    1  0.1541705E-008  0.4614232E+02  0.7816164E-02  0.1320468E+00
        -11   -1    0    0    0    0  0.00000000000E+00  0.00000000000E+00  0.45593999997E+02  0.45594000000E+02  0.51100000000E-03 0. -1.
         11   -1    0    0    0    0 -0.00000000000E+00 -0.00000000000E+00 -0.45593999997E+02  0.45594000000E+02  0.51100000000E-03 0.  1.
    9900012    2    1    2    0    0  0.38667961872E+01  0.39038299628E+02  0.22139841040E+02  0.46142317500E+02  0.99999976234E+01 0.  0.
        -12    1    1    2    0    0 -0.38667961872E+01 -0.39038299628E+02 -0.22139841040E+02  0.45045682500E+02  0.00000000000E+00 0.  1.
         11    1    3    3    0    0  0.34405680728E+01  0.15743289810E+02  0.12674660401E+02  0.20502090119E+02  0.51100000000E-03 0. -1.
        -11    1    3    3    0    0 -0.16388365331E+01  0.38638410129E+01  0.83780196761E+00  0.42798323511E+01  0.51100000000E-03 0.  1.
         12    1    3    3    0    0  0.20650646474E+01  0.19431168805E+02  0.86273786716E+01  0.21360395031E+02  0.00000000000E+00 0. -1.
</event>
<event>
 7    1  0.1541705E-008  0.4614232E+02  0.7816164E-02  0.1320468E+00
        -11   -1    0    0    0    0  0.00000000000E+00  0.00000000000E+00  0.45593999997E+02  0.45594000000E+02  0.51100000000E-03 0.  1.
         11   -1    0    0    0    0 -0.00000000000E+00 -0.00000000000E+00 -0.45593999997E+02  0.45594000000E+02  0.51100000000E-03 0. -1.
    9900012    2    1    2    0    0  0.20564424467E+02 -0.22131704155E+02 -0.33412656229E+02  0.46142317868E+02  0.10000000973E+02 0.  0.
        -12    1    1    2    0    0 -0.20564424467E+02  0.22131704155E+02  0.33412656229E+02  0.45045682132E+02  0.00000000000E+00 0.  1.
         11    1    3    3    0    0  0.72732221200E+01 -0.10698189103E+02 -0.18603136832E+02  0.22658943275E+02  0.51100000000E-03 0. -1.
        -11    1    3    3    0    0  0.70966441464E+01 -0.75525977895E+01 -0.57819606102E+01  0.11867399052E+02  0.51100000000E-03 0.  1.
         12    1    3    3    0    0  0.61945582009E+01 -0.38809172622E+01 -0.90275587865E+01  0.11615975540E+02  0.00000000000E+00 0. -1.
</event>
<event>
 7    1  0.1541705E-008  0.4614232E+02  0.7816164E-02  0.1320468E+00
        -11   -1    0    0    0    0  0.00000000000E+00  0.00000000000E+00  0.45593999997E+02  0.45594000000E+02  0.51100000000E-03 0.  1.
         11   -1    0    0    0    0 -0.00000000000E+00 -0.00000000000E+00 -0.45593999997E+02  0.45594000000E+02  0.51100000000E-03 0. -1.
    9900012    2    1    2    0    0 -0.18926864098E+00  0.43325766210E+02 -0.12327028997E+02  0.46142317807E+02  0.10000000420E+02 0.  0.
        -12    1    1    2    0    0  0.18926864098E+00 -0.43325766210E+02  0.12327028997E+02  0.45045682193E+02  0.00000000000E+00 0.  1.
         11    1    3    3    0    0 -0.41614178647E+01  0.26595695280E+02 -0.57787876357E+01  0.27532576939E+02  0.51100000000E-03 0. -1.
        -11    1    3    3    0    0  0.39904022273E+01  0.13333080225E+02 -0.44258607768E+01  0.14604197414E+02  0.51100000000E-03 0.  1.
         12    1    3    3    0    0 -0.18253003566E-01  0.33969907049E+01 -0.21223805846E+01  0.40055434547E+01  0.00000000000E+00 0. -1.
</event>
<event>
 7    1  0.1541705E-008  0.4614232E+02  0.7816164E-02  0.1320468E+00
        -11   -1    0    0    0    0  0.00000000000E+00  0.00000000000E+00  0.45593999997E+02  0.45594000000E+02  0.51100000000E-03 0.  1.
         11   -1    0    0    0    0 -0.00000000000E+00 -0.00000000000E+00 -0.45593999997E+02  0.45594000000E+02  0.51100000000E-03 0. -1.
    9900012    2    1    2    0    0  0.68190286531E+01  0.43932924389E+02 -0.72465476321E+01  0.46142318190E+02  0.10000003909E+02 0.  0.
        -12    1    1    2    0    0 -0.68190286531E+01 -0.43932924389E+02  0.72465476321E+01  0.45045681810E+02  0.00000000000E+00 0.  1.
         11    1    3    3    0    0  0.43195507889E+01  0.13177819660E+02  0.19466986642E+00  0.13869078795E+02  0.51100000000E-03 0. -1.
        -11    1    3    3    0    0 -0.60002709203E-02  0.70346944543E+00 -0.13296278759E+01  0.15042658719E+01  0.51100000000E-03 0.  1.
         12    1    3    3    0    0  0.25054781351E+01  0.30051635284E+02 -0.61115896226E+01  0.30768973523E+02  0.00000000000E+00 0. -1.
</event>
<event>
 7    1  0.1541705E-008  0.4614232E+02  0.7816164E-02  0.1320468E+00
        -11   -1    0    0    0    0  0.00000000000E+00  0.00000000000E+00  0.45593999997E+02  0.45594000000E+02  0.51100000000E-03 0.  1.
         11   -1    0    0    0    0 -0.00000000000E+00 -0.00000000000E+00 -0.45593999997E+02  0.45594000000E+02  0.51100000000E-03 0. -1.
    9900012    2    1    2    0    0 -0.26246393897E+02  0.29304151743E+02 -0.21943267634E+02  0.46142317671E+02  0.99999991818E+01 0.  0.
        -12    1    1    2    0    0  0.26246393897E+02 -0.29304151743E+02  0.21943267634E+02  0.45045682329E+02  0.00000000000E+00 0.  1.
         11    1    3    3    0    0 -0.27980338427E+01  0.30178326467E+01 -0.18406158594E+01  0.45082340524E+01  0.51100000000E-03 0. -1.
        -11    1    3    3    0    0 -0.12610676905E+02  0.73793571588E+01 -0.69502957821E+01  0.16179947336E+02  0.51100000000E-03 0.  1.
        -12    1    3    3    0    0 -0.10837683150E+02  0.18906961937E+02 -0.13152355993E+02  0.25454136283E+02  0.00000000000E+00 0.  1.
</event>
<event>
 7    1  0.1541705E-008  0.4614232E+02  0.7816164E-02  0.1320468E+00
        -11   -1    0    0    0    0  0.00000000000E+00  0.00000000000E+00  0.45593999997E+02  0.45594000000E+02  0.51100000000E-03 0.  1.
         11   -1    0    0    0    0 -0.00000000000E+00 -0.00000000000E+00 -0.45593999997E+02  0.45594000000E+02  0.51100000000E-03 0. -1.
    9900012    2    1    2    0    0 -0.15139199396E+02 -0.17351220218E+02 -0.38715026638E+02  0.46142317754E+02  0.99999999395E+01 0.  0.
        -12    1    1    2    0    0  0.15139199396E+02  0.17351220218E+02  0.38715026638E+02  0.45045682246E+02  0.00000000000E+00 0.  1.
         11    1    3    3    0    0 -0.67794201826E+01 -0.37216859371E+01 -0.19873548121E+02  0.21325322961E+02  0.51100000000E-03 0. -1.
        -11    1    3    3    0    0 -0.34020255447E+01 -0.55052703576E+01 -0.59367237179E+01  0.87821676300E+01  0.51100000000E-03 0.  1.
         12    1    3    3    0    0 -0.49577536683E+01 -0.81242639236E+01 -0.12904754799E+02  0.16034827163E+02  0.00000000000E+00 0. -1.
</event>
<event>
 7    1  0.1541705E-008  0.4614232E+02  0.7816164E-02  0.1320468E+00
        -11   -1    0    0    0    0  0.00000000000E+00  0.00000000000E+00  0.45593999997E+02  0.45594000000E+02  0.51100000000E-03 0. -1.
         11   -1    0    0    0    0 -0.00000000000E+00 -0.00000000000E+00 -0.45593999997E+02  0.45594000000E+02  0.51100000000E-03 0.  1.
    9900012    2    1    2    0    0 -0.87006259743E+00 -0.40239075088E+02  0.20228031164E+02  0.46142318546E+02  0.10000007160E+02 0.  0.
        -12    1    1    2    0    0  0.87006259743E+00  0.40239075088E+02 -0.20228031164E+02  0.45045681454E+02  0.00000000000E+00 0.  1.
         11    1    3    3    0    0  0.13659600469E+01 -0.93541960206E+00  0.84711654348E+00  0.18596944322E+01  0.51100000000E-03 0. -1.
        -11    1    3    3    0    0 -0.22444258137E+00 -0.22705555810E+01  0.29209114843E+01  0.37064162312E+01  0.51100000000E-03 0.  1.
         12    1    3    3    0    0 -0.20115800630E+01 -0.37033099905E+02  0.16460003136E+02  0.40576207883E+02  0.00000000000E+00 0. -1.
</event>
<event>
 7    1  0.1541705E-008  0.4614232E+02  0.7816164E-02  0.1320468E+00
        -11   -1    0    0    0    0  0.00000000000E+00  0.00000000000E+00  0.45593999997E+02  0.45594000000E+02  0.51100000000E-03 0. -1.
         11   -1    0    0    0    0 -0.00000000000E+00 -0.00000000000E+00 -0.45593999997E+02  0.45594000000E+02  0.51100000000E-03 0.  1.
    9900012    2    1    2    0    0  0.34881578410E+02  0.24581029499E+02  0.14427823210E+02  0.46142316453E+02  0.99999880738E+01 0.  0.
        -12    1    1    2    0    0 -0.34881578410E+02 -0.24581029499E+02 -0.14427823210E+02  0.45045683547E+02  0.00000000000E+00 0.  1.
         11    1    3    3    0    0  0.10200567924E+02  0.10113791578E+02  0.37085108689E+01  0.14835545800E+02  0.51100000000E-03 0. -1.
        -11    1    3    3    0    0  0.17961536278E+02  0.10792308332E+02  0.10953061305E+02  0.23644455096E+02  0.51100000000E-03 0.  1.
        -12    1    3    3    0    0  0.67194742080E+01  0.36749295891E+01 -0.23374896356E+00  0.76623155570E+01  0.00000000000E+00 0.  1.
</event>
<event>
 7    1  0.1541705E-008  0.4614232E+02  0.7816164E-02  0.1320468E+00
        -11   -1    0    0    0    0  0.00000000000E+00  0.00000000000E+00  0.45593999997E+02  0.45594000000E+02  0.51100000000E-03 0.  1.
         11   -1    0    0    0    0 -0.00000000000E+00 -0.00000000000E+00 -0.45593999997E+02  0.45594000000E+02  0.51100000000E-03 0. -1.
    9900012    2    1    2    0    0  0.39012969739E+02  0.98196175519E+01 -0.20265161691E+02  0.46142317909E+02  0.10000001349E+02 0.  0.
        -12    1    1    2    0    0 -0.39012969739E+02 -0.98196175519E+01  0.20265161691E+02  0.45045682091E+02  0.00000000000E+00 0.  1.
         11    1    3    3    0    0  0.53246918623E+01  0.31151772937E+01 -0.53815781386E+01  0.81864556752E+01  0.51100000000E-03 0. -1.
        -11    1    3    3    0    0  0.15714144326E+02  0.40676589302E+01 -0.37855882125E+01  0.16667659087E+02  0.51100000000E-03 0.  1.
         12    1    3    3    0    0  0.17974133550E+02  0.26367813280E+01 -0.11097995340E+02  0.21288203147E+02  0.00000000000E+00 0. -1.
</event>
<event>
 7    1  0.1541705E-008  0.4614232E+02  0.7816164E-02  0.1320468E+00
        -11   -1    0    0    0    0  0.00000000000E+00  0.00000000000E+00  0.45593999997E+02  0.45594000000E+02  0.51100000000E-03 0.  1.
         11   -1    0    0    0    0 -0.00000000000E+00 -0.00000000000E+00 -0.45593999997E+02  0.45594000000E+02  0.51100000000E-03 0. -1.
    9900012    2    1    2    0    0 -0.28127692646E+02 -0.15799020506E+01 -0.35148971272E+02  0.46142319124E+02  0.10000012431E+02 0.  0.
        -12    1    1    2    0    0  0.28127692646E+02  0.15799020506E+01  0.35148971272E+02  0.45045680876E+02  0.00000000000E+00 0.  1.
         11    1    3    3    0    0 -0.16643723840E+01  0.24486885212E+01 -0.32610263289E+01  0.44046003094E+01  0.51100000000E-03 0.  1.
        -11    1    3    3    0    0 -0.13801989721E+02 -0.33441615694E+01 -0.15595862090E+02  0.21092872053E+02  0.51100000000E-03 0. -1.
         12    1    3    3    0    0 -0.12661330541E+02 -0.68442900244E+00 -0.16292082853E+02  0.20644846762E+02  0.00000000000E+00 0. -1.
</event>
<event>
 7    1  0.1541705E-008  0.4614232E+02  0.7816164E-02  0.1320468E+00
        -11   -1    0    0    0    0  0.00000000000E+00  0.00000000000E+00  0.45593999997E+02  0.45594000000E+02  0.51100000000E-03 0.  1.
         11   -1    0    0    0    0 -0.00000000000E+00 -0.00000000000E+00 -0.45593999997E+02  0.45594000000E+02  0.51100000000E-03 0. -1.
    9900012    2    1    2    0    0 -0.32093560085E+02  0.13805793511E+02 -0.28434432378E+02  0.46142317876E+02  0.10000001043E+02 0.  0.
        -12    1    1    2    0    0  0.32093560085E+02 -0.13805793511E+02  0.28434432378E+02  0.45045682124E+02  0.00000000000E+00 0.  1.
         11    1    3    3    0    0 -0.26945503952E+01  0.16139444937E+01 -0.17896436903E+01  0.36150025533E+01  0.51100000000E-03 0. -1.
        -11    1    3    3    0    0 -0.18673859080E+02  0.10947040210E+02 -0.13476161016E+02  0.25498188529E+02  0.51100000000E-03 0.  1.
        -12    1    3    3    0    0 -0.10725150610E+02  0.12448088080E+01 -0.13168627672E+02  0.17029126793E+02  0.00000000000E+00 0.  1.
</event>
<event>
 7    1  0.1541705E-008  0.4614232E+02  0.7816164E-02  0.1320468E+00
        -11   -1    0    0    0    0  0.00000000000E+00  0.00000000000E+00  0.45593999997E+02  0.45594000000E+02  0.51100000000E-03 0. -1.
         11   -1    0    0    0    0 -0.00000000000E+00 -0.00000000000E+00 -0.45593999997E+02  0.45594000000E+02  0.51100000000E-03 0.  1.
    9900012    2    1    2    0    0  0.13156846711E+02 -0.30502275048E+02  0.30424038605E+02  0.46142317371E+02  0.99999964433E+01 0.  0.
        -12    1    1    2    0    0 -0.13156846711E+02  0.30502275048E+02 -0.30424038605E+02  0.45045682629E+02  0.00000000000E+00 0.  1.
         11    1    3    3    0    0  0.67581658707E+01 -0.12213945351E+02  0.14762550421E+02  0.20317139615E+02  0.51100000000E-03 0. -1.
        -11    1    3    3    0    0  0.37618696540E+01 -0.10991987960E+02  0.50204607917E+01  0.12656243101E+02  0.51100000000E-03 0.  1.
         12    1    3    3    0    0  0.26368111861E+01 -0.72963417377E+01  0.10641027392E+02  0.13168934655E+02  0.00000000000E+00 0. -1.
</event>
<event>
 7    1  0.1541705E-008  0.4614232E+02  0.7816164E-02  0.1320468E+00
        -11   -1    0    0    0    0  0.00000000000E+00  0.00000000000E+00  0.45593999997E+02  0.45594000000E+02  0.51100000000E-03 0.  1.
         11   -1    0    0    0    0 -0.00000000000E+00 -0.00000000000E+00 -0.45593999997E+02  0.45594000000E+02  0.51100000000E-03 0. -1.
    9900012    2    1    2    0    0 -0.30159140276E+02  0.28895390014E+02 -0.16869982665E+02  0.46142316285E+02  0.99999865395E+01 0.  0.
        -12    1    1    2    0    0  0.30159140276E+02 -0.28895390014E+02  0.16869982665E+02  0.45045683715E+02  0.00000000000E+00 0.  1.
         11    1    3    3    0    0 -0.80095904107E+01  0.11309997378E+02 -0.33132737978E+01  0.14249468859E+02  0.51100000000E-03 0. -1.
        -11    1    3    3    0    0 -0.20141978069E+01  0.25094948073E+01  0.19798024442E+00  0.32239344645E+01  0.51100000000E-03 0.  1.
         12    1    3    3    0    0 -0.20135352059E+02  0.15075897829E+02 -0.13754689111E+02  0.28668912962E+02  0.00000000000E+00 0. -1.
</event>
<event>
 7    1  0.1541705E-008  0.4614232E+02  0.7816164E-02  0.1320468E+00
        -11   -1    0    0    0    0  0.00000000000E+00  0.00000000000E+00  0.45593999997E+02  0.45594000000E+02  0.51100000000E-03 0.  1.
         11   -1    0    0    0    0 -0.00000000000E+00 -0.00000000000E+00 -0.45593999997E+02  0.45594000000E+02  0.51100000000E-03 0. -1.
    9900012    2    1    2    0    0  0.25683575295E+02 -0.34030560634E+02 -0.14539208178E+02  0.46142315729E+02  0.99999814737E+01 0.  0.
        -12    1    1    2    0    0 -0.25683575295E+02  0.34030560634E+02  0.14539208178E+02  0.45045684271E+02  0.00000000000E+00 0.  1.
         11    1    3    3    0    0  0.30500846330E+01 -0.76205055221E+01 -0.24472069513E+01  0.85652754074E+01  0.51100000000E-03 0. -1.
        -11    1    3    3    0    0  0.53734545513E+01 -0.11190621387E+02 -0.59128726990E+01  0.13750130351E+02  0.51100000000E-03 0.  1.
        -12    1    3    3    0    0  0.17260036110E+02 -0.15219433725E+02 -0.61791285272E+01  0.23826909972E+02  0.00000000000E+00 0.  1.
</event>
<event>
 7    1  0.1541705E-008  0.4614232E+02  0.7816164E-02  0.1320468E+00
        -11   -1    0    0    0    0  0.00000000000E+00  0.00000000000E+00  0.45593999997E+02  0.45594000000E+02  0.51100000000E-03 0.  1.
         11   -1    0    0    0    0 -0.00000000000E+00 -0.00000000000E+00 -0.45593999997E+02  0.45594000000E+02  0.51100000000E-03 0. -1.
    9900012    2    1    2    0    0  0.34983343251E+02 -0.27260086983E+02 -0.78845943175E+01  0.46142317910E+02  0.10000001360E+02 0.  0.
        -12    1    1    2    0    0 -0.34983343251E+02  0.27260086983E+02  0.78845943175E+01  0.45045682090E+02  0.00000000000E+00 0.  1.
         11    1    3    3    0    0  0.48840185103E+01 -0.67311931835E+01 -0.57724214602E+00  0.83364145314E+01  0.51100000000E-03 0.  1.
        -11    1    3    3    0    0  0.30462152489E+02 -0.20003074973E+02 -0.70563162049E+01  0.37119500822E+02  0.51100000000E-03 0. -1.
         12    1    3    3    0    0 -0.36282774805E+00 -0.52581882680E+00 -0.25103596658E+00  0.68640255674E+00  0.00000000000E+00 0. -1.
</event>
<event>
 7    1  0.1541705E-008  0.4614232E+02  0.7816164E-02  0.1320468E+00
        -11   -1    0    0    0    0  0.00000000000E+00  0.00000000000E+00  0.45593999997E+02  0.45594000000E+02  0.51100000000E-03 0. -1.
         11   -1    0    0    0    0 -0.00000000000E+00 -0.00000000000E+00 -0.45593999997E+02  0.45594000000E+02  0.51100000000E-03 0.  1.
    9900012    2    1    2    0    0  0.34209997392E+02 -0.29175792569E+02  0.27500148717E+01  0.46142319015E+02  0.10000011434E+02 0.  0.
        -12    1    1    2    0    0 -0.34209997392E+02  0.29175792569E+02 -0.27500148717E+01  0.45045680985E+02  0.00000000000E+00 0.  1.
         11    1    3    3    0    0  0.23358343719E+02 -0.22067810425E+02  0.92268943319E+00  0.32147345680E+02  0.51100000000E-03 0. -1.
        -11    1    3    3    0    0 -0.14551120704E+00 -0.13859884334E+01 -0.27711902203E+00  0.14208915027E+01  0.51100000000E-03 0.  1.
         12    1    3    3    0    0  0.10997164880E+02 -0.57219937115E+01  0.21044444605E+01  0.12574081832E+02  0.00000000000E+00 0. -1.
</event>
<event>
 7    1  0.1541705E-008  0.4614232E+02  0.7816164E-02  0.1320468E+00
        -11   -1    0    0    0    0  0.00000000000E+00  0.00000000000E+00  0.45593999997E+02  0.45594000000E+02  0.51100000000E-03 0.  1.
         11   -1    0    0    0    0 -0.00000000000E+00 -0.00000000000E+00 -0.45593999997E+02  0.45594000000E+02  0.51100000000E-03 0. -1.
    9900012    2    1    2    0    0  0.36274888912E+02  0.11853551266E+02 -0.23931970240E+02  0.46142318268E+02  0.10000004618E+02 0.  0.
        -12    1    1    2    0    0 -0.36274888912E+02 -0.11853551266E+02  0.23931970240E+02  0.45045681732E+02  0.00000000000E+00 0.  1.
         11    1    3    3    0    0  0.15927044266E+02  0.57291873772E+01 -0.14900647310E+02  0.22550468234E+02  0.51100000000E-03 0. -1.
        -11    1    3    3    0    0  0.70803078190E+01  0.44135749352E+01 -0.44216035154E+01  0.94425092231E+01  0.51100000000E-03 0.  1.
         12    1    3    3    0    0  0.13267536827E+02  0.17107889541E+01 -0.46097194146E+01  0.14149340811E+02  0.00000000000E+00 0. -1.
</event>
<event>
 7    1  0.1541705E-008  0.4614232E+02  0.7816164E-02  0.1320468E+00
        -11   -1    0    0    0    0  0.00000000000E+00  0.00000000000E+00  0.45593999997E+02  0.45594000000E+02  0.51100000000E-03 0.  1.
         11   -1    0    0    0    0 -0.00000000000E+00 -0.00000000000E+00 -0.45593999997E+02  0.45594000000E+02  0.51100000000E-03 0. -1.
    9900012    2    1    2    0    0 -0.46029800215E+01 -0.34851726917E+02 -0.28165284327E+02  0.46142317239E+02  0.99999952414E+01 0.  0.
        -12    1    1    2    0    0  0.46029800215E+01  0.34851726917E+02  0.28165284327E+02  0.45045682761E+02  0.00000000000E+00 0.  1.
         11    1    3    3    0    0  0.17567013799E+01 -0.77348482950E+01 -0.10412823458E+02  0.13089720032E+02  0.51100000000E-03 0. -1.
        -11    1    3    3    0    0 -0.39247652591E+01 -0.18910339327E+02 -0.12641940260E+02  0.23082967088E+02  0.51100000000E-03 0.  1.
         12    1    3    3    0    0 -0.24349161422E+01 -0.82065392952E+01 -0.51105206093E+01  0.99696301196E+01  0.00000000000E+00 0. -1.
</event>
<event>
 7    1  0.1541705E-008  0.4614232E+02  0.7816164E-02  0.1320468E+00
        -11   -1    0    0    0    0  0.00000000000E+00  0.00000000000E+00  0.45593999997E+02  0.45594000000E+02  0.51100000000E-03 0.  1.
         11   -1    0    0    0    0 -0.00000000000E+00 -0.00000000000E+00 -0.45593999997E+02  0.45594000000E+02  0.51100000000E-03 0. -1.
    9900012    2    1    2    0    0  0.84517923328E+00 -0.44315412635E+02 -0.80339015954E+01  0.46142315414E+02  0.99999785985E+01 0.  0.
        -12    1    1    2    0    0 -0.84517923328E+00  0.44315412635E+02  0.80339015954E+01  0.45045684586E+02  0.00000000000E+00 0.  1.
         11    1    3    3    0    0 -0.10161761808E+01 -0.27535999875E+02 -0.72030235118E+00  0.27564156778E+02  0.51100000000E-03 0. -1.
        -11    1    3    3    0    0  0.99378186164E+00 -0.11456391062E+02 -0.62247410197E+01  0.13076081201E+02  0.51100000000E-03 0.  1.
        -12    1    3    3    0    0  0.86757355247E+00 -0.53230216983E+01 -0.10888582245E+01  0.55020774352E+01  0.00000000000E+00 0.  1.
</event>
<event>
 7    1  0.1541705E-008  0.4614232E+02  0.7816164E-02  0.1320468E+00
        -11   -1    0    0    0    0  0.00000000000E+00  0.00000000000E+00  0.45593999997E+02  0.45594000000E+02  0.51100000000E-03 0.  1.
         11   -1    0    0    0    0 -0.00000000000E+00 -0.00000000000E+00 -0.45593999997E+02  0.45594000000E+02  0.51100000000E-03 0. -1.
    9900012    2    1    2    0    0  0.20299630386E+02 -0.12745291227E+01 -0.40192215111E+02  0.46142316812E+02  0.99999913456E+01 0.  0.
        -12    1    1    2    0    0 -0.20299630386E+02  0.12745291227E+01  0.40192215111E+02  0.45045683188E+02  0.00000000000E+00 0.  1.
         11    1    3    3    0    0  0.74495753083E+01  0.37633974173E+01 -0.18475473621E+02  0.20273195560E+02  0.51100000000E-03 0. -1.
        -11    1    3    3    0    0  0.58192594198E+01 -0.19973249505E+01 -0.12100833504E+02  0.13575097013E+02  0.51100000000E-03 0.  1.
        -12    1    3    3    0    0  0.70307956584E+01 -0.30406015894E+01 -0.96159079859E+01  0.12294024240E+02  0.00000000000E+00 0.  1.
</event>
<event>
 7    1  0.1541705E-008  0.4614232E+02  0.7816164E-02  0.1320468E+00
        -11   -1    0    0    0    0  0.00000000000E+00  0.00000000000E+00  0.45593999997E+02  0.45594000000E+02  0.51100000000E-03 0.  1.
         11   -1    0    0    0    0 -0.00000000000E+00 -0.00000000000E+00 -0.45593999997E+02  0.45594000000E+02  0.51100000000E-03 0. -1.
    9900012    2    1    2    0    0  0.17200375302E+02 -0.29228163459E+02 -0.29647513037E+02  0.46142317865E+02  0.10000000947E+02 0.  0.
        -12    1    1    2    0    0 -0.17200375302E+02  0.29228163459E+02  0.29647513037E+02  0.45045682135E+02  0.00000000000E+00 0.  1.
         11    1    3    3    0    0  0.16859911626E+02 -0.28841603950E+02 -0.27884047626E+02  0.43515685112E+02  0.51100000000E-03 0. -1.
        -11    1    3    3    0    0  0.80693568500E+00 -0.71042333884E+00 -0.39560751890E+00  0.11455793688E+01  0.51100000000E-03 0.  1.
         12    1    3    3    0    0 -0.46647200880E+00  0.32386382997E+00 -0.13678578919E+01  0.14810533845E+01  0.00000000000E+00 0. -1.
</event>
<event>
 7    1  0.1541705E-008  0.4614232E+02  0.7816164E-02  0.1320468E+00
        -11   -1    0    0    0    0  0.00000000000E+00  0.00000000000E+00  0.45593999997E+02  0.45594000000E+02  0.51100000000E-03 0.  1.
         11   -1    0    0    0    0 -0.00000000000E+00 -0.00000000000E+00 -0.45593999997E+02  0.45594000000E+02  0.51100000000E-03 0. -1.
    9900012    2    1    2    0    0  0.62557630269E+01 -0.11527918164E+01 -0.44594282613E+02  0.46142317168E+02  0.99999945900E+01 0.  0.
        -12    1    1    2    0    0 -0.62557630269E+01  0.11527918164E+01  0.44594282613E+02  0.45045682832E+02  0.00000000000E+00 0.  1.
         11    1    3    3    0    0  0.59724129917E+01  0.29087278385E+01 -0.21478173901E+02  0.22482045480E+02  0.51100000000E-03 0.  1.
        -11    1    3    3    0    0 -0.10256251632E+01 -0.20775383370E+01 -0.15767684074E+02  0.15936998897E+02  0.51100000000E-03 0. -1.
        -12    1    3    3    0    0  0.13089751984E+01 -0.19839813179E+01 -0.73484246379E+01  0.77232727906E+01  0.00000000000E+00 0.  1.
</event>
<event>
 7    1  0.1541705E-008  0.4614232E+02  0.7816164E-02  0.1320468E+00
        -11   -1    0    0    0    0  0.00000000000E+00  0.00000000000E+00  0.45593999997E+02  0.45594000000E+02  0.51100000000E-03 0.  1.
         11   -1    0    0    0    0 -0.00000000000E+00 -0.00000000000E+00 -0.45593999997E+02  0.45594000000E+02  0.51100000000E-03 0. -1.
    9900012    2    1    2    0    0 -0.17686170125E+02  0.34117953663E+02 -0.23500595997E+02  0.46142318874E+02  0.10000010150E+02 0.  0.
        -12    1    1    2    0    0  0.17686170125E+02 -0.34117953663E+02  0.23500595997E+02  0.45045681126E+02  0.00000000000E+00 0.  1.
         11    1    3    3    0    0 -0.17125430462E+02  0.29648233061E+02 -0.18419621366E+02  0.38879050190E+02  0.51100000000E-03 0. -1.
        -11    1    3    3    0    0 -0.16432165054E+00  0.22569221782E+00 -0.19613791057E+01  0.19811478590E+01  0.51100000000E-03 0.  1.
        -12    1    3    3    0    0 -0.39641801275E+00  0.42440283847E+01 -0.31195955254E+01  0.52821208253E+01  0.00000000000E+00 0.  1.
</event>
<event>
 7    1  0.1541705E-008  0.4614233E+02  0.7816164E-02  0.1320468E+00
        -11   -1    0    0    0    0  0.00000000000E+00  0.00000000000E+00  0.45593999997E+02  0.45594000000E+02  0.51100000000E-03 0.  1.
         11   -1    0    0    0    0 -0.00000000000E+00 -0.00000000000E+00 -0.45593999997E+02  0.45594000000E+02  0.51100000000E-03 0. -1.
    9900012    2    1    2    0    0  0.15964042452E+02  0.33458053376E+02 -0.25589456237E+02  0.46142331423E+02  0.10000124575E+02 0.  0.
        -12    1    1    2    0    0 -0.15964042452E+02 -0.33458053376E+02  0.25589456237E+02  0.45045668577E+02  0.00000000000E+00 0.  1.
         11    1    3    3    0    0  0.90016619964E+01  0.25083356496E+02 -0.17517849363E+02  0.31891687606E+02  0.51100000000E-03 0. -1.
        -11    1    3    3    0    0  0.25745679240E+01  0.12310087805E+01 -0.40445828159E+01  0.49499932352E+01  0.51100000000E-03 0.  1.
         12    1    3    3    0    0  0.43878125312E+01  0.71436880996E+01 -0.40270240577E+01  0.93006505813E+01  0.00000000000E+00 0. -1.
</event>
<event>
 7    1  0.1541705E-008  0.4614232E+02  0.7816164E-02  0.1320468E+00
        -11   -1    0    0    0    0  0.00000000000E+00  0.00000000000E+00  0.45593999997E+02  0.45594000000E+02  0.51100000000E-03 0. -1.
         11   -1    0    0    0    0 -0.00000000000E+00 -0.00000000000E+00 -0.45593999997E+02  0.45594000000E+02  0.51100000000E-03 0.  1.
    9900012    2    1    2    0    0 -0.88777251354E-01 -0.37075812411E+02  0.25582996973E+02  0.46142317838E+02  0.10000000697E+02 0.  0.
        -12    1    1    2    0    0  0.88777251354E-01  0.37075812411E+02 -0.25582996973E+02  0.45045682162E+02  0.00000000000E+00 0.  1.
         11    1    3    3    0    0  0.10077520089E+01 -0.43865331374E+01  0.54168541259E+01  0.70426945099E+01  0.51100000000E-03 0. -1.
        -11    1    3    3    0    0  0.30785710104E+01 -0.15944582040E+02  0.99581163174E+01  0.19049183100E+02  0.51100000000E-03 0.  1.
        -12    1    3    3    0    0 -0.41751002707E+01 -0.16744697233E+02  0.10208026530E+02  0.20050440228E+02  0.00000000000E+00 0.  1.
</event>
<event>
 7    1  0.1541705E-008  0.4614232E+02  0.7816164E-02  0.1320468E+00
        -11   -1    0    0    0    0  0.00000000000E+00  0.00000000000E+00  0.45593999997E+02  0.45594000000E+02  0.51100000000E-03 0.  1.
         11   -1    0    0    0    0 -0.00000000000E+00 -0.00000000000E+00 -0.45593999997E+02  0.45594000000E+02  0.51100000000E-03 0. -1.
    9900012    2    1    2    0    0 -0.43872792876E+02  0.49565560569E+01  0.89288322844E+01  0.46142318202E+02  0.10000004019E+02 0.  0.
        -12    1    1    2    0    0  0.43872792876E+02 -0.49565560569E+01 -0.89288322844E+01  0.45045681798E+02  0.00000000000E+00 0.  1.
         11    1    3    3    0    0 -0.22779621304E+02  0.23557051783E+01  0.53541871704E+01  0.23518669481E+02  0.51100000000E-03 0. -1.
        -11    1    3    3    0    0 -0.77959245049E+01 -0.62345038736E+00  0.42941731527E+01  0.89221663624E+01  0.51100000000E-03 0.  1.
         12    1    3    3    0    0 -0.13297247067E+02  0.32243012659E+01 -0.71952803864E+00  0.13701482358E+02  0.00000000000E+00 0. -1.
</event>
<event>
 7    1  0.1541705E-008  0.4614232E+02  0.7816164E-02  0.1320468E+00
        -11   -1    0    0    0    0  0.00000000000E+00  0.00000000000E+00  0.45593999997E+02  0.45594000000E+02  0.51100000000E-03 0. -1.
         11   -1    0    0    0    0 -0.00000000000E+00 -0.00000000000E+00 -0.45593999997E+02  0.45594000000E+02  0.51100000000E-03 0.  1.
    9900012    2    1    2    0    0  0.41863099852E+02 -0.42094957770E+00  0.16625803071E+02  0.46142315905E+02  0.99999830769E+01 0.  0.
        -12    1    1    2    0    0 -0.41863099852E+02  0.42094957770E+00 -0.16625803071E+02  0.45045684095E+02  0.00000000000E+00 0.  1.
         11    1    3    3    0    0  0.12811084797E+02  0.43949373827E+00  0.75914805636E+01  0.14897906760E+02  0.51100000000E-03 0. -1.
        -11    1    3    3    0    0  0.12815799176E+02  0.28954412462E+01  0.26817007744E+01  0.13409690818E+02  0.51100000000E-03 0.  1.
        -12    1    3    3    0    0  0.16236215879E+02 -0.37558845622E+01  0.63526217330E+01  0.17834718327E+02  0.00000000000E+00 0.  1.
</event>
<event>
 7    1  0.1541705E-008  0.4614232E+02  0.7816164E-02  0.1320468E+00
        -11   -1    0    0    0    0  0.00000000000E+00  0.00000000000E+00  0.45593999997E+02  0.45594000000E+02  0.51100000000E-03 0. -1.
         11   -1    0    0    0    0 -0.00000000000E+00 -0.00000000000E+00 -0.45593999997E+02  0.45594000000E+02  0.51100000000E-03 0.  1.
    9900012    2    1    2    0    0  0.22284319530E+02  0.15668743234E+02  0.35874964103E+02  0.46142318066E+02  0.10000002784E+02 0.  0.
        -12    1    1    2    0    0 -0.22284319530E+02 -0.15668743234E+02 -0.35874964103E+02  0.45045681934E+02  0.00000000000E+00 0.  1.
         11    1    3    3    0    0  0.10304944496E+02  0.10397568736E+02  0.20833404962E+02  0.25462365940E+02  0.51100000000E-03 0. -1.
        -11    1    3    3    0    0  0.91051933109E+01  0.14171695005E+01  0.83142033770E+01  0.12411240578E+02  0.51100000000E-03 0.  1.
         12    1    3    3    0    0  0.28741817233E+01  0.38540049976E+01  0.67273557644E+01  0.82687115490E+01  0.00000000000E+00 0. -1.
</event>
<event>
 7    1  0.1541705E-008  0.4614232E+02  0.7816164E-02  0.1320468E+00
        -11   -1    0    0    0    0  0.00000000000E+00  0.00000000000E+00  0.45593999997E+02  0.45594000000E+02  0.51100000000E-03 0.  1.
         11   -1    0    0    0    0 -0.00000000000E+00 -0.00000000000E+00 -0.45593999997E+02  0.45594000000E+02  0.51100000000E-03 0. -1.
    9900012    2    1    2    0    0  0.94653213178E+01 -0.32845829766E+02 -0.29337222724E+02  0.46142317878E+02  0.10000001070E+02 0.  0.
        -12    1    1    2    0    0 -0.94653213178E+01  0.32845829766E+02  0.29337222724E+02  0.45045682122E+02  0.00000000000E+00 0.  1.
         11    1    3    3    0    0  0.69023925353E+00 -0.23228330129E+01 -0.51460078741E+01  0.56880032291E+01  0.51100000000E-03 0. -1.
        -11    1    3    3    0    0  0.22473677958E+01 -0.22521595796E+01 -0.39737193364E+01  0.50905137665E+01  0.51100000000E-03 0.  1.
         12    1    3    3    0    0  0.65277142684E+01 -0.28270837173E+02 -0.20217495514E+02  0.35363800883E+02  0.00000000000E+00 0. -1.
</event>
<event>
 7    1  0.1541705E-008  0.4614232E+02  0.7816164E-02  0.1320468E+00
        -11   -1    0    0    0    0  0.00000000000E+00  0.00000000000E+00  0.45593999997E+02  0.45594000000E+02  0.51100000000E-03 0. -1.
         11   -1    0    0    0    0 -0.00000000000E+00 -0.00000000000E+00 -0.45593999997E+02  0.45594000000E+02  0.51100000000E-03 0.  1.
    9900012    2    1    2    0    0 -0.22102164195E+02 -0.28675874599E+02  0.26801155996E+02  0.46142318644E+02  0.10000008048E+02 0.  0.
        -12    1    1    2    0    0  0.22102164195E+02  0.28675874599E+02 -0.26801155996E+02  0.45045681356E+02  0.00000000000E+00 0.  1.
         11    1    3    3    0    0 -0.68635270446E+01 -0.74431828549E+01  0.10959738962E+02  0.14920618381E+02  0.51100000000E-03 0. -1.
        -11    1    3    3    0    0 -0.97852550856E+01 -0.14369847847E+02  0.69120014582E+01  0.18708808318E+02  0.51100000000E-03 0.  1.
        -12    1    3    3    0    0 -0.54533820644E+01 -0.68628438971E+01  0.89294155755E+01  0.12512891945E+02  0.00000000000E+00 0.  1.
</event>
<event>
 7    1  0.1541705E-008  0.4614232E+02  0.7816164E-02  0.1320468E+00
        -11   -1    0    0    0    0  0.00000000000E+00  0.00000000000E+00  0.45593999997E+02  0.45594000000E+02  0.51100000000E-03 0.  1.
         11   -1    0    0    0    0 -0.00000000000E+00 -0.00000000000E+00 -0.45593999997E+02  0.45594000000E+02  0.51100000000E-03 0. -1.
    9900012    2    1    2    0    0 -0.21436136867E+02  0.12938544304E+02 -0.37445956265E+02  0.46142317264E+02  0.99999954706E+01 0.  0.
        -12    1    1    2    0    0  0.21436136867E+02 -0.12938544304E+02  0.37445956265E+02  0.45045682736E+02  0.00000000000E+00 0.  1.
         11    1    3    3    0    0 -0.14906829119E+02  0.10394890592E+02 -0.22172255893E+02  0.28668383918E+02  0.51100000000E-03 0. -1.
        -11    1    3    3    0    0  0.74464483303E+00 -0.37633036071E-01 -0.10041197815E+01  0.12506674096E+01  0.51100000000E-03 0.  1.
         12    1    3    3    0    0 -0.72739525807E+01  0.25812867480E+01 -0.14269580591E+02  0.16223265937E+02  0.00000000000E+00 0. -1.
</event>
<event>
 7    1  0.1541705E-008  0.4614232E+02  0.7816164E-02  0.1320468E+00
        -11   -1    0    0    0    0  0.00000000000E+00  0.00000000000E+00  0.45593999997E+02  0.45594000000E+02  0.51100000000E-03 0.  1.
         11   -1    0    0    0    0 -0.00000000000E+00 -0.00000000000E+00 -0.45593999997E+02  0.45594000000E+02  0.51100000000E-03 0. -1.
    9900012    2    1    2    0    0 -0.10220249814E+02 -0.41483568846E+02 -0.14274925166E+02  0.46142317865E+02  0.10000000948E+02 0.  0.
        -12    1    1    2    0    0  0.10220249814E+02  0.41483568846E+02  0.14274925166E+02  0.45045682135E+02  0.00000000000E+00 0.  1.
         11    1    3    3    0    0 -0.51062310950E+01 -0.65916531942E+01 -0.22457045209E+01  0.86351998752E+01  0.51100000000E-03 0. -1.
        -11    1    3    3    0    0 -0.59049015676E+00 -0.15952900348E+01 -0.15689877499E+01  0.23141632917E+01  0.51100000000E-03 0.  1.
         12    1    3    3    0    0 -0.45235285625E+01 -0.33296625617E+02 -0.10460232895E+02  0.35192954698E+02  0.00000000000E+00 0. -1.
</event>
<event>
 7    1  0.1541705E-008  0.4614231E+02  0.7816164E-02  0.1320468E+00
        -11   -1    0    0    0    0  0.00000000000E+00  0.00000000000E+00  0.45593999997E+02  0.45594000000E+02  0.51100000000E-03 0. -1.
         11   -1    0    0    0    0 -0.00000000000E+00 -0.00000000000E+00 -0.45593999997E+02  0.45594000000E+02  0.51100000000E-03 0.  1.
    9900012    2    1    2    0    0 -0.34684744918E+02  0.18046183515E+02 -0.22370027266E+02  0.46142307761E+02  0.99999088080E+01 0.  0.
        -12    1    1    2    0    0  0.34684744918E+02 -0.18046183515E+02  0.22370027266E+02  0.45045692239E+02  0.00000000000E+00 0.  1.
         11    1    3    3    0    0 -0.26236414434E+02  0.15065260678E+02 -0.18324858985E+02  0.35371061318E+02  0.51100000000E-03 0. -1.
        -11    1    3    3    0    0  0.12022941015E+00  0.12222036362E+01 -0.36291034721E+00  0.12806018197E+01  0.51100000000E-03 0.  1.
        -12    1    3    3    0    0 -0.85685598938E+01  0.17587192003E+01 -0.36822579336E+01  0.94906446234E+01  0.00000000000E+00 0.  1.
</event>
<event>
 7    1  0.1541705E-008  0.4614232E+02  0.7816164E-02  0.1320468E+00
        -11   -1    0    0    0    0  0.00000000000E+00  0.00000000000E+00  0.45593999997E+02  0.45594000000E+02  0.51100000000E-03 0.  1.
         11   -1    0    0    0    0 -0.00000000000E+00 -0.00000000000E+00 -0.45593999997E+02  0.45594000000E+02  0.51100000000E-03 0. -1.
    9900012    2    1    2    0    0  0.14045321140E+02 -0.36258215619E+02 -0.22741685175E+02  0.46142317738E+02  0.99999997934E+01 0.  0.
        -12    1    1    2    0    0 -0.14045321140E+02  0.36258215619E+02  0.22741685175E+02  0.45045682262E+02  0.00000000000E+00 0.  1.
         11    1    3    3    0    0  0.50905421581E+01 -0.46587791173E+01 -0.40162150971E+01  0.79842235875E+01  0.51100000000E-03 0. -1.
        -11    1    3    3    0    0  0.30592211552E+01 -0.11196227453E+02 -0.95178252311E+01  0.15010107950E+02  0.51100000000E-03 0.  1.
         12    1    3    3    0    0  0.58955578266E+01 -0.20403209048E+02 -0.92076448472E+01  0.23147986201E+02  0.00000000000E+00 0. -1.
</event>
<event>
 7    1  0.1541705E-008  0.4614232E+02  0.7816164E-02  0.1320468E+00
        -11   -1    0    0    0    0  0.00000000000E+00  0.00000000000E+00  0.45593999997E+02  0.45594000000E+02  0.51100000000E-03 0.  1.
         11   -1    0    0    0    0 -0.00000000000E+00 -0.00000000000E+00 -0.45593999997E+02  0.45594000000E+02  0.51100000000E-03 0. -1.
    9900012    2    1    2    0    0 -0.20964489710E+02 -0.32053433754E+02 -0.23710356923E+02  0.46142317969E+02  0.10000001895E+02 0.  0.
        -12    1    1    2    0    0  0.20964489710E+02  0.32053433754E+02  0.23710356923E+02  0.45045682031E+02  0.00000000000E+00 0.  1.
         11    1    3    3    0    0 -0.12638507437E+02 -0.21589156852E+02 -0.18390360960E+02  0.31048815441E+02  0.51100000000E-03 0. -1.
        -11    1    3    3    0    0 -0.59733401182E+00  0.19685976964E+00 -0.10980069877E+01  0.12653779264E+01  0.51100000000E-03 0.  1.
        -12    1    3    3    0    0 -0.77286482611E+01 -0.10661136672E+02 -0.42219889762E+01  0.13828124601E+02  0.00000000000E+00 0.  1.
</event>
<event>
 7    1  0.1541705E-008  0.4614232E+02  0.7816164E-02  0.1320468E+00
        -11   -1    0    0    0    0  0.00000000000E+00  0.00000000000E+00  0.45593999997E+02  0.45594000000E+02  0.51100000000E-03 0.  1.
         11   -1    0    0    0    0 -0.00000000000E+00 -0.00000000000E+00 -0.45593999997E+02  0.45594000000E+02  0.51100000000E-03 0. -1.
    9900012    2    1    2    0    0 -0.20447923630E+02 -0.23928868165E+02 -0.32224294926E+02  0.46142317677E+02  0.99999992341E+01 0.  0.
        -12    1    1    2    0    0  0.20447923630E+02  0.23928868165E+02  0.32224294926E+02  0.45045682323E+02  0.00000000000E+00 0.  1.
         11    1    3    3    0    0 -0.11183360492E+01 -0.12735497983E+01 -0.32264199563E+01  0.36445014204E+01  0.51100000000E-03 0. -1.
        -11    1    3    3    0    0 -0.20146991292E+02 -0.20957106618E+02 -0.28013671182E+02  0.40371615639E+02  0.51100000000E-03 0.  1.
        -12    1    3    3    0    0  0.81740371150E+00 -0.16982117488E+01 -0.98420378760E+00  0.21262006177E+01  0.00000000000E+00 0.  1.
</event>
<event>
 7    1  0.1541705E-008  0.4614232E+02  0.7816164E-02  0.1320468E+00
        -11   -1    0    0    0    0  0.00000000000E+00  0.00000000000E+00  0.45593999997E+02  0.45594000000E+02  0.51100000000E-03 0. -1.
         11   -1    0    0    0    0 -0.00000000000E+00 -0.00000000000E+00 -0.45593999997E+02  0.45594000000E+02  0.51100000000E-03 0.  1.
    9900012    2    1    2    0    0  0.36185507415E+02  0.15008061633E+02  0.22236924600E+02  0.46142315672E+02  0.99999809506E+01 0.  0.
        -12    1    1    2    0    0 -0.36185507415E+02 -0.15008061633E+02 -0.22236924600E+02  0.45045684328E+02  0.00000000000E+00 0.  1.
         11    1    3    3    0    0  0.11292138675E+02  0.25643270324E+01  0.72181283217E+01  0.13645129011E+02  0.51100000000E-03 0. -1.
        -11    1    3    3    0    0  0.20945433387E+02  0.82327340139E+01  0.14338834934E+02  0.26685038442E+02  0.51100000000E-03 0.  1.
        -12    1    3    3    0    0  0.39479353537E+01  0.42110005870E+01  0.67996134425E+00  0.58121482199E+01  0.00000000000E+00 0.  1.
</event>
<event>
 7    1  0.1541705E-008  0.4614232E+02  0.7816164E-02  0.1320468E+00
        -11   -1    0    0    0    0  0.00000000000E+00  0.00000000000E+00  0.45593999997E+02  0.45594000000E+02  0.51100000000E-03 0.  1.
         11   -1    0    0    0    0 -0.00000000000E+00 -0.00000000000E+00 -0.45593999997E+02  0.45594000000E+02  0.51100000000E-03 0. -1.
    9900012    2    1    2    0    0  0.58761280879E+01  0.38922992336E+02 -0.21899435203E+02  0.46142317900E+02  0.10000001264E+02 0.  0.
        -12    1    1    2    0    0 -0.58761280879E+01 -0.38922992336E+02  0.21899435203E+02  0.45045682100E+02  0.00000000000E+00 0.  1.
         11    1    3    3    0    0  0.54153933855E+01  0.30363932608E+02 -0.16180346869E+02  0.34829563793E+02  0.51100000000E-03 0. -1.
        -11    1    3    3    0    0 -0.16751201107E+00  0.18883693635E+01 -0.39523944060E+01  0.43835397715E+01  0.51100000000E-03 0.  1.
         12    1    3    3    0    0  0.62824671344E+00  0.66706903640E+01 -0.17666939274E+01  0.69292143348E+01  0.00000000000E+00 0. -1.
</event>
<event>
 7    1  0.1541705E-008  0.4614232E+02  0.7816164E-02  0.1320468E+00
        -11   -1    0    0    0    0  0.00000000000E+00  0.00000000000E+00  0.45593999997E+02  0.45594000000E+02  0.51100000000E-03 0.  1.
         11   -1    0    0    0    0 -0.00000000000E+00 -0.00000000000E+00 -0.45593999997E+02  0.45594000000E+02  0.51100000000E-03 0. -1.
    9900012    2    1    2    0    0  0.28032458560E+02  0.24888377465E+01 -0.35172437554E+02  0.46142318634E+02  0.10000007960E+02 0.  0.
        -12    1    1    2    0    0 -0.28032458560E+02 -0.24888377465E+01  0.35172437554E+02  0.45045681366E+02  0.00000000000E+00 0.  1.
         11    1    3    3    0    0  0.13584668458E+02 -0.23245449018E+01 -0.17591491548E+02  0.22347422698E+02  0.51100000000E-03 0. -1.
        -11    1    3    3    0    0  0.49305302292E+01 -0.11835793032E+00 -0.32816502534E+01  0.59239653601E+01  0.51100000000E-03 0.  1.
         12    1    3    3    0    0  0.95172598734E+01  0.49317405786E+01 -0.14299295752E+02  0.17870930576E+02  0.00000000000E+00 0. -1.
</event>
<event>
 7    1  0.1541705E-008  0.4614232E+02  0.7816164E-02  0.1320468E+00
        -11   -1    0    0    0    0  0.00000000000E+00  0.00000000000E+00  0.45593999997E+02  0.45594000000E+02  0.51100000000E-03 0. -1.
         11   -1    0    0    0    0 -0.00000000000E+00 -0.00000000000E+00 -0.45593999997E+02  0.45594000000E+02  0.51100000000E-03 0.  1.
    9900012    2    1    2    0    0 -0.12223729862E+02 -0.41117362544E+02  0.13749776444E+02  0.46142318447E+02  0.10000006256E+02 0.  0.
        -12    1    1    2    0    0  0.12223729862E+02  0.41117362544E+02 -0.13749776444E+02  0.45045681553E+02  0.00000000000E+00 0.  1.
         11    1    3    3    0    0 -0.56043340473E+01 -0.14728279382E+02  0.15244354406E+01  0.15832077480E+02  0.51100000000E-03 0.  1.
        -11    1    3    3    0    0 -0.70527908862E+01 -0.23788126571E+02  0.96432501514E+01  0.26619712598E+02  0.51100000000E-03 0. -1.
        -12    1    3    3    0    0  0.43339507106E+00 -0.26009565908E+01  0.25820908522E+01  0.36905283692E+01  0.00000000000E+00 0.  1.
</event>
<event>
 7    1  0.1541705E-008  0.4614232E+02  0.7816164E-02  0.1320468E+00
        -11   -1    0    0    0    0  0.00000000000E+00  0.00000000000E+00  0.45593999997E+02  0.45594000000E+02  0.51100000000E-03 0.  1.
         11   -1    0    0    0    0 -0.00000000000E+00 -0.00000000000E+00 -0.45593999997E+02  0.45594000000E+02  0.51100000000E-03 0. -1.
    9900012    2    1    2    0    0 -0.10576858220E+02  0.14510425775E+02 -0.41312118060E+02  0.46142317803E+02  0.10000000384E+02 0.  0.
        -12    1    1    2    0    0  0.10576858220E+02 -0.14510425775E+02  0.41312118060E+02  0.45045682197E+02  0.00000000000E+00 0.  1.
         11    1    3    3    0    0 -0.58200090129E+01  0.40649186321E+01 -0.24251507243E+02  0.25269184241E+02  0.51100000000E-03 0. -1.
        -11    1    3    3    0    0 -0.51720154172E+01  0.78962624551E+01 -0.13607613755E+02  0.16561034285E+02  0.51100000000E-03 0.  1.
         12    1    3    3    0    0  0.41516621047E+00  0.25492446881E+01 -0.34529970619E+01  0.43120992766E+01  0.00000000000E+00 0. -1.
</event>
<event>
 7    1  0.1541705E-008  0.4614232E+02  0.7816164E-02  0.1320468E+00
        -11   -1    0    0    0    0  0.00000000000E+00  0.00000000000E+00  0.45593999997E+02  0.45594000000E+02  0.51100000000E-03 0. -1.
         11   -1    0    0    0    0 -0.00000000000E+00 -0.00000000000E+00 -0.45593999997E+02  0.45594000000E+02  0.51100000000E-03 0.  1.
    9900012    2    1    2    0    0 -0.21269485174E+02 -0.38890296463E+02 -0.80166818666E+01  0.46142319333E+02  0.10000014337E+02 0.  0.
        -12    1    1    2    0    0  0.21269485174E+02  0.38890296463E+02  0.80166818666E+01  0.45045680667E+02  0.00000000000E+00 0.  1.
         11    1    3    3    0    0 -0.57201125408E+00 -0.10029573069E+00  0.64517507324E+00  0.86804795066E+00  0.51100000000E-03 0.  1.
        -11    1    3    3    0    0 -0.11654358152E+02 -0.26644000986E+02 -0.35768410456E+01  0.29300522941E+02  0.51100000000E-03 0. -1.
         12    1    3    3    0    0 -0.90431157682E+01 -0.12145999747E+02 -0.50850158943E+01  0.15973748442E+02  0.00000000000E+00 0. -1.
</event>
<event>
 7    1  0.1541705E-008  0.4614232E+02  0.7816164E-02  0.1320468E+00
        -11   -1    0    0    0    0  0.00000000000E+00  0.00000000000E+00  0.45593999997E+02  0.45594000000E+02  0.51100000000E-03 0.  1.
         11   -1    0    0    0    0 -0.00000000000E+00 -0.00000000000E+00 -0.45593999997E+02  0.45594000000E+02  0.51100000000E-03 0. -1.
    9900012    2    1    2    0    0  0.81054554289E+01 -0.31293582952E+02 -0.31370794055E+02  0.46142318061E+02  0.10000002735E+02 0.  0.
        -12    1    1    2    0    0 -0.81054554289E+01  0.31293582952E+02  0.31370794055E+02  0.45045681939E+02  0.00000000000E+00 0.  1.
         11    1    3    3    0    0  0.65298864282E+01 -0.13475130754E+02 -0.19396318826E+02  0.24503790520E+02  0.51100000000E-03 0. -1.
        -11    1    3    3    0    0  0.11385380121E+01 -0.83315513249E+01 -0.43979971324E+01  0.94896467438E+01  0.51100000000E-03 0.  1.
         12    1    3    3    0    0  0.43703098864E+00 -0.94869008738E+01 -0.75764780968E+01  0.12148880797E+02  0.00000000000E+00 0. -1.
</event>
<event>
 7    1  0.1541705E-008  0.4614232E+02  0.7816164E-02  0.1320468E+00
        -11   -1    0    0    0    0  0.00000000000E+00  0.00000000000E+00  0.45593999997E+02  0.45594000000E+02  0.51100000000E-03 0.  1.
         11   -1    0    0    0    0 -0.00000000000E+00 -0.00000000000E+00 -0.45593999997E+02  0.45594000000E+02  0.51100000000E-03 0. -1.
    9900012    2    1    2    0    0  0.27796996815E+02 -0.17611941395E+02 -0.30761338129E+02  0.46142318353E+02  0.10000005394E+02 0.  0.
        -12    1    1    2    0    0 -0.27796996815E+02  0.17611941395E+02  0.30761338129E+02  0.45045681647E+02  0.00000000000E+00 0.  1.
         11    1    3    3    0    0  0.14422769151E+02 -0.85883223046E+01 -0.19339660897E+02  0.25608553920E+02  0.51100000000E-03 0. -1.
        -11    1    3    3    0    0  0.91660523513E+01 -0.28635346127E+01 -0.63273067416E+01  0.11500050306E+02  0.51100000000E-03 0.  1.
         12    1    3    3    0    0  0.42081753119E+01 -0.61600844777E+01 -0.50943704905E+01  0.90337141267E+01  0.00000000000E+00 0. -1.
</event>
<event>
 7    1  0.1541705E-008  0.4614232E+02  0.7816164E-02  0.1320468E+00
        -11   -1    0    0    0    0  0.00000000000E+00  0.00000000000E+00  0.45593999997E+02  0.45594000000E+02  0.51100000000E-03 0.  1.
         11   -1    0    0    0    0 -0.00000000000E+00 -0.00000000000E+00 -0.45593999997E+02  0.45594000000E+02  0.51100000000E-03 0. -1.
    9900012    2    1    2    0    0  0.21390508350E+02 -0.20581951767E+02 -0.33881305805E+02  0.46142317975E+02  0.10000001954E+02 0.  0.
        -12    1    1    2    0    0 -0.21390508350E+02  0.20581951767E+02  0.33881305805E+02  0.45045682025E+02  0.00000000000E+00 0.  1.
         11    1    3    3    0    0  0.13915467536E+01 -0.28798552293E+01 -0.10492023079E+01  0.33661245154E+01  0.51100000000E-03 0.  1.
        -11    1    3    3    0    0 -0.22681002020E+00 -0.12088086142E+01 -0.23151188791E+01  0.26215332796E+01  0.51100000000E-03 0. -1.
         12    1    3    3    0    0  0.20225771617E+02 -0.16493287924E+02 -0.30516984618E+02  0.40154660180E+02  0.00000000000E+00 0. -1.
</event>
<event>
 7    1  0.1541705E-008  0.4614232E+02  0.7816164E-02  0.1320468E+00
        -11   -1    0    0    0    0  0.00000000000E+00  0.00000000000E+00  0.45593999997E+02  0.45594000000E+02  0.51100000000E-03 0. -1.
         11   -1    0    0    0    0 -0.00000000000E+00 -0.00000000000E+00 -0.45593999997E+02  0.45594000000E+02  0.51100000000E-03 0.  1.
    9900012    2    1    2    0    0 -0.14095782593E+02  0.22055128765E+01  0.42726550172E+02  0.46142318036E+02  0.10000002509E+02 0.  0.
        -12    1    1    2    0    0  0.14095782593E+02 -0.22055128765E+01 -0.42726550172E+02  0.45045681964E+02  0.00000000000E+00 0.  1.
         11    1    3    3    0    0 -0.74309166181E+00  0.78139162303E+00  0.10168133659E+02  0.10225150388E+02  0.51100000000E-03 0. -1.
        -11    1    3    3    0    0 -0.18880639290E+01  0.97018676874E+00  0.10171321416E+01  0.23538491500E+01  0.51100000000E-03 0.  1.
         12    1    3    3    0    0 -0.11464627002E+02  0.45393448476E+00  0.31541284372E+02  0.33563318499E+02  0.00000000000E+00 0. -1.
</event>
<event>
 7    1  0.1541705E-008  0.4614232E+02  0.7816164E-02  0.1320468E+00
        -11   -1    0    0    0    0  0.00000000000E+00  0.00000000000E+00  0.45593999997E+02  0.45594000000E+02  0.51100000000E-03 0.  1.
         11   -1    0    0    0    0 -0.00000000000E+00 -0.00000000000E+00 -0.45593999997E+02  0.45594000000E+02  0.51100000000E-03 0. -1.
    9900012    2    1    2    0    0  0.32352080416E+01  0.23161090220E+02 -0.38499490786E+02  0.46142318054E+02  0.10000002668E+02 0.  0.
        -12    1    1    2    0    0 -0.32352080416E+01 -0.23161090220E+02  0.38499490786E+02  0.45045681946E+02  0.00000000000E+00 0.  1.
         11    1    3    3    0    0 -0.17627252366E+01  0.81967140908E+01 -0.18662754001E+02  0.20459513907E+02  0.51100000000E-03 0. -1.
        -11    1    3    3    0    0  0.15921762211E+01  0.87766137022E+00 -0.20786394518E+01  0.27615316098E+01  0.51100000000E-03 0.  1.
         12    1    3    3    0    0  0.34057570570E+01  0.14086714759E+02 -0.17758097333E+02  0.22921272537E+02  0.00000000000E+00 0. -1.
</event>
<event>
 7    1  0.1541705E-008  0.4614232E+02  0.7816164E-02  0.1320468E+00
        -11   -1    0    0    0    0  0.00000000000E+00  0.00000000000E+00  0.45593999997E+02  0.45594000000E+02  0.51100000000E-03 0.  1.
         11   -1    0    0    0    0 -0.00000000000E+00 -0.00000000000E+00 -0.45593999997E+02  0.45594000000E+02  0.51100000000E-03 0. -1.
    9900012    2    1    2    0    0 -0.20548552928E+02 -0.19370532296E+02 -0.35094913407E+02  0.46142317677E+02  0.99999992351E+01 0.  0.
        -12    1    1    2    0    0  0.20548552928E+02  0.19370532296E+02  0.35094913407E+02  0.45045682323E+02  0.00000000000E+00 0.  1.
         11    1    3    3    0    0 -0.35513626849E+01 -0.27589376230E+01 -0.69770917836E+01  0.83008266904E+01  0.51100000000E-03 0. -1.
        -11    1    3    3    0    0 -0.39472473272E+00 -0.49467158997E+01 -0.44381456761E+01  0.66575478301E+01  0.51100000000E-03 0.  1.
        -12    1    3    3    0    0 -0.16602465510E+02 -0.11664878774E+02 -0.23679675948E+02  0.31183943157E+02  0.00000000000E+00 0.  1.
</event>
<event>
 7    1  0.1541705E-008  0.4614232E+02  0.7816164E-02  0.1320468E+00
        -11   -1    0    0    0    0  0.00000000000E+00  0.00000000000E+00  0.45593999997E+02  0.45594000000E+02  0.51100000000E-03 0.  1.
         11   -1    0    0    0    0 -0.00000000000E+00 -0.00000000000E+00 -0.45593999997E+02  0.45594000000E+02  0.51100000000E-03 0. -1.
    9900012    2    1    2    0    0 -0.39559768208E+01 -0.27248263797E+02 -0.35651028789E+02  0.46142317784E+02  0.10000000213E+02 0.  0.
        -12    1    1    2    0    0  0.39559768208E+01  0.27248263797E+02  0.35651028789E+02  0.45045682216E+02  0.00000000000E+00 0.  1.
         11    1    3    3    0    0 -0.38737290087E+01 -0.10302382826E+02 -0.15462635776E+02  0.18979936083E+02  0.51100000000E-03 0. -1.
        -11    1    3    3    0    0 -0.28693028125E+01 -0.42903244603E+01 -0.67015082645E+01  0.84587230647E+01  0.51100000000E-03 0.  1.
        -12    1    3    3    0    0  0.27870550003E+01 -0.12655556511E+02 -0.13486884748E+02  0.18703658636E+02  0.00000000000E+00 0.  1.
</event>
<event>
 7    1  0.1541705E-008  0.4614232E+02  0.7816164E-02  0.1320468E+00
        -11   -1    0    0    0    0  0.00000000000E+00  0.00000000000E+00  0.45593999997E+02  0.45594000000E+02  0.51100000000E-03 0.  1.
         11   -1    0    0    0    0 -0.00000000000E+00 -0.00000000000E+00 -0.45593999997E+02  0.45594000000E+02  0.51100000000E-03 0. -1.
    9900012    2    1    2    0    0  0.60338106561E+01 -0.21015392364E+02 -0.39383497390E+02  0.46142318143E+02  0.10000003485E+02 0.  0.
        -12    1    1    2    0    0 -0.60338106561E+01  0.21015392364E+02  0.39383497390E+02  0.45045681857E+02  0.00000000000E+00 0.  1.
         11    1    3    3    0    0 -0.11015646247E+00 -0.13760342678E+02 -0.21558222900E+02  0.25575694320E+02  0.51100000000E-03 0. -1.
        -11    1    3    3    0    0  0.25637905143E+01 -0.11542247040E+01 -0.28434922703E+01  0.39988379588E+01  0.51100000000E-03 0.  1.
         12    1    3    3    0    0  0.35801766043E+01 -0.61008249821E+01 -0.14981782220E+02  0.16567785865E+02  0.00000000000E+00 0. -1.
</event>
<event>
 7    1  0.1541705E-008  0.4614232E+02  0.7816164E-02  0.1320468E+00
        -11   -1    0    0    0    0  0.00000000000E+00  0.00000000000E+00  0.45593999997E+02  0.45594000000E+02  0.51100000000E-03 0.  1.
         11   -1    0    0    0    0 -0.00000000000E+00 -0.00000000000E+00 -0.45593999997E+02  0.45594000000E+02  0.51100000000E-03 0. -1.
    9900012    2    1    2    0    0 -0.12150187260E+00 -0.41739359278E+02 -0.16938848057E+02  0.46142318197E+02  0.10000003971E+02 0.  0.
        -12    1    1    2    0    0  0.12150187260E+00  0.41739359278E+02  0.16938848057E+02  0.45045681803E+02  0.00000000000E+00 0.  1.
         11    1    3    3    0    0  0.22652329085E+01 -0.13033750398E+02 -0.66734354708E+01  0.14817039880E+02  0.51100000000E-03 0. -1.
        -11    1    3    3    0    0 -0.38441203534E+01 -0.27304145589E+02 -0.95355747792E+01  0.29175688754E+02  0.51100000000E-03 0.  1.
        -12    1    3    3    0    0  0.14573855722E+01 -0.14014632907E+01 -0.72983780722E+00  0.21495895623E+01  0.00000000000E+00 0.  1.
</event>
<event>
 7    1  0.1541705E-008  0.4614232E+02  0.7816164E-02  0.1320468E+00
        -11   -1    0    0    0    0  0.00000000000E+00  0.00000000000E+00  0.45593999997E+02  0.45594000000E+02  0.51100000000E-03 0. -1.
         11   -1    0    0    0    0 -0.00000000000E+00 -0.00000000000E+00 -0.45593999997E+02  0.45594000000E+02  0.51100000000E-03 0.  1.
    9900012    2    1    2    0    0  0.34351771379E+01  0.17900551379E+02  0.41193244061E+02  0.46142317211E+02  0.99999949834E+01 0.  0.
        -12    1    1    2    0    0 -0.34351771379E+01 -0.17900551379E+02 -0.41193244061E+02  0.45045682789E+02  0.00000000000E+00 0.  1.
         11    1    3    3    0    0 -0.12568582482E+01  0.75724620688E+00  0.68662254840E+01  0.70212653512E+01  0.51100000000E-03 0.  1.
        -11    1    3    3    0    0  0.38714425213E+01  0.12549284284E+02  0.30035107895E+02  0.32780791780E+02  0.51100000000E-03 0. -1.
         12    1    3    3    0    0  0.82059286481E+00  0.45940208877E+01  0.42919106826E+01  0.63402600794E+01  0.00000000000E+00 0. -1.
</event>
<event>
 7    1  0.1541705E-008  0.4614232E+02  0.7816164E-02  0.1320468E+00
        -11   -1    0    0    0    0  0.00000000000E+00  0.00000000000E+00  0.45593999997E+02  0.45594000000E+02  0.51100000000E-03 0.  1.
         11   -1    0    0    0    0 -0.00000000000E+00 -0.00000000000E+00 -0.45593999997E+02  0.45594000000E+02  0.51100000000E-03 0. -1.
    9900012    2    1    2    0    0  0.29508650450E+02  0.99189571569E+01 -0.32557139245E+02  0.46142317873E+02  0.10000001023E+02 0.  0.
        -12    1    1    2    0    0 -0.29508650450E+02 -0.99189571569E+01  0.32557139245E+02  0.45045682127E+02  0.00000000000E+00 0.  1.
         11    1    3    3    0    0  0.93809358786E+01  0.39008075907E+01 -0.10814737825E+02  0.14838356119E+02  0.51100000000E-03 0. -1.
        -11    1    3    3    0    0  0.47156364150E+01 -0.66254032287E-01 -0.11158328546E+01  0.48463078333E+01  0.51100000000E-03 0.  1.
        -12    1    3    3    0    0  0.15412078156E+02  0.60844035985E+01 -0.20626568565E+02  0.26457653921E+02  0.00000000000E+00 0.  1.
</event>
<event>
 7    1  0.1541705E-008  0.4614232E+02  0.7816164E-02  0.1320468E+00
        -11   -1    0    0    0    0  0.00000000000E+00  0.00000000000E+00  0.45593999997E+02  0.45594000000E+02  0.51100000000E-03 0.  1.
         11   -1    0    0    0    0 -0.00000000000E+00 -0.00000000000E+00 -0.45593999997E+02  0.45594000000E+02  0.51100000000E-03 0. -1.
    9900012    2    1    2    0    0  0.27227768973E+02 -0.28390672157E+02  0.21948390654E+02  0.46142317398E+02  0.99999966898E+01 0.  0.
        -12    1    1    2    0    0 -0.27227768973E+02  0.28390672157E+02 -0.21948390654E+02  0.45045682602E+02  0.00000000000E+00 0.  1.
         11    1    3    3    0    0  0.12632105686E+02 -0.11342414883E+02  0.74275781603E+01  0.18530768658E+02  0.51100000000E-03 0. -1.
        -11    1    3    3    0    0  0.21244087943E+01 -0.66064953292E+01  0.24612322130E+01  0.73631893584E+01  0.51100000000E-03 0.  1.
        -12    1    3    3    0    0  0.12471254493E+02 -0.10441761944E+02  0.12059580280E+02  0.20248359382E+02  0.00000000000E+00 0.  1.
</event>
<event>
 7    1  0.1541705E-008  0.4614232E+02  0.7816164E-02  0.1320468E+00
        -11   -1    0    0    0    0  0.00000000000E+00  0.00000000000E+00  0.45593999997E+02  0.45594000000E+02  0.51100000000E-03 0. -1.
         11   -1    0    0    0    0 -0.00000000000E+00 -0.00000000000E+00 -0.45593999997E+02  0.45594000000E+02  0.51100000000E-03 0.  1.
    9900012    2    1    2    0    0 -0.44939281229E+02 -0.30731690948E+01 -0.36058362612E+00  0.46142318895E+02  0.10000010340E+02 0.  0.
        -12    1    1    2    0    0  0.44939281229E+02  0.30731690948E+01  0.36058362612E+00  0.45045681105E+02  0.00000000000E+00 0.  1.
         11    1    3    3    0    0 -0.17671930695E+02 -0.24854496206E+00 -0.36017722878E+01  0.18036952984E+02  0.51100000000E-03 0.  1.
        -11    1    3    3    0    0 -0.20864702666E+02 -0.20624888806E+01  0.47177245538E+01  0.21490616625E+02  0.51100000000E-03 0. -1.
         12    1    3    3    0    0 -0.64026478680E+01 -0.76213525207E+00 -0.14765358921E+01  0.66147492851E+01  0.00000000000E+00 0. -1.
</event>
<event>
 7    1  0.1541705E-008  0.4614232E+02  0.7816164E-02  0.1320468E+00
        -11   -1    0    0    0    0  0.00000000000E+00  0.00000000000E+00  0.45593999997E+02  0.45594000000E+02  0.51100000000E-03 0.  1.
         11   -1    0    0    0    0 -0.00000000000E+00 -0.00000000000E+00 -0.45593999997E+02  0.45594000000E+02  0.51100000000E-03 0. -1.
    9900012    2    1    2    0    0  0.28795380857E+02 -0.23292523334E+01 -0.34561744210E+02  0.46142317210E+02  0.99999949787E+01 0.  0.
        -12    1    1    2    0    0 -0.28795380857E+02  0.23292523334E+01  0.34561744210E+02  0.45045682790E+02  0.00000000000E+00 0.  1.
         11    1    3    3    0    0  0.13103942540E+02 -0.43070732170E+01 -0.18438085085E+02  0.23026662191E+02  0.51100000000E-03 0. -1.
        -11    1    3    3    0    0  0.11983163741E+02 -0.65518746056E+00 -0.11249598939E+02  0.16449284495E+02  0.51100000000E-03 0.  1.
        -12    1    3    3    0    0  0.37082745757E+01  0.26330083441E+01 -0.48740601861E+01  0.66663705242E+01  0.00000000000E+00 0.  1.
</event>
<event>
 7    1  0.1541705E-008  0.4614232E+02  0.7816164E-02  0.1320468E+00
        -11   -1    0    0    0    0  0.00000000000E+00  0.00000000000E+00  0.45593999997E+02  0.45594000000E+02  0.51100000000E-03 0.  1.
         11   -1    0    0    0    0 -0.00000000000E+00 -0.00000000000E+00 -0.45593999997E+02  0.45594000000E+02  0.51100000000E-03 0. -1.
    9900012    2    1    2    0    0 -0.44334138428E+02 -0.66101695065E+01 -0.44613011385E+01  0.46142318976E+02  0.10000011079E+02 0.  0.
        -12    1    1    2    0    0  0.44334138428E+02  0.66101695065E+01  0.44613011385E+01  0.45045681024E+02  0.00000000000E+00 0.  1.
         11    1    3    3    0    0 -0.19887679449E+02 -0.23445087553E+01 -0.45694246281E+01  0.20540110926E+02  0.51100000000E-03 0. -1.
        -11    1    3    3    0    0 -0.16199363401E+02 -0.60733184317E-01 -0.12421759530E+01  0.16247032482E+02  0.51100000000E-03 0.  1.
        -12    1    3    3    0    0 -0.82470955780E+01 -0.42049275668E+01  0.13502994425E+01  0.93551755676E+01  0.00000000000E+00 0.  1.
</event>
<event>
 7    1  0.1541705E-008  0.4614232E+02  0.7816164E-02  0.1320468E+00
        -11   -1    0    0    0    0  0.00000000000E+00  0.00000000000E+00  0.45593999997E+02  0.45594000000E+02  0.51100000000E-03 0.  1.
         11   -1    0    0    0    0 -0.00000000000E+00 -0.00000000000E+00 -0.45593999997E+02  0.45594000000E+02  0.51100000000E-03 0. -1.
    9900012    2    1    2    0    0 -0.73536139456E+01 -0.44278064331E+02  0.38066829935E+01  0.46142318138E+02  0.10000003441E+02 0.  0.
        -12    1    1    2    0    0  0.73536139456E+01  0.44278064331E+02 -0.38066829935E+01  0.45045681862E+02  0.00000000000E+00 0.  1.
         11    1    3    3    0    0 -0.42798159626E+00 -0.49447175366E+01  0.75721887273E+00  0.50206354623E+01  0.51100000000E-03 0. -1.
        -11    1    3    3    0    0  0.12165754285E+01 -0.18106634290E+02 -0.24730278222E+00  0.18149143782E+02  0.51100000000E-03 0.  1.
        -12    1    3    3    0    0 -0.81422077778E+01 -0.21226712504E+02  0.32967669030E+01  0.22972538894E+02  0.00000000000E+00 0.  1.
</event>
<event>
 7    1  0.1541705E-008  0.4614232E+02  0.7816164E-02  0.1320468E+00
        -11   -1    0    0    0    0  0.00000000000E+00  0.00000000000E+00  0.45593999997E+02  0.45594000000E+02  0.51100000000E-03 0. -1.
         11   -1    0    0    0    0 -0.00000000000E+00 -0.00000000000E+00 -0.45593999997E+02  0.45594000000E+02  0.51100000000E-03 0.  1.
    9900012    2    1    2    0    0 -0.30340625561E+02 -0.45610014138E+01  0.32981166026E+02  0.46142316458E+02  0.99999881163E+01 0.  0.
        -12    1    1    2    0    0  0.30340625561E+02  0.45610014138E+01 -0.32981166026E+02  0.45045683542E+02  0.00000000000E+00 0.  1.
         11    1    3    3    0    0 -0.12392405662E+02 -0.32015379598E+01  0.16467972519E+02  0.20857029571E+02  0.51100000000E-03 0. -1.
        -11    1    3    3    0    0 -0.18181659307E+02 -0.47226017222E+00  0.16053122732E+02  0.24258988325E+02  0.51100000000E-03 0.  1.
         12    1    3    3    0    0  0.23343940750E+00 -0.88720328180E+00  0.46007077492E+00  0.10262985619E+01  0.00000000000E+00 0. -1.
</event>
<event>
 7    1  0.1541705E-008  0.4614232E+02  0.7816164E-02  0.1320468E+00
        -11   -1    0    0    0    0  0.00000000000E+00  0.00000000000E+00  0.45593999997E+02  0.45594000000E+02  0.51100000000E-03 0.  1.
         11   -1    0    0    0    0 -0.00000000000E+00 -0.00000000000E+00 -0.45593999997E+02  0.45594000000E+02  0.51100000000E-03 0. -1.
    9900012    2    1    2    0    0  0.38817864702E+02  0.21678974164E+02 -0.72324903559E+01  0.46142318103E+02  0.10000003117E+02 0.  0.
        -12    1    1    2    0    0 -0.38817864702E+02 -0.21678974164E+02  0.72324903559E+01  0.45045681897E+02  0.00000000000E+00 0.  1.
         11    1    3    3    0    0  0.22563607024E+02  0.16800487876E+02 -0.56027643917E+01  0.28683858246E+02  0.51100000000E-03 0. -1.
        -11    1    3    3    0    0  0.11792552992E+02  0.40604499261E+01  0.42374935597E+00  0.12479227679E+02  0.51100000000E-03 0.  1.
        -12    1    3    3    0    0  0.44617046857E+01  0.81803636218E+00 -0.20534753202E+01  0.49792321780E+01  0.00000000000E+00 0.  1.
</event>
<event>
 7    1  0.1541705E-008  0.4614232E+02  0.7816164E-02  0.1320468E+00
        -11   -1    0    0    0    0  0.00000000000E+00  0.00000000000E+00  0.45593999997E+02  0.45594000000E+02  0.51100000000E-03 0.  1.
         11   -1    0    0    0    0 -0.00000000000E+00 -0.00000000000E+00 -0.45593999997E+02  0.45594000000E+02  0.51100000000E-03 0. -1.
    9900012    2    1    2    0    0 -0.16583746070E+02  0.77317663646E+01 -0.41162028866E+02  0.46142318019E+02  0.10000002349E+02 0.  0.
        -12    1    1    2    0    0  0.16583746070E+02 -0.77317663646E+01  0.41162028866E+02  0.45045681981E+02  0.00000000000E+00 0.  1.
         11    1    3    3    0    0 -0.54929159825E+01  0.25159431982E+01 -0.20239011432E+02  0.21121545402E+02  0.51100000000E-03 0. -1.
        -11    1    3    3    0    0 -0.10328857063E+02  0.36812634657E+01 -0.13447524547E+02  0.17351452551E+02  0.51100000000E-03 0.  1.
        -12    1    3    3    0    0 -0.76197302385E+00  0.15345597007E+01 -0.74754928875E+01  0.76693200661E+01  0.00000000000E+00 0.  1.
</event>
<event>
 7    1  0.1541705E-008  0.4614232E+02  0.7816164E-02  0.1320468E+00
        -11   -1    0    0    0    0  0.00000000000E+00  0.00000000000E+00  0.45593999997E+02  0.45594000000E+02  0.51100000000E-03 0.  1.
         11   -1    0    0    0    0 -0.00000000000E+00 -0.00000000000E+00 -0.45593999997E+02  0.45594000000E+02  0.51100000000E-03 0. -1.
    9900012    2    1    2    0    0 -0.57437151824E+01  0.13450163438E+02 -0.42605357170E+02  0.46142316298E+02  0.99999866578E+01 0.  0.
        -12    1    1    2    0    0  0.57437151824E+01 -0.13450163438E+02  0.42605357170E+02  0.45045683702E+02  0.00000000000E+00 0.  1.
         11    1    3    3    0    0 -0.26774503206E+01  0.59672703329E+01 -0.28389441287E+02  0.29133098570E+02  0.51100000000E-03 0. -1.
        -11    1    3    3    0    0 -0.82336974936E-01  0.59329255530E+01 -0.82696294963E+01  0.10178072375E+02  0.51100000000E-03 0.  1.
         12    1    3    3    0    0 -0.29839278869E+01  0.15499675526E+01 -0.59462863867E+01  0.68311453535E+01  0.00000000000E+00 0. -1.
</event>
<event>
 7    1  0.1541705E-008  0.4614231E+02  0.7816164E-02  0.1320468E+00
        -11   -1    0    0    0    0  0.00000000000E+00  0.00000000000E+00  0.45593999997E+02  0.45594000000E+02  0.51100000000E-03 0. -1.
         11   -1    0    0    0    0 -0.00000000000E+00 -0.00000000000E+00 -0.45593999997E+02  0.45594000000E+02  0.51100000000E-03 0.  1.
    9900012    2    1    2    0    0 -0.75267692524E+01 -0.37241548638E+02  0.24197697350E+02  0.46142314776E+02  0.99999727752E+01 0.  0.
        -12    1    1    2    0    0  0.75267692524E+01  0.37241548638E+02 -0.24197697350E+02  0.45045685224E+02  0.00000000000E+00 0.  1.
         11    1    3    3    0    0  0.10710684312E+01 -0.13760719189E+01  0.82206131685E+00  0.19278346869E+01  0.51100000000E-03 0. -1.
        -11    1    3    3    0    0 -0.26673234853E+01 -0.15820048115E+02  0.63508054690E+01  0.17254601337E+02  0.51100000000E-03 0.  1.
         12    1    3    3    0    0 -0.59305141984E+01 -0.20045428604E+02  0.17024830564E+02  0.26959878752E+02  0.00000000000E+00 0. -1.
</event>
<event>
 7    1  0.1541705E-008  0.4614232E+02  0.7816164E-02  0.1320468E+00
        -11   -1    0    0    0    0  0.00000000000E+00  0.00000000000E+00  0.45593999997E+02  0.45594000000E+02  0.51100000000E-03 0.  1.
         11   -1    0    0    0    0 -0.00000000000E+00 -0.00000000000E+00 -0.45593999997E+02  0.45594000000E+02  0.51100000000E-03 0. -1.
    9900012    2    1    2    0    0  0.22095917773E+02 -0.14970302737E+02 -0.36287379513E+02  0.46142318096E+02  0.10000003050E+02 0.  0.
        -12    1    1    2    0    0 -0.22095917773E+02  0.14970302737E+02  0.36287379513E+02  0.45045681904E+02  0.00000000000E+00 0.  1.
         11    1    3    3    0    0  0.96396981582E+01 -0.15670807408E+01 -0.89867428231E+01  0.13271814852E+02  0.51100000000E-03 0.  1.
        -11    1    3    3    0    0  0.89260098583E+01 -0.95742538524E+01 -0.19996228416E+02  0.23899563594E+02  0.51100000000E-03 0. -1.
        -12    1    3    3    0    0  0.35302097565E+01 -0.38289681443E+01 -0.73044082740E+01  0.89709396502E+01  0.00000000000E+00 0.  1.
</event>
<event>
 7    1  0.1541705E-008  0.4614232E+02  0.7816164E-02  0.1320468E+00
        -11   -1    0    0    0    0  0.00000000000E+00  0.00000000000E+00  0.45593999997E+02  0.45594000000E+02  0.51100000000E-03 0.  1.
         11   -1    0    0    0    0 -0.00000000000E+00 -0.00000000000E+00 -0.45593999997E+02  0.45594000000E+02  0.51100000000E-03 0. -1.
    9900012    2    1    2    0    0  0.36050887645E+02 -0.11875517739E+02 -0.24257350972E+02  0.46142317657E+02  0.99999990532E+01 0.  0.
        -12    1    1    2    0    0 -0.36050887645E+02  0.11875517739E+02  0.24257350972E+02  0.45045682343E+02  0.00000000000E+00 0.  1.
         11    1    3    3    0    0  0.84811278386E+00 -0.16138856150E+01 -0.16815184959E+01  0.24802070046E+01  0.51100000000E-03 0. -1.
        -11    1    3    3    0    0  0.24078302677E+01 -0.26699045469E+01 -0.12175548766E+01  0.37958499742E+01  0.51100000000E-03 0.  1.
         12    1    3    3    0    0  0.32794944593E+02 -0.75917275771E+01 -0.21358277599E+02  0.39866260679E+02  0.00000000000E+00 0. -1.
</event>
<event>
 7    1  0.1541705E-008  0.4614232E+02  0.7816164E-02  0.1320468E+00
        -11   -1    0    0    0    0  0.00000000000E+00  0.00000000000E+00  0.45593999997E+02  0.45594000000E+02  0.51100000000E-03 0.  1.
         11   -1    0    0    0    0 -0.00000000000E+00 -0.00000000000E+00 -0.45593999997E+02  0.45594000000E+02  0.51100000000E-03 0. -1.
    9900012    2    1    2    0    0 -0.10396747907E+02 -0.35870621307E+02 -0.25185702151E+02  0.46142318377E+02  0.10000005619E+02 0.  0.
        -12    1    1    2    0    0  0.10396747907E+02  0.35870621307E+02  0.25185702151E+02  0.45045681623E+02  0.00000000000E+00 0.  1.
         11    1    3    3    0    0 -0.97302359065E+01 -0.17927917615E+02 -0.14098311433E+02  0.24796171203E+02  0.51100000000E-03 0. -1.
        -11    1    3    3    0    0 -0.45914800363E+00 -0.63089802314E+00 -0.11320312769E+01  0.13748979155E+01  0.51100000000E-03 0.  1.
         12    1    3    3    0    0 -0.20736399693E+00 -0.17311805669E+02 -0.99553594410E+01  0.19971249259E+02  0.00000000000E+00 0. -1.
</event>
<event>
 7    1  0.1541705E-008  0.4614231E+02  0.7816164E-02  0.1320468E+00
        -11   -1    0    0    0    0  0.00000000000E+00  0.00000000000E+00  0.45593999997E+02  0.45594000000E+02  0.51100000000E-03 0. -1.
         11   -1    0    0    0    0 -0.00000000000E+00 -0.00000000000E+00 -0.45593999997E+02  0.45594000000E+02  0.51100000000E-03 0.  1.
    9900012    2    1    2    0    0 -0.24472751541E+01 -0.16400543049E+02  0.41882540194E+02  0.46142310516E+02  0.99999339316E+01 0.  0.
        -12    1    1    2    0    0  0.24472751541E+01  0.16400543049E+02 -0.41882540194E+02  0.45045689484E+02  0.00000000000E+00 0.  1.
         11    1    3    3    0    0 -0.58494199470E+00 -0.49118867860E+01  0.16361328881E+02  0.17092743254E+02  0.51100000000E-03 0. -1.
        -11    1    3    3    0    0 -0.92699774192E+00 -0.17445653199E+01  0.13033931549E+02  0.13182799583E+02  0.51100000000E-03 0.  1.
        -12    1    3    3    0    0 -0.93533541750E+00 -0.97440909430E+01  0.12487279764E+02  0.15866767678E+02  0.00000000000E+00 0.  1.
</event>
<event>
 7    1  0.1541705E-008  0.4614230E+02  0.7816164E-02  0.1320468E+00
        -11   -1    0    0    0    0  0.00000000000E+00  0.00000000000E+00  0.45593999997E+02  0.45594000000E+02  0.51100000000E-03 0. -1.
         11   -1    0    0    0    0 -0.00000000000E+00 -0.00000000000E+00 -0.45593999997E+02  0.45594000000E+02  0.51100000000E-03 0.  1.
    9900012    2    1    2    0    0  0.40259138524E+02 -0.81842691261E+01  0.18475237187E+02  0.46142302259E+02  0.99998586381E+01 0.  0.
        -12    1    1    2    0    0 -0.40259138524E+02  0.81842691261E+01 -0.18475237187E+02  0.45045697741E+02  0.00000000000E+00 0.  1.
         11    1    3    3    0    0  0.16285380037E+02 -0.68799150723E+01  0.57895721524E+01  0.18602848715E+02  0.51100000000E-03 0. -1.
        -11    1    3    3    0    0  0.45595138426E+01  0.61078741767E+00  0.43277720954E+01  0.63159986796E+01  0.51100000000E-03 0.  1.
        -12    1    3    3    0    0  0.19414244645E+02 -0.19151414715E+01  0.83578929392E+01  0.21223454864E+02  0.00000000000E+00 0.  1.
</event>
<event>
 7    1  0.1541705E-008  0.4614232E+02  0.7816164E-02  0.1320468E+00
        -11   -1    0    0    0    0  0.00000000000E+00  0.00000000000E+00  0.45593999997E+02  0.45594000000E+02  0.51100000000E-03 0.  1.
         11   -1    0    0    0    0 -0.00000000000E+00 -0.00000000000E+00 -0.45593999997E+02  0.45594000000E+02  0.51100000000E-03 0. -1.
    9900012    2    1    2    0    0  0.27987088231E+02  0.15492858054E+02 -0.31714472693E+02  0.46142317227E+02  0.99999951268E+01 0.  0.
        -12    1    1    2    0    0 -0.27987088231E+02 -0.15492858054E+02  0.31714472693E+02  0.45045682773E+02  0.00000000000E+00 0.  1.
         11    1    3    3    0    0  0.11395880534E+02  0.58483929197E+01 -0.13017826141E+02  0.18262902031E+02  0.51100000000E-03 0. -1.
        -11    1    3    3    0    0  0.42025104532E+01  0.65880361112E+01 -0.57530430288E+01  0.97036497394E+01  0.51100000000E-03 0.  1.
        -12    1    3    3    0    0  0.12388697243E+02  0.30564290230E+01 -0.12943603523E+02  0.18175765456E+02  0.00000000000E+00 0.  1.
</event>
<event>
 7    1  0.1541705E-008  0.4614232E+02  0.7816164E-02  0.1320468E+00
        -11   -1    0    0    0    0  0.00000000000E+00  0.00000000000E+00  0.45593999997E+02  0.45594000000E+02  0.51100000000E-03 0.  1.
         11   -1    0    0    0    0 -0.00000000000E+00 -0.00000000000E+00 -0.45593999997E+02  0.45594000000E+02  0.51100000000E-03 0. -1.
    9900012    2    1    2    0    0 -0.37268326327E+02  0.10131933282E+01 -0.25281586709E+02  0.46142319470E+02  0.10000015582E+02 0.  0.
        -12    1    1    2    0    0  0.37268326327E+02 -0.10131933282E+01  0.25281586709E+02  0.45045680530E+02  0.00000000000E+00 0.  1.
         11    1    3    3    0    0 -0.96937477545E+01  0.23599006635E+01 -0.93389496493E+01  0.13665791506E+02  0.51100000000E-03 0. -1.
        -11    1    3    3    0    0 -0.23293365509E+02  0.96128247142E+00 -0.14267084189E+02  0.27332300163E+02  0.51100000000E-03 0.  1.
        -12    1    3    3    0    0 -0.42812130633E+01 -0.23079898067E+01 -0.16755528707E+01  0.51442278006E+01  0.00000000000E+00 0.  1.
</event>
<event>
 7    1  0.1541705E-008  0.4614232E+02  0.7816164E-02  0.1320468E+00
        -11   -1    0    0    0    0  0.00000000000E+00  0.00000000000E+00  0.45593999997E+02  0.45594000000E+02  0.51100000000E-03 0.  1.
         11   -1    0    0    0    0 -0.00000000000E+00 -0.00000000000E+00 -0.45593999997E+02  0.45594000000E+02  0.51100000000E-03 0. -1.
    9900012    2    1    2    0    0 -0.54528606113E+01 -0.18042261283E+01 -0.44678010200E+02  0.46142317452E+02  0.99999971821E+01 0.  0.
        -12    1    1    2    0    0  0.54528606113E+01  0.18042261283E+01  0.44678010200E+02  0.45045682548E+02  0.00000000000E+00 0.  1.
         11    1    3    3    0    0 -0.39237296620E+01 -0.20424146492E+01 -0.22820085674E+02  0.23244857979E+02  0.51100000000E-03 0. -1.
        -11    1    3    3    0    0 -0.19120691129E+01 -0.29973452259E+01 -0.11940889841E+02  0.12458930017E+02  0.51100000000E-03 0.  1.
        -12    1    3    3    0    0  0.38293816362E+00  0.32355337467E+01 -0.99170346851E+01  0.10438529456E+02  0.00000000000E+00 0.  1.
</event>
<event>
 7    1  0.1541705E-008  0.4614232E+02  0.7816164E-02  0.1320468E+00
        -11   -1    0    0    0    0  0.00000000000E+00  0.00000000000E+00  0.45593999997E+02  0.45594000000E+02  0.51100000000E-03 0.  1.
         11   -1    0    0    0    0 -0.00000000000E+00 -0.00000000000E+00 -0.45593999997E+02  0.45594000000E+02  0.51100000000E-03 0. -1.
    9900012    2    1    2    0    0 -0.33093929220E+02 -0.23351330576E+02  0.19713461926E+02  0.46142319053E+02  0.10000011778E+02 0.  0.
        -12    1    1    2    0    0  0.33093929220E+02  0.23351330576E+02 -0.19713461926E+02  0.45045680947E+02  0.00000000000E+00 0.  1.
         11    1    3    3    0    0 -0.17003182391E+02 -0.14490562553E+02  0.12570708654E+02  0.25634104838E+02  0.51100000000E-03 0. -1.
        -11    1    3    3    0    0 -0.20176395934E+01  0.64146016162E+00  0.15723906201E+01  0.26371866053E+01  0.51100000000E-03 0.  1.
        -12    1    3    3    0    0 -0.14073107236E+02 -0.95022281849E+01  0.55703626513E+01  0.17871027609E+02  0.00000000000E+00 0.  1.
</event>
<event>
 7    1  0.1541705E-008  0.4614232E+02  0.7816164E-02  0.1320468E+00
        -11   -1    0    0    0    0  0.00000000000E+00  0.00000000000E+00  0.45593999997E+02  0.45594000000E+02  0.51100000000E-03 0.  1.
         11   -1    0    0    0    0 -0.00000000000E+00 -0.00000000000E+00 -0.45593999997E+02  0.45594000000E+02  0.51100000000E-03 0. -1.
    9900012    2    1    2    0    0 -0.42638568502E+02  0.51038165353E+01 -0.13602096716E+02  0.46142317607E+02  0.99999985978E+01 0.  0.
        -12    1    1    2    0    0  0.42638568502E+02 -0.51038165353E+01  0.13602096716E+02  0.45045682393E+02  0.00000000000E+00 0.  1.
         11    1    3    3    0    0 -0.14140235059E+02 -0.82732022382E+00 -0.66608162545E+01  0.15652385752E+02  0.51100000000E-03 0.  1.
        -11    1    3    3    0    0 -0.19164419704E+02  0.29902003375E+01 -0.19212496878E+01  0.19491215490E+02  0.51100000000E-03 0. -1.
        -12    1    3    3    0    0 -0.93339137385E+01  0.29409364216E+01 -0.50200307735E+01  0.10998716365E+02  0.00000000000E+00 0.  1.
</event>
<event>
 7    1  0.1541705E-008  0.4614232E+02  0.7816164E-02  0.1320468E+00
        -11   -1    0    0    0    0  0.00000000000E+00  0.00000000000E+00  0.45593999997E+02  0.45594000000E+02  0.51100000000E-03 0. -1.
         11   -1    0    0    0    0 -0.00000000000E+00 -0.00000000000E+00 -0.45593999997E+02  0.45594000000E+02  0.51100000000E-03 0.  1.
    9900012    2    1    2    0    0  0.17494953683E+02 -0.28171367020E+02  0.30486294745E+02  0.46142317727E+02  0.99999996909E+01 0.  0.
        -12    1    1    2    0    0 -0.17494953683E+02  0.28171367020E+02 -0.30486294745E+02  0.45045682273E+02  0.00000000000E+00 0.  1.
         11    1    3    3    0    0  0.43426032653E+01 -0.26743453633E+01  0.69905476554E+01  0.86532122952E+01  0.51100000000E-03 0. -1.
        -11    1    3    3    0    0  0.57166775517E+01 -0.14992525051E+02  0.10359848514E+02  0.19099284572E+02  0.51100000000E-03 0.  1.
         12    1    3    3    0    0  0.74356728658E+01 -0.10504496606E+02  0.13135898575E+02  0.18389820860E+02  0.00000000000E+00 0. -1.
</event>
<event>
 7    1  0.1541705E-008  0.4614232E+02  0.7816164E-02  0.1320468E+00
        -11   -1    0    0    0    0  0.00000000000E+00  0.00000000000E+00  0.45593999997E+02  0.45594000000E+02  0.51100000000E-03 0.  1.
         11   -1    0    0    0    0 -0.00000000000E+00 -0.00000000000E+00 -0.45593999997E+02  0.45594000000E+02  0.51100000000E-03 0. -1.
    9900012    2    1    2    0    0 -0.53466931867E+01  0.26038223074E+02 -0.36366705457E+02  0.46142318135E+02  0.10000003410E+02 0.  0.
        -12    1    1    2    0    0  0.53466931867E+01 -0.26038223074E+02  0.36366705457E+02  0.45045681865E+02  0.00000000000E+00 0.  1.
         11    1    3    3    0    0 -0.77846125425E+01  0.23298111006E+02 -0.30990851910E+02  0.39545354610E+02  0.51100000000E-03 0. -1.
        -11    1    3    3    0    0  0.89032878614E+00  0.15031267765E+01 -0.17965493171E+01  0.25059260092E+01  0.51100000000E-03 0.  1.
         12    1    3    3    0    0  0.15475905697E+01  0.12369852911E+01 -0.35793042302E+01  0.40910375157E+01  0.00000000000E+00 0. -1.
</event>
<event>
 7    1  0.1541705E-008  0.4614232E+02  0.7816164E-02  0.1320468E+00
        -11   -1    0    0    0    0  0.00000000000E+00  0.00000000000E+00  0.45593999997E+02  0.45594000000E+02  0.51100000000E-03 0.  1.
         11   -1    0    0    0    0 -0.00000000000E+00 -0.00000000000E+00 -0.45593999997E+02  0.45594000000E+02  0.51100000000E-03 0. -1.
    9900012    2    1    2    0    0 -0.30906673199E+02  0.22166019705E+02 -0.24136250889E+02  0.46142317801E+02  0.10000000363E+02 0.  0.
        -12    1    1    2    0    0  0.30906673199E+02 -0.22166019705E+02  0.24136250889E+02  0.45045682199E+02  0.00000000000E+00 0.  1.
         11    1    3    3    0    0 -0.19197997498E+02  0.17070030191E+02 -0.14548621580E+02  0.29523066047E+02  0.51100000000E-03 0. -1.
        -11    1    3    3    0    0 -0.61312234689E+01  0.21749893067E+01 -0.20994490482E+01  0.68359466262E+01  0.51100000000E-03 0.  1.
         12    1    3    3    0    0 -0.55774522323E+01  0.29210002077E+01 -0.74881802605E+01  0.97833051282E+01  0.00000000000E+00 0. -1.
</event>
<event>
 7    1  0.1541705E-008  0.4614232E+02  0.7816164E-02  0.1320468E+00
        -11   -1    0    0    0    0  0.00000000000E+00  0.00000000000E+00  0.45593999997E+02  0.45594000000E+02  0.51100000000E-03 0. -1.
         11   -1    0    0    0    0 -0.00000000000E+00 -0.00000000000E+00 -0.45593999997E+02  0.45594000000E+02  0.51100000000E-03 0.  1.
    9900012    2    1    2    0    0  0.42662856335E+02 -0.11291784124E+02  0.90271743532E+01  0.46142316787E+02  0.99999911169E+01 0.  0.
        -12    1    1    2    0    0 -0.42662856335E+02  0.11291784124E+02 -0.90271743532E+01  0.45045683213E+02  0.00000000000E+00 0.  1.
         11    1    3    3    0    0  0.16875321129E+02 -0.13177380022E+01  0.22153365388E+01  0.17071046040E+02  0.51100000000E-03 0. -1.
        -11    1    3    3    0    0  0.54070875239E+01 -0.21218694103E+01  0.39946662451E+01  0.70495591321E+01  0.51100000000E-03 0.  1.
        -12    1    3    3    0    0  0.20380447681E+02 -0.78521767110E+01  0.28171715693E+01  0.22021711615E+02  0.00000000000E+00 0.  1.
</event>
<event>
 7    1  0.1541705E-008  0.4614232E+02  0.7816164E-02  0.1320468E+00
        -11   -1    0    0    0    0  0.00000000000E+00  0.00000000000E+00  0.45593999997E+02  0.45594000000E+02  0.51100000000E-03 0.  1.
         11   -1    0    0    0    0 -0.00000000000E+00 -0.00000000000E+00 -0.45593999997E+02  0.45594000000E+02  0.51100000000E-03 0. -1.
    9900012    2    1    2    0    0 -0.26738050880E+02 -0.28483142977E+02 -0.22425447687E+02  0.46142317602E+02  0.99999985528E+01 0.  0.
        -12    1    1    2    0    0  0.26738050880E+02  0.28483142977E+02  0.22425447687E+02  0.45045682398E+02  0.00000000000E+00 0.  1.
         11    1    3    3    0    0 -0.15731654986E+01 -0.32408452393E+01 -0.35013610759E+01  0.50236895999E+01  0.51100000000E-03 0. -1.
        -11    1    3    3    0    0 -0.24599109170E+02 -0.25534435232E+02 -0.17459497377E+02  0.39521609323E+02  0.51100000000E-03 0.  1.
        -12    1    3    3    0    0 -0.56577621174E+00  0.29213749481E+00 -0.14645892339E+01  0.15970186792E+01  0.00000000000E+00 0.  1.
</event>
<event>
 7    1  0.1541705E-008  0.4614232E+02  0.7816164E-02  0.1320468E+00
        -11   -1    0    0    0    0  0.00000000000E+00  0.00000000000E+00  0.45593999997E+02  0.45594000000E+02  0.51100000000E-03 0. -1.
         11   -1    0    0    0    0 -0.00000000000E+00 -0.00000000000E+00 -0.45593999997E+02  0.45594000000E+02  0.51100000000E-03 0.  1.
    9900012    2    1    2    0    0 -0.23436827003E+02 -0.76097351557E-01  0.38468465644E+02  0.46142317634E+02  0.99999988431E+01 0.  0.
        -12    1    1    2    0    0  0.23436827003E+02  0.76097351557E-01 -0.38468465644E+02  0.45045682366E+02  0.00000000000E+00 0.  1.
         11    1    3    3    0    0 -0.22044122476E+02 -0.76188713057E+00  0.36658337027E+02  0.42782677354E+02  0.51100000000E-03 0. -1.
        -11    1    3    3    0    0  0.42469405726E+00  0.36995625773E+00 -0.23074457729E+00  0.60866739355E+00  0.51100000000E-03 0.  1.
         12    1    3    3    0    0 -0.18173985838E+01  0.31583352128E+00  0.20408731947E+01  0.27509728866E+01  0.00000000000E+00 0. -1.
</event>
<event>
 7    1  0.1541705E-008  0.4614232E+02  0.7816164E-02  0.1320468E+00
        -11   -1    0    0    0    0  0.00000000000E+00  0.00000000000E+00  0.45593999997E+02  0.45594000000E+02  0.51100000000E-03 0.  1.
         11   -1    0    0    0    0 -0.00000000000E+00 -0.00000000000E+00 -0.45593999997E+02  0.45594000000E+02  0.51100000000E-03 0. -1.
    9900012    2    1    2    0    0  0.22477877972E+02  0.66909549118E+01 -0.38458934271E+02  0.46142317621E+02  0.99999987210E+01 0.  0.
        -12    1    1    2    0    0 -0.22477877972E+02 -0.66909549118E+01  0.38458934271E+02  0.45045682379E+02  0.00000000000E+00 0.  1.
         11    1    3    3    0    0  0.18497107078E+02  0.29112593606E+01 -0.23143965605E+02  0.29770145204E+02  0.51100000000E-03 0. -1.
        -11    1    3    3    0    0  0.25385368209E+01  0.15009571798E+01 -0.97837167375E+01  0.10218520201E+02  0.51100000000E-03 0.  1.
        -12    1    3    3    0    0  0.14422340734E+01  0.22787383715E+01 -0.55312519285E+01  0.61536522151E+01  0.00000000000E+00 0.  1.
</event>
<event>
 7    1  0.1541705E-008  0.4614232E+02  0.7816164E-02  0.1320468E+00
        -11   -1    0    0    0    0  0.00000000000E+00  0.00000000000E+00  0.45593999997E+02  0.45594000000E+02  0.51100000000E-03 0.  1.
         11   -1    0    0    0    0 -0.00000000000E+00 -0.00000000000E+00 -0.45593999997E+02  0.45594000000E+02  0.51100000000E-03 0. -1.
    9900012    2    1    2    0    0  0.11460460380E+02 -0.31049179507E+02 -0.30556827890E+02  0.46142318399E+02  0.10000005821E+02 0.  0.
        -12    1    1    2    0    0 -0.11460460380E+02  0.31049179507E+02  0.30556827890E+02  0.45045681601E+02  0.00000000000E+00 0.  1.
         11    1    3    3    0    0  0.34854023170E+01 -0.19163424831E+02 -0.18598992768E+02  0.26931531944E+02  0.51100000000E-03 0. -1.
        -11    1    3    3    0    0  0.71362599015E+01 -0.10288367516E+02 -0.12085324728E+02  0.17402062682E+02  0.51100000000E-03 0.  1.
         12    1    3    3    0    0  0.83879816119E+00 -0.15973871591E+01  0.12748960643E+00  0.18087237741E+01  0.00000000000E+00 0. -1.
</event>
<event>
 7    1  0.1541705E-008  0.4614232E+02  0.7816164E-02  0.1320468E+00
        -11   -1    0    0    0    0  0.00000000000E+00  0.00000000000E+00  0.45593999997E+02  0.45594000000E+02  0.51100000000E-03 0. -1.
         11   -1    0    0    0    0 -0.00000000000E+00 -0.00000000000E+00 -0.45593999997E+02  0.45594000000E+02  0.51100000000E-03 0.  1.
    9900012    2    1    2    0    0  0.34950437906E+02  0.20356009733E+02  0.19829609460E+02  0.46142315929E+02  0.99999832936E+01 0.  0.
        -12    1    1    2    0    0 -0.34950437906E+02 -0.20356009733E+02 -0.19829609460E+02  0.45045684071E+02  0.00000000000E+00 0.  1.
         11    1    3    3    0    0  0.20865711329E+02  0.81779985155E+01  0.89244878020E+01  0.24122687491E+02  0.51100000000E-03 0. -1.
        -11    1    3    3    0    0 -0.15914879895E+00  0.49009503564E+00 -0.14428165333E+00  0.53510647611E+00  0.51100000000E-03 0.  1.
         12    1    3    3    0    0  0.14243875376E+02  0.11687916182E+02  0.11049403311E+02  0.21484521962E+02  0.00000000000E+00 0. -1.
</event>
<event>
 7    1  0.1541705E-008  0.4614232E+02  0.7816164E-02  0.1320468E+00
        -11   -1    0    0    0    0  0.00000000000E+00  0.00000000000E+00  0.45593999997E+02  0.45594000000E+02  0.51100000000E-03 0. -1.
         11   -1    0    0    0    0 -0.00000000000E+00 -0.00000000000E+00 -0.45593999997E+02  0.45594000000E+02  0.51100000000E-03 0.  1.
    9900012    2    1    2    0    0  0.43723860657E+02  0.70591980054E+01  0.82161555039E+01  0.46142317870E+02  0.10000000997E+02 0.  0.
        -12    1    1    2    0    0 -0.43723860657E+02 -0.70591980054E+01 -0.82161555039E+01  0.45045682130E+02  0.00000000000E+00 0.  1.
         11    1    3    3    0    0  0.31058045103E+02  0.12440073005E+01  0.52780897228E+01  0.31527891638E+02  0.51100000000E-03 0. -1.
        -11    1    3    3    0    0  0.11276842560E+02  0.49331589654E+01  0.36250890551E+01  0.12831387548E+02  0.51100000000E-03 0.  1.
        -12    1    3    3    0    0  0.13889729948E+01  0.88203173942E+00 -0.68702327400E+00  0.17830386840E+01  0.00000000000E+00 0.  1.
</event>
<event>
 7    1  0.1541705E-008  0.4614232E+02  0.7816164E-02  0.1320468E+00
        -11   -1    0    0    0    0  0.00000000000E+00  0.00000000000E+00  0.45593999997E+02  0.45594000000E+02  0.51100000000E-03 0.  1.
         11   -1    0    0    0    0 -0.00000000000E+00 -0.00000000000E+00 -0.45593999997E+02  0.45594000000E+02  0.51100000000E-03 0. -1.
    9900012    2    1    2    0    0 -0.41024267835E+02 -0.30668433944E+01 -0.18349860371E+02  0.46142318126E+02  0.10000003331E+02 0.  0.
        -12    1    1    2    0    0  0.41024267835E+02  0.30668433944E+01  0.18349860371E+02  0.45045681874E+02  0.00000000000E+00 0.  1.
         11    1    3    3    0    0 -0.14763803265E+02  0.75902549406E+00 -0.73736721305E+01  0.16520201194E+02  0.51100000000E-03 0. -1.
        -11    1    3    3    0    0 -0.40392386006E+01 -0.31777601403E+01 -0.32802307869E+01  0.60970092881E+01  0.51100000000E-03 0.  1.
        -12    1    3    3    0    0 -0.22221225970E+02 -0.64810874816E+00 -0.76959574535E+01  0.23525107644E+02  0.00000000000E+00 0.  1.
</event>
<event>
 7    1  0.1541705E-008  0.4614232E+02  0.7816164E-02  0.1320468E+00
        -11   -1    0    0    0    0  0.00000000000E+00  0.00000000000E+00  0.45593999997E+02  0.45594000000E+02  0.51100000000E-03 0.  1.
         11   -1    0    0    0    0 -0.00000000000E+00 -0.00000000000E+00 -0.45593999997E+02  0.45594000000E+02  0.51100000000E-03 0. -1.
    9900012    2    1    2    0    0  0.51894382733E+01  0.89274015441E+01 -0.43846147574E+02  0.46142318465E+02  0.10000006416E+02 0.  0.
        -12    1    1    2    0    0 -0.51894382733E+01 -0.89274015441E+01  0.43846147574E+02  0.45045681535E+02  0.00000000000E+00 0.  1.
         11    1    3    3    0    0  0.53324753609E+01  0.72428276404E+01 -0.22787725439E+02  0.24498454577E+02  0.51100000000E-03 0. -1.
        -11    1    3    3    0    0 -0.10156833325E+01 -0.12141075767E+01 -0.37141459211E+01  0.40373939644E+01  0.51100000000E-03 0.  1.
        -12    1    3    3    0    0  0.87264624489E+00  0.28986814805E+01 -0.17344276214E+02  0.17606469924E+02  0.00000000000E+00 0.  1.
</event>
<event>
 7    1  0.1541705E-008  0.4614232E+02  0.7816164E-02  0.1320468E+00
        -11   -1    0    0    0    0  0.00000000000E+00  0.00000000000E+00  0.45593999997E+02  0.45594000000E+02  0.51100000000E-03 0.  1.
         11   -1    0    0    0    0 -0.00000000000E+00 -0.00000000000E+00 -0.45593999997E+02  0.45594000000E+02  0.51100000000E-03 0. -1.
    9900012    2    1    2    0    0  0.11375494153E+02  0.24472489901E+02 -0.36066726851E+02  0.46142318576E+02  0.10000007430E+02 0.  0.
        -12    1    1    2    0    0 -0.11375494153E+02 -0.24472489901E+02  0.36066726851E+02  0.45045681424E+02  0.00000000000E+00 0.  1.
         11    1    3    3    0    0  0.10129224701E+02  0.22573402087E+02 -0.32453702231E+02  0.40809342847E+02  0.51100000000E-03 0. -1.
        -11    1    3    3    0    0 -0.10916937404E+01  0.57780102803E+00 -0.10613628851E+01  0.16285394333E+01  0.51100000000E-03 0.  1.
         12    1    3    3    0    0  0.23379631919E+01  0.13212867857E+01 -0.25516617352E+01  0.37044362956E+01  0.00000000000E+00 0. -1.
</event>
<event>
 7    1  0.1541705E-008  0.4614232E+02  0.7816164E-02  0.1320468E+00
        -11   -1    0    0    0    0  0.00000000000E+00  0.00000000000E+00  0.45593999997E+02  0.45594000000E+02  0.51100000000E-03 0.  1.
         11   -1    0    0    0    0 -0.00000000000E+00 -0.00000000000E+00 -0.45593999997E+02  0.45594000000E+02  0.51100000000E-03 0. -1.
    9900012    2    1    2    0    0  0.72175634391E+01 -0.87454836906E+01 -0.43595146125E+02  0.46142317936E+02  0.10000001595E+02 0.  0.
        -12    1    1    2    0    0 -0.72175634391E+01  0.87454836906E+01  0.43595146125E+02  0.45045682064E+02  0.00000000000E+00 0.  1.
         11    1    3    3    0    0  0.18250953232E+01 -0.26895655096E+01 -0.38520241047E+01  0.50401215793E+01  0.51100000000E-03 0.  1.
        -11    1    3    3    0    0  0.18387657865E+01 -0.16871309655E+01 -0.27646599621E+02  0.27758997485E+02  0.51100000000E-03 0. -1.
         12    1    3    3    0    0  0.35537023295E+01 -0.43687872154E+01 -0.12096522399E+02  0.13343198872E+02  0.00000000000E+00 0. -1.
</event>
<event>
 7    1  0.1541705E-008  0.4614232E+02  0.7816164E-02  0.1320468E+00
        -11   -1    0    0    0    0  0.00000000000E+00  0.00000000000E+00  0.45593999997E+02  0.45594000000E+02  0.51100000000E-03 0.  1.
         11   -1    0    0    0    0 -0.00000000000E+00 -0.00000000000E+00 -0.45593999997E+02  0.45594000000E+02  0.51100000000E-03 0. -1.
    9900012    2    1    2    0    0  0.41679975899E+02  0.83373490874E+01  0.14912471548E+02  0.46142316650E+02  0.99999898724E+01 0.  0.
        -12    1    1    2    0    0 -0.41679975899E+02 -0.83373490874E+01 -0.14912471548E+02  0.45045683350E+02  0.00000000000E+00 0.  1.
         11    1    3    3    0    0  0.12265565721E+02  0.26519301780E+01  0.38780642791E+01  0.13134542966E+02  0.51100000000E-03 0. -1.
        -11    1    3    3    0    0  0.26338868579E+02  0.24504541774E+01  0.80960569852E+01  0.27663818657E+02  0.51100000000E-03 0.  1.
        -12    1    3    3    0    0  0.30755415989E+01  0.32349647320E+01  0.29383502832E+01  0.53439550270E+01  0.00000000000E+00 0.  1.
</event>
<event>
 7    1  0.1541705E-008  0.4614232E+02  0.7816164E-02  0.1320468E+00
        -11   -1    0    0    0    0  0.00000000000E+00  0.00000000000E+00  0.45593999997E+02  0.45594000000E+02  0.51100000000E-03 0.  1.
         11   -1    0    0    0    0 -0.00000000000E+00 -0.00000000000E+00 -0.45593999997E+02  0.45594000000E+02  0.51100000000E-03 0. -1.
    9900012    2    1    2    0    0 -0.93967329637E+00  0.79172319484E+01 -0.44334500458E+02  0.46142317871E+02  0.10000001004E+02 0.  0.
        -12    1    1    2    0    0  0.93967329637E+00 -0.79172319484E+01  0.44334500458E+02  0.45045682129E+02  0.00000000000E+00 0.  1.
         11    1    3    3    0    0  0.13304958545E+01  0.10140772287E+01 -0.14983790272E+02  0.15076887710E+02  0.51100000000E-03 0. -1.
        -11    1    3    3    0    0 -0.24617268898E+01  0.82739393414E+01 -0.26896455713E+02  0.28247787554E+02  0.51100000000E-03 0.  1.
        -12    1    3    3    0    0  0.19155773895E+00 -0.13707846217E+01 -0.24542544726E+01  0.28176426073E+01  0.00000000000E+00 0.  1.
</event>
<event>
 7    1  0.1541705E-008  0.4614232E+02  0.7816164E-02  0.1320468E+00
        -11   -1    0    0    0    0  0.00000000000E+00  0.00000000000E+00  0.45593999997E+02  0.45594000000E+02  0.51100000000E-03 0.  1.
         11   -1    0    0    0    0 -0.00000000000E+00 -0.00000000000E+00 -0.45593999997E+02  0.45594000000E+02  0.51100000000E-03 0. -1.
    9900012    2    1    2    0    0 -0.12351170351E+02  0.23145291540E+02 -0.36617720776E+02  0.46142318694E+02  0.10000008505E+02 0.  0.
        -12    1    1    2    0    0  0.12351170351E+02 -0.23145291540E+02  0.36617720776E+02  0.45045681306E+02  0.00000000000E+00 0.  1.
         11    1    3    3    0    0 -0.21064504192E+01  0.14558229373E+01 -0.10444249537E+01  0.27653892201E+01  0.51100000000E-03 0. -1.
        -11    1    3    3    0    0 -0.63851274370E+01  0.17684056737E+02 -0.30604867372E+02  0.35918708526E+02  0.51100000000E-03 0.  1.
        -12    1    3    3    0    0 -0.38595924945E+01  0.40054118648E+01 -0.49684284506E+01  0.74582209474E+01  0.00000000000E+00 0.  1.
</event>
<event>
 7    1  0.1541705E-008  0.4614232E+02  0.7816164E-02  0.1320468E+00
        -11   -1    0    0    0    0  0.00000000000E+00  0.00000000000E+00  0.45593999997E+02  0.45594000000E+02  0.51100000000E-03 0.  1.
         11   -1    0    0    0    0 -0.00000000000E+00 -0.00000000000E+00 -0.45593999997E+02  0.45594000000E+02  0.51100000000E-03 0. -1.
    9900012    2    1    2    0    0 -0.63071858371E+01  0.72325636043E+00 -0.44596073705E+02  0.46142317822E+02  0.10000000558E+02 0.  0.
        -12    1    1    2    0    0  0.63071858371E+01 -0.72325636043E+00  0.44596073705E+02  0.45045682178E+02  0.00000000000E+00 0.  1.
         11    1    3    3    0    0 -0.38067031944E+01 -0.51488614430E+00 -0.26279945265E+02  0.26559209709E+02  0.51100000000E-03 0. -1.
        -11    1    3    3    0    0 -0.17051040289E+01  0.26459992627E+01 -0.17482960684E+02  0.17764081918E+02  0.51100000000E-03 0.  1.
        -12    1    3    3    0    0 -0.79537861383E+00 -0.14078567580E+01 -0.83316775573E+00  0.18190261954E+01  0.00000000000E+00 0.  1.
</event>
<event>
 7    1  0.1541705E-008  0.4614232E+02  0.7816164E-02  0.1320468E+00
        -11   -1    0    0    0    0  0.00000000000E+00  0.00000000000E+00  0.45593999997E+02  0.45594000000E+02  0.51100000000E-03 0. -1.
         11   -1    0    0    0    0 -0.00000000000E+00 -0.00000000000E+00 -0.45593999997E+02  0.45594000000E+02  0.51100000000E-03 0.  1.
    9900012    2    1    2    0    0  0.79384805091E+01 -0.10409037279E+02  0.43101577033E+02  0.46142317937E+02  0.10000001600E+02 0.  0.
        -12    1    1    2    0    0 -0.79384805091E+01  0.10409037279E+02 -0.43101577033E+02  0.45045682063E+02  0.00000000000E+00 0.  1.
         11    1    3    3    0    0  0.14181433461E+01 -0.62185380159E+01  0.16813544775E+02  0.17982675934E+02  0.51100000000E-03 0. -1.
        -11    1    3    3    0    0  0.42773348779E+01  0.14723689259E-01  0.63247903501E+01  0.76353640174E+01  0.51100000000E-03 0.  1.
        -12    1    3    3    0    0  0.22430022851E+01 -0.42052229519E+01  0.19963241908E+02  0.20524277985E+02  0.00000000000E+00 0.  1.
</event>
<event>
 7    1  0.1541705E-008  0.4614232E+02  0.7816164E-02  0.1320468E+00
        -11   -1    0    0    0    0  0.00000000000E+00  0.00000000000E+00  0.45593999997E+02  0.45594000000E+02  0.51100000000E-03 0.  1.
         11   -1    0    0    0    0 -0.00000000000E+00 -0.00000000000E+00 -0.45593999997E+02  0.45594000000E+02  0.51100000000E-03 0. -1.
    9900012    2    1    2    0    0  0.19869596675E+02 -0.26388014647E+02 -0.30626538535E+02  0.46142322608E+02  0.10000044199E+02 0.  0.
        -12    1    1    2    0    0 -0.19869596675E+02  0.26388014647E+02  0.30626538535E+02  0.45045677392E+02  0.00000000000E+00 0.  1.
         11    1    3    3    0    0  0.10733640712E+02 -0.11824732807E+02 -0.11676398792E+02  0.19783165518E+02  0.51100000000E-03 0. -1.
        -11    1    3    3    0    0  0.30891665843E+00 -0.60248759932E+01 -0.66190581293E+01  0.89558076697E+01  0.51100000000E-03 0.  1.
        -12    1    3    3    0    0  0.88270393048E+01 -0.85384058467E+01 -0.12331081613E+02  0.17403349420E+02  0.00000000000E+00 0.  1.
</event>
<event>
 7    1  0.1541705E-008  0.4614232E+02  0.7816164E-02  0.1320468E+00
        -11   -1    0    0    0    0  0.00000000000E+00  0.00000000000E+00  0.45593999997E+02  0.45594000000E+02  0.51100000000E-03 0.  1.
         11   -1    0    0    0    0 -0.00000000000E+00 -0.00000000000E+00 -0.45593999997E+02  0.45594000000E+02  0.51100000000E-03 0. -1.
    9900012    2    1    2    0    0 -0.27905095126E+01 -0.26844614698E+01 -0.44878950715E+02  0.46142317699E+02  0.99999994297E+01 0.  0.
        -12    1    1    2    0    0  0.27905095126E+01  0.26844614698E+01  0.44878950715E+02  0.45045682301E+02  0.00000000000E+00 0.  1.
         11    1    3    3    0    0 -0.46691654074E+01 -0.41448595067E+01 -0.37726191707E+02  0.38239331936E+02  0.51100000000E-03 0. -1.
        -11    1    3    3    0    0  0.14499732725E+01 -0.24168248788E+00 -0.21778769366E+01  0.26275427928E+01  0.51100000000E-03 0.  1.
         12    1    3    3    0    0  0.42868262232E+00  0.17020805249E+01 -0.49748820712E+01  0.52754429697E+01  0.00000000000E+00 0. -1.
</event>
<event>
 7    1  0.1541705E-008  0.4614232E+02  0.7816164E-02  0.1320468E+00
        -11   -1    0    0    0    0  0.00000000000E+00  0.00000000000E+00  0.45593999997E+02  0.45594000000E+02  0.51100000000E-03 0.  1.
         11   -1    0    0    0    0 -0.00000000000E+00 -0.00000000000E+00 -0.45593999997E+02  0.45594000000E+02  0.51100000000E-03 0. -1.
    9900012    2    1    2    0    0  0.17308007545E+02 -0.31933336282E+02 -0.26642229012E+02  0.46142318098E+02  0.10000003073E+02 0.  0.
        -12    1    1    2    0    0 -0.17308007545E+02  0.31933336282E+02  0.26642229012E+02  0.45045681902E+02  0.00000000000E+00 0.  1.
         11    1    3    3    0    0  0.11332580245E+02 -0.14190447905E+02 -0.13948507258E+02  0.22898843677E+02  0.51100000000E-03 0. -1.
        -11    1    3    3    0    0  0.62413243138E+01 -0.17993388202E+02 -0.12157742914E+02  0.22594841474E+02  0.51100000000E-03 0.  1.
         12    1    3    3    0    0 -0.26589701348E+00  0.25049982517E+00 -0.53597883955E+00  0.64863294754E+00  0.00000000000E+00 0. -1.
</event>
<event>
 7    1  0.1541705E-008  0.4614232E+02  0.7816164E-02  0.1320468E+00
        -11   -1    0    0    0    0  0.00000000000E+00  0.00000000000E+00  0.45593999997E+02  0.45594000000E+02  0.51100000000E-03 0.  1.
         11   -1    0    0    0    0 -0.00000000000E+00 -0.00000000000E+00 -0.45593999997E+02  0.45594000000E+02  0.51100000000E-03 0. -1.
    9900012    2    1    2    0    0  0.34798973890E+02  0.57217339501E+01 -0.28025107155E+02  0.46142318140E+02  0.10000003456E+02 0.  0.
        -12    1    1    2    0    0 -0.34798973890E+02 -0.57217339501E+01  0.28025107155E+02  0.45045681860E+02  0.00000000000E+00 0.  1.
         11    1    3    3    0    0  0.26118982533E+02  0.58991878649E+01 -0.20834984675E+02  0.33927838904E+02  0.51100000000E-03 0. -1.
        -11    1    3    3    0    0  0.24905570196E+01  0.18453546657E+01 -0.10727211582E+01  0.32800821719E+01  0.51100000000E-03 0.  1.
         12    1    3    3    0    0  0.61894343371E+01 -0.20228085805E+01 -0.61174013222E+01  0.89343970643E+01  0.00000000000E+00 0. -1.
</event>
<event>
 7    1  0.1541705E-008  0.4614232E+02  0.7816164E-02  0.1320468E+00
        -11   -1    0    0    0    0  0.00000000000E+00  0.00000000000E+00  0.45593999997E+02  0.45594000000E+02  0.51100000000E-03 0.  1.
         11   -1    0    0    0    0 -0.00000000000E+00 -0.00000000000E+00 -0.45593999997E+02  0.45594000000E+02  0.51100000000E-03 0. -1.
    9900012    2    1    2    0    0  0.24672424049E+02  0.18920973001E+02 -0.32594191695E+02  0.46142322516E+02  0.10000043357E+02 0.  0.
        -12    1    1    2    0    0 -0.24672424049E+02 -0.18920973001E+02  0.32594191695E+02  0.45045677484E+02  0.00000000000E+00 0.  1.
         11    1    3    3    0    0  0.41846883656E+01  0.45621323156E+01 -0.48412026812E+01  0.78588747060E+01  0.51100000000E-03 0. -1.
        -11    1    3    3    0    0  0.13942907269E+02  0.97230660000E+01 -0.12670307555E+02  0.21200928502E+02  0.51100000000E-03 0.  1.
        -12    1    3    3    0    0  0.65448284141E+01  0.46357746850E+01 -0.15082681459E+02  0.17082519307E+02  0.00000000000E+00 0.  1.
</event>
<event>
 7    1  0.1541705E-008  0.4614232E+02  0.7816164E-02  0.1320468E+00
        -11   -1    0    0    0    0  0.00000000000E+00  0.00000000000E+00  0.45593999997E+02  0.45594000000E+02  0.51100000000E-03 0.  1.
         11   -1    0    0    0    0 -0.00000000000E+00 -0.00000000000E+00 -0.45593999997E+02  0.45594000000E+02  0.51100000000E-03 0. -1.
    9900012    2    1    2    0    0 -0.30186957240E+02 -0.30315212427E+02 -0.14101381857E+02  0.46142318052E+02  0.10000002656E+02 0.  0.
        -12    1    1    2    0    0  0.30186957240E+02  0.30315212427E+02  0.14101381857E+02  0.45045681948E+02  0.00000000000E+00 0.  1.
         11    1    3    3    0    0 -0.14739072186E+02 -0.87493766989E+01 -0.70754574142E+01  0.18543299043E+02  0.51100000000E-03 0. -1.
        -11    1    3    3    0    0 -0.67803975154E+01 -0.11826439095E+02 -0.30598615130E+01  0.13971442477E+02  0.51100000000E-03 0.  1.
         12    1    3    3    0    0 -0.86674875381E+01 -0.97393966324E+01 -0.39660629298E+01  0.13627576532E+02  0.00000000000E+00 0. -1.
</event>
<event>
 7    1  0.1541705E-008  0.4614232E+02  0.7816164E-02  0.1320468E+00
        -11   -1    0    0    0    0  0.00000000000E+00  0.00000000000E+00  0.45593999997E+02  0.45594000000E+02  0.51100000000E-03 0. -1.
         11   -1    0    0    0    0 -0.00000000000E+00 -0.00000000000E+00 -0.45593999997E+02  0.45594000000E+02  0.51100000000E-03 0.  1.
    9900012    2    1    2    0    0 -0.43084102002E+02 -0.56227236172E+01  0.11885227707E+02  0.46142317589E+02  0.99999984287E+01 0.  0.
        -12    1    1    2    0    0  0.43084102002E+02  0.56227236172E+01 -0.11885227707E+02  0.45045682411E+02  0.00000000000E+00 0.  1.
         11    1    3    3    0    0 -0.19297641353E+02 -0.28958682122E+01  0.27086675872E+01  0.19700809498E+02  0.51100000000E-03 0. -1.
        -11    1    3    3    0    0 -0.13797702773E+02 -0.47666114977E+01  0.56723132140E+01  0.15661172512E+02  0.51100000000E-03 0.  1.
        -12    1    3    3    0    0 -0.99887578762E+01  0.20397560927E+01  0.35042469063E+01  0.10780335580E+02  0.00000000000E+00 0.  1.
</event>
<event>
 7    1  0.1541705E-008  0.4614232E+02  0.7816164E-02  0.1320468E+00
        -11   -1    0    0    0    0  0.00000000000E+00  0.00000000000E+00  0.45593999997E+02  0.45594000000E+02  0.51100000000E-03 0. -1.
         11   -1    0    0    0    0 -0.00000000000E+00 -0.00000000000E+00 -0.45593999997E+02  0.45594000000E+02  0.51100000000E-03 0.  1.
    9900012    2    1    2    0    0  0.77854389568E+01 -0.34168016708E+02 -0.28302773255E+02  0.46142318748E+02  0.10000009000E+02 0.  0.
        -12    1    1    2    0    0 -0.77854389568E+01  0.34168016708E+02  0.28302773255E+02  0.45045681252E+02  0.00000000000E+00 0.  1.
         11    1    3    3    0    0  0.89765072345E+01 -0.19897983194E+02 -0.14868149151E+02  0.26411536812E+02  0.51100000000E-03 0. -1.
        -11    1    3    3    0    0 -0.15546152262E+01 -0.97187344594E+01 -0.84604027996E+01  0.12978792077E+02  0.51100000000E-03 0.  1.
         12    1    3    3    0    0  0.36354694858E+00 -0.45512990548E+01 -0.49742213045E+01  0.67519898590E+01  0.00000000000E+00 0. -1.
</event>
<event>
 7    1  0.1541705E-008  0.4614232E+02  0.7816164E-02  0.1320468E+00
        -11   -1    0    0    0    0  0.00000000000E+00  0.00000000000E+00  0.45593999997E+02  0.45594000000E+02  0.51100000000E-03 0.  1.
         11   -1    0    0    0    0 -0.00000000000E+00 -0.00000000000E+00 -0.45593999997E+02  0.45594000000E+02  0.51100000000E-03 0. -1.
    9900012    2    1    2    0    0 -0.18975369098E+02  0.40844265313E+02 -0.89143533321E+00  0.46142319871E+02  0.10000019239E+02 0.  0.
        -12    1    1    2    0    0  0.18975369098E+02 -0.40844265313E+02  0.89143533321E+00  0.45045680129E+02  0.00000000000E+00 0.  1.
         11    1    3    3    0    0 -0.58519753712E+01  0.12119704941E+02 -0.11330305227E+01  0.13506169776E+02  0.51100000000E-03 0. -1.
        -11    1    3    3    0    0 -0.11325497644E+02  0.16088935218E+02  0.18957777617E+01  0.19766504671E+02  0.51100000000E-03 0.  1.
        -12    1    3    3    0    0 -0.17978960834E+01  0.12635625153E+02 -0.16541825722E+01  0.12869645424E+02  0.00000000000E+00 0.  1.
</event>
<event>
 7    1  0.1541705E-008  0.4614232E+02  0.7816164E-02  0.1320468E+00
        -11   -1    0    0    0    0  0.00000000000E+00  0.00000000000E+00  0.45593999997E+02  0.45594000000E+02  0.51100000000E-03 0.  1.
         11   -1    0    0    0    0 -0.00000000000E+00 -0.00000000000E+00 -0.45593999997E+02  0.45594000000E+02  0.51100000000E-03 0. -1.
    9900012    2    1    2    0    0 -0.42166847402E+02 -0.65825289862E+01 -0.14413219666E+02  0.46142316424E+02  0.99999878114E+01 0.  0.
        -12    1    1    2    0    0  0.42166847402E+02  0.65825289862E+01  0.14413219666E+02  0.45045683576E+02  0.00000000000E+00 0.  1.
         11    1    3    3    0    0 -0.36558493311E+02 -0.24980543654E+01 -0.12645460761E+02  0.38764305578E+02  0.51100000000E-03 0. -1.
        -11    1    3    3    0    0 -0.40973167097E+01 -0.32982911316E+01 -0.20616358647E+01  0.56495195644E+01  0.51100000000E-03 0.  1.
         12    1    3    3    0    0 -0.15110373810E+01 -0.78618348917E+00  0.29387696060E+00  0.17284912824E+01  0.00000000000E+00 0. -1.
</event>
<event>
 7    1  0.1541705E-008  0.4614232E+02  0.7816164E-02  0.1320468E+00
        -11   -1    0    0    0    0  0.00000000000E+00  0.00000000000E+00  0.45593999997E+02  0.45594000000E+02  0.51100000000E-03 0. -1.
         11   -1    0    0    0    0 -0.00000000000E+00 -0.00000000000E+00 -0.45593999997E+02  0.45594000000E+02  0.51100000000E-03 0.  1.
    9900012    2    1    2    0    0  0.43983243819E+02  0.82650636330E+01  0.51260511249E+01  0.46142318589E+02  0.10000007547E+02 0.  0.
        -12    1    1    2    0    0 -0.43983243819E+02 -0.82650636330E+01 -0.51260511249E+01  0.45045681411E+02  0.00000000000E+00 0.  1.
         11    1    3    3    0    0  0.21602955444E+02  0.47433067618E+01 -0.17397161221E+01  0.22185879640E+02  0.51100000000E-03 0. -1.
        -11    1    3    3    0    0  0.80955644649E+01  0.17654259189E+01  0.43073147571E+01  0.93385145156E+01  0.51100000000E-03 0.  1.
         12    1    3    3    0    0  0.14284723910E+02  0.17563309523E+01  0.25584524899E+01  0.14617924433E+02  0.00000000000E+00 0. -1.
</event>
<event>
 7    1  0.1541705E-008  0.4614232E+02  0.7816164E-02  0.1320468E+00
        -11   -1    0    0    0    0  0.00000000000E+00  0.00000000000E+00  0.45593999997E+02  0.45594000000E+02  0.51100000000E-03 0.  1.
         11   -1    0    0    0    0 -0.00000000000E+00 -0.00000000000E+00 -0.45593999997E+02  0.45594000000E+02  0.51100000000E-03 0. -1.
    9900012    2    1    2    0    0  0.18058629836E+02 -0.39783451863E+01 -0.41075200987E+02  0.46142317876E+02  0.10000001045E+02 0.  0.
        -12    1    1    2    0    0 -0.18058629836E+02  0.39783451863E+01  0.41075200987E+02  0.45045682124E+02  0.00000000000E+00 0.  1.
         11    1    3    3    0    0  0.34288350876E+01 -0.35363452702E+01 -0.13702211815E+02  0.14560675012E+02  0.51100000000E-03 0. -1.
        -11    1    3    3    0    0  0.93990196688E+01  0.65572643895E+00 -0.22317129520E+02  0.24224487986E+02  0.51100000000E-03 0.  1.
        -12    1    3    3    0    0  0.52307750791E+01 -0.10977263551E+01 -0.50558596517E+01  0.73571548778E+01  0.00000000000E+00 0.  1.
</event>
<event>
 7    1  0.1541705E-008  0.4614232E+02  0.7816164E-02  0.1320468E+00
        -11   -1    0    0    0    0  0.00000000000E+00  0.00000000000E+00  0.45593999997E+02  0.45594000000E+02  0.51100000000E-03 0. -1.
         11   -1    0    0    0    0 -0.00000000000E+00 -0.00000000000E+00 -0.45593999997E+02  0.45594000000E+02  0.51100000000E-03 0.  1.
    9900012    2    1    2    0    0 -0.11434424964E+02 -0.43505574620E+02  0.23732672737E+01  0.46142317689E+02  0.99999993457E+01 0.  0.
        -12    1    1    2    0    0  0.11434424964E+02  0.43505574620E+02 -0.23732672737E+01  0.45045682311E+02  0.00000000000E+00 0.  1.
         11    1    3    3    0    0 -0.37321274864E+01 -0.28053807143E+02  0.39828365029E+01  0.28579850554E+02  0.51100000000E-03 0. -1.
        -11    1    3    3    0    0 -0.50020216677E+01 -0.69271682951E+01 -0.92430905124E+00  0.85941973933E+01  0.51100000000E-03 0.  1.
         12    1    3    3    0    0 -0.27002758097E+01 -0.85245991819E+01 -0.68526017800E+00  0.89682697424E+01  0.00000000000E+00 0. -1.
</event>
<event>
 7    1  0.1541705E-008  0.4614232E+02  0.7816164E-02  0.1320468E+00
        -11   -1    0    0    0    0  0.00000000000E+00  0.00000000000E+00  0.45593999997E+02  0.45594000000E+02  0.51100000000E-03 0.  1.
         11   -1    0    0    0    0 -0.00000000000E+00 -0.00000000000E+00 -0.45593999997E+02  0.45594000000E+02  0.51100000000E-03 0. -1.
    9900012    2    1    2    0    0 -0.73231986838E+01  0.13560830010E+02 -0.42327155895E+02  0.46142317902E+02  0.10000001285E+02 0.  0.
        -12    1    1    2    0    0  0.73231986838E+01 -0.13560830010E+02  0.42327155895E+02  0.45045682098E+02  0.00000000000E+00 0.  1.
         11    1    3    3    0    0 -0.58439371138E+01  0.82306348736E+01 -0.28488898144E+02  0.30224365488E+02  0.51100000000E-03 0. -1.
        -11    1    3    3    0    0 -0.12293862319E-01  0.52146499861E+01 -0.60291418490E+01  0.79714037228E+01  0.51100000000E-03 0.  1.
        -12    1    3    3    0    0 -0.14669677077E+01  0.11554515061E+00 -0.78091159015E+01  0.79465486911E+01  0.00000000000E+00 0.  1.
</event>
<event>
 7    1  0.1541705E-008  0.4614232E+02  0.7816164E-02  0.1320468E+00
        -11   -1    0    0    0    0  0.00000000000E+00  0.00000000000E+00  0.45593999997E+02  0.45594000000E+02  0.51100000000E-03 0. -1.
         11   -1    0    0    0    0 -0.00000000000E+00 -0.00000000000E+00 -0.45593999997E+02  0.45594000000E+02  0.51100000000E-03 0.  1.
    9900012    2    1    2    0    0 -0.44476164644E+02 -0.50089214072E+01  0.50887107722E+01  0.46142317716E+02  0.99999995871E+01 0.  0.
        -12    1    1    2    0    0  0.44476164644E+02  0.50089214072E+01 -0.50887107722E+01  0.45045682284E+02  0.00000000000E+00 0.  1.
         11    1    3    3    0    0 -0.23561868768E+02 -0.17667336119E+01  0.12535225890E+01  0.23661241020E+02  0.51100000000E-03 0. -1.
        -11    1    3    3    0    0 -0.20642513447E+02 -0.35671884048E+01  0.25201899324E+01  0.21099515446E+02  0.51100000000E-03 0.  1.
        -12    1    3    3    0    0 -0.27178242977E+00  0.32500060944E+00  0.13149982509E+01  0.13815612491E+01  0.00000000000E+00 0.  1.
</event>
<event>
 7    1  0.1541705E-008  0.4614232E+02  0.7816164E-02  0.1320468E+00
        -11   -1    0    0    0    0  0.00000000000E+00  0.00000000000E+00  0.45593999997E+02  0.45594000000E+02  0.51100000000E-03 0. -1.
         11   -1    0    0    0    0 -0.00000000000E+00 -0.00000000000E+00 -0.45593999997E+02  0.45594000000E+02  0.51100000000E-03 0.  1.
    9900012    2    1    2    0    0  0.38054554782E+02  0.12182437030E+02  0.20797900688E+02  0.46142316692E+02  0.99999902495E+01 0.  0.
        -12    1    1    2    0    0 -0.38054554782E+02 -0.12182437030E+02 -0.20797900688E+02  0.45045683308E+02  0.00000000000E+00 0.  1.
         11    1    3    3    0    0  0.12838976945E+02 -0.25404282278E-01  0.80992973812E+01  0.15180203974E+02  0.51100000000E-03 0. -1.
        -11    1    3    3    0    0  0.12624397344E+02  0.74847771601E+01  0.80124498545E+01  0.16721143811E+02  0.51100000000E-03 0.  1.
         12    1    3    3    0    0  0.12591180493E+02  0.47230641524E+01  0.46861534526E+01  0.14240968906E+02  0.00000000000E+00 0. -1.
</event>
<event>
 7    1  0.1541705E-008  0.4614232E+02  0.7816164E-02  0.1320468E+00
        -11   -1    0    0    0    0  0.00000000000E+00  0.00000000000E+00  0.45593999997E+02  0.45594000000E+02  0.51100000000E-03 0.  1.
         11   -1    0    0    0    0 -0.00000000000E+00 -0.00000000000E+00 -0.45593999997E+02  0.45594000000E+02  0.51100000000E-03 0. -1.
    9900012    2    1    2    0    0  0.23978957033E+02  0.26064351232E+02 -0.27834742091E+02  0.46142315936E+02  0.99999833534E+01 0.  0.
        -12    1    1    2    0    0 -0.23978957033E+02 -0.26064351232E+02  0.27834742091E+02  0.45045684064E+02  0.00000000000E+00 0.  1.
         11    1    3    3    0    0  0.19818776165E+02  0.24349130135E+02 -0.26994593716E+02  0.41404976961E+02  0.51100000000E-03 0. -1.
        -11    1    3    3    0    0  0.62963697583E+00  0.39588693312E+00  0.29649321811E+00  0.80067326336E+00  0.51100000000E-03 0.  1.
         12    1    3    3    0    0  0.35305438916E+01  0.13193341647E+01 -0.11366415932E+01  0.39366657110E+01  0.00000000000E+00 0. -1.
</event>
<event>
 7    1  0.1541705E-008  0.4614232E+02  0.7816164E-02  0.1320468E+00
        -11   -1    0    0    0    0  0.00000000000E+00  0.00000000000E+00  0.45593999997E+02  0.45594000000E+02  0.51100000000E-03 0.  1.
         11   -1    0    0    0    0 -0.00000000000E+00 -0.00000000000E+00 -0.45593999997E+02  0.45594000000E+02  0.51100000000E-03 0. -1.
    9900012    2    1    2    0    0  0.11798302393E+02 -0.42146978629E+02 -0.10655785298E+02  0.46142317552E+02  0.99999980898E+01 0.  0.
        -12    1    1    2    0    0 -0.11798302393E+02  0.42146978629E+02  0.10655785298E+02  0.45045682448E+02  0.00000000000E+00 0.  1.
         11    1    3    3    0    0  0.56975581364E+01 -0.14448972014E+02 -0.55415758973E+01  0.16490725414E+02  0.51100000000E-03 0. -1.
        -11    1    3    3    0    0 -0.41032080940E-01 -0.13787186927E+02 -0.64593226117E+00  0.13802370657E+02  0.51100000000E-03 0.  1.
        -12    1    3    3    0    0  0.61417763373E+01 -0.13910819688E+02 -0.44682771400E+01  0.15849221481E+02  0.00000000000E+00 0.  1.
</event>
<event>
 7    1  0.1541705E-008  0.4614232E+02  0.7816164E-02  0.1320468E+00
        -11   -1    0    0    0    0  0.00000000000E+00  0.00000000000E+00  0.45593999997E+02  0.45594000000E+02  0.51100000000E-03 0. -1.
         11   -1    0    0    0    0 -0.00000000000E+00 -0.00000000000E+00 -0.45593999997E+02  0.45594000000E+02  0.51100000000E-03 0.  1.
    9900012    2    1    2    0    0  0.26514690070E+02  0.23058419228E+01  0.36342369481E+02  0.46142317455E+02  0.99999972062E+01 0.  0.
        -12    1    1    2    0    0 -0.26514690070E+02 -0.23058419228E+01 -0.36342369481E+02  0.45045682545E+02  0.00000000000E+00 0.  1.
         11    1    3    3    0    0  0.75051361436E+00  0.18709709825E+01  0.23333949892E+01  0.30835913379E+01  0.51100000000E-03 0.  1.
        -11    1    3    3    0    0  0.23119997106E+02  0.21392687212E+01  0.30719213978E+02  0.38506893467E+02  0.51100000000E-03 0. -1.
         12    1    3    3    0    0  0.26441793504E+01 -0.17043977808E+01  0.32897605138E+01  0.45518326497E+01  0.00000000000E+00 0. -1.
</event>
<event>
 7    1  0.1541705E-008  0.4614232E+02  0.7816164E-02  0.1320468E+00
        -11   -1    0    0    0    0  0.00000000000E+00  0.00000000000E+00  0.45593999997E+02  0.45594000000E+02  0.51100000000E-03 0.  1.
         11   -1    0    0    0    0 -0.00000000000E+00 -0.00000000000E+00 -0.45593999997E+02  0.45594000000E+02  0.51100000000E-03 0. -1.
    9900012    2    1    2    0    0  0.33364166988E+02  0.20694850168E+02 -0.22083230390E+02  0.46142317335E+02  0.99999961173E+01 0.  0.
        -12    1    1    2    0    0 -0.33364166988E+02 -0.20694850168E+02  0.22083230390E+02  0.45045682665E+02  0.00000000000E+00 0.  1.
         11    1    3    3    0    0  0.62858077335E+01  0.38662962619E+01 -0.53354074094E+01  0.91063822747E+01  0.51100000000E-03 0. -1.
        -11    1    3    3    0    0  0.19877622735E+02  0.76883148260E+01 -0.95567264095E+01  0.23357249204E+02  0.51100000000E-03 0.  1.
        -12    1    3    3    0    0  0.72007365192E+01  0.91402390802E+01 -0.71910965715E+01  0.13678685857E+02  0.00000000000E+00 0.  1.
</event>
<event>
 7    1  0.1541705E-008  0.4614232E+02  0.7816164E-02  0.1320468E+00
        -11   -1    0    0    0    0  0.00000000000E+00  0.00000000000E+00  0.45593999997E+02  0.45594000000E+02  0.51100000000E-03 0.  1.
         11   -1    0    0    0    0 -0.00000000000E+00 -0.00000000000E+00 -0.45593999997E+02  0.45594000000E+02  0.51100000000E-03 0. -1.
    9900012    2    1    2    0    0 -0.14717810516E+02 -0.23880271660E+02 -0.35245315985E+02  0.46142316302E+02  0.99999866952E+01 0.  0.
        -12    1    1    2    0    0  0.14717810516E+02  0.23880271660E+02  0.35245315985E+02  0.45045683698E+02  0.00000000000E+00 0.  1.
         11    1    3    3    0    0 -0.44113128961E+01 -0.97007452712E+01 -0.16970626450E+02  0.20039119308E+02  0.51100000000E-03 0. -1.
        -11    1    3    3    0    0 -0.10528378535E+02 -0.14097397964E+02 -0.18662432087E+02  0.25648971824E+02  0.51100000000E-03 0.  1.
        -12    1    3    3    0    0  0.22188091567E+00 -0.82128424315E-01  0.38774255180E+00  0.45422517025E+00  0.00000000000E+00 0.  1.
</event>
<event>
 7    1  0.1541705E-008  0.4614232E+02  0.7816164E-02  0.1320468E+00
        -11   -1    0    0    0    0  0.00000000000E+00  0.00000000000E+00  0.45593999997E+02  0.45594000000E+02  0.51100000000E-03 0.  1.
         11   -1    0    0    0    0 -0.00000000000E+00 -0.00000000000E+00 -0.45593999997E+02  0.45594000000E+02  0.51100000000E-03 0. -1.
    9900012    2    1    2    0    0  0.19191976329E+02 -0.19243566392E+02 -0.35923067097E+02  0.46142317049E+02  0.99999935029E+01 0.  0.
        -12    1    1    2    0    0 -0.19191976329E+02  0.19243566392E+02  0.35923067097E+02  0.45045682951E+02  0.00000000000E+00 0.  1.
         11    1    3    3    0    0  0.14999942672E+02 -0.10561137642E+02 -0.22686451751E+02  0.29175520591E+02  0.51100000000E-03 0. -1.
        -11    1    3    3    0    0  0.43505613906E+01 -0.90818640602E+01 -0.12044605127E+02  0.15699686371E+02  0.51100000000E-03 0.  1.
         12    1    3    3    0    0 -0.15852773321E+00  0.39943531031E+00 -0.11920102185E+01  0.12671100861E+01  0.00000000000E+00 0. -1.
</event>
<event>
 7    1  0.1541705E-008  0.4614231E+02  0.7816164E-02  0.1320468E+00
        -11   -1    0    0    0    0  0.00000000000E+00  0.00000000000E+00  0.45593999997E+02  0.45594000000E+02  0.51100000000E-03 0.  1.
         11   -1    0    0    0    0 -0.00000000000E+00 -0.00000000000E+00 -0.45593999997E+02  0.45594000000E+02  0.51100000000E-03 0. -1.
    9900012    2    1    2    0    0  0.32254989079E+02  0.14228328954E+02 -0.28040762274E+02  0.46142311924E+02  0.99999467760E+01 0.  0.
        -12    1    1    2    0    0 -0.32254989079E+02 -0.14228328954E+02  0.28040762274E+02  0.45045688076E+02  0.00000000000E+00 0.  1.
         11    1    3    3    0    0  0.16476800014E+02  0.70944750780E+01 -0.13093180897E+02  0.22209185073E+02  0.51100000000E-03 0. -1.
        -11    1    3    3    0    0 -0.17887884545E+00  0.79027967862E+00  0.39883874158E+00  0.90311251497E+00  0.51100000000E-03 0.  1.
        -12    1    3    3    0    0  0.15957067911E+02  0.63435741971E+01 -0.15346420119E+02  0.23030014337E+02  0.00000000000E+00 0.  1.
</event>
<event>
 7    1  0.1541705E-008  0.4614232E+02  0.7816164E-02  0.1320468E+00
        -11   -1    0    0    0    0  0.00000000000E+00  0.00000000000E+00  0.45593999997E+02  0.45594000000E+02  0.51100000000E-03 0.  1.
         11   -1    0    0    0    0 -0.00000000000E+00 -0.00000000000E+00 -0.45593999997E+02  0.45594000000E+02  0.51100000000E-03 0. -1.
    9900012    2    1    2    0    0  0.39240641570E+02 -0.18193720990E+02  0.12580699904E+02  0.46142318249E+02  0.10000004448E+02 0.  0.
        -12    1    1    2    0    0 -0.39240641570E+02  0.18193720990E+02 -0.12580699904E+02  0.45045681751E+02  0.00000000000E+00 0.  1.
         11    1    3    3    0    0  0.75640455112E+01 -0.23512119544E+01  0.77242210695E+00  0.79586191216E+01  0.51100000000E-03 0. -1.
        -11    1    3    3    0    0  0.26520506818E+02 -0.16011524114E+02  0.87697275435E+01  0.32196495272E+02  0.51100000000E-03 0.  1.
        -12    1    3    3    0    0  0.51560892409E+01  0.16901507828E+00  0.30385502539E+01  0.59872038551E+01  0.00000000000E+00 0.  1.
</event>
<event>
 7    1  0.1541705E-008  0.4614232E+02  0.7816164E-02  0.1320468E+00
        -11   -1    0    0    0    0  0.00000000000E+00  0.00000000000E+00  0.45593999997E+02  0.45594000000E+02  0.51100000000E-03 0.  1.
         11   -1    0    0    0    0 -0.00000000000E+00 -0.00000000000E+00 -0.45593999997E+02  0.45594000000E+02  0.51100000000E-03 0. -1.
    9900012    2    1    2    0    0  0.21601229681E+01  0.55866207069E+01 -0.44645677883E+02  0.46142323007E+02  0.10000047834E+02 0.  0.
        -12    1    1    2    0    0 -0.21601229681E+01 -0.55866207069E+01  0.44645677883E+02  0.45045676993E+02  0.00000000000E+00 0.  1.
         11    1    3    3    0    0  0.93574435808E+00  0.44641754719E+01 -0.32220853259E+02  0.32542093742E+02  0.51100000000E-03 0. -1.
        -11    1    3    3    0    0  0.24705136814E+01  0.21965226884E+01 -0.10773501608E+02  0.11269271801E+02  0.51100000000E-03 0.  1.
         12    1    3    3    0    0 -0.12461350715E+01 -0.10740774534E+01 -0.16513230159E+01  0.23309574632E+01  0.00000000000E+00 0. -1.
</event>
<event>
 7    1  0.1541705E-008  0.4614232E+02  0.7816164E-02  0.1320468E+00
        -11   -1    0    0    0    0  0.00000000000E+00  0.00000000000E+00  0.45593999997E+02  0.45594000000E+02  0.51100000000E-03 0.  1.
         11   -1    0    0    0    0 -0.00000000000E+00 -0.00000000000E+00 -0.45593999997E+02  0.45594000000E+02  0.51100000000E-03 0. -1.
    9900012    2    1    2    0    0  0.35813185673E+01  0.44242347385E+02  0.76747804608E+01  0.46142318742E+02  0.10000008948E+02 0.  0.
        -12    1    1    2    0    0 -0.35813185673E+01 -0.44242347385E+02 -0.76747804608E+01  0.45045681258E+02  0.00000000000E+00 0.  1.
         11    1    3    3    0    0 -0.16870341417E+01  0.17608307913E+02 -0.51923748814E+00  0.17696558975E+02  0.51100000000E-03 0. -1.
        -11    1    3    3    0    0  0.41794186205E+01  0.18924699629E+02  0.67807628257E+01  0.20532670085E+02  0.51100000000E-03 0.  1.
         12    1    3    3    0    0  0.10889340885E+01  0.77093398437E+01  0.14132551232E+01  0.79130896822E+01  0.00000000000E+00 0. -1.
</event>
<event>
 7    1  0.1541705E-008  0.4614231E+02  0.7816164E-02  0.1320468E+00
        -11   -1    0    0    0    0  0.00000000000E+00  0.00000000000E+00  0.45593999997E+02  0.45594000000E+02  0.51100000000E-03 0.  1.
         11   -1    0    0    0    0 -0.00000000000E+00 -0.00000000000E+00 -0.45593999997E+02  0.45594000000E+02  0.51100000000E-03 0. -1.
    9900012    2    1    2    0    0 -0.19538250201E+01  0.10704447476E+02 -0.43711690672E+02  0.46142306206E+02  0.99998946316E+01 0.  0.
        -12    1    1    2    0    0  0.19538250201E+01 -0.10704447476E+02  0.43711690672E+02  0.45045693794E+02  0.00000000000E+00 0.  1.
         11    1    3    3    0    0 -0.12123956418E+01  0.88317628608E+01 -0.17151577074E+02  0.19329938821E+02  0.51100000000E-03 0. -1.
        -11    1    3    3    0    0  0.92022974414E+00 -0.26783076757E+00 -0.72259086131E+01  0.72891914262E+01  0.51100000000E-03 0.  1.
         12    1    3    3    0    0 -0.16616591224E+01  0.21405153829E+01 -0.19334204985E+02  0.19523175959E+02  0.00000000000E+00 0. -1.
</event>
<event>
 7    1  0.1541705E-008  0.4614232E+02  0.7816164E-02  0.1320468E+00
        -11   -1    0    0    0    0  0.00000000000E+00  0.00000000000E+00  0.45593999997E+02  0.45594000000E+02  0.51100000000E-03 0.  1.
         11   -1    0    0    0    0 -0.00000000000E+00 -0.00000000000E+00 -0.45593999997E+02  0.45594000000E+02  0.51100000000E-03 0. -1.
    9900012    2    1    2    0    0  0.32573656156E+02 -0.24366094204E+01 -0.31018275292E+02  0.46142317156E+02  0.99999944791E+01 0.  0.
        -12    1    1    2    0    0 -0.32573656156E+02  0.24366094204E+01  0.31018275292E+02  0.45045682844E+02  0.00000000000E+00 0.  1.
         11    1    3    3    0    0  0.22279500878E+02  0.29940545816E+01 -0.21326922991E+02  0.30986741790E+02  0.51100000000E-03 0. -1.
        -11    1    3    3    0    0  0.81206053267E+01 -0.40673635787E+01 -0.77195893353E+01  0.11919720514E+02  0.51100000000E-03 0.  1.
         12    1    3    3    0    0  0.21735499505E+01 -0.13633004233E+01 -0.19717629661E+01  0.32358548525E+01  0.00000000000E+00 0. -1.
</event>
<event>
 7    1  0.1541705E-008  0.4614232E+02  0.7816164E-02  0.1320468E+00
        -11   -1    0    0    0    0  0.00000000000E+00  0.00000000000E+00  0.45593999997E+02  0.45594000000E+02  0.51100000000E-03 0. -1.
         11   -1    0    0    0    0 -0.00000000000E+00 -0.00000000000E+00 -0.45593999997E+02  0.45594000000E+02  0.51100000000E-03 0.  1.
    9900012    2    1    2    0    0  0.34968454910E+02 -0.23978397764E+02 -0.15210426434E+02  0.46142317961E+02  0.10000001820E+02 0.  0.
        -12    1    1    2    0    0 -0.34968454910E+02  0.23978397764E+02  0.15210426434E+02  0.45045682039E+02  0.00000000000E+00 0.  1.
         11    1    3    3    0    0  0.21783255056E+02 -0.13853731504E+02 -0.11476325512E+02  0.28251409256E+02  0.51100000000E-03 0. -1.
        -11    1    3    3    0    0  0.71587662694E+00 -0.19251899559E+01  0.93095841574E+00  0.22551096524E+01  0.51100000000E-03 0.  1.
         12    1    3    3    0    0  0.12469323227E+02 -0.81994763034E+01 -0.46650593376E+01  0.15635799053E+02  0.00000000000E+00 0. -1.
</event>
<event>
 7    1  0.1541705E-008  0.4614232E+02  0.7816164E-02  0.1320468E+00
        -11   -1    0    0    0    0  0.00000000000E+00  0.00000000000E+00  0.45593999997E+02  0.45594000000E+02  0.51100000000E-03 0.  1.
         11   -1    0    0    0    0 -0.00000000000E+00 -0.00000000000E+00 -0.45593999997E+02  0.45594000000E+02  0.51100000000E-03 0. -1.
    9900012    2    1    2    0    0  0.12307913139E+02 -0.33004165175E+02 -0.28077640232E+02  0.46142317346E+02  0.99999962182E+01 0.  0.
        -12    1    1    2    0    0 -0.12307913139E+02  0.33004165175E+02  0.28077640232E+02  0.45045682654E+02  0.00000000000E+00 0.  1.
         11    1    3    3    0    0  0.11394802155E+02 -0.21614399852E+02 -0.21071495678E+02  0.32265023284E+02  0.51100000000E-03 0. -1.
        -11    1    3    3    0    0 -0.28467814667E+00 -0.10442596260E+02 -0.62487965896E+01  0.12172769503E+02  0.51100000000E-03 0.  1.
         12    1    3    3    0    0  0.11977891310E+01 -0.94716906310E+00 -0.75734796399E+00  0.17045245598E+01  0.00000000000E+00 0. -1.
</event>
<event>
 7    1  0.1541705E-008  0.4614232E+02  0.7816164E-02  0.1320468E+00
        -11   -1    0    0    0    0  0.00000000000E+00  0.00000000000E+00  0.45593999997E+02  0.45594000000E+02  0.51100000000E-03 0.  1.
         11   -1    0    0    0    0 -0.00000000000E+00 -0.00000000000E+00 -0.45593999997E+02  0.45594000000E+02  0.51100000000E-03 0. -1.
    9900012    2    1    2    0    0 -0.27434142988E+02  0.12482907289E+02 -0.33476234233E+02  0.46142318361E+02  0.10000005475E+02 0.  0.
        -12    1    1    2    0    0  0.27434142988E+02 -0.12482907289E+02  0.33476234233E+02  0.45045681639E+02  0.00000000000E+00 0.  1.
         11    1    3    3    0    0 -0.16439064601E+02  0.10883074890E+02 -0.25344284920E+02  0.32109452539E+02  0.51100000000E-03 0. -1.
        -11    1    3    3    0    0 -0.65403335314E+01  0.20770804500E+01 -0.40278339854E+01  0.79569889263E+01  0.51100000000E-03 0.  1.
         12    1    3    3    0    0 -0.44547448555E+01 -0.47724805149E+00 -0.41041153276E+01  0.60758768958E+01  0.00000000000E+00 0. -1.
</event>
<event>
 7    1  0.1541705E-008  0.4614232E+02  0.7816164E-02  0.1320468E+00
        -11   -1    0    0    0    0  0.00000000000E+00  0.00000000000E+00  0.45593999997E+02  0.45594000000E+02  0.51100000000E-03 0. -1.
         11   -1    0    0    0    0 -0.00000000000E+00 -0.00000000000E+00 -0.45593999997E+02  0.45594000000E+02  0.51100000000E-03 0.  1.
    9900012    2    1    2    0    0  0.43266632622E+02  0.10061304455E+02  0.74754400409E+01  0.46142317082E+02  0.99999938046E+01 0.  0.
        -12    1    1    2    0    0 -0.43266632622E+02 -0.10061304455E+02 -0.74754400409E+01  0.45045682918E+02  0.00000000000E+00 0.  1.
         11    1    3    3    0    0  0.33607490357E+01  0.25738096857E+00  0.28452560479E+01  0.44109365540E+01  0.51100000000E-03 0.  1.
        -11    1    3    3    0    0  0.32998433145E+02  0.10122048812E+02  0.31454212879E+01  0.34658997930E+02  0.51100000000E-03 0. -1.
         12    1    3    3    0    0  0.69074504412E+01 -0.31812532491E+00  0.14847627051E+01  0.70723825978E+01  0.00000000000E+00 0. -1.
</event>
<event>
 7    1  0.1541705E-008  0.4614232E+02  0.7816164E-02  0.1320468E+00
        -11   -1    0    0    0    0  0.00000000000E+00  0.00000000000E+00  0.45593999997E+02  0.45594000000E+02  0.51100000000E-03 0.  1.
         11   -1    0    0    0    0 -0.00000000000E+00 -0.00000000000E+00 -0.45593999997E+02  0.45594000000E+02  0.51100000000E-03 0. -1.
    9900012    2    1    2    0    0 -0.15605965664E+02  0.42150961245E+02 -0.29772480890E+01  0.46142315364E+02  0.99999781367E+01 0.  0.
        -12    1    1    2    0    0  0.15605965664E+02 -0.42150961245E+02  0.29772480890E+01  0.45045684636E+02  0.00000000000E+00 0.  1.
         11    1    3    3    0    0 -0.70674161238E+01  0.17470748409E+02 -0.29574592432E+01  0.19076739398E+02  0.51100000000E-03 0. -1.
        -11    1    3    3    0    0 -0.65746929510E+01  0.93407907732E+01  0.15249440400E+01  0.11523992982E+02  0.51100000000E-03 0.  1.
        -12    1    3    3    0    0 -0.19638565892E+01  0.15339422063E+02 -0.15447328858E+01  0.15541582983E+02  0.00000000000E+00 0.  1.
</event>
<event>
 7    1  0.1541705E-008  0.4614232E+02  0.7816164E-02  0.1320468E+00
        -11   -1    0    0    0    0  0.00000000000E+00  0.00000000000E+00  0.45593999997E+02  0.45594000000E+02  0.51100000000E-03 0.  1.
         11   -1    0    0    0    0 -0.00000000000E+00 -0.00000000000E+00 -0.45593999997E+02  0.45594000000E+02  0.51100000000E-03 0. -1.
    9900012    2    1    2    0    0  0.30881107726E+02  0.17260086679E+02 -0.27884765619E+02  0.46142316964E+02  0.99999927340E+01 0.  0.
        -12    1    1    2    0    0 -0.30881107726E+02 -0.17260086679E+02  0.27884765619E+02  0.45045683036E+02  0.00000000000E+00 0.  1.
         11    1    3    3    0    0  0.70265372334E+01  0.36582338640E+01 -0.71787316793E+01  0.10690607526E+02  0.51100000000E-03 0. -1.
        -11    1    3    3    0    0  0.17568937098E+02  0.80976510910E+01 -0.97208615938E+01  0.21650280698E+02  0.51100000000E-03 0.  1.
        -12    1    3    3    0    0  0.62856333948E+01  0.55042017241E+01 -0.10985172345E+02  0.13801428740E+02  0.00000000000E+00 0.  1.
</event>
<event>
 7    1  0.1541705E-008  0.4614232E+02  0.7816164E-02  0.1320468E+00
        -11   -1    0    0    0    0  0.00000000000E+00  0.00000000000E+00  0.45593999997E+02  0.45594000000E+02  0.51100000000E-03 0.  1.
         11   -1    0    0    0    0 -0.00000000000E+00 -0.00000000000E+00 -0.45593999997E+02  0.45594000000E+02  0.51100000000E-03 0. -1.
    9900012    2    1    2    0    0 -0.98725820235E+01  0.41729326169E+02  0.13795252586E+02  0.46142317274E+02  0.99999955617E+01 0.  0.
        -12    1    1    2    0    0  0.98725820235E+01 -0.41729326169E+02 -0.13795252586E+02  0.45045682726E+02  0.00000000000E+00 0.  1.
         11    1    3    3    0    0  0.95278057939E+00  0.16644272925E+01  0.26548572412E+00  0.19361280886E+01  0.51100000000E-03 0. -1.
        -11    1    3    3    0    0 -0.14975877313E+01  0.26523041830E+01 -0.66646747503E+00  0.31179585707E+01  0.51100000000E-03 0.  1.
         12    1    3    3    0    0 -0.93277748716E+01  0.37412594693E+02  0.14196234337E+02  0.41088230615E+02  0.00000000000E+00 0. -1.
</event>
<event>
 7    1  0.1541705E-008  0.4614232E+02  0.7816164E-02  0.1320468E+00
        -11   -1    0    0    0    0  0.00000000000E+00  0.00000000000E+00  0.45593999997E+02  0.45594000000E+02  0.51100000000E-03 0.  1.
         11   -1    0    0    0    0 -0.00000000000E+00 -0.00000000000E+00 -0.45593999997E+02  0.45594000000E+02  0.51100000000E-03 0. -1.
    9900012    2    1    2    0    0  0.16883119015E+01  0.39818460287E+02 -0.20994125810E+02  0.46142317685E+02  0.99999993091E+01 0.  0.
        -12    1    1    2    0    0 -0.16883119015E+01 -0.39818460287E+02  0.20994125810E+02  0.45045682315E+02  0.00000000000E+00 0.  1.
         11    1    3    3    0    0  0.11087932865E+00  0.16988230901E+00 -0.15075781016E+01  0.15211660718E+01  0.51100000000E-03 0. -1.
        -11    1    3    3    0    0  0.22401605391E+01  0.59122582164E+01 -0.41025425918E+01  0.75368410118E+01  0.51100000000E-03 0.  1.
         12    1    3    3    0    0 -0.66272796616E+00  0.33736319761E+02 -0.15384005117E+02  0.37084310602E+02  0.00000000000E+00 0. -1.
</event>
<event>
 7    1  0.1541705E-008  0.4614232E+02  0.7816164E-02  0.1320468E+00
        -11   -1    0    0    0    0  0.00000000000E+00  0.00000000000E+00  0.45593999997E+02  0.45594000000E+02  0.51100000000E-03 0. -1.
         11   -1    0    0    0    0 -0.00000000000E+00 -0.00000000000E+00 -0.45593999997E+02  0.45594000000E+02  0.51100000000E-03 0.  1.
    9900012    2    1    2    0    0 -0.44125218615E+02 -0.56510128905E+01 -0.70812821334E+01  0.46142318507E+02  0.10000006801E+02 0.  0.
        -12    1    1    2    0    0  0.44125218615E+02  0.56510128905E+01  0.70812821334E+01  0.45045681493E+02  0.00000000000E+00 0.  1.
         11    1    3    3    0    0 -0.33018065114E+02  0.28997016466E-01 -0.40697810102E+01  0.33267951281E+02  0.51100000000E-03 0. -1.
        -11    1    3    3    0    0 -0.56773092102E+01 -0.24345722927E+01 -0.17930551979E+01  0.64322647117E+01  0.51100000000E-03 0.  1.
         12    1    3    3    0    0 -0.54298442910E+01 -0.32454376143E+01 -0.12184459253E+01  0.64421025144E+01  0.00000000000E+00 0. -1.
</event>
<event>
 7    1  0.1541705E-008  0.4614232E+02  0.7816164E-02  0.1320468E+00
        -11   -1    0    0    0    0  0.00000000000E+00  0.00000000000E+00  0.45593999997E+02  0.45594000000E+02  0.51100000000E-03 0. -1.
         11   -1    0    0    0    0 -0.00000000000E+00 -0.00000000000E+00 -0.45593999997E+02  0.45594000000E+02  0.51100000000E-03 0.  1.
    9900012    2    1    2    0    0 -0.71827840985E+01  0.19757837938E+02  0.39839037576E+02  0.46142318049E+02  0.10000002628E+02 0.  0.
        -12    1    1    2    0    0  0.71827840985E+01 -0.19757837938E+02 -0.39839037576E+02  0.45045681951E+02  0.00000000000E+00 0.  1.
         11    1    3    3    0    0 -0.53185451531E+01  0.14381178931E+02  0.32828500749E+02  0.36232798563E+02  0.51100000000E-03 0. -1.
        -11    1    3    3    0    0 -0.32802670777E+00  0.27598417755E+01  0.63821483658E+00  0.28516042127E+01  0.51100000000E-03 0.  1.
        -12    1    3    3    0    0 -0.15362122376E+01  0.26168172317E+01  0.63723219904E+01  0.70579152738E+01  0.00000000000E+00 0.  1.
</event>
<event>
 7    1  0.1541705E-008  0.4614232E+02  0.7816164E-02  0.1320468E+00
        -11   -1    0    0    0    0  0.00000000000E+00  0.00000000000E+00  0.45593999997E+02  0.45594000000E+02  0.51100000000E-03 0.  1.
         11   -1    0    0    0    0 -0.00000000000E+00 -0.00000000000E+00 -0.45593999997E+02  0.45594000000E+02  0.51100000000E-03 0. -1.
    9900012    2    1    2    0    0  0.96648939201E+01  0.37229668219E+02 -0.23444724718E+02  0.46142317774E+02  0.10000000114E+02 0.  0.
        -12    1    1    2    0    0 -0.96648939201E+01 -0.37229668219E+02  0.23444724718E+02  0.45045682226E+02  0.00000000000E+00 0.  1.
         11    1    3    3    0    0  0.11434082374E+01  0.18388112866E+02 -0.14971365330E+02  0.23739668432E+02  0.51100000000E-03 0. -1.
        -11    1    3    3    0    0  0.53460968799E+01  0.12097284099E+02 -0.46079881618E+01  0.14005662768E+02  0.51100000000E-03 0.  1.
         12    1    3    3    0    0  0.31753888027E+01  0.67442712539E+01 -0.38653712260E+01  0.83969865731E+01  0.00000000000E+00 0. -1.
</event>
<event>
 7    1  0.1541705E-008  0.4614232E+02  0.7816164E-02  0.1320468E+00
        -11   -1    0    0    0    0  0.00000000000E+00  0.00000000000E+00  0.45593999997E+02  0.45594000000E+02  0.51100000000E-03 0.  1.
         11   -1    0    0    0    0 -0.00000000000E+00 -0.00000000000E+00 -0.45593999997E+02  0.45594000000E+02  0.51100000000E-03 0. -1.
    9900012    2    1    2    0    0 -0.15887951401E+02  0.30360231601E+02 -0.29239406713E+02  0.46142316882E+02  0.99999919873E+01 0.  0.
        -12    1    1    2    0    0  0.15887951401E+02 -0.30360231601E+02  0.29239406713E+02  0.45045683118E+02  0.00000000000E+00 0.  1.
         11    1    3    3    0    0 -0.11514116068E+02  0.26347700757E+02 -0.27224880874E+02  0.39597605267E+02  0.51100000000E-03 0. -1.
        -11    1    3    3    0    0 -0.28867778661E+01  0.20479726022E+01 -0.20309737050E+01  0.40807514846E+01  0.51100000000E-03 0.  1.
         12    1    3    3    0    0 -0.14870574671E+01  0.19645582419E+01  0.16447865427E-01  0.24639601312E+01  0.00000000000E+00 0. -1.
</event>
<event>
 7    1  0.1541705E-008  0.4614232E+02  0.7816164E-02  0.1320468E+00
        -11   -1    0    0    0    0  0.00000000000E+00  0.00000000000E+00  0.45593999997E+02  0.45594000000E+02  0.51100000000E-03 0.  1.
         11   -1    0    0    0    0 -0.00000000000E+00 -0.00000000000E+00 -0.45593999997E+02  0.45594000000E+02  0.51100000000E-03 0. -1.
    9900012    2    1    2    0    0  0.28203075487E+02 -0.72867054170E+01 -0.34359918082E+02  0.46142317483E+02  0.99999974679E+01 0.  0.
        -12    1    1    2    0    0 -0.28203075487E+02  0.72867054170E+01  0.34359918082E+02  0.45045682517E+02  0.00000000000E+00 0.  1.
         11    1    3    3    0    0  0.15562360573E+02 -0.19197122163E+01 -0.21934760206E+02  0.26963050035E+02  0.51100000000E-03 0. -1.
        -11    1    3    3    0    0  0.94441822689E+01 -0.20869020550E+01 -0.63465605733E+01  0.11568343455E+02  0.51100000000E-03 0.  1.
        -12    1    3    3    0    0  0.31965326450E+01 -0.32800911457E+01 -0.60785973028E+01  0.76109239941E+01  0.00000000000E+00 0.  1.
</event>
<event>
 7    1  0.1541705E-008  0.4614232E+02  0.7816164E-02  0.1320468E+00
        -11   -1    0    0    0    0  0.00000000000E+00  0.00000000000E+00  0.45593999997E+02  0.45594000000E+02  0.51100000000E-03 0.  1.
         11   -1    0    0    0    0 -0.00000000000E+00 -0.00000000000E+00 -0.45593999997E+02  0.45594000000E+02  0.51100000000E-03 0. -1.
    9900012    2    1    2    0    0  0.39880049348E+00  0.95315326128E+01 -0.44023906252E+02  0.46142317882E+02  0.10000001101E+02 0.  0.
        -12    1    1    2    0    0 -0.39880049348E+00 -0.95315326128E+01  0.44023906252E+02  0.45045682118E+02  0.00000000000E+00 0.  1.
         11    1    3    3    0    0  0.19155245506E+01  0.37225136804E+01 -0.80558278276E+01  0.90786950965E+01  0.51100000000E-03 0. -1.
        -11    1    3    3    0    0 -0.23164527524E+01  0.69257796754E+01 -0.26174687095E+02  0.27174374367E+02  0.51100000000E-03 0.  1.
        -12    1    3    3    0    0  0.79972869525E+00 -0.11167607429E+01 -0.97933913300E+01  0.98892484186E+01  0.00000000000E+00 0.  1.
</event>
<event>
 7    1  0.1541705E-008  0.4614232E+02  0.7816164E-02  0.1320468E+00
        -11   -1    0    0    0    0  0.00000000000E+00  0.00000000000E+00  0.45593999997E+02  0.45594000000E+02  0.51100000000E-03 0. -1.
         11   -1    0    0    0    0 -0.00000000000E+00 -0.00000000000E+00 -0.45593999997E+02  0.45594000000E+02  0.51100000000E-03 0.  1.
    9900012    2    1    2    0    0 -0.15543987286E+02 -0.34649526657E+02  0.24226193477E+02  0.46142315538E+02  0.99999797254E+01 0.  0.
        -12    1    1    2    0    0  0.15543987286E+02  0.34649526657E+02 -0.24226193477E+02  0.45045684462E+02  0.00000000000E+00 0.  1.
         11    1    3    3    0    0 -0.61518182355E+01 -0.76526032045E+01  0.83480793528E+01  0.12887887048E+02  0.51100000000E-03 0. -1.
        -11    1    3    3    0    0 -0.30979532536E+01 -0.28686034871E+01  0.15654008328E+01  0.45029635082E+01  0.51100000000E-03 0.  1.
         12    1    3    3    0    0 -0.62942157964E+01 -0.24128319966E+02  0.14312713291E+02  0.28751464982E+02  0.00000000000E+00 0. -1.
</event>
<event>
 7    1  0.1541705E-008  0.4614232E+02  0.7816164E-02  0.1320468E+00
        -11   -1    0    0    0    0  0.00000000000E+00  0.00000000000E+00  0.45593999997E+02  0.45594000000E+02  0.51100000000E-03 0.  1.
         11   -1    0    0    0    0 -0.00000000000E+00 -0.00000000000E+00 -0.45593999997E+02  0.45594000000E+02  0.51100000000E-03 0. -1.
    9900012    2    1    2    0    0 -0.51469263081E+01 -0.41503717855E+02 -0.16735113726E+02  0.46142317880E+02  0.10000001087E+02 0.  0.
        -12    1    1    2    0    0  0.51469263081E+01  0.41503717855E+02  0.16735113726E+02  0.45045682120E+02  0.00000000000E+00 0.  1.
         11    1    3    3    0    0  0.58432495315E+00 -0.16104601433E+02 -0.75749774474E+01  0.17806737673E+02  0.51100000000E-03 0. -1.
        -11    1    3    3    0    0 -0.46626010846E+01 -0.22161745303E+02 -0.54430409202E+01  0.23291833300E+02  0.51100000000E-03 0.  1.
        -12    1    3    3    0    0 -0.10686501766E+01 -0.32373711188E+01 -0.37170953587E+01  0.50437469075E+01  0.00000000000E+00 0.  1.
</event>
<event>
 7    1  0.1541705E-008  0.4614232E+02  0.7816164E-02  0.1320468E+00
        -11   -1    0    0    0    0  0.00000000000E+00  0.00000000000E+00  0.45593999997E+02  0.45594000000E+02  0.51100000000E-03 0.  1.
         11   -1    0    0    0    0 -0.00000000000E+00 -0.00000000000E+00 -0.45593999997E+02  0.45594000000E+02  0.51100000000E-03 0. -1.
    9900012    2    1    2    0    0  0.15153925730E+02 -0.63997431815E+01 -0.41934657533E+02  0.46142315632E+02  0.99999805846E+01 0.  0.
        -12    1    1    2    0    0 -0.15153925730E+02  0.63997431815E+01  0.41934657533E+02  0.45045684368E+02  0.00000000000E+00 0.  1.
         11    1    3    3    0    0  0.29021399411E+01 -0.35819282694E+01 -0.73661093591E+01  0.86897752396E+01  0.51100000000E-03 0. -1.
        -11    1    3    3    0    0  0.12988792546E+02 -0.19736094477E+01 -0.33047844215E+02  0.35563518858E+02  0.51100000000E-03 0.  1.
        -12    1    3    3    0    0 -0.73700675754E+00 -0.84420546436E+00 -0.15207039585E+01  0.18890215341E+01  0.00000000000E+00 0.  1.
</event>
<event>
 7    1  0.1541705E-008  0.4614232E+02  0.7816164E-02  0.1320468E+00
        -11   -1    0    0    0    0  0.00000000000E+00  0.00000000000E+00  0.45593999997E+02  0.45594000000E+02  0.51100000000E-03 0. -1.
         11   -1    0    0    0    0 -0.00000000000E+00 -0.00000000000E+00 -0.45593999997E+02  0.45594000000E+02  0.51100000000E-03 0.  1.
    9900012    2    1    2    0    0 -0.43782989677E+02 -0.10154049770E+02 -0.30097801928E+01  0.46142315538E+02  0.99999797282E+01 0.  0.
        -12    1    1    2    0    0  0.43782989677E+02  0.10154049770E+02  0.30097801928E+01  0.45045684462E+02  0.00000000000E+00 0.  1.
         11    1    3    3    0    0 -0.50941498246E+01 -0.16961792207E+01 -0.38028715593E+00  0.53825649059E+01  0.51100000000E-03 0. -1.
        -11    1    3    3    0    0 -0.58638076187E+00 -0.12591719546E+01 -0.13875774730E+01  0.19633461014E+01  0.51100000000E-03 0.  1.
        -12    1    3    3    0    0 -0.38102459091E+02 -0.71986985951E+01 -0.12419155639E+01  0.38796404531E+02  0.00000000000E+00 0.  1.
</event>
<event>
 7    1  0.1541705E-008  0.4614232E+02  0.7816164E-02  0.1320468E+00
        -11   -1    0    0    0    0  0.00000000000E+00  0.00000000000E+00  0.45593999997E+02  0.45594000000E+02  0.51100000000E-03 0.  1.
         11   -1    0    0    0    0 -0.00000000000E+00 -0.00000000000E+00 -0.45593999997E+02  0.45594000000E+02  0.51100000000E-03 0. -1.
    9900012    2    1    2    0    0 -0.31003846101E+02  0.16647662942E+02 -0.28119928184E+02  0.46142317459E+02  0.99999972486E+01 0.  0.
        -12    1    1    2    0    0  0.31003846101E+02 -0.16647662942E+02  0.28119928184E+02  0.45045682541E+02  0.00000000000E+00 0.  1.
         11    1    3    3    0    0 -0.74792186450E+01  0.38821377995E+01 -0.57254752177E+01  0.10187775624E+02  0.51100000000E-03 0. -1.
        -11    1    3    3    0    0 -0.98597341205E+01  0.11287300234E+01 -0.10351757709E+02  0.14340407118E+02  0.51100000000E-03 0.  1.
        -12    1    3    3    0    0 -0.13664893336E+02  0.11636795119E+02 -0.12042695257E+02  0.21614134717E+02  0.00000000000E+00 0.  1.
</event>
<event>
 7    1  0.1541705E-008  0.4614231E+02  0.7816164E-02  0.1320468E+00
        -11   -1    0    0    0    0  0.00000000000E+00  0.00000000000E+00  0.45593999997E+02  0.45594000000E+02  0.51100000000E-03 0.  1.
         11   -1    0    0    0    0 -0.00000000000E+00 -0.00000000000E+00 -0.45593999997E+02  0.45594000000E+02  0.51100000000E-03 0. -1.
    9900012    2    1    2    0    0  0.31046540004E+02  0.77271184965E+00 -0.32628660294E+02  0.46142309835E+02  0.99999277219E+01 0.  0.
        -12    1    1    2    0    0 -0.31046540004E+02 -0.77271184965E+00  0.32628660294E+02  0.45045690165E+02  0.00000000000E+00 0.  1.
         11    1    3    3    0    0  0.38324000588E+01 -0.12431477833E+01 -0.27377165172E+01  0.48711188255E+01  0.51100000000E-03 0. -1.
        -11    1    3    3    0    0  0.15774634644E+02  0.33851769083E+01 -0.12497068193E+02  0.20407724874E+02  0.51100000000E-03 0.  1.
         12    1    3    3    0    0  0.11439505302E+02 -0.13693172753E+01 -0.17393875584E+02  0.20863466135E+02  0.00000000000E+00 0. -1.
</event>
<event>
 7    1  0.1541705E-008  0.4614232E+02  0.7816164E-02  0.1320468E+00
        -11   -1    0    0    0    0  0.00000000000E+00  0.00000000000E+00  0.45593999997E+02  0.45594000000E+02  0.51100000000E-03 0.  1.
         11   -1    0    0    0    0 -0.00000000000E+00 -0.00000000000E+00 -0.45593999997E+02  0.45594000000E+02  0.51100000000E-03 0. -1.
    9900012    2    1    2    0    0 -0.23505727476E+02  0.34265372433E+02 -0.17391906992E+02  0.46142318731E+02  0.10000008846E+02 0.  0.
        -12    1    1    2    0    0  0.23505727476E+02 -0.34265372433E+02  0.17391906992E+02  0.45045681269E+02  0.00000000000E+00 0.  1.
         11    1    3    3    0    0 -0.10651137481E+02  0.19826674895E+02 -0.10864971836E+02  0.24991826270E+02  0.51100000000E-03 0. -1.
        -11    1    3    3    0    0 -0.46918999545E+00  0.29987617043E+01 -0.21854863452E+01  0.37401954277E+01  0.51100000000E-03 0.  1.
         12    1    3    3    0    0 -0.12385400000E+02  0.11439935834E+02 -0.43414488103E+01  0.17410297034E+02  0.00000000000E+00 0. -1.
</event>
<event>
 7    1  0.1541705E-008  0.4614232E+02  0.7816164E-02  0.1320468E+00
        -11   -1    0    0    0    0  0.00000000000E+00  0.00000000000E+00  0.45593999997E+02  0.45594000000E+02  0.51100000000E-03 0. -1.
         11   -1    0    0    0    0 -0.00000000000E+00 -0.00000000000E+00 -0.45593999997E+02  0.45594000000E+02  0.51100000000E-03 0.  1.
    9900012    2    1    2    0    0  0.44958058426E+02  0.26926358547E+01  0.79761128909E+00  0.46142317754E+02  0.99999999330E+01 0.  0.
        -12    1    1    2    0    0 -0.44958058426E+02 -0.26926358547E+01 -0.79761128909E+00  0.45045682246E+02  0.00000000000E+00 0.  1.
         11    1    3    3    0    0  0.27006762445E+02  0.88934399737E+00  0.22705136287E+01  0.27116625581E+02  0.51100000000E-03 0. -1.
        -11    1    3    3    0    0  0.69799954105E+01  0.70787898847E+00 -0.34593813903E+01  0.78223237250E+01  0.51100000000E-03 0.  1.
        -12    1    3    3    0    0  0.10971300571E+02  0.10954128688E+01  0.19864790508E+01  0.11203368448E+02  0.00000000000E+00 0.  1.
</event>
<event>
 7    1  0.1541705E-008  0.4614232E+02  0.7816164E-02  0.1320468E+00
        -11   -1    0    0    0    0  0.00000000000E+00  0.00000000000E+00  0.45593999997E+02  0.45594000000E+02  0.51100000000E-03 0.  1.
         11   -1    0    0    0    0 -0.00000000000E+00 -0.00000000000E+00 -0.45593999997E+02  0.45594000000E+02  0.51100000000E-03 0. -1.
    9900012    2    1    2    0    0  0.25805257950E+02  0.75220121923E+01 -0.36147218350E+02  0.46142318745E+02  0.10000008970E+02 0.  0.
        -12    1    1    2    0    0 -0.25805257950E+02 -0.75220121923E+01  0.36147218350E+02  0.45045681255E+02  0.00000000000E+00 0.  1.
         11    1    3    3    0    0  0.14500613164E+01 -0.13886129463E+00 -0.72116472615E+01  0.73572968383E+01  0.51100000000E-03 0. -1.
        -11    1    3    3    0    0  0.11886956842E+02  0.21258708370E+01 -0.11814509578E+02  0.16893836350E+02  0.51100000000E-03 0.  1.
         12    1    3    3    0    0  0.12468239792E+02  0.55350026500E+01 -0.17121061510E+02  0.21891185557E+02  0.00000000000E+00 0. -1.
</event>
<event>
 7    1  0.1541705E-008  0.4614232E+02  0.7816164E-02  0.1320468E+00
        -11   -1    0    0    0    0  0.00000000000E+00  0.00000000000E+00  0.45593999997E+02  0.45594000000E+02  0.51100000000E-03 0.  1.
         11   -1    0    0    0    0 -0.00000000000E+00 -0.00000000000E+00 -0.45593999997E+02  0.45594000000E+02  0.51100000000E-03 0. -1.
    9900012    2    1    2    0    0 -0.21091423595E+02  0.87684869844E+01 -0.38824974016E+02  0.46142321844E+02  0.10000037228E+02 0.  0.
        -12    1    1    2    0    0  0.21091423595E+02 -0.87684869844E+01  0.38824974016E+02  0.45045678156E+02  0.00000000000E+00 0.  1.
         11    1    3    3    0    0 -0.13722022596E+02  0.67320658361E+01 -0.25902589162E+02  0.30075883031E+02  0.51100000000E-03 0. -1.
        -11    1    3    3    0    0 -0.14134232058E+00 -0.85338708254E+00 -0.45614052080E+01  0.46427001730E+01  0.51100000000E-03 0.  1.
         12    1    3    3    0    0 -0.72280586788E+01  0.28898082308E+01 -0.83609796454E+01  0.11423738640E+02  0.00000000000E+00 0. -1.
</event>
<event>
 7    1  0.1541705E-008  0.4614232E+02  0.7816164E-02  0.1320468E+00
        -11   -1    0    0    0    0  0.00000000000E+00  0.00000000000E+00  0.45593999997E+02  0.45594000000E+02  0.51100000000E-03 0.  1.
         11   -1    0    0    0    0 -0.00000000000E+00 -0.00000000000E+00 -0.45593999997E+02  0.45594000000E+02  0.51100000000E-03 0. -1.
    9900012    2    1    2    0    0 -0.25233438853E+02  0.19558558589E+02 -0.31778134901E+02  0.46142317541E+02  0.99999979903E+01 0.  0.
        -12    1    1    2    0    0  0.25233438853E+02 -0.19558558589E+02  0.31778134901E+02  0.45045682459E+02  0.00000000000E+00 0.  1.
         11    1    3    3    0    0 -0.78135383657E+01  0.38925501011E+01 -0.49597359274E+01  0.10040035299E+02  0.51100000000E-03 0.  1.
        -11    1    3    3    0    0 -0.11976668513E+02  0.13118724163E+02 -0.16980282236E+02  0.24573796968E+02  0.51100000000E-03 0. -1.
        -12    1    3    3    0    0 -0.54432319742E+01  0.25472843248E+01 -0.98381167376E+01  0.11528485273E+02  0.00000000000E+00 0.  1.
</event>
<event>
 7    1  0.1541705E-008  0.4614231E+02  0.7816164E-02  0.1320468E+00
        -11   -1    0    0    0    0  0.00000000000E+00  0.00000000000E+00  0.45593999997E+02  0.45594000000E+02  0.51100000000E-03 0.  1.
         11   -1    0    0    0    0 -0.00000000000E+00 -0.00000000000E+00 -0.45593999997E+02  0.45594000000E+02  0.51100000000E-03 0. -1.
    9900012    2    1    2    0    0 -0.31835749015E+02 -0.20548811847E+02 -0.24358677999E+02  0.46142314551E+02  0.99999707276E+01 0.  0.
        -12    1    1    2    0    0  0.31835749015E+02  0.20548811847E+02  0.24358677999E+02  0.45045685449E+02  0.00000000000E+00 0.  1.
         11    1    3    3    0    0 -0.13287727336E+02 -0.66915199404E+01 -0.45805722313E+01  0.15566688122E+02  0.51100000000E-03 0.  1.
        -11    1    3    3    0    0 -0.97913515681E+01 -0.77772919641E+01 -0.89255846206E+01  0.15363036708E+02  0.51100000000E-03 0. -1.
        -12    1    3    3    0    0 -0.87566701108E+01 -0.60799999428E+01 -0.10852521147E+02  0.15212589720E+02  0.00000000000E+00 0.  1.
</event>
<event>
 7    1  0.1541705E-008  0.4614232E+02  0.7816164E-02  0.1320468E+00
        -11   -1    0    0    0    0  0.00000000000E+00  0.00000000000E+00  0.45593999997E+02  0.45594000000E+02  0.51100000000E-03 0.  1.
         11   -1    0    0    0    0 -0.00000000000E+00 -0.00000000000E+00 -0.45593999997E+02  0.45594000000E+02  0.51100000000E-03 0. -1.
    9900012    2    1    2    0    0  0.17641806505E+02 -0.39247204647E+02 -0.13324305136E+02  0.46142317447E+02  0.99999971351E+01 0.  0.
        -12    1    1    2    0    0 -0.17641806505E+02  0.39247204647E+02  0.13324305136E+02  0.45045682553E+02  0.00000000000E+00 0.  1.
         11    1    3    3    0    0  0.11679013111E+02 -0.19013652199E+02 -0.10296499792E+02  0.24575113945E+02  0.51100000000E-03 0. -1.
        -11    1    3    3    0    0  0.18521692960E+01 -0.11793830013E+02 -0.11495968393E+01  0.11993603738E+02  0.51100000000E-03 0.  1.
         12    1    3    3    0    0  0.41106240978E+01 -0.84397224348E+01 -0.18782085044E+01  0.95735997637E+01  0.00000000000E+00 0. -1.
</event>
<event>
 7    1  0.1541705E-008  0.4614232E+02  0.7816164E-02  0.1320468E+00
        -11   -1    0    0    0    0  0.00000000000E+00  0.00000000000E+00  0.45593999997E+02  0.45594000000E+02  0.51100000000E-03 0.  1.
         11   -1    0    0    0    0 -0.00000000000E+00 -0.00000000000E+00 -0.45593999997E+02  0.45594000000E+02  0.51100000000E-03 0. -1.
    9900012    2    1    2    0    0  0.16222505110E+02 -0.17764630749E+02 -0.38083615297E+02  0.46142317279E+02  0.99999956070E+01 0.  0.
        -12    1    1    2    0    0 -0.16222505110E+02  0.17764630749E+02  0.38083615297E+02  0.45045682721E+02  0.00000000000E+00 0.  1.
         11    1    3    3    0    0  0.48186293224E+01 -0.60931572204E+01 -0.67783044653E+01  0.10309760674E+02  0.51100000000E-03 0.  1.
        -11    1    3    3    0    0  0.77243489257E+01 -0.36378978884E+01 -0.13902657259E+02  0.16315138568E+02  0.51100000000E-03 0. -1.
        -12    1    3    3    0    0  0.36795268616E+01 -0.80335756402E+01 -0.17402653573E+02  0.19517418038E+02  0.00000000000E+00 0.  1.
</event>
<event>
 7    1  0.1541705E-008  0.4614232E+02  0.7816164E-02  0.1320468E+00
        -11   -1    0    0    0    0  0.00000000000E+00  0.00000000000E+00  0.45593999997E+02  0.45594000000E+02  0.51100000000E-03 0.  1.
         11   -1    0    0    0    0 -0.00000000000E+00 -0.00000000000E+00 -0.45593999997E+02  0.45594000000E+02  0.51100000000E-03 0. -1.
    9900012    2    1    2    0    0  0.30195512057E+02  0.26195128487E+02  0.20764386600E+02  0.46142318123E+02  0.10000003302E+02 0.  0.
        -12    1    1    2    0    0 -0.30195512057E+02 -0.26195128487E+02 -0.20764386600E+02  0.45045681877E+02  0.00000000000E+00 0.  1.
         11    1    3    3    0    0  0.68997181379E+01  0.96744335856E+01  0.34468611170E+01  0.12372616029E+02  0.51100000000E-03 0. -1.
        -11    1    3    3    0    0  0.10476988884E+01  0.21041626314E+01  0.23584918566E+01  0.33298134240E+01  0.51100000000E-03 0.  1.
         12    1    3    3    0    0  0.22248095031E+02  0.14416532270E+02  0.14959033626E+02  0.30439888670E+02  0.00000000000E+00 0. -1.
</event>
<event>
 7    1  0.1541705E-008  0.4614232E+02  0.7816164E-02  0.1320468E+00
        -11   -1    0    0    0    0  0.00000000000E+00  0.00000000000E+00  0.45593999997E+02  0.45594000000E+02  0.51100000000E-03 0.  1.
         11   -1    0    0    0    0 -0.00000000000E+00 -0.00000000000E+00 -0.45593999997E+02  0.45594000000E+02  0.51100000000E-03 0. -1.
    9900012    2    1    2    0    0 -0.29275242007E+02 -0.15191920269E+02 -0.30680275259E+02  0.46142317343E+02  0.99999961902E+01 0.  0.
        -12    1    1    2    0    0  0.29275242007E+02  0.15191920269E+02  0.30680275259E+02  0.45045682657E+02  0.00000000000E+00 0.  1.
         11    1    3    3    0    0 -0.16491088402E+02 -0.77637535998E+01 -0.19752779938E+02  0.26877577684E+02  0.51100000000E-03 0. -1.
        -11    1    3    3    0    0 -0.94776752166E+01 -0.22886286087E+01 -0.69355629609E+01  0.11965207155E+02  0.51100000000E-03 0.  1.
        -12    1    3    3    0    0 -0.33064783893E+01 -0.51395380602E+01 -0.39919323603E+01  0.72995325042E+01  0.00000000000E+00 0.  1.
</event>
<event>
 7    1  0.1541705E-008  0.4614232E+02  0.7816164E-02  0.1320468E+00
        -11   -1    0    0    0    0  0.00000000000E+00  0.00000000000E+00  0.45593999997E+02  0.45594000000E+02  0.51100000000E-03 0. -1.
         11   -1    0    0    0    0 -0.00000000000E+00 -0.00000000000E+00 -0.45593999997E+02  0.45594000000E+02  0.51100000000E-03 0.  1.
    9900012    2    1    2    0    0  0.44905305840E+02 -0.34828753045E+01 -0.70478163316E+00  0.46142316188E+02  0.99999856552E+01 0.  0.
        -12    1    1    2    0    0 -0.44905305840E+02  0.34828753045E+01  0.70478163316E+00  0.45045683812E+02  0.00000000000E+00 0.  1.
         11    1    3    3    0    0  0.40156196192E+02 -0.21586053613E+01 -0.23201876377E+01  0.40281049399E+02  0.51100000000E-03 0. -1.
        -11    1    3    3    0    0  0.30168476581E+01  0.20605479055E+00  0.18388242074E+01  0.35390822392E+01  0.51100000000E-03 0.  1.
         12    1    3    3    0    0  0.17322619890E+01 -0.15303247338E+01 -0.22341820288E+00  0.23221845497E+01  0.00000000000E+00 0. -1.
</event>
<event>
 7    1  0.1541705E-008  0.4614232E+02  0.7816164E-02  0.1320468E+00
        -11   -1    0    0    0    0  0.00000000000E+00  0.00000000000E+00  0.45593999997E+02  0.45594000000E+02  0.51100000000E-03 0.  1.
         11   -1    0    0    0    0 -0.00000000000E+00 -0.00000000000E+00 -0.45593999997E+02  0.45594000000E+02  0.51100000000E-03 0. -1.
    9900012    2    1    2    0    0 -0.13707086707E+02  0.15238268820E+02 -0.40112646350E+02  0.46142318078E+02  0.10000002886E+02 0.  0.
        -12    1    1    2    0    0  0.13707086707E+02 -0.15238268820E+02  0.40112646350E+02  0.45045681922E+02  0.00000000000E+00 0.  1.
         11    1    3    3    0    0 -0.96694659161E+01  0.84415947020E+01 -0.27384534363E+02  0.30243541703E+02  0.51100000000E-03 0. -1.
        -11    1    3    3    0    0 -0.21703797065E+01  0.68450258228E+01 -0.76702308732E+01  0.10507015204E+02  0.51100000000E-03 0.  1.
        -12    1    3    3    0    0 -0.18672410846E+01 -0.48351704666E-01 -0.50578811144E+01  0.53917611708E+01  0.00000000000E+00 0.  1.
</event>
<event>
 7    1  0.1541705E-008  0.4614232E+02  0.7816164E-02  0.1320468E+00
        -11   -1    0    0    0    0  0.00000000000E+00  0.00000000000E+00  0.45593999997E+02  0.45594000000E+02  0.51100000000E-03 0.  1.
         11   -1    0    0    0    0 -0.00000000000E+00 -0.00000000000E+00 -0.45593999997E+02  0.45594000000E+02  0.51100000000E-03 0. -1.
    9900012    2    1    2    0    0  0.27765648724E+02  0.16483082543E+02 -0.31408441975E+02  0.46142317782E+02  0.10000000193E+02 0.  0.
        -12    1    1    2    0    0 -0.27765648724E+02 -0.16483082543E+02  0.31408441975E+02  0.45045682218E+02  0.00000000000E+00 0.  1.
         11    1    3    3    0    0  0.51534844001E+01  0.45418576206E+01 -0.66604598838E+01  0.95681031680E+01  0.51100000000E-03 0. -1.
        -11    1    3    3    0    0  0.20441541995E+02  0.10901389285E+02 -0.25082510094E+02  0.34144241687E+02  0.51100000000E-03 0.  1.
        -12    1    3    3    0    0  0.21706223286E+01  0.10398356366E+01  0.33452800260E+00  0.24299729276E+01  0.00000000000E+00 0.  1.
</event>
<event>
 7    1  0.1541705E-008  0.4614232E+02  0.7816164E-02  0.1320468E+00
        -11   -1    0    0    0    0  0.00000000000E+00  0.00000000000E+00  0.45593999997E+02  0.45594000000E+02  0.51100000000E-03 0.  1.
         11   -1    0    0    0    0 -0.00000000000E+00 -0.00000000000E+00 -0.45593999997E+02  0.45594000000E+02  0.51100000000E-03 0. -1.
    9900012    2    1    2    0    0  0.18283104616E+02  0.12335624854E+02 -0.39276889247E+02  0.46142316701E+02  0.99999903356E+01 0.  0.
        -12    1    1    2    0    0 -0.18283104616E+02 -0.12335624854E+02  0.39276889247E+02  0.45045683299E+02  0.00000000000E+00 0.  1.
         11    1    3    3    0    0  0.16063048891E+01 -0.93899163401E+00 -0.21539955396E+01  0.28463340864E+01  0.51100000000E-03 0. -1.
        -11    1    3    3    0    0  0.22982466925E+01 -0.49248982124E+00 -0.45656228914E+01  0.51351140914E+01  0.51100000000E-03 0.  1.
         12    1    3    3    0    0  0.14378553035E+02  0.13767106309E+02 -0.32557270816E+02  0.38160868524E+02  0.00000000000E+00 0. -1.
</event>
<event>
 7    1  0.1541705E-008  0.4614232E+02  0.7816164E-02  0.1320468E+00
        -11   -1    0    0    0    0  0.00000000000E+00  0.00000000000E+00  0.45593999997E+02  0.45594000000E+02  0.51100000000E-03 0.  1.
         11   -1    0    0    0    0 -0.00000000000E+00 -0.00000000000E+00 -0.45593999997E+02  0.45594000000E+02  0.51100000000E-03 0. -1.
    9900012    2    1    2    0    0  0.18134359429E+02  0.11316444222E+02 -0.39650935630E+02  0.46142316543E+02  0.99999888963E+01 0.  0.
        -12    1    1    2    0    0 -0.18134359429E+02 -0.11316444222E+02  0.39650935630E+02  0.45045683457E+02  0.00000000000E+00 0.  1.
         11    1    3    3    0    0  0.16606096180E+01  0.20913950915E+01 -0.13590454456E+02  0.13850343328E+02  0.51100000000E-03 0. -1.
        -11    1    3    3    0    0  0.14014265329E+02  0.77952659979E+01 -0.20324094738E+02  0.25888890124E+02  0.51100000000E-03 0.  1.
         12    1    3    3    0    0  0.24594844819E+01  0.14297831325E+01 -0.57363864364E+01  0.64030830910E+01  0.00000000000E+00 0. -1.
</event>
<event>
 7    1  0.1541705E-008  0.4614232E+02  0.7816164E-02  0.1320468E+00
        -11   -1    0    0    0    0  0.00000000000E+00  0.00000000000E+00  0.45593999997E+02  0.45594000000E+02  0.51100000000E-03 0.  1.
         11   -1    0    0    0    0 -0.00000000000E+00 -0.00000000000E+00 -0.45593999997E+02  0.45594000000E+02  0.51100000000E-03 0. -1.
    9900012    2    1    2    0    0  0.20592952456E+02 -0.25255930155E+02 -0.31099544210E+02  0.46142319309E+02  0.10000014119E+02 0.  0.
        -12    1    1    2    0    0 -0.20592952456E+02  0.25255930155E+02  0.31099544210E+02  0.45045680691E+02  0.00000000000E+00 0.  1.
         11    1    3    3    0    0  0.24685897119E+01 -0.81010730246E+00 -0.47339819413E+01  0.54000735447E+01  0.51100000000E-03 0.  1.
        -11    1    3    3    0    0  0.16416713690E+02 -0.21623852641E+02 -0.25685635513E+02  0.37374474757E+02  0.51100000000E-03 0. -1.
        -12    1    3    3    0    0  0.17076490536E+01 -0.28219702115E+01 -0.67992675539E+00  0.33677710073E+01  0.00000000000E+00 0.  1.
</event>
<event>
 7    1  0.1541705E-008  0.4614232E+02  0.7816164E-02  0.1320468E+00
        -11   -1    0    0    0    0  0.00000000000E+00  0.00000000000E+00  0.45593999997E+02  0.45594000000E+02  0.51100000000E-03 0.  1.
         11   -1    0    0    0    0 -0.00000000000E+00 -0.00000000000E+00 -0.45593999997E+02  0.45594000000E+02  0.51100000000E-03 0. -1.
    9900012    2    1    2    0    0 -0.46428888668E+01 -0.36862400190E+02 -0.25469989497E+02  0.46142319521E+02  0.10000016051E+02 0.  0.
        -12    1    1    2    0    0  0.46428888668E+01  0.36862400190E+02  0.25469989497E+02  0.45045680479E+02  0.00000000000E+00 0.  1.
         11    1    3    3    0    0 -0.33197330176E+01 -0.29856397689E+02 -0.18091798735E+02  0.35067624556E+02  0.51100000000E-03 0. -1.
        -11    1    3    3    0    0  0.74970135313E+00 -0.58255080520E+01 -0.52578991130E+01  0.78831528925E+01  0.51100000000E-03 0.  1.
         12    1    3    3    0    0 -0.20728572024E+01 -0.11804944491E+01 -0.21202916492E+01  0.31915420730E+01  0.00000000000E+00 0. -1.
</event>
<event>
 7    1  0.1541705E-008  0.4614232E+02  0.7816164E-02  0.1320468E+00
        -11   -1    0    0    0    0  0.00000000000E+00  0.00000000000E+00  0.45593999997E+02  0.45594000000E+02  0.51100000000E-03 0.  1.
         11   -1    0    0    0    0 -0.00000000000E+00 -0.00000000000E+00 -0.45593999997E+02  0.45594000000E+02  0.51100000000E-03 0. -1.
    9900012    2    1    2    0    0  0.15006478562E+02 -0.24518161847E+02 -0.34681102503E+02  0.46142317299E+02  0.99999957900E+01 0.  0.
        -12    1    1    2    0    0 -0.15006478562E+02  0.24518161847E+02  0.34681102503E+02  0.45045682701E+02  0.00000000000E+00 0.  1.
         11    1    3    3    0    0  0.86366458800E+00 -0.86637212946E+00 -0.31907823351E+01  0.34172517260E+01  0.51100000000E-03 0. -1.
        -11    1    3    3    0    0  0.37830493782E+01 -0.37199019488E+01 -0.20370445841E+01  0.56831931170E+01  0.51100000000E-03 0.  1.
        -12    1    3    3    0    0  0.10359764596E+02 -0.19931887768E+02 -0.29453275583E+02  0.37041872456E+02  0.00000000000E+00 0.  1.
</event>
<event>
 7    1  0.1541705E-008  0.4614232E+02  0.7816164E-02  0.1320468E+00
        -11   -1    0    0    0    0  0.00000000000E+00  0.00000000000E+00  0.45593999997E+02  0.45594000000E+02  0.51100000000E-03 0. -1.
         11   -1    0    0    0    0 -0.00000000000E+00 -0.00000000000E+00 -0.45593999997E+02  0.45594000000E+02  0.51100000000E-03 0.  1.
    9900012    2    1    2    0    0  0.17022724631E+02 -0.26585129354E+02  0.32133647034E+02  0.46142317318E+02  0.99999959574E+01 0.  0.
        -12    1    1    2    0    0 -0.17022724631E+02  0.26585129354E+02 -0.32133647034E+02  0.45045682682E+02  0.00000000000E+00 0.  1.
         11    1    3    3    0    0  0.55789091065E+01 -0.13409195719E+02  0.15134776507E+02  0.20975991438E+02  0.51100000000E-03 0. -1.
        -11    1    3    3    0    0  0.10012519736E+02 -0.74233981948E+01  0.13035144752E+02  0.18035309567E+02  0.51100000000E-03 0.  1.
        -12    1    3    3    0    0  0.14312957882E+01 -0.57525354406E+01  0.39637257752E+01  0.71310163125E+01  0.00000000000E+00 0.  1.
</event>
<event>
 7    1  0.1541705E-008  0.4614232E+02  0.7816164E-02  0.1320468E+00
        -11   -1    0    0    0    0  0.00000000000E+00  0.00000000000E+00  0.45593999997E+02  0.45594000000E+02  0.51100000000E-03 0.  1.
         11   -1    0    0    0    0 -0.00000000000E+00 -0.00000000000E+00 -0.45593999997E+02  0.45594000000E+02  0.51100000000E-03 0. -1.
    9900012    2    1    2    0    0 -0.27226414291E+02 -0.34869383639E+02  0.84830362612E+01  0.46142318134E+02  0.10000003404E+02 0.  0.
        -12    1    1    2    0    0  0.27226414291E+02  0.34869383639E+02 -0.84830362612E+01  0.45045681866E+02  0.00000000000E+00 0.  1.
         11    1    3    3    0    0 -0.82641181273E+01 -0.85495853335E+01 -0.12427948163E+01  0.11955567616E+02  0.51100000000E-03 0. -1.
        -11    1    3    3    0    0 -0.18728935171E+02 -0.25925111651E+02  0.10157706482E+02  0.33556868567E+02  0.51100000000E-03 0.  1.
        -12    1    3    3    0    0 -0.23336099240E+00 -0.39468665500E+00 -0.43187540459E+00  0.62988195203E+00  0.00000000000E+00 0.  1.
</event>
<event>
 7    1  0.1541705E-008  0.4614232E+02  0.7816164E-02  0.1320468E+00
        -11   -1    0    0    0    0  0.00000000000E+00  0.00000000000E+00  0.45593999997E+02  0.45594000000E+02  0.51100000000E-03 0.  1.
         11   -1    0    0    0    0 -0.00000000000E+00 -0.00000000000E+00 -0.45593999997E+02  0.45594000000E+02  0.51100000000E-03 0. -1.
    9900012    2    1    2    0    0 -0.27543679328E+02 -0.29401744560E+01 -0.35522028352E+02  0.46142318797E+02  0.10000009450E+02 0.  0.
        -12    1    1    2    0    0  0.27543679328E+02  0.29401744560E+01  0.35522028352E+02  0.45045681203E+02  0.00000000000E+00 0.  1.
         11    1    3    3    0    0 -0.17827121653E+02 -0.27200527552E+01 -0.29058430917E+02  0.34199376618E+02  0.51100000000E-03 0. -1.
        -11    1    3    3    0    0 -0.71009635197E+01  0.94813113329E+00 -0.48990627997E+01  0.86789084643E+01  0.51100000000E-03 0.  1.
         12    1    3    3    0    0 -0.26155941555E+01 -0.11682528341E+01 -0.15645346353E+01  0.32640337155E+01  0.00000000000E+00 0. -1.
</event>
<event>
 7    1  0.1541705E-008  0.4614232E+02  0.7816164E-02  0.1320468E+00
        -11   -1    0    0    0    0  0.00000000000E+00  0.00000000000E+00  0.45593999997E+02  0.45594000000E+02  0.51100000000E-03 0.  1.
         11   -1    0    0    0    0 -0.00000000000E+00 -0.00000000000E+00 -0.45593999997E+02  0.45594000000E+02  0.51100000000E-03 0. -1.
    9900012    2    1    2    0    0 -0.14472614006E+02 -0.18175835905E+01 -0.42618697256E+02  0.46142317387E+02  0.99999965908E+01 0.  0.
        -12    1    1    2    0    0  0.14472614006E+02  0.18175835905E+01  0.42618697256E+02  0.45045682613E+02  0.00000000000E+00 0.  1.
         11    1    3    3    0    0 -0.12090273193E+01 -0.23577864352E+00 -0.12364566117E+02  0.12425772980E+02  0.51100000000E-03 0. -1.
        -11    1    3    3    0    0 -0.74961399110E+01  0.22577822649E+01 -0.18212728494E+02  0.19824055433E+02  0.51100000000E-03 0.  1.
        -12    1    3    3    0    0 -0.57674467758E+01 -0.38395872118E+01 -0.12041402644E+02  0.13892488974E+02  0.00000000000E+00 0.  1.
</event>
<event>
 7    1  0.1541705E-008  0.4614232E+02  0.7816164E-02  0.1320468E+00
        -11   -1    0    0    0    0  0.00000000000E+00  0.00000000000E+00  0.45593999997E+02  0.45594000000E+02  0.51100000000E-03 0.  1.
         11   -1    0    0    0    0 -0.00000000000E+00 -0.00000000000E+00 -0.45593999997E+02  0.45594000000E+02  0.51100000000E-03 0. -1.
    9900012    2    1    2    0    0  0.12705223051E+02 -0.36009640027E+02  0.23895534339E+02  0.46142318420E+02  0.10000006007E+02 0.  0.
        -12    1    1    2    0    0 -0.12705223051E+02  0.36009640027E+02 -0.23895534339E+02  0.45045681580E+02  0.00000000000E+00 0.  1.
         11    1    3    3    0    0  0.60158534748E+01 -0.14855733547E+02  0.11965235583E+02  0.20001254338E+02  0.51100000000E-03 0.  1.
        -11    1    3    3    0    0  0.46298416800E+01 -0.13212519800E+02  0.36140981623E+01  0.14459177682E+02  0.51100000000E-03 0. -1.
         12    1    3    3    0    0  0.20595278964E+01 -0.79413866795E+01  0.83162005938E+01  0.11681886400E+02  0.00000000000E+00 0. -1.
</event>
<event>
 7    1  0.1541705E-008  0.4614232E+02  0.7816164E-02  0.1320468E+00
        -11   -1    0    0    0    0  0.00000000000E+00  0.00000000000E+00  0.45593999997E+02  0.45594000000E+02  0.51100000000E-03 0. -1.
         11   -1    0    0    0    0 -0.00000000000E+00 -0.00000000000E+00 -0.45593999997E+02  0.45594000000E+02  0.51100000000E-03 0.  1.
    9900012    2    1    2    0    0 -0.24930646669E+02 -0.26107954103E+02  0.26943480333E+02  0.46142317152E+02  0.99999944471E+01 0.  0.
        -12    1    1    2    0    0  0.24930646669E+02  0.26107954103E+02 -0.26943480333E+02  0.45045682848E+02  0.00000000000E+00 0.  1.
         11    1    3    3    0    0 -0.12198190906E+02 -0.16876854175E+02  0.19296291199E+02  0.28389627023E+02  0.51100000000E-03 0. -1.
        -11    1    3    3    0    0 -0.11429718055E+02 -0.70218333051E+01  0.68792400234E+01  0.15075428397E+02  0.51100000000E-03 0.  1.
         12    1    3    3    0    0 -0.13027377081E+01 -0.22092666229E+01  0.76794911077E+00  0.26772617324E+01  0.00000000000E+00 0. -1.
</event>
<event>
 7    1  0.1541705E-008  0.4614232E+02  0.7816164E-02  0.1320468E+00
        -11   -1    0    0    0    0  0.00000000000E+00  0.00000000000E+00  0.45593999997E+02  0.45594000000E+02  0.51100000000E-03 0. -1.
         11   -1    0    0    0    0 -0.00000000000E+00 -0.00000000000E+00 -0.45593999997E+02  0.45594000000E+02  0.51100000000E-03 0.  1.
    9900012    2    1    2    0    0  0.33263852540E+00  0.37797977348E+02  0.24501342664E+02  0.46142317273E+02  0.99999955521E+01 0.  0.
        -12    1    1    2    0    0 -0.33263852540E+00 -0.37797977348E+02 -0.24501342664E+02  0.45045682727E+02  0.00000000000E+00 0.  1.
         11    1    3    3    0    0 -0.43772690094E+00  0.35340910695E+00  0.17126605282E+01  0.18026949778E+01  0.51100000000E-03 0.  1.
        -11    1    3    3    0    0 -0.16377586082E+01  0.12384158849E+02  0.47332945932E+01  0.13358657178E+02  0.51100000000E-03 0. -1.
         12    1    3    3    0    0  0.24081240346E+01  0.25060409392E+02  0.18055387542E+02  0.30980965117E+02  0.00000000000E+00 0. -1.
</event>
<event>
 7    1  0.1541705E-008  0.4614232E+02  0.7816164E-02  0.1320468E+00
        -11   -1    0    0    0    0  0.00000000000E+00  0.00000000000E+00  0.45593999997E+02  0.45594000000E+02  0.51100000000E-03 0. -1.
         11   -1    0    0    0    0 -0.00000000000E+00 -0.00000000000E+00 -0.45593999997E+02  0.45594000000E+02  0.51100000000E-03 0.  1.
    9900012    2    1    2    0    0  0.84261690291E+01  0.21776487868E+02  0.38521392839E+02  0.46142318136E+02  0.10000003419E+02 0.  0.
        -12    1    1    2    0    0 -0.84261690291E+01 -0.21776487868E+02 -0.38521392839E+02  0.45045681864E+02  0.00000000000E+00 0.  1.
         11    1    3    3    0    0  0.52659764370E+01  0.11631684507E+02  0.28543915504E+02  0.31269501193E+02  0.51100000000E-03 0. -1.
        -11    1    3    3    0    0  0.31414507934E+01  0.51366518236E+01  0.53994591890E+01  0.80875252605E+01  0.51100000000E-03 0.  1.
         12    1    3    3    0    0  0.18741798695E-01  0.50081515368E+01  0.45780181457E+01  0.67852916822E+01  0.00000000000E+00 0. -1.
</event>
<event>
 7    1  0.1541705E-008  0.4614232E+02  0.7816164E-02  0.1320468E+00
        -11   -1    0    0    0    0  0.00000000000E+00  0.00000000000E+00  0.45593999997E+02  0.45594000000E+02  0.51100000000E-03 0. -1.
         11   -1    0    0    0    0 -0.00000000000E+00 -0.00000000000E+00 -0.45593999997E+02  0.45594000000E+02  0.51100000000E-03 0.  1.
    9900012    2    1    2    0    0 -0.28135289065E+02 -0.48315251179E+01  0.34845018622E+02  0.46142318204E+02  0.10000004034E+02 0.  0.
        -12    1    1    2    0    0  0.28135289065E+02  0.48315251179E+01 -0.34845018622E+02  0.45045681796E+02  0.00000000000E+00 0.  1.
         11    1    3    3    0    0 -0.51724980965E+01 -0.40213814493E+01  0.94104053930E+01  0.11466558997E+02  0.51100000000E-03 0. -1.
        -11    1    3    3    0    0 -0.21246682669E+02  0.98379708083E-01  0.24745122459E+02  0.32615215602E+02  0.51100000000E-03 0.  1.
        -12    1    3    3    0    0 -0.17161082998E+01 -0.90852337673E+00  0.68949077009E+00  0.20605436042E+01  0.00000000000E+00 0.  1.
</event>
<event>
 7    1  0.1541705E-008  0.4614232E+02  0.7816164E-02  0.1320468E+00
        -11   -1    0    0    0    0  0.00000000000E+00  0.00000000000E+00  0.45593999997E+02  0.45594000000E+02  0.51100000000E-03 0.  1.
         11   -1    0    0    0    0 -0.00000000000E+00 -0.00000000000E+00 -0.45593999997E+02  0.45594000000E+02  0.51100000000E-03 0. -1.
    9900012    2    1    2    0    0  0.18772842733E+02  0.22222540552E+02 -0.34392622772E+02  0.46142318365E+02  0.10000005503E+02 0.  0.
        -12    1    1    2    0    0 -0.18772842733E+02 -0.22222540552E+02  0.34392622772E+02  0.45045681635E+02  0.00000000000E+00 0.  1.
         11    1    3    3    0    0  0.11232486634E+02  0.77211853774E+01 -0.14799454451E+02  0.20119873556E+02  0.51100000000E-03 0. -1.
        -11    1    3    3    0    0  0.38073761439E+00  0.37157517217E+01 -0.71472794650E+01  0.80644513762E+01  0.51100000000E-03 0.  1.
        -12    1    3    3    0    0  0.71596184844E+01  0.10785603453E+02 -0.12445888856E+02  0.17957993432E+02  0.00000000000E+00 0.  1.
</event>
<event>
 7    1  0.1541705E-008  0.4614232E+02  0.7816164E-02  0.1320468E+00
        -11   -1    0    0    0    0  0.00000000000E+00  0.00000000000E+00  0.45593999997E+02  0.45594000000E+02  0.51100000000E-03 0.  1.
         11   -1    0    0    0    0 -0.00000000000E+00 -0.00000000000E+00 -0.45593999997E+02  0.45594000000E+02  0.51100000000E-03 0. -1.
    9900012    2    1    2    0    0 -0.11664099724E+02  0.81588809593E+01 -0.42737512001E+02  0.46142317711E+02  0.99999995410E+01 0.  0.
        -12    1    1    2    0    0  0.11664099724E+02 -0.81588809593E+01  0.42737512001E+02  0.45045682289E+02  0.00000000000E+00 0.  1.
         11    1    3    3    0    0 -0.61095439869E+01  0.65204352432E+01 -0.30251779349E+02  0.31543822811E+02  0.51100000000E-03 0. -1.
        -11    1    3    3    0    0 -0.33094488824E+01 -0.83702548311E+00 -0.30116379135E+01  0.45522551277E+01  0.51100000000E-03 0.  1.
        -12    1    3    3    0    0 -0.22451068543E+01  0.24754711992E+01 -0.94740947386E+01  0.10046239772E+02  0.00000000000E+00 0.  1.
</event>
<event>
 7    1  0.1541705E-008  0.4614232E+02  0.7816164E-02  0.1320468E+00
        -11   -1    0    0    0    0  0.00000000000E+00  0.00000000000E+00  0.45593999997E+02  0.45594000000E+02  0.51100000000E-03 0.  1.
         11   -1    0    0    0    0 -0.00000000000E+00 -0.00000000000E+00 -0.45593999997E+02  0.45594000000E+02  0.51100000000E-03 0. -1.
    9900012    2    1    2    0    0 -0.22380029093E+00 -0.41258284376E+02 -0.18078091026E+02  0.46142317728E+02  0.99999996976E+01 0.  0.
        -12    1    1    2    0    0  0.22380029093E+00  0.41258284376E+02  0.18078091026E+02  0.45045682272E+02  0.00000000000E+00 0.  1.
         11    1    3    3    0    0 -0.13132163244E+01 -0.11053938245E+01 -0.14394266722E+01  0.22401745530E+01  0.51100000000E-03 0.  1.
        -11    1    3    3    0    0 -0.85210326959E+00 -0.23168269775E+02 -0.67215522302E+01  0.24138642650E+02  0.51100000000E-03 0. -1.
        -12    1    3    3    0    0  0.19415193030E+01 -0.16984620776E+02 -0.99171121240E+01  0.19763500525E+02  0.00000000000E+00 0.  1.
</event>
<event>
 7    1  0.1541705E-008  0.4614232E+02  0.7816164E-02  0.1320468E+00
        -11   -1    0    0    0    0  0.00000000000E+00  0.00000000000E+00  0.45593999997E+02  0.45594000000E+02  0.51100000000E-03 0.  1.
         11   -1    0    0    0    0 -0.00000000000E+00 -0.00000000000E+00 -0.45593999997E+02  0.45594000000E+02  0.51100000000E-03 0. -1.
    9900012    2    1    2    0    0  0.14334391294E+02 -0.15113619820E+02 -0.39940171996E+02  0.46142316334E+02  0.99999869905E+01 0.  0.
        -12    1    1    2    0    0 -0.14334391294E+02  0.15113619820E+02  0.39940171996E+02  0.45045683666E+02  0.00000000000E+00 0.  1.
         11    1    3    3    0    0  0.62330560249E+01 -0.86383354802E+01 -0.13047377067E+02  0.16843570758E+02  0.51100000000E-03 0. -1.
        -11    1    3    3    0    0  0.87521327001E+01 -0.56791566761E+01 -0.22718385885E+02  0.24999554093E+02  0.51100000000E-03 0.  1.
         12    1    3    3    0    0 -0.65079743081E+00 -0.79612766403E+00 -0.41744090432E+01  0.42991914837E+01  0.00000000000E+00 0. -1.
</event>
<event>
 7    1  0.1541705E-008  0.4614232E+02  0.7816164E-02  0.1320468E+00
        -11   -1    0    0    0    0  0.00000000000E+00  0.00000000000E+00  0.45593999997E+02  0.45594000000E+02  0.51100000000E-03 0.  1.
         11   -1    0    0    0    0 -0.00000000000E+00 -0.00000000000E+00 -0.45593999997E+02  0.45594000000E+02  0.51100000000E-03 0. -1.
    9900012    2    1    2    0    0  0.27312705883E+02 -0.35216321218E+02 -0.65528811237E+01  0.46142318367E+02  0.10000005528E+02 0.  0.
        -12    1    1    2    0    0 -0.27312705883E+02  0.35216321218E+02  0.65528811237E+01  0.45045681633E+02  0.00000000000E+00 0.  1.
         11    1    3    3    0    0  0.18031839070E+02 -0.22099853380E+02 -0.71648708917E+01  0.29408946169E+02  0.51100000000E-03 0. -1.
        -11    1    3    3    0    0  0.70262270431E+01 -0.79910769408E+01  0.22972412973E+01  0.10885885126E+02  0.51100000000E-03 0.  1.
        -12    1    3    3    0    0  0.22546397699E+01 -0.51253908973E+01 -0.16852515292E+01  0.58474870721E+01  0.00000000000E+00 0.  1.
</event>
<event>
 7    1  0.1541705E-008  0.4614232E+02  0.7816164E-02  0.1320468E+00
        -11   -1    0    0    0    0  0.00000000000E+00  0.00000000000E+00  0.45593999997E+02  0.45594000000E+02  0.51100000000E-03 0. -1.
         11   -1    0    0    0    0 -0.00000000000E+00 -0.00000000000E+00 -0.45593999997E+02  0.45594000000E+02  0.51100000000E-03 0.  1.
    9900012    2    1    2    0    0 -0.27040244246E+02 -0.35262244424E+02  0.73832814323E+01  0.46142317239E+02  0.99999952366E+01 0.  0.
        -12    1    1    2    0    0  0.27040244246E+02  0.35262244424E+02 -0.73832814323E+01  0.45045682761E+02  0.00000000000E+00 0.  1.
         11    1    3    3    0    0 -0.60913523183E+01 -0.97499804029E+01 -0.17459314164E+01  0.11628197096E+02  0.51100000000E-03 0. -1.
        -11    1    3    3    0    0 -0.57521408432E+01 -0.61610486121E+01  0.42113196085E+01  0.94223594384E+01  0.51100000000E-03 0.  1.
         12    1    3    3    0    0 -0.15196751084E+02 -0.19351215409E+02  0.49178932403E+01  0.25091760705E+02  0.00000000000E+00 0. -1.
</event>
<event>
 7    1  0.1541705E-008  0.4614233E+02  0.7816164E-02  0.1320468E+00
        -11   -1    0    0    0    0  0.00000000000E+00  0.00000000000E+00  0.45593999997E+02  0.45594000000E+02  0.51100000000E-03 0.  1.
         11   -1    0    0    0    0 -0.00000000000E+00 -0.00000000000E+00 -0.45593999997E+02  0.45594000000E+02  0.51100000000E-03 0. -1.
    9900012    2    1    2    0    0 -0.44533838983E+02 -0.47557206707E+00 -0.67545401598E+01  0.46142325445E+02  0.10000070065E+02 0.  0.
        -12    1    1    2    0    0  0.44533838983E+02  0.47557206707E+00  0.67545401598E+01  0.45045674555E+02  0.00000000000E+00 0.  1.
         11    1    3    3    0    0 -0.21225759770E+02 -0.13697673767E+01 -0.63112535591E+00  0.21279273013E+02  0.51100000000E-03 0. -1.
        -11    1    3    3    0    0 -0.88532119957E+01 -0.21481856249E+01 -0.39613243256E+01  0.99340905368E+01  0.51100000000E-03 0.  1.
        -12    1    3    3    0    0 -0.14454867218E+02  0.30423809345E+01 -0.21620904783E+01  0.14928961895E+02  0.00000000000E+00 0.  1.
</event>
<event>
 7    1  0.1541705E-008  0.4614232E+02  0.7816164E-02  0.1320468E+00
        -11   -1    0    0    0    0  0.00000000000E+00  0.00000000000E+00  0.45593999997E+02  0.45594000000E+02  0.51100000000E-03 0.  1.
         11   -1    0    0    0    0 -0.00000000000E+00 -0.00000000000E+00 -0.45593999997E+02  0.45594000000E+02  0.51100000000E-03 0. -1.
    9900012    2    1    2    0    0  0.41253295023E+02 -0.15110079270E+02 -0.99480979344E+01  0.46142317651E+02  0.99999989931E+01 0.  0.
        -12    1    1    2    0    0 -0.41253295023E+02  0.15110079270E+02  0.99480979344E+01  0.45045682349E+02  0.00000000000E+00 0.  1.
         11    1    3    3    0    0  0.37008487641E+02 -0.12559483683E+02 -0.88790924565E+01  0.40077513283E+02  0.51100000000E-03 0. -1.
        -11    1    3    3    0    0  0.14088287029E+01 -0.27627336214E+01 -0.28193384888E+00  0.31139978056E+01  0.51100000000E-03 0.  1.
        -12    1    3    3    0    0  0.28359786796E+01  0.21213803533E+00 -0.78707162903E+00  0.29508065621E+01  0.00000000000E+00 0.  1.
</event>
<event>
 7    1  0.1541705E-008  0.4614232E+02  0.7816164E-02  0.1320468E+00
        -11   -1    0    0    0    0  0.00000000000E+00  0.00000000000E+00  0.45593999997E+02  0.45594000000E+02  0.51100000000E-03 0.  1.
         11   -1    0    0    0    0 -0.00000000000E+00 -0.00000000000E+00 -0.45593999997E+02  0.45594000000E+02  0.51100000000E-03 0. -1.
    9900012    2    1    2    0    0 -0.23821628389E+02 -0.62455999511E+01 -0.37717846511E+02  0.46142318262E+02  0.10000004565E+02 0.  0.
        -12    1    1    2    0    0  0.23821628389E+02  0.62455999511E+01  0.37717846511E+02  0.45045681738E+02  0.00000000000E+00 0.  1.
         11    1    3    3    0    0 -0.55310109194E+01 -0.66455235624E+00 -0.11376572234E+02  0.12667284938E+02  0.51100000000E-03 0. -1.
        -11    1    3    3    0    0  0.77775119010E+00 -0.17896850041E+00 -0.14740250280E+01  0.16762090210E+01  0.51100000000E-03 0.  1.
        -12    1    3    3    0    0 -0.19068368659E+02 -0.54020790944E+01 -0.24867249249E+02  0.31798824303E+02  0.00000000000E+00 0.  1.
</event>
<event>
 7    1  0.1541705E-008  0.4614233E+02  0.7816164E-02  0.1320468E+00
        -11   -1    0    0    0    0  0.00000000000E+00  0.00000000000E+00  0.45593999997E+02  0.45594000000E+02  0.51100000000E-03 0. -1.
         11   -1    0    0    0    0 -0.00000000000E+00 -0.00000000000E+00 -0.45593999997E+02  0.45594000000E+02  0.51100000000E-03 0.  1.
    9900012    2    1    2    0    0 -0.37602167428E+02 -0.24212984047E+02  0.53777756185E+01  0.46142333590E+02  0.10000144341E+02 0.  0.
        -12    1    1    2    0    0  0.37602167428E+02  0.24212984047E+02 -0.53777756185E+01  0.45045666410E+02  0.00000000000E+00 0.  1.
         11    1    3    3    0    0 -0.23754371531E+02 -0.13305994902E+02  0.47345603908E+01  0.27635769024E+02  0.51100000000E-03 0. -1.
        -11    1    3    3    0    0 -0.67116823108E+01 -0.72963835925E+01  0.26484131829E+01  0.10261480674E+02  0.51100000000E-03 0.  1.
         12    1    3    3    0    0 -0.71361135853E+01 -0.36106055528E+01 -0.20051979551E+01  0.82450838928E+01  0.00000000000E+00 0. -1.
</event>
<event>
 7    1  0.1541705E-008  0.4614232E+02  0.7816164E-02  0.1320468E+00
        -11   -1    0    0    0    0  0.00000000000E+00  0.00000000000E+00  0.45593999997E+02  0.45594000000E+02  0.51100000000E-03 0.  1.
         11   -1    0    0    0    0 -0.00000000000E+00 -0.00000000000E+00 -0.45593999997E+02  0.45594000000E+02  0.51100000000E-03 0. -1.
    9900012    2    1    2    0    0 -0.39360769754E+02  0.18191428179E+02 -0.12203088232E+02  0.46142316331E+02  0.99999869617E+01 0.  0.
        -12    1    1    2    0    0  0.39360769754E+02 -0.18191428179E+02  0.12203088232E+02  0.45045683669E+02  0.00000000000E+00 0.  1.
         11    1    3    3    0    0 -0.12146545291E+02  0.75339608710E+01 -0.19230109055E+01  0.14422104566E+02  0.51100000000E-03 0. -1.
        -11    1    3    3    0    0 -0.25454611317E+02  0.80458630517E+01 -0.81274922754E+01  0.27905721286E+02  0.51100000000E-03 0.  1.
        -12    1    3    3    0    0 -0.17596131458E+01  0.26116042562E+01 -0.21525850514E+01  0.38144904794E+01  0.00000000000E+00 0.  1.
</event>
<event>
 7    1  0.1541705E-008  0.4614232E+02  0.7816164E-02  0.1320468E+00
        -11   -1    0    0    0    0  0.00000000000E+00  0.00000000000E+00  0.45593999997E+02  0.45594000000E+02  0.51100000000E-03 0.  1.
         11   -1    0    0    0    0 -0.00000000000E+00 -0.00000000000E+00 -0.45593999997E+02  0.45594000000E+02  0.51100000000E-03 0. -1.
    9900012    2    1    2    0    0 -0.53490624716E+01 -0.64651167322E+01 -0.44257239955E+02  0.46142317720E+02  0.99999996216E+01 0.  0.
        -12    1    1    2    0    0  0.53490624716E+01  0.64651167322E+01  0.44257239955E+02  0.45045682280E+02  0.00000000000E+00 0.  1.
         11    1    3    3    0    0 -0.16989338934E+01 -0.39086152997E+01 -0.87897876267E+01  0.97685217264E+01  0.51100000000E-03 0. -1.
        -11    1    3    3    0    0  0.15758245133E+01  0.26532466285E-01 -0.15293273953E+02  0.15374269262E+02  0.51100000000E-03 0.  1.
         12    1    3    3    0    0 -0.52259530915E+01 -0.25830338988E+01 -0.20174178375E+02  0.20999526731E+02  0.00000000000E+00 0. -1.
</event>
<event>
 7    1  0.1541705E-008  0.4614232E+02  0.7816164E-02  0.1320468E+00
        -11   -1    0    0    0    0  0.00000000000E+00  0.00000000000E+00  0.45593999997E+02  0.45594000000E+02  0.51100000000E-03 0.  1.
         11   -1    0    0    0    0 -0.00000000000E+00 -0.00000000000E+00 -0.45593999997E+02  0.45594000000E+02  0.51100000000E-03 0. -1.
    9900012    2    1    2    0    0  0.13257420713E+02  0.97320827372E+01 -0.41936152321E+02  0.46142317523E+02  0.99999978258E+01 0.  0.
        -12    1    1    2    0    0 -0.13257420713E+02 -0.97320827372E+01  0.41936152321E+02  0.45045682477E+02  0.00000000000E+00 0.  1.
         11    1    3    3    0    0  0.34511192905E+01  0.25165695367E+01 -0.37751101013E+01  0.57004213115E+01  0.51100000000E-03 0. -1.
        -11    1    3    3    0    0  0.90176731349E+01  0.78303561987E+01 -0.31169343816E+02  0.33379048835E+02  0.51100000000E-03 0.  1.
        -12    1    3    3    0    0  0.78862828769E+00 -0.61484299822E+00 -0.69916984037E+01  0.70628473760E+01  0.00000000000E+00 0.  1.
</event>
<event>
 7    1  0.1541705E-008  0.4614232E+02  0.7816164E-02  0.1320468E+00
        -11   -1    0    0    0    0  0.00000000000E+00  0.00000000000E+00  0.45593999997E+02  0.45594000000E+02  0.51100000000E-03 0. -1.
         11   -1    0    0    0    0 -0.00000000000E+00 -0.00000000000E+00 -0.45593999997E+02  0.45594000000E+02  0.51100000000E-03 0.  1.
    9900012    2    1    2    0    0 -0.29645070993E+02 -0.32256227338E+02  0.10479461774E+02  0.46142317018E+02  0.99999932197E+01 0.  0.
        -12    1    1    2    0    0  0.29645070993E+02  0.32256227338E+02 -0.10479461774E+02  0.45045682982E+02  0.00000000000E+00 0.  1.
         11    1    3    3    0    0  0.51152514179E+00 -0.98884221909E+00  0.21297045936E+00  0.11335005878E+01  0.51100000000E-03 0. -1.
        -11    1    3    3    0    0 -0.41968659513E-01 -0.13633190395E+01  0.55115040801E+00  0.14711108746E+01  0.51100000000E-03 0.  1.
         12    1    3    3    0    0 -0.30114627475E+02 -0.29904066080E+02  0.97153409062E+01  0.43537705555E+02  0.00000000000E+00 0. -1.
</event>
<event>
 7    1  0.1541705E-008  0.4614232E+02  0.7816164E-02  0.1320468E+00
        -11   -1    0    0    0    0  0.00000000000E+00  0.00000000000E+00  0.45593999997E+02  0.45594000000E+02  0.51100000000E-03 0.  1.
         11   -1    0    0    0    0 -0.00000000000E+00 -0.00000000000E+00 -0.45593999997E+02  0.45594000000E+02  0.51100000000E-03 0. -1.
    9900012    2    1    2    0    0  0.26347690107E+02 -0.11836615181E+02 -0.34565984207E+02  0.46142317664E+02  0.99999991121E+01 0.  0.
        -12    1    1    2    0    0 -0.26347690107E+02  0.11836615181E+02  0.34565984207E+02  0.45045682336E+02  0.00000000000E+00 0.  1.
         11    1    3    3    0    0  0.53387216326E+01 -0.10669227563E+01 -0.11933836135E+02  0.13117039224E+02  0.51100000000E-03 0. -1.
        -11    1    3    3    0    0  0.21137261847E+02 -0.10404523645E+02 -0.21758668065E+02  0.32069885982E+02  0.51100000000E-03 0.  1.
        -12    1    3    3    0    0 -0.12829337171E+00 -0.36516877968E+00 -0.87348000704E+00  0.95539245841E+00  0.00000000000E+00 0.  1.
</event>
<event>
 7    1  0.1541705E-008  0.4614232E+02  0.7816164E-02  0.1320468E+00
        -11   -1    0    0    0    0  0.00000000000E+00  0.00000000000E+00  0.45593999997E+02  0.45594000000E+02  0.51100000000E-03 0.  1.
         11   -1    0    0    0    0 -0.00000000000E+00 -0.00000000000E+00 -0.45593999997E+02  0.45594000000E+02  0.51100000000E-03 0. -1.
    9900012    2    1    2    0    0  0.20791261307E+02  0.37700336485E+02 -0.13248453172E+02  0.46142318418E+02  0.10000005987E+02 0.  0.
        -12    1    1    2    0    0 -0.20791261307E+02 -0.37700336485E+02  0.13248453172E+02  0.45045681582E+02  0.00000000000E+00 0.  1.
         11    1    3    3    0    0  0.78556407724E+01  0.10451423583E+02 -0.39218644858E-01  0.13074589294E+02  0.51100000000E-03 0. -1.
        -11    1    3    3    0    0  0.22890463464E+00  0.80416112714E+00  0.11639301993E+00  0.84416825715E+00  0.51100000000E-03 0.  1.
         12    1    3    3    0    0  0.12706715900E+02  0.26444751775E+02 -0.13325627547E+02  0.32223560866E+02  0.00000000000E+00 0. -1.
</event>
<event>
 7    1  0.1541705E-008  0.4614232E+02  0.7816164E-02  0.1320468E+00
        -11   -1    0    0    0    0  0.00000000000E+00  0.00000000000E+00  0.45593999997E+02  0.45594000000E+02  0.51100000000E-03 0.  1.
         11   -1    0    0    0    0 -0.00000000000E+00 -0.00000000000E+00 -0.45593999997E+02  0.45594000000E+02  0.51100000000E-03 0. -1.
    9900012    2    1    2    0    0 -0.75926527632E+01 -0.37461098092E+02 -0.23835502258E+02  0.46142318585E+02  0.10000007514E+02 0.  0.
        -12    1    1    2    0    0  0.75926527632E+01  0.37461098092E+02  0.23835502258E+02  0.45045681415E+02  0.00000000000E+00 0.  1.
         11    1    3    3    0    0 -0.71917623129E+01 -0.19887523015E+02 -0.14887982474E+02  0.25862850563E+02  0.51100000000E-03 0. -1.
        -11    1    3    3    0    0  0.21477328211E+01 -0.88918588376E+01 -0.46891427267E+01  0.10279395392E+02  0.51100000000E-03 0.  1.
         12    1    3    3    0    0 -0.25486232714E+01 -0.86817162391E+01 -0.42583770580E+01  0.10000072630E+02  0.00000000000E+00 0. -1.
</event>
<event>
 7    1  0.1541705E-008  0.4614231E+02  0.7816164E-02  0.1320468E+00
        -11   -1    0    0    0    0  0.00000000000E+00  0.00000000000E+00  0.45593999997E+02  0.45594000000E+02  0.51100000000E-03 0.  1.
         11   -1    0    0    0    0 -0.00000000000E+00 -0.00000000000E+00 -0.45593999997E+02  0.45594000000E+02  0.51100000000E-03 0. -1.
    9900012    2    1    2    0    0 -0.22314455089E+01 -0.34894456851E+02 -0.28399148389E+02  0.46142311004E+02  0.99999383786E+01 0.  0.
        -12    1    1    2    0    0  0.22314455089E+01  0.34894456851E+02  0.28399148389E+02  0.45045688996E+02  0.00000000000E+00 0.  1.
         11    1    3    3    0    0  0.23043327957E+01 -0.98232822594E+01 -0.80229532219E+01  0.12890872843E+02  0.51100000000E-03 0. -1.
        -11    1    3    3    0    0 -0.52286054738E+01 -0.10943199625E+02 -0.91290459088E+01  0.15179967481E+02  0.51100000000E-03 0.  1.
         12    1    3    3    0    0  0.69282716920E+00 -0.14127974966E+02 -0.11247149258E+02  0.18071470680E+02  0.00000000000E+00 0. -1.
</event>
<event>
 7    1  0.1541705E-008  0.4614232E+02  0.7816164E-02  0.1320468E+00
        -11   -1    0    0    0    0  0.00000000000E+00  0.00000000000E+00  0.45593999997E+02  0.45594000000E+02  0.51100000000E-03 0.  1.
         11   -1    0    0    0    0 -0.00000000000E+00 -0.00000000000E+00 -0.45593999997E+02  0.45594000000E+02  0.51100000000E-03 0. -1.
    9900012    2    1    2    0    0 -0.15248629492E+02  0.37420109594E+02 -0.19907995550E+02  0.46142316631E+02  0.99999896916E+01 0.  0.
        -12    1    1    2    0    0  0.15248629492E+02 -0.37420109594E+02  0.19907995550E+02  0.45045683369E+02  0.00000000000E+00 0.  1.
         11    1    3    3    0    0 -0.72416103770E+01  0.28822997703E+02 -0.15042250391E+02  0.33308788848E+02  0.51100000000E-03 0. -1.
        -11    1    3    3    0    0 -0.28550695324E+01  0.24944098598E+01 -0.81268554906E+00  0.38773651681E+01  0.51100000000E-03 0.  1.
         12    1    3    3    0    0 -0.51519495820E+01  0.61027020315E+01 -0.40530596102E+01  0.89561626149E+01  0.00000000000E+00 0. -1.
</event>
<event>
 7    1  0.1541705E-008  0.4614232E+02  0.7816164E-02  0.1320468E+00
        -11   -1    0    0    0    0  0.00000000000E+00  0.00000000000E+00  0.45593999997E+02  0.45594000000E+02  0.51100000000E-03 0.  1.
         11   -1    0    0    0    0 -0.00000000000E+00 -0.00000000000E+00 -0.45593999997E+02  0.45594000000E+02  0.51100000000E-03 0. -1.
    9900012    2    1    2    0    0  0.28021668968E+02 -0.18911556247E+02 -0.29769995162E+02  0.46142317595E+02  0.99999984823E+01 0.  0.
        -12    1    1    2    0    0 -0.28021668968E+02  0.18911556247E+02  0.29769995162E+02  0.45045682405E+02  0.00000000000E+00 0.  1.
         11    1    3    3    0    0  0.16278163791E+02 -0.93140525594E+01 -0.15903971573E+02  0.24589967539E+02  0.51100000000E-03 0. -1.
        -11    1    3    3    0    0  0.58574615661E+01 -0.38040434135E+01 -0.10550425548E+02  0.12652749970E+02  0.51100000000E-03 0.  1.
        -12    1    3    3    0    0  0.58860436106E+01 -0.57934602738E+01 -0.33155980411E+01  0.88996000865E+01  0.00000000000E+00 0.  1.
</event>
<event>
 7    1  0.1541705E-008  0.4614233E+02  0.7816164E-02  0.1320468E+00
        -11   -1    0    0    0    0  0.00000000000E+00  0.00000000000E+00  0.45593999997E+02  0.45594000000E+02  0.51100000000E-03 0. -1.
         11   -1    0    0    0    0 -0.00000000000E+00 -0.00000000000E+00 -0.45593999997E+02  0.45594000000E+02  0.51100000000E-03 0.  1.
    9900012    2    1    2    0    0  0.10140394056E+02 -0.41625642966E+02  0.13913679303E+02  0.46142331888E+02  0.10000128817E+02 0.  0.
        -12    1    1    2    0    0 -0.10140394056E+02  0.41625642966E+02 -0.13913679303E+02  0.45045668112E+02  0.00000000000E+00 0.  1.
         11    1    3    3    0    0  0.54772750480E+01 -0.25411600557E+02  0.47027385150E+01  0.26417148495E+02  0.51100000000E-03 0. -1.
        -11    1    3    3    0    0  0.50713033288E+01 -0.12996607294E+02  0.87014718436E+01  0.16442187541E+02  0.51100000000E-03 0.  1.
        -12    1    3    3    0    0 -0.40818432120E+00 -0.32174351152E+01  0.50946894404E+00  0.32829958522E+01  0.00000000000E+00 0.  1.
</event>
<event>
 7    1  0.1541705E-008  0.4614232E+02  0.7816164E-02  0.1320468E+00
        -11   -1    0    0    0    0  0.00000000000E+00  0.00000000000E+00  0.45593999997E+02  0.45594000000E+02  0.51100000000E-03 0.  1.
         11   -1    0    0    0    0 -0.00000000000E+00 -0.00000000000E+00 -0.45593999997E+02  0.45594000000E+02  0.51100000000E-03 0. -1.
    9900012    2    1    2    0    0 -0.11339908439E+02 -0.27616499438E+02 -0.33732016390E+02  0.46142317694E+02  0.99999993898E+01 0.  0.
        -12    1    1    2    0    0  0.11339908439E+02  0.27616499438E+02  0.33732016390E+02  0.45045682306E+02  0.00000000000E+00 0.  1.
         11    1    3    3    0    0 -0.58817606297E+01 -0.13876030143E+02 -0.13124848077E+02  0.19985018337E+02  0.51100000000E-03 0. -1.
        -11    1    3    3    0    0 -0.56799085247E-01  0.68414881005E+00 -0.11776686849E+01  0.13631542550E+01  0.51100000000E-03 0.  1.
        -12    1    3    3    0    0 -0.54013487237E+01 -0.14424618106E+02 -0.19429499628E+02  0.24794145102E+02  0.00000000000E+00 0.  1.
</event>
<event>
 7    1  0.1541705E-008  0.4614232E+02  0.7816164E-02  0.1320468E+00
        -11   -1    0    0    0    0  0.00000000000E+00  0.00000000000E+00  0.45593999997E+02  0.45594000000E+02  0.51100000000E-03 0.  1.
         11   -1    0    0    0    0 -0.00000000000E+00 -0.00000000000E+00 -0.45593999997E+02  0.45594000000E+02  0.51100000000E-03 0. -1.
    9900012    2    1    2    0    0 -0.40219483115E+02 -0.52543288344E+01  0.19593333213E+02  0.46142317633E+02  0.99999988278E+01 0.  0.
        -12    1    1    2    0    0  0.40219483115E+02  0.52543288344E+01 -0.19593333213E+02  0.45045682367E+02  0.00000000000E+00 0.  1.
         11    1    3    3    0    0 -0.18839023519E+02 -0.74455815382E+01  0.10110882308E+02  0.22640128818E+02  0.51100000000E-03 0. -1.
        -11    1    3    3    0    0 -0.18262615165E+02  0.20209942053E+01  0.83248465890E+01  0.20172025214E+02  0.51100000000E-03 0.  1.
         12    1    3    3    0    0 -0.31178444318E+01  0.17025849852E+00  0.11576043159E+01  0.33301636010E+01  0.00000000000E+00 0. -1.
</event>
<event>
 7    1  0.1541705E-008  0.4614232E+02  0.7816164E-02  0.1320468E+00
        -11   -1    0    0    0    0  0.00000000000E+00  0.00000000000E+00  0.45593999997E+02  0.45594000000E+02  0.51100000000E-03 0. -1.
         11   -1    0    0    0    0 -0.00000000000E+00 -0.00000000000E+00 -0.45593999997E+02  0.45594000000E+02  0.51100000000E-03 0.  1.
    9900012    2    1    2    0    0 -0.22972337200E+02 -0.26073031546E+01  0.38659890678E+02  0.46142318149E+02  0.10000003541E+02 0.  0.
        -12    1    1    2    0    0  0.22972337200E+02  0.26073031546E+01 -0.38659890678E+02  0.45045681851E+02  0.00000000000E+00 0.  1.
         11    1    3    3    0    0 -0.18626777501E+01  0.22025028280E+00  0.73555773882E+01  0.75909549836E+01  0.51100000000E-03 0. -1.
        -11    1    3    3    0    0 -0.26499121350E+01  0.20818385663E+01  0.54175347531E+01  0.63801073033E+01  0.51100000000E-03 0.  1.
         12    1    3    3    0    0 -0.18459747314E+02 -0.49093920037E+01  0.25886778537E+02  0.32171255862E+02  0.00000000000E+00 0. -1.
</event>
<event>
 7    1  0.1541705E-008  0.4614232E+02  0.7816164E-02  0.1320468E+00
        -11   -1    0    0    0    0  0.00000000000E+00  0.00000000000E+00  0.45593999997E+02  0.45594000000E+02  0.51100000000E-03 0.  1.
         11   -1    0    0    0    0 -0.00000000000E+00 -0.00000000000E+00 -0.45593999997E+02  0.45594000000E+02  0.51100000000E-03 0. -1.
    9900012    2    1    2    0    0  0.28541585396E+02 -0.56672042634E+01 -0.34385662650E+02  0.46142322106E+02  0.10000039617E+02 0.  0.
        -12    1    1    2    0    0 -0.28541585396E+02  0.56672042634E+01  0.34385662650E+02  0.45045677894E+02  0.00000000000E+00 0.  1.
         11    1    3    3    0    0  0.78133669938E+01 -0.33446583292E+01 -0.11750408531E+02  0.14501984141E+02  0.51100000000E-03 0. -1.
        -11    1    3    3    0    0  0.88057013594E+01  0.10602982019E+01 -0.53050676195E+01  0.10334812597E+02  0.51100000000E-03 0.  1.
        -12    1    3    3    0    0  0.11922517043E+02 -0.33828441360E+01 -0.17330186499E+02  0.21305525367E+02  0.00000000000E+00 0.  1.
</event>
<event>
 7    1  0.1541705E-008  0.4614231E+02  0.7816164E-02  0.1320468E+00
        -11   -1    0    0    0    0  0.00000000000E+00  0.00000000000E+00  0.45593999997E+02  0.45594000000E+02  0.51100000000E-03 0. -1.
         11   -1    0    0    0    0 -0.00000000000E+00 -0.00000000000E+00 -0.45593999997E+02  0.45594000000E+02  0.51100000000E-03 0.  1.
    9900012    2    1    2    0    0 -0.32241514946E+02 -0.97086321841E+01  0.29922249299E+02  0.46142313991E+02  0.99999656215E+01 0.  0.
        -12    1    1    2    0    0  0.32241514946E+02  0.97086321841E+01 -0.29922249299E+02  0.45045686009E+02  0.00000000000E+00 0.  1.
         11    1    3    3    0    0 -0.32260036561E+01  0.19862261268E+00  0.53688685065E+01  0.62666817242E+01  0.51100000000E-03 0. -1.
        -11    1    3    3    0    0  0.30182828606E+00  0.21957007017E+00  0.50473380107E+00  0.62774819876E+00  0.51100000000E-03 0.  1.
         12    1    3    3    0    0 -0.29317339576E+02 -0.10126824867E+02  0.24048646992E+02  0.39247884068E+02  0.00000000000E+00 0. -1.
</event>
<event>
 7    1  0.1541705E-008  0.4614232E+02  0.7816164E-02  0.1320468E+00
        -11   -1    0    0    0    0  0.00000000000E+00  0.00000000000E+00  0.45593999997E+02  0.45594000000E+02  0.51100000000E-03 0.  1.
         11   -1    0    0    0    0 -0.00000000000E+00 -0.00000000000E+00 -0.45593999997E+02  0.45594000000E+02  0.51100000000E-03 0. -1.
    9900012    2    1    2    0    0  0.22552104230E+02 -0.14446231040E+02 -0.36219090643E+02  0.46142317371E+02  0.99999964460E+01 0.  0.
        -12    1    1    2    0    0 -0.22552104230E+02  0.14446231040E+02  0.36219090643E+02  0.45045682629E+02  0.00000000000E+00 0.  1.
         11    1    3    3    0    0  0.72448077854E+01 -0.86524796348E+00 -0.66042341366E+01  0.98413313468E+01  0.51100000000E-03 0. -1.
        -11    1    3    3    0    0  0.35820375824E+01 -0.55443069844E+01 -0.72874584776E+01  0.98324658404E+01  0.51100000000E-03 0.  1.
         12    1    3    3    0    0  0.11725258862E+02 -0.80366760924E+01 -0.22327398029E+02  0.26468520184E+02  0.00000000000E+00 0. -1.
</event>
<event>
 7    1  0.1541705E-008  0.4614232E+02  0.7816164E-02  0.1320468E+00
        -11   -1    0    0    0    0  0.00000000000E+00  0.00000000000E+00  0.45593999997E+02  0.45594000000E+02  0.51100000000E-03 0. -1.
         11   -1    0    0    0    0 -0.00000000000E+00 -0.00000000000E+00 -0.45593999997E+02  0.45594000000E+02  0.51100000000E-03 0.  1.
    9900012    2    1    2    0    0 -0.39802111928E+01  0.44711497447E+02 -0.37621012451E+01  0.46142317733E+02  0.99999997421E+01 0.  0.
        -12    1    1    2    0    0  0.39802111928E+01 -0.44711497447E+02  0.37621012451E+01  0.45045682267E+02  0.00000000000E+00 0.  1.
         11    1    3    3    0    0 -0.22096581138E+01  0.11994696338E+02  0.21279315705E+00  0.12198385565E+02  0.51100000000E-03 0. -1.
        -11    1    3    3    0    0 -0.31657659830E+00  0.18039087476E+02 -0.60932820427E+01  0.19043029801E+02  0.51100000000E-03 0.  1.
        -12    1    3    3    0    0 -0.14539764806E+01  0.14677713634E+02  0.21183876405E+01  0.14900902366E+02  0.00000000000E+00 0.  1.
</event>
<event>
 7    1  0.1541705E-008  0.4614232E+02  0.7816164E-02  0.1320468E+00
        -11   -1    0    0    0    0  0.00000000000E+00  0.00000000000E+00  0.45593999997E+02  0.45594000000E+02  0.51100000000E-03 0. -1.
         11   -1    0    0    0    0 -0.00000000000E+00 -0.00000000000E+00 -0.45593999997E+02  0.45594000000E+02  0.51100000000E-03 0.  1.
    9900012    2    1    2    0    0  0.25585180148E+02  0.33968674556E+02  0.14853992147E+02  0.46142318997E+02  0.10000011266E+02 0.  0.
        -12    1    1    2    0    0 -0.25585180148E+02 -0.33968674556E+02 -0.14853992147E+02  0.45045681003E+02  0.00000000000E+00 0.  1.
         11    1    3    3    0    0  0.41084369843E+01  0.83747703240E+01  0.43563847617E+01  0.10295344622E+02  0.51100000000E-03 0. -1.
        -11    1    3    3    0    0  0.78717132376E+01  0.43824968126E+01  0.17916081065E+01  0.91858591038E+01  0.51100000000E-03 0.  1.
        -12    1    3    3    0    0  0.13605029926E+02  0.21211407420E+02  0.87059992791E+01  0.26661115271E+02  0.00000000000E+00 0.  1.
</event>
<event>
 7    1  0.1541705E-008  0.4614232E+02  0.7816164E-02  0.1320468E+00
        -11   -1    0    0    0    0  0.00000000000E+00  0.00000000000E+00  0.45593999997E+02  0.45594000000E+02  0.51100000000E-03 0. -1.
         11   -1    0    0    0    0 -0.00000000000E+00 -0.00000000000E+00 -0.45593999997E+02  0.45594000000E+02  0.51100000000E-03 0.  1.
    9900012    2    1    2    0    0 -0.95415304326E+01  0.49712495845E+01  0.43741964427E+02  0.46142316774E+02  0.99999909955E+01 0.  0.
        -12    1    1    2    0    0  0.95415304326E+01 -0.49712495845E+01 -0.43741964427E+02  0.45045683226E+02  0.00000000000E+00 0.  1.
         11    1    3    3    0    0  0.15926387537E+01  0.63438907939E+00  0.69819127435E+01  0.71893013237E+01  0.51100000000E-03 0. -1.
        -11    1    3    3    0    0 -0.39142128033E+01  0.22516845361E+01  0.21169537685E+02  0.21645795693E+02  0.51100000000E-03 0.  1.
        -12    1    3    3    0    0 -0.72199563831E+01  0.20851759689E+01  0.15590513998E+02  0.17307219757E+02  0.00000000000E+00 0.  1.
</event>
<event>
 7    1  0.1541705E-008  0.4614232E+02  0.7816164E-02  0.1320468E+00
        -11   -1    0    0    0    0  0.00000000000E+00  0.00000000000E+00  0.45593999997E+02  0.45594000000E+02  0.51100000000E-03 0.  1.
         11   -1    0    0    0    0 -0.00000000000E+00 -0.00000000000E+00 -0.45593999997E+02  0.45594000000E+02  0.51100000000E-03 0. -1.
    9900012    2    1    2    0    0  0.31210347938E+02 -0.25603229528E+02 -0.19987549755E+02  0.46142319564E+02  0.10000016443E+02 0.  0.
        -12    1    1    2    0    0 -0.31210347938E+02  0.25603229528E+02  0.19987549755E+02  0.45045680436E+02  0.00000000000E+00 0.  1.
         11    1    3    3    0    0  0.28920171801E+02 -0.21020903797E+02 -0.14816238952E+02  0.38701106837E+02  0.51100000000E-03 0. -1.
        -11    1    3    3    0    0  0.14703385774E+01 -0.34063162838E+01 -0.27158622846E+01  0.45979119573E+01  0.51100000000E-03 0.  1.
         12    1    3    3    0    0  0.81983755968E+00 -0.11760094478E+01 -0.24554485178E+01  0.28433007701E+01  0.00000000000E+00 0. -1.
</event>
<event>
 7    1  0.1541705E-008  0.4614232E+02  0.7816164E-02  0.1320468E+00
        -11   -1    0    0    0    0  0.00000000000E+00  0.00000000000E+00  0.45593999997E+02  0.45594000000E+02  0.51100000000E-03 0.  1.
         11   -1    0    0    0    0 -0.00000000000E+00 -0.00000000000E+00 -0.45593999997E+02  0.45594000000E+02  0.51100000000E-03 0. -1.
    9900012    2    1    2    0    0 -0.23318332100E+02 -0.15282638453E+02 -0.35380925063E+02  0.46142317540E+02  0.99999979817E+01 0.  0.
        -12    1    1    2    0    0  0.23318332100E+02  0.15282638453E+02  0.35380925063E+02  0.45045682460E+02  0.00000000000E+00 0.  1.
         11    1    3    3    0    0 -0.90064556152E+01 -0.54229557372E+01 -0.14690351937E+02  0.18064637609E+02  0.51100000000E-03 0. -1.
        -11    1    3    3    0    0 -0.26767010190E+01 -0.39870963447E+01 -0.10456751795E+02  0.11506751235E+02  0.51100000000E-03 0.  1.
        -12    1    3    3    0    0 -0.11635175466E+02 -0.58725863714E+01 -0.10233821331E+02  0.16570928696E+02  0.00000000000E+00 0.  1.
</event>
<event>
 7    1  0.1541705E-008  0.4614232E+02  0.7816164E-02  0.1320468E+00
        -11   -1    0    0    0    0  0.00000000000E+00  0.00000000000E+00  0.45593999997E+02  0.45594000000E+02  0.51100000000E-03 0. -1.
         11   -1    0    0    0    0 -0.00000000000E+00 -0.00000000000E+00 -0.45593999997E+02  0.45594000000E+02  0.51100000000E-03 0.  1.
    9900012    2    1    2    0    0  0.55321740689E+01  0.23921643726E+02  0.37765904359E+02  0.46142317404E+02  0.99999967473E+01 0.  0.
        -12    1    1    2    0    0 -0.55321740689E+01 -0.23921643726E+02 -0.37765904359E+02  0.45045682596E+02  0.00000000000E+00 0.  1.
         11    1    3    3    0    0  0.48543348871E+01  0.20107297758E+02  0.26215026519E+02  0.33393047270E+02  0.51100000000E-03 0. -1.
        -11    1    3    3    0    0  0.11480657931E+01 -0.27279071929E+00  0.16581494112E+01  0.20351731064E+01  0.51100000000E-03 0.  1.
         12    1    3    3    0    0 -0.47022661128E+00  0.40871366868E+01  0.98927284284E+01  0.10714097028E+02  0.00000000000E+00 0. -1.
</event>
<event>
 7    1  0.1541705E-008  0.4614232E+02  0.7816164E-02  0.1320468E+00
        -11   -1    0    0    0    0  0.00000000000E+00  0.00000000000E+00  0.45593999997E+02  0.45594000000E+02  0.51100000000E-03 0. -1.
         11   -1    0    0    0    0 -0.00000000000E+00 -0.00000000000E+00 -0.45593999997E+02  0.45594000000E+02  0.51100000000E-03 0.  1.
    9900012    2    1    2    0    0  0.40176477304E+02 -0.90530914023E+01 -0.18248444203E+02  0.46142317539E+02  0.99999979791E+01 0.  0.
        -12    1    1    2    0    0 -0.40176477304E+02  0.90530914023E+01  0.18248444203E+02  0.45045682461E+02  0.00000000000E+00 0.  1.
         11    1    3    3    0    0  0.15298423216E+02 -0.34461344899E+01 -0.63339850799E+01  0.16912627326E+02  0.51100000000E-03 0. -1.
        -11    1    3    3    0    0  0.23962169886E+02 -0.69211240585E+01 -0.11882471463E+02  0.27627534675E+02  0.51100000000E-03 0.  1.
        -12    1    3    3    0    0  0.91588420191E+00  0.13141671460E+01 -0.31987660104E-01  0.16021555384E+01  0.00000000000E+00 0.  1.
</event>
<event>
 7    1  0.1541705E-008  0.4614232E+02  0.7816164E-02  0.1320468E+00
        -11   -1    0    0    0    0  0.00000000000E+00  0.00000000000E+00  0.45593999997E+02  0.45594000000E+02  0.51100000000E-03 0.  1.
         11   -1    0    0    0    0 -0.00000000000E+00 -0.00000000000E+00 -0.45593999997E+02  0.45594000000E+02  0.51100000000E-03 0. -1.
    9900012    2    1    2    0    0  0.11645038380E+02  0.31179567376E+02 -0.30353602928E+02  0.46142317063E+02  0.99999936296E+01 0.  0.
        -12    1    1    2    0    0 -0.11645038380E+02 -0.31179567376E+02  0.30353602928E+02  0.45045682937E+02  0.00000000000E+00 0.  1.
         11    1    3    3    0    0  0.77393167468E+01  0.19791151317E+02 -0.17474959357E+02  0.27512922400E+02  0.51100000000E-03 0. -1.
        -11    1    3    3    0    0  0.29564466954E+00 -0.72268754998E+00 -0.11346321009E+01  0.13773428517E+01  0.51100000000E-03 0.  1.
        -12    1    3    3    0    0  0.36100769634E+01  0.12111103609E+02 -0.11744011469E+02  0.17252051811E+02  0.00000000000E+00 0.  1.
</event>
<event>
 7    1  0.1541705E-008  0.4614232E+02  0.7816164E-02  0.1320468E+00
        -11   -1    0    0    0    0  0.00000000000E+00  0.00000000000E+00  0.45593999997E+02  0.45594000000E+02  0.51100000000E-03 0.  1.
         11   -1    0    0    0    0 -0.00000000000E+00 -0.00000000000E+00 -0.45593999997E+02  0.45594000000E+02  0.51100000000E-03 0. -1.
    9900012    2    1    2    0    0 -0.82113161676E+01 -0.42317901918E+02 -0.13072220356E+02  0.46142317843E+02  0.10000000745E+02 0.  0.
        -12    1    1    2    0    0  0.82113161676E+01  0.42317901918E+02  0.13072220356E+02  0.45045682157E+02  0.00000000000E+00 0.  1.
         11    1    3    3    0    0  0.15949362395E+01 -0.58803411289E+01 -0.17938827687E+01  0.63513974092E+01  0.51100000000E-03 0.  1.
        -11    1    3    3    0    0 -0.34512450445E+01 -0.23394108552E+02 -0.67661676753E+01  0.24596268672E+02  0.51100000000E-03 0. -1.
         12    1    3    3    0    0 -0.63550073627E+01 -0.13043452237E+02 -0.45121699125E+01  0.15194651762E+02  0.00000000000E+00 0. -1.
</event>
<event>
 7    1  0.1541705E-008  0.4614232E+02  0.7816164E-02  0.1320468E+00
        -11   -1    0    0    0    0  0.00000000000E+00  0.00000000000E+00  0.45593999997E+02  0.45594000000E+02  0.51100000000E-03 0. -1.
         11   -1    0    0    0    0 -0.00000000000E+00 -0.00000000000E+00 -0.45593999997E+02  0.45594000000E+02  0.51100000000E-03 0.  1.
    9900012    2    1    2    0    0  0.23328663703E+02  0.76761783456E+01  0.37761931200E+02  0.46142315277E+02  0.99999773503E+01 0.  0.
        -12    1    1    2    0    0 -0.23328663703E+02 -0.76761783456E+01 -0.37761931200E+02  0.45045684723E+02  0.00000000000E+00 0.  1.
         11    1    3    3    0    0  0.13640233963E+02  0.41630165707E+01  0.26919693631E+02  0.30464021320E+02  0.51100000000E-03 0. -1.
        -11    1    3    3    0    0  0.48176698623E+01 -0.49887741024E+00  0.60758479699E+01  0.77701190716E+01  0.51100000000E-03 0.  1.
         12    1    3    3    0    0  0.48707598777E+01  0.40120391851E+01  0.47663895993E+01  0.79081748856E+01  0.00000000000E+00 0. -1.
</event>
<event>
 7    1  0.1541705E-008  0.4614232E+02  0.7816164E-02  0.1320468E+00
        -11   -1    0    0    0    0  0.00000000000E+00  0.00000000000E+00  0.45593999997E+02  0.45594000000E+02  0.51100000000E-03 0.  1.
         11   -1    0    0    0    0 -0.00000000000E+00 -0.00000000000E+00 -0.45593999997E+02  0.45594000000E+02  0.51100000000E-03 0. -1.
    9900012    2    1    2    0    0 -0.16818124324E+02  0.52928231362E+01 -0.41451781306E+02  0.46142318121E+02  0.10000003284E+02 0.  0.
        -12    1    1    2    0    0  0.16818124324E+02 -0.52928231362E+01  0.41451781306E+02  0.45045681879E+02  0.00000000000E+00 0.  1.
         11    1    3    3    0    0  0.64696362420E+00 -0.71459586968E-01 -0.67044748106E+00  0.93443485037E+00  0.51100000000E-03 0. -1.
        -11    1    3    3    0    0  0.31085093506E+00  0.71740029922E+00 -0.48385258936E+00  0.91945912498E+00  0.51100000000E-03 0.  1.
         12    1    3    3    0    0 -0.17775938883E+02  0.46468824239E+01 -0.40297481235E+02  0.44288424146E+02  0.00000000000E+00 0. -1.
</event>
<event>
 7    1  0.1541705E-008  0.4614232E+02  0.7816164E-02  0.1320468E+00
        -11   -1    0    0    0    0  0.00000000000E+00  0.00000000000E+00  0.45593999997E+02  0.45594000000E+02  0.51100000000E-03 0. -1.
         11   -1    0    0    0    0 -0.00000000000E+00 -0.00000000000E+00 -0.45593999997E+02  0.45594000000E+02  0.51100000000E-03 0.  1.
    9900012    2    1    2    0    0  0.93789053337E+00 -0.16897518639E+01  0.45004205387E+02  0.46142318714E+02  0.10000008686E+02 0.  0.
        -12    1    1    2    0    0 -0.93789053337E+00  0.16897518639E+01 -0.45004205387E+02  0.45045681286E+02  0.00000000000E+00 0.  1.
         11    1    3    3    0    0  0.13674976862E+01  0.13374305884E+01  0.26371370036E+02  0.26440649166E+02  0.51100000000E-03 0. -1.
        -11    1    3    3    0    0 -0.26646880036E+01 -0.30787221798E+01  0.10341604007E+02  0.11114309071E+02  0.51100000000E-03 0.  1.
         12    1    3    3    0    0  0.22350808507E+01  0.51539727556E-01  0.82912313440E+01  0.85873604765E+01  0.00000000000E+00 0. -1.
</event>
<event>
 7    1  0.1541705E-008  0.4614232E+02  0.7816164E-02  0.1320468E+00
        -11   -1    0    0    0    0  0.00000000000E+00  0.00000000000E+00  0.45593999997E+02  0.45594000000E+02  0.51100000000E-03 0.  1.
         11   -1    0    0    0    0 -0.00000000000E+00 -0.00000000000E+00 -0.45593999997E+02  0.45594000000E+02  0.51100000000E-03 0. -1.
    9900012    2    1    2    0    0 -0.17629702734E+02 -0.39080770023E+02 -0.13820290364E+02  0.46142318411E+02  0.10000005929E+02 0.  0.
        -12    1    1    2    0    0  0.17629702734E+02  0.39080770023E+02  0.13820290364E+02  0.45045681589E+02  0.00000000000E+00 0.  1.
         11    1    3    3    0    0 -0.87358696001E+01 -0.17516878784E+02 -0.53575944937E+01  0.20294341059E+02  0.51100000000E-03 0. -1.
        -11    1    3    3    0    0 -0.32559277392E+01 -0.65691587805E+01  0.74696141051E+00  0.73697261914E+01  0.51100000000E-03 0.  1.
         12    1    3    3    0    0 -0.56379053943E+01 -0.14994732459E+02 -0.92096572807E+01  0.18478251161E+02  0.00000000000E+00 0. -1.
</event>
<event>
 7    1  0.1541705E-008  0.4614232E+02  0.7816164E-02  0.1320468E+00
        -11   -1    0    0    0    0  0.00000000000E+00  0.00000000000E+00  0.45593999997E+02  0.45594000000E+02  0.51100000000E-03 0.  1.
         11   -1    0    0    0    0 -0.00000000000E+00 -0.00000000000E+00 -0.45593999997E+02  0.45594000000E+02  0.51100000000E-03 0. -1.
    9900012    2    1    2    0    0 -0.19451400225E+02 -0.28031983878E+02 -0.29410277754E+02  0.46142317316E+02  0.99999959447E+01 0.  0.
        -12    1    1    2    0    0  0.19451400225E+02  0.28031983878E+02  0.29410277754E+02  0.45045682684E+02  0.00000000000E+00 0.  1.
         11    1    3    3    0    0 -0.11523760037E+02 -0.16543428363E+02 -0.17860403014E+02  0.26934662862E+02  0.51100000000E-03 0. -1.
        -11    1    3    3    0    0 -0.78860682800E+01 -0.82010432616E+01 -0.11089393543E+02  0.15887788799E+02  0.51100000000E-03 0.  1.
         12    1    3    3    0    0 -0.41571908023E-01 -0.32875122531E+01 -0.46048119666E+00  0.33198656555E+01  0.00000000000E+00 0. -1.
</event>
<event>
 7    1  0.1541705E-008  0.4614232E+02  0.7816164E-02  0.1320468E+00
        -11   -1    0    0    0    0  0.00000000000E+00  0.00000000000E+00  0.45593999997E+02  0.45594000000E+02  0.51100000000E-03 0.  1.
         11   -1    0    0    0    0 -0.00000000000E+00 -0.00000000000E+00 -0.45593999997E+02  0.45594000000E+02  0.51100000000E-03 0. -1.
    9900012    2    1    2    0    0  0.14485048673E+02  0.20513911971E+02 -0.37396207356E+02  0.46142317144E+02  0.99999943683E+01 0.  0.
        -12    1    1    2    0    0 -0.14485048673E+02 -0.20513911971E+02  0.37396207356E+02  0.45045682856E+02  0.00000000000E+00 0.  1.
         11    1    3    3    0    0 -0.85806807295E+00  0.41105819277E+01 -0.64390979014E+01  0.76873367720E+01  0.51100000000E-03 0. -1.
        -11    1    3    3    0    0  0.49580497710E+01  0.60031654085E+01 -0.77518913509E+01  0.10986904579E+02  0.51100000000E-03 0.  1.
         12    1    3    3    0    0  0.10385066974E+02  0.10400164635E+02 -0.23205218104E+02  0.27468075792E+02  0.00000000000E+00 0. -1.
</event>
<event>
 7    1  0.1541705E-008  0.4614232E+02  0.7816164E-02  0.1320468E+00
        -11   -1    0    0    0    0  0.00000000000E+00  0.00000000000E+00  0.45593999997E+02  0.45594000000E+02  0.51100000000E-03 0. -1.
         11   -1    0    0    0    0 -0.00000000000E+00 -0.00000000000E+00 -0.45593999997E+02  0.45594000000E+02  0.51100000000E-03 0.  1.
    9900012    2    1    2    0    0 -0.23255756702E+02  0.37805539264E+02  0.76827273854E+01  0.46142319643E+02  0.10000017156E+02 0.  0.
        -12    1    1    2    0    0  0.23255756702E+02 -0.37805539264E+02 -0.76827273854E+01  0.45045680357E+02  0.00000000000E+00 0.  1.
         11    1    3    3    0    0 -0.75975489751E+01  0.11760497253E+02  0.58305680231E+01  0.15166659810E+02  0.51100000000E-03 0. -1.
        -11    1    3    3    0    0 -0.11138860849E+02  0.13996401607E+02  0.26479740894E+01  0.18082733367E+02  0.51100000000E-03 0.  1.
         12    1    3    3    0    0 -0.45193468774E+01  0.12048640403E+02 -0.79581472703E+00  0.12892926466E+02  0.00000000000E+00 0. -1.
</event>
<event>
 7    1  0.1541705E-008  0.4614232E+02  0.7816164E-02  0.1320468E+00
        -11   -1    0    0    0    0  0.00000000000E+00  0.00000000000E+00  0.45593999997E+02  0.45594000000E+02  0.51100000000E-03 0. -1.
         11   -1    0    0    0    0 -0.00000000000E+00 -0.00000000000E+00 -0.45593999997E+02  0.45594000000E+02  0.51100000000E-03 0.  1.
    9900012    2    1    2    0    0 -0.12440350386E+02  0.91098535781E+01  0.42324482312E+02  0.46142317045E+02  0.99999934693E+01 0.  0.
        -12    1    1    2    0    0  0.12440350386E+02 -0.91098535781E+01 -0.42324482312E+02  0.45045682955E+02  0.00000000000E+00 0.  1.
         11    1    3    3    0    0 -0.69102276701E+01  0.48420205266E+01  0.15238844895E+02  0.17418920840E+02  0.51100000000E-03 0. -1.
        -11    1    3    3    0    0 -0.24957640521E+01 -0.10661185462E+01  0.39836969537E+01  0.48202996420E+01  0.51100000000E-03 0.  1.
         12    1    3    3    0    0 -0.30343586639E+01  0.53339515977E+01  0.23101940463E+02  0.23903096563E+02  0.00000000000E+00 0. -1.
</event>
<event>
 7    1  0.1541705E-008  0.4614232E+02  0.7816164E-02  0.1320468E+00
        -11   -1    0    0    0    0  0.00000000000E+00  0.00000000000E+00  0.45593999997E+02  0.45594000000E+02  0.51100000000E-03 0.  1.
         11   -1    0    0    0    0 -0.00000000000E+00 -0.00000000000E+00 -0.45593999997E+02  0.45594000000E+02  0.51100000000E-03 0. -1.
    9900012    2    1    2    0    0  0.30821550485E+02 -0.32825739361E+02 -0.12713188497E+01  0.46142318847E+02  0.10000009903E+02 0.  0.
        -12    1    1    2    0    0 -0.30821550485E+02  0.32825739361E+02  0.12713188497E+01  0.45045681153E+02  0.00000000000E+00 0.  1.
         11    1    3    3    0    0  0.25670388686E+01 -0.61891346064E+01  0.17195664822E+01  0.69175129112E+01  0.51100000000E-03 0. -1.
        -11    1    3    3    0    0  0.97694421390E+01 -0.62813307109E+01 -0.89110514460E+00  0.11648655882E+02  0.51100000000E-03 0.  1.
         12    1    3    3    0    0  0.18485069478E+02 -0.20355274044E+02 -0.20997801873E+01  0.27576150054E+02  0.00000000000E+00 0. -1.
</event>
<event>
 7    1  0.1541705E-008  0.4614232E+02  0.7816164E-02  0.1320468E+00
        -11   -1    0    0    0    0  0.00000000000E+00  0.00000000000E+00  0.45593999997E+02  0.45594000000E+02  0.51100000000E-03 0. -1.
         11   -1    0    0    0    0 -0.00000000000E+00 -0.00000000000E+00 -0.45593999997E+02  0.45594000000E+02  0.51100000000E-03 0.  1.
    9900012    2    1    2    0    0 -0.24734567333E+02 -0.36822583759E+02  0.78365773951E+01  0.46142318286E+02  0.10000004784E+02 0.  0.
        -12    1    1    2    0    0  0.24734567333E+02  0.36822583759E+02 -0.78365773951E+01  0.45045681714E+02  0.00000000000E+00 0.  1.
         11    1    3    3    0    0 -0.19750448600E+02 -0.31638620822E+02  0.31395704063E+01  0.37429125692E+02  0.51100000000E-03 0. -1.
        -11    1    3    3    0    0 -0.24871525377E+01 -0.35934819867E+01  0.29994871271E+01  0.53005625948E+01  0.51100000000E-03 0.  1.
         12    1    3    3    0    0 -0.24969661948E+01 -0.15904809503E+01  0.16975198617E+01  0.34126299993E+01  0.00000000000E+00 0. -1.
</event>
<event>
 7    1  0.1541705E-008  0.4614232E+02  0.7816164E-02  0.1320468E+00
        -11   -1    0    0    0    0  0.00000000000E+00  0.00000000000E+00  0.45593999997E+02  0.45594000000E+02  0.51100000000E-03 0. -1.
         11   -1    0    0    0    0 -0.00000000000E+00 -0.00000000000E+00 -0.45593999997E+02  0.45594000000E+02  0.51100000000E-03 0.  1.
    9900012    2    1    2    0    0 -0.12302102982E+02 -0.39544658752E+02  0.17719813101E+02  0.46142317077E+02  0.99999937653E+01 0.  0.
        -12    1    1    2    0    0  0.12302102982E+02  0.39544658752E+02 -0.17719813101E+02  0.45045682923E+02  0.00000000000E+00 0.  1.
         11    1    3    3    0    0 -0.11070384424E+02 -0.21583902998E+02  0.94833657382E+01  0.26045201207E+02  0.51100000000E-03 0. -1.
        -11    1    3    3    0    0 -0.25575686378E+00 -0.31631725655E+01  0.84782580042E-01  0.31746276316E+01  0.51100000000E-03 0.  1.
         12    1    3    3    0    0 -0.97596169425E+00 -0.14797583189E+02  0.81516647830E+01  0.16922488239E+02  0.00000000000E+00 0. -1.
</event>
<event>
 7    1  0.1541705E-008  0.4614232E+02  0.7816164E-02  0.1320468E+00
        -11   -1    0    0    0    0  0.00000000000E+00  0.00000000000E+00  0.45593999997E+02  0.45594000000E+02  0.51100000000E-03 0.  1.
         11   -1    0    0    0    0 -0.00000000000E+00 -0.00000000000E+00 -0.45593999997E+02  0.45594000000E+02  0.51100000000E-03 0. -1.
    9900012    2    1    2    0    0  0.54506434143E+01 -0.25027104896E+01 -0.44644600880E+02  0.46142318063E+02  0.10000002750E+02 0.  0.
        -12    1    1    2    0    0 -0.54506434143E+01  0.25027104896E+01  0.44644600880E+02  0.45045681937E+02  0.00000000000E+00 0.  1.
         11    1    3    3    0    0  0.26104015681E+01  0.14041473075E+01 -0.22167776656E+02  0.22365065351E+02  0.51100000000E-03 0. -1.
        -11    1    3    3    0    0  0.36517769788E+01 -0.50649667951E+01 -0.19618750715E+02  0.20588461419E+02  0.51100000000E-03 0.  1.
        -12    1    3    3    0    0 -0.81153513257E+00  0.11581089980E+01 -0.28580735091E+01  0.31887912923E+01  0.00000000000E+00 0.  1.
</event>
<event>
 7    1  0.1541705E-008  0.4614232E+02  0.7816164E-02  0.1320468E+00
        -11   -1    0    0    0    0  0.00000000000E+00  0.00000000000E+00  0.45593999997E+02  0.45594000000E+02  0.51100000000E-03 0.  1.
         11   -1    0    0    0    0 -0.00000000000E+00 -0.00000000000E+00 -0.45593999997E+02  0.45594000000E+02  0.51100000000E-03 0. -1.
    9900012    2    1    2    0    0  0.15808991933E+02  0.34500433766E+02 -0.24267454305E+02  0.46142317694E+02  0.99999993875E+01 0.  0.
        -12    1    1    2    0    0 -0.15808991933E+02 -0.34500433766E+02  0.24267454305E+02  0.45045682306E+02  0.00000000000E+00 0.  1.
         11    1    3    3    0    0  0.50501904474E+01  0.90987865004E+01 -0.11833332049E+02  0.15758175243E+02  0.51100000000E-03 0. -1.
        -11    1    3    3    0    0  0.76504979316E+01  0.19773825924E+02 -0.84721790177E+01  0.22832260682E+02  0.51100000000E-03 0.  1.
        -12    1    3    3    0    0  0.31083035539E+01  0.56278213417E+01 -0.39619432380E+01  0.75518817693E+01  0.00000000000E+00 0.  1.
</event>
<event>
 7    1  0.1541705E-008  0.4614232E+02  0.7816164E-02  0.1320468E+00
        -11   -1    0    0    0    0  0.00000000000E+00  0.00000000000E+00  0.45593999997E+02  0.45594000000E+02  0.51100000000E-03 0.  1.
         11   -1    0    0    0    0 -0.00000000000E+00 -0.00000000000E+00 -0.45593999997E+02  0.45594000000E+02  0.51100000000E-03 0. -1.
    9900012    2    1    2    0    0 -0.30086418282E+02  0.23611135621E+00 -0.33524097951E+02  0.46142318109E+02  0.10000003175E+02 0.  0.
        -12    1    1    2    0    0  0.30086418282E+02 -0.23611135621E+00  0.33524097951E+02  0.45045681891E+02  0.00000000000E+00 0.  1.
         11    1    3    3    0    0 -0.25081495666E+02 -0.53837987039E+00 -0.24226978310E+02  0.34875747390E+02  0.51100000000E-03 0. -1.
        -11    1    3    3    0    0 -0.27483529978E+01 -0.45519213750E+00 -0.78223543087E+01  0.83036059200E+01  0.51100000000E-03 0.  1.
        -12    1    3    3    0    0 -0.22565696183E+01  0.12296833641E+01 -0.14747653323E+01  0.29629647995E+01  0.00000000000E+00 0.  1.
</event>
<event>
 7    1  0.1541705E-008  0.4614232E+02  0.7816164E-02  0.1320468E+00
        -11   -1    0    0    0    0  0.00000000000E+00  0.00000000000E+00  0.45593999997E+02  0.45594000000E+02  0.51100000000E-03 0. -1.
         11   -1    0    0    0    0 -0.00000000000E+00 -0.00000000000E+00 -0.45593999997E+02  0.45594000000E+02  0.51100000000E-03 0.  1.
    9900012    2    1    2    0    0  0.50715643933E-01 -0.44951535654E+02 -0.29103590215E+01  0.46142319637E+02  0.10000017108E+02 0.  0.
        -12    1    1    2    0    0 -0.50715643933E-01  0.44951535654E+02  0.29103590215E+01  0.45045680363E+02  0.00000000000E+00 0.  1.
         11    1    3    3    0    0  0.10505465421E+01 -0.26813474514E+02 -0.21264423924E+01  0.26918168977E+02  0.51100000000E-03 0. -1.
        -11    1    3    3    0    0  0.15241792623E+00 -0.24842675867E+00 -0.12578581514E+01  0.12911833599E+01  0.51100000000E-03 0.  1.
        -12    1    3    3    0    0 -0.11522488244E+01 -0.17889634381E+02  0.47394152223E+00  0.17932967300E+02  0.00000000000E+00 0.  1.
</event>
<event>
 7    1  0.1541705E-008  0.4614232E+02  0.7816164E-02  0.1320468E+00
        -11   -1    0    0    0    0  0.00000000000E+00  0.00000000000E+00  0.45593999997E+02  0.45594000000E+02  0.51100000000E-03 0.  1.
         11   -1    0    0    0    0 -0.00000000000E+00 -0.00000000000E+00 -0.45593999997E+02  0.45594000000E+02  0.51100000000E-03 0. -1.
    9900012    2    1    2    0    0  0.70355845253E+01 -0.44160184688E+02  0.54306619990E+01  0.46142318175E+02  0.10000003775E+02 0.  0.
        -12    1    1    2    0    0 -0.70355845253E+01  0.44160184688E+02 -0.54306619990E+01  0.45045681825E+02  0.00000000000E+00 0.  1.
         11    1    3    3    0    0  0.73184853709E+01 -0.21855094920E+02  0.42173564817E+01  0.23430567600E+02  0.51100000000E-03 0. -1.
        -11    1    3    3    0    0 -0.11328280154E+01 -0.15199831823E+02  0.24864514810E+01  0.15443465543E+02  0.51100000000E-03 0.  1.
        -12    1    3    3    0    0  0.84992716979E+00 -0.71052579457E+01 -0.12731459637E+01  0.72682850325E+01  0.00000000000E+00 0.  1.
</event>
<event>
 7    1  0.1541705E-008  0.4614233E+02  0.7816164E-02  0.1320468E+00
        -11   -1    0    0    0    0  0.00000000000E+00  0.00000000000E+00  0.45593999997E+02  0.45594000000E+02  0.51100000000E-03 0. -1.
         11   -1    0    0    0    0 -0.00000000000E+00 -0.00000000000E+00 -0.45593999997E+02  0.45594000000E+02  0.51100000000E-03 0.  1.
    9900012    2    1    2    0    0 -0.18376022527E+01  0.17119048140E+02  0.41625393943E+02  0.46142334147E+02  0.10000149418E+02 0.  0.
        -12    1    1    2    0    0  0.18376022527E+01 -0.17119048140E+02 -0.41625393943E+02  0.45045665853E+02  0.00000000000E+00 0.  1.
         11    1    3    3    0    0 -0.21058991338E+01  0.62821877055E+01  0.14289319212E+02  0.15750724978E+02  0.51100000000E-03 0. -1.
        -11    1    3    3    0    0  0.11969957422E+01  0.11812634916E+02  0.23564304641E+02  0.26386504050E+02  0.51100000000E-03 0.  1.
        -12    1    3    3    0    0 -0.92869886112E+00 -0.97577448099E+00  0.37717700895E+01  0.40051051198E+01  0.00000000000E+00 0.  1.
</event>
<event>
 7    1  0.1541705E-008  0.4614232E+02  0.7816164E-02  0.1320468E+00
        -11   -1    0    0    0    0  0.00000000000E+00  0.00000000000E+00  0.45593999997E+02  0.45594000000E+02  0.51100000000E-03 0.  1.
         11   -1    0    0    0    0 -0.00000000000E+00 -0.00000000000E+00 -0.45593999997E+02  0.45594000000E+02  0.51100000000E-03 0. -1.
    9900012    2    1    2    0    0 -0.19115076464E+02 -0.13229881376E+02 -0.38583643838E+02  0.46142317840E+02  0.10000000718E+02 0.  0.
        -12    1    1    2    0    0  0.19115076464E+02  0.13229881376E+02  0.38583643838E+02  0.45045682160E+02  0.00000000000E+00 0.  1.
         11    1    3    3    0    0 -0.60380671872E+01 -0.52365518350E+01 -0.10572506710E+02  0.13253589282E+02  0.51100000000E-03 0. -1.
        -11    1    3    3    0    0 -0.71634734967E+01 -0.87049796803E+01 -0.18712054128E+02  0.21845663042E+02  0.51100000000E-03 0.  1.
        -12    1    3    3    0    0 -0.59135357805E+01  0.71165013886E+00 -0.92990829997E+01  0.11043065516E+02  0.00000000000E+00 0.  1.
</event>
<event>
 7    1  0.1541705E-008  0.4614232E+02  0.7816164E-02  0.1320468E+00
        -11   -1    0    0    0    0  0.00000000000E+00  0.00000000000E+00  0.45593999997E+02  0.45594000000E+02  0.51100000000E-03 0.  1.
         11   -1    0    0    0    0 -0.00000000000E+00 -0.00000000000E+00 -0.45593999997E+02  0.45594000000E+02  0.51100000000E-03 0. -1.
    9900012    2    1    2    0    0  0.88608851140E+01  0.34765908435E+02 -0.27238388426E+02  0.46142317872E+02  0.10000001012E+02 0.  0.
        -12    1    1    2    0    0 -0.88608851140E+01 -0.34765908435E+02  0.27238388426E+02  0.45045682128E+02  0.00000000000E+00 0.  1.
         11    1    3    3    0    0  0.64251600807E+01  0.11190080234E+02 -0.77084964004E+01  0.15030685105E+02  0.51100000000E-03 0.  1.
        -11    1    3    3    0    0  0.38074033282E+01  0.18209172902E+02 -0.13979157243E+02  0.23269876136E+02  0.51100000000E-03 0. -1.
        -12    1    3    3    0    0 -0.13716782949E+01  0.53666552993E+01 -0.55507347825E+01  0.78417566318E+01  0.00000000000E+00 0.  1.
</event>
<event>
 7    1  0.1541705E-008  0.4614232E+02  0.7816164E-02  0.1320468E+00
        -11   -1    0    0    0    0  0.00000000000E+00  0.00000000000E+00  0.45593999997E+02  0.45594000000E+02  0.51100000000E-03 0.  1.
         11   -1    0    0    0    0 -0.00000000000E+00 -0.00000000000E+00 -0.45593999997E+02  0.45594000000E+02  0.51100000000E-03 0. -1.
    9900012    2    1    2    0    0  0.24491463538E+02  0.16666923955E+02 -0.33933690912E+02  0.46142317418E+02  0.99999968751E+01 0.  0.
        -12    1    1    2    0    0 -0.24491463538E+02 -0.16666923955E+02  0.33933690912E+02  0.45045682582E+02  0.00000000000E+00 0.  1.
         11    1    3    3    0    0  0.10427935195E+02  0.45068572001E+01 -0.79507279116E+01  0.13866061764E+02  0.51100000000E-03 0. -1.
        -11    1    3    3    0    0  0.14005376728E+02  0.10692642603E+02 -0.24595329906E+02  0.30255800049E+02  0.51100000000E-03 0.  1.
         12    1    3    3    0    0  0.58151614390E-01  0.14674241516E+01 -0.13876330941E+01  0.20204556058E+01  0.00000000000E+00 0. -1.
</event>
<event>
 7    1  0.1541705E-008  0.4614232E+02  0.7816164E-02  0.1320468E+00
        -11   -1    0    0    0    0  0.00000000000E+00  0.00000000000E+00  0.45593999997E+02  0.45594000000E+02  0.51100000000E-03 0. -1.
         11   -1    0    0    0    0 -0.00000000000E+00 -0.00000000000E+00 -0.45593999997E+02  0.45594000000E+02  0.51100000000E-03 0.  1.
    9900012    2    1    2    0    0  0.41280779071E+01  0.42212854785E+02  0.15170596377E+02  0.46142321731E+02  0.10000036200E+02 0.  0.
        -12    1    1    2    0    0 -0.41280779071E+01 -0.42212854785E+02 -0.15170596377E+02  0.45045678269E+02  0.00000000000E+00 0.  1.
         11    1    3    3    0    0  0.25082929719E+01  0.97298995171E+01  0.71378426172E+01  0.12325229237E+02  0.51100000000E-03 0. -1.
        -11    1    3    3    0    0  0.89662304819E+00  0.16422599904E+01 -0.21769182952E+00  0.18837040002E+01  0.51100000000E-03 0.  1.
         12    1    3    3    0    0  0.72316188701E+00  0.30840695277E+02  0.82504455890E+01  0.31933388494E+02  0.00000000000E+00 0. -1.
</event>
<event>
 7    1  0.1541705E-008  0.4614232E+02  0.7816164E-02  0.1320468E+00
        -11   -1    0    0    0    0  0.00000000000E+00  0.00000000000E+00  0.45593999997E+02  0.45594000000E+02  0.51100000000E-03 0.  1.
         11   -1    0    0    0    0 -0.00000000000E+00 -0.00000000000E+00 -0.45593999997E+02  0.45594000000E+02  0.51100000000E-03 0. -1.
    9900012    2    1    2    0    0 -0.12811823176E+02  0.49313571084E+01 -0.42902824910E+02  0.46142317840E+02  0.10000000717E+02 0.  0.
        -12    1    1    2    0    0  0.12811823176E+02 -0.49313571084E+01  0.42902824910E+02  0.45045682160E+02  0.00000000000E+00 0.  1.
         11    1    3    3    0    0 -0.19077553849E+01  0.32497020325E+01 -0.20378975780E+02  0.20724448075E+02  0.51100000000E-03 0. -1.
        -11    1    3    3    0    0 -0.68582722868E+01  0.63225037602E+00 -0.94593852590E+01  0.11701094352E+02  0.51100000000E-03 0.  1.
         12    1    3    3    0    0 -0.40457955039E+01  0.10494046999E+01 -0.13064463871E+02  0.13716775412E+02  0.00000000000E+00 0. -1.
</event>
<event>
 7    1  0.1541705E-008  0.4614232E+02  0.7816164E-02  0.1320468E+00
        -11   -1    0    0    0    0  0.00000000000E+00  0.00000000000E+00  0.45593999997E+02  0.45594000000E+02  0.51100000000E-03 0.  1.
         11   -1    0    0    0    0 -0.00000000000E+00 -0.00000000000E+00 -0.45593999997E+02  0.45594000000E+02  0.51100000000E-03 0. -1.
    9900012    2    1    2    0    0 -0.20692976040E+02  0.39814531678E+02 -0.39645075663E+01  0.46142317517E+02  0.99999977706E+01 0.  0.
        -12    1    1    2    0    0  0.20692976040E+02 -0.39814531678E+02  0.39645075663E+01  0.45045682483E+02  0.00000000000E+00 0.  1.
         11    1    3    3    0    0 -0.13327536125E+01  0.60976893076E+01  0.19828900613E+00  0.62447870960E+01  0.51100000000E-03 0. -1.
        -11    1    3    3    0    0 -0.33389371598E+01  0.12366193657E+02  0.40901116207E+00  0.12815558409E+02  0.51100000000E-03 0.  1.
        -12    1    3    3    0    0 -0.16021285267E+02  0.21350648713E+02 -0.45718077345E+01  0.27081972012E+02  0.00000000000E+00 0.  1.
</event>
<event>
 7    1  0.1541705E-008  0.4614232E+02  0.7816164E-02  0.1320468E+00
        -11   -1    0    0    0    0  0.00000000000E+00  0.00000000000E+00  0.45593999997E+02  0.45594000000E+02  0.51100000000E-03 0. -1.
         11   -1    0    0    0    0 -0.00000000000E+00 -0.00000000000E+00 -0.45593999997E+02  0.45594000000E+02  0.51100000000E-03 0.  1.
    9900012    2    1    2    0    0  0.13776423677E+01 -0.42961130087E+02  0.13474305472E+02  0.46142317579E+02  0.99999983384E+01 0.  0.
        -12    1    1    2    0    0 -0.13776423677E+01  0.42961130087E+02 -0.13474305472E+02  0.45045682421E+02  0.00000000000E+00 0.  1.
         11    1    3    3    0    0 -0.13656096181E+00 -0.28571581210E+02  0.82895644890E+01  0.29750139183E+02  0.51100000000E-03 0. -1.
        -11    1    3    3    0    0  0.32250364560E+01 -0.52425898226E+01  0.12083408453E+01  0.62726147698E+01  0.51100000000E-03 0.  1.
        -12    1    3    3    0    0 -0.17108331265E+01 -0.91469590546E+01  0.39764001376E+01  0.10119563626E+02  0.00000000000E+00 0.  1.
</event>
<event>
 7    1  0.1541705E-008  0.4614232E+02  0.7816164E-02  0.1320468E+00
        -11   -1    0    0    0    0  0.00000000000E+00  0.00000000000E+00  0.45593999997E+02  0.45594000000E+02  0.51100000000E-03 0.  1.
         11   -1    0    0    0    0 -0.00000000000E+00 -0.00000000000E+00 -0.45593999997E+02  0.45594000000E+02  0.51100000000E-03 0. -1.
    9900012    2    1    2    0    0 -0.26694895260E+02 -0.31370846569E+02  0.18230907555E+02  0.46142318324E+02  0.10000005129E+02 0.  0.
        -12    1    1    2    0    0  0.26694895260E+02  0.31370846569E+02 -0.18230907555E+02  0.45045681676E+02  0.00000000000E+00 0.  1.
         11    1    3    3    0    0 -0.16851163329E+02 -0.25550676773E+02  0.14494720447E+02  0.33865848730E+02  0.51100000000E-03 0. -1.
        -11    1    3    3    0    0 -0.65714036292E+01 -0.27657289133E+01  0.30210893973E+01  0.77433573783E+01  0.51100000000E-03 0.  1.
        -12    1    3    3    0    0 -0.32723283016E+01 -0.30544408829E+01  0.71509771066E+00  0.45331122153E+01  0.00000000000E+00 0.  1.
</event>
<event>
 7    1  0.1541705E-008  0.4614232E+02  0.7816164E-02  0.1320468E+00
        -11   -1    0    0    0    0  0.00000000000E+00  0.00000000000E+00  0.45593999997E+02  0.45594000000E+02  0.51100000000E-03 0.  1.
         11   -1    0    0    0    0 -0.00000000000E+00 -0.00000000000E+00 -0.45593999997E+02  0.45594000000E+02  0.51100000000E-03 0. -1.
    9900012    2    1    2    0    0  0.13100448550E+02 -0.16681438388E+02 -0.39739418311E+02  0.46142317559E+02  0.99999981589E+01 0.  0.
        -12    1    1    2    0    0 -0.13100448550E+02  0.16681438388E+02  0.39739418311E+02  0.45045682441E+02  0.00000000000E+00 0.  1.
         11    1    3    3    0    0  0.97692817780E+01 -0.13040614180E+02 -0.29851775557E+02  0.34009189770E+02  0.51100000000E-03 0. -1.
        -11    1    3    3    0    0  0.10891463594E+01 -0.32255677189E+01 -0.91078086164E+01  0.97233073054E+01  0.51100000000E-03 0.  1.
         12    1    3    3    0    0  0.22420204126E+01 -0.41525648920E+00 -0.77983413693E+00  0.24098204837E+01  0.00000000000E+00 0. -1.
</event>
<event>
 7    1  0.1541705E-008  0.4614232E+02  0.7816164E-02  0.1320468E+00
        -11   -1    0    0    0    0  0.00000000000E+00  0.00000000000E+00  0.45593999997E+02  0.45594000000E+02  0.51100000000E-03 0.  1.
         11   -1    0    0    0    0 -0.00000000000E+00 -0.00000000000E+00 -0.45593999997E+02  0.45594000000E+02  0.51100000000E-03 0. -1.
    9900012    2    1    2    0    0 -0.23427667229E+02  0.38166424020E+02 -0.48561115478E+01  0.46142319478E+02  0.10000015660E+02 0.  0.
        -12    1    1    2    0    0  0.23427667229E+02 -0.38166424020E+02  0.48561115478E+01  0.45045680522E+02  0.00000000000E+00 0.  1.
         11    1    3    3    0    0 -0.74409098459E+01  0.90674835884E+01  0.33273460487E+00  0.11734441211E+02  0.51100000000E-03 0. -1.
        -11    1    3    3    0    0 -0.93787685281E+01  0.20985422172E+02 -0.63142867797E+00  0.22994519896E+02  0.51100000000E-03 0.  1.
        -12    1    3    3    0    0 -0.66079888551E+01  0.81135182601E+01 -0.45574174747E+01  0.11413358371E+02  0.00000000000E+00 0.  1.
</event>
<event>
 7    1  0.1541705E-008  0.4614232E+02  0.7816164E-02  0.1320468E+00
        -11   -1    0    0    0    0  0.00000000000E+00  0.00000000000E+00  0.45593999997E+02  0.45594000000E+02  0.51100000000E-03 0.  1.
         11   -1    0    0    0    0 -0.00000000000E+00 -0.00000000000E+00 -0.45593999997E+02  0.45594000000E+02  0.51100000000E-03 0. -1.
    9900012    2    1    2    0    0 -0.40053976545E+02 -0.43408353109E+01 -0.20148192644E+02  0.46142317020E+02  0.99999932444E+01 0.  0.
        -12    1    1    2    0    0  0.40053976545E+02  0.43408353109E+01  0.20148192644E+02  0.45045682980E+02  0.00000000000E+00 0.  1.
         11    1    3    3    0    0 -0.18683786911E+02  0.26381370889E+01 -0.81847801118E+01  0.20567797315E+02  0.51100000000E-03 0. -1.
        -11    1    3    3    0    0 -0.14524141307E+02 -0.48028254968E+01 -0.68759795772E+01  0.16771908326E+02  0.51100000000E-03 0.  1.
         12    1    3    3    0    0 -0.68460483268E+01 -0.21761469030E+01 -0.50874329552E+01  0.88026113802E+01  0.00000000000E+00 0. -1.
</event>
<event>
 7    1  0.1541705E-008  0.4614232E+02  0.7816164E-02  0.1320468E+00
        -11   -1    0    0    0    0  0.00000000000E+00  0.00000000000E+00  0.45593999997E+02  0.45594000000E+02  0.51100000000E-03 0. -1.
         11   -1    0    0    0    0 -0.00000000000E+00 -0.00000000000E+00 -0.45593999997E+02  0.45594000000E+02  0.51100000000E-03 0.  1.
    9900012    2    1    2    0    0  0.30350767726E+02  0.33282080825E+02  0.49733378740E+00  0.46142319336E+02  0.10000014363E+02 0.  0.
        -12    1    1    2    0    0 -0.30350767726E+02 -0.33282080825E+02 -0.49733378740E+00  0.45045680664E+02  0.00000000000E+00 0.  1.
         11    1    3    3    0    0  0.43491035045E+01  0.75205172139E+01  0.17088922678E+01  0.88539930823E+01  0.51100000000E-03 0. -1.
        -11    1    3    3    0    0  0.10202836788E+02  0.14843769124E+02  0.40093548487E+00  0.18016550998E+02  0.51100000000E-03 0.  1.
         12    1    3    3    0    0  0.15798827434E+02  0.10917794486E+02 -0.16124939653E+01  0.19271775256E+02  0.00000000000E+00 0. -1.
</event>
<event>
 7    1  0.1541705E-008  0.4614232E+02  0.7816164E-02  0.1320468E+00
        -11   -1    0    0    0    0  0.00000000000E+00  0.00000000000E+00  0.45593999997E+02  0.45594000000E+02  0.51100000000E-03 0.  1.
         11   -1    0    0    0    0 -0.00000000000E+00 -0.00000000000E+00 -0.45593999997E+02  0.45594000000E+02  0.51100000000E-03 0. -1.
    9900012    2    1    2    0    0 -0.86041266724E+01 -0.14583983191E+02 -0.41741944675E+02  0.46142317557E+02  0.99999981392E+01 0.  0.
        -12    1    1    2    0    0  0.86041266724E+01  0.14583983191E+02  0.41741944675E+02  0.45045682443E+02  0.00000000000E+00 0.  1.
         11    1    3    3    0    0 -0.22290769562E+01 -0.22991177579E+01 -0.18876384613E+02  0.19146086359E+02  0.51100000000E-03 0. -1.
        -11    1    3    3    0    0 -0.75688093586E-01 -0.27984982200E+01 -0.30372268756E+01  0.41306256584E+01  0.51100000000E-03 0.  1.
         12    1    3    3    0    0 -0.62993616226E+01 -0.94863672129E+01 -0.19828333186E+02  0.22865605539E+02  0.00000000000E+00 0. -1.
</event>
<event>
 7    1  0.1541705E-008  0.4614232E+02  0.7816164E-02  0.1320468E+00
        -11   -1    0    0    0    0  0.00000000000E+00  0.00000000000E+00  0.45593999997E+02  0.45594000000E+02  0.51100000000E-03 0.  1.
         11   -1    0    0    0    0 -0.00000000000E+00 -0.00000000000E+00 -0.45593999997E+02  0.45594000000E+02  0.51100000000E-03 0. -1.
    9900012    2    1    2    0    0 -0.47269301463E+01 -0.19442218126E+02 -0.40358019987E+02  0.46142317726E+02  0.99999996812E+01 0.  0.
        -12    1    1    2    0    0  0.47269301463E+01  0.19442218126E+02  0.40358019987E+02  0.45045682274E+02  0.00000000000E+00 0.  1.
         11    1    3    3    0    0 -0.34547848150E+01 -0.96405630633E+01 -0.20684698373E+02  0.23081003907E+02  0.51100000000E-03 0. -1.
        -11    1    3    3    0    0 -0.16816216873E+01 -0.26835649920E+01 -0.12697575143E+02  0.13086549864E+02  0.51100000000E-03 0.  1.
        -12    1    3    3    0    0  0.40947635606E+00 -0.71180900710E+01 -0.69757464698E+01  0.99747639549E+01  0.00000000000E+00 0.  1.
</event>
<event>
 7    1  0.1541705E-008  0.4614232E+02  0.7816164E-02  0.1320468E+00
        -11   -1    0    0    0    0  0.00000000000E+00  0.00000000000E+00  0.45593999997E+02  0.45594000000E+02  0.51100000000E-03 0. -1.
         11   -1    0    0    0    0 -0.00000000000E+00 -0.00000000000E+00 -0.45593999997E+02  0.45594000000E+02  0.51100000000E-03 0.  1.
    9900012    2    1    2    0    0 -0.23927132727E+02 -0.13268722354E+02  0.35784729181E+02  0.46142317454E+02  0.99999972018E+01 0.  0.
        -12    1    1    2    0    0  0.23927132727E+02  0.13268722354E+02 -0.35784729181E+02  0.45045682546E+02  0.00000000000E+00 0.  1.
         11    1    3    3    0    0 -0.54654878297E+00  0.13540605560E+00  0.53562102130E+00  0.77713609595E+00  0.51100000000E-03 0. -1.
        -11    1    3    3    0    0 -0.15663687078E+02 -0.13662339196E+02  0.24469192311E+02  0.32105326315E+02  0.51100000000E-03 0.  1.
        -12    1    3    3    0    0 -0.77168968663E+01  0.25821078699E+00  0.10779915849E+02  0.13259855043E+02  0.00000000000E+00 0.  1.
</event>
<event>
 7    1  0.1541705E-008  0.4614232E+02  0.7816164E-02  0.1320468E+00
        -11   -1    0    0    0    0  0.00000000000E+00  0.00000000000E+00  0.45593999997E+02  0.45594000000E+02  0.51100000000E-03 0.  1.
         11   -1    0    0    0    0 -0.00000000000E+00 -0.00000000000E+00 -0.45593999997E+02  0.45594000000E+02  0.51100000000E-03 0. -1.
    9900012    2    1    2    0    0 -0.32401201573E+02 -0.12167831624E+02  0.28830877214E+02  0.46142317957E+02  0.10000001785E+02 0.  0.
        -12    1    1    2    0    0  0.32401201573E+02  0.12167831624E+02 -0.28830877214E+02  0.45045682043E+02  0.00000000000E+00 0.  1.
         11    1    3    3    0    0 -0.19391113527E+02 -0.68531874672E+01  0.19810519238E+02  0.28555877416E+02  0.51100000000E-03 0. -1.
        -11    1    3    3    0    0 -0.16083721519E+01 -0.16654637355E+01  0.39646950500E+01  0.45912348594E+01  0.51100000000E-03 0.  1.
         12    1    3    3    0    0 -0.11401715894E+02 -0.36491804210E+01  0.50556629262E+01  0.12995205681E+02  0.00000000000E+00 0. -1.
</event>
<event>
 7    1  0.1541705E-008  0.4614232E+02  0.7816164E-02  0.1320468E+00
        -11   -1    0    0    0    0  0.00000000000E+00  0.00000000000E+00  0.45593999997E+02  0.45594000000E+02  0.51100000000E-03 0.  1.
         11   -1    0    0    0    0 -0.00000000000E+00 -0.00000000000E+00 -0.45593999997E+02  0.45594000000E+02  0.51100000000E-03 0. -1.
    9900012    2    1    2    0    0 -0.51753310119E+01  0.43665559267E+02 -0.97800026260E+01  0.46142316871E+02  0.99999918832E+01 0.  0.
        -12    1    1    2    0    0  0.51753310119E+01 -0.43665559267E+02  0.97800026260E+01  0.45045683129E+02  0.00000000000E+00 0.  1.
         11    1    3    3    0    0 -0.33084023247E+01  0.17832878074E+02 -0.31026512643E+01  0.18400638888E+02  0.51100000000E-03 0. -1.
        -11    1    3    3    0    0  0.23985248850E+01  0.54755184947E+01 -0.29436591644E+00  0.59850543827E+01  0.51100000000E-03 0.  1.
         12    1    3    3    0    0 -0.42654535722E+01  0.20357162698E+02 -0.63829854453E+01  0.21756623600E+02  0.00000000000E+00 0. -1.
</event>
<event>
 7    1  0.1723167E-008  0.4614232E+02  0.7816164E-02  0.1320468E+00
        -11   -1    0    0    0    0  0.00000000000E+00  0.00000000000E+00  0.45593999997E+02  0.45594000000E+02  0.51100000000E-03 0.  1.
         11   -1    0    0    0    0 -0.00000000000E+00 -0.00000000000E+00 -0.45593999997E+02  0.45594000000E+02  0.51100000000E-03 0. -1.
    9900012    2    1    2    0    0  0.24343310066E+02  0.33156722584E+02  0.18361594345E+02  0.46142321580E+02  0.10000034819E+02 0.  0.
        -12    1    1    2    0    0 -0.24343310066E+02 -0.33156722584E+02 -0.18361594345E+02  0.45045678420E+02  0.00000000000E+00 0.  1.
         11    1    3    3    0    0  0.18516876278E+02  0.27366092663E+02  0.18452231049E+02  0.37845244954E+02  0.51100000000E-03 0. -1.
        -11    1    3    3    0    0  0.22895628704E+01  0.29764921581E+01 -0.33866319214E+00  0.37704504669E+01  0.51100000000E-03 0.  1.
         12    1    3    3    0    0  0.35368709176E+01  0.28141377631E+01  0.24802648821E+00  0.45266261583E+01  0.00000000000E+00 0. -1.
</event>
<event>
 7    1  0.1541705E-008  0.4614231E+02  0.7816164E-02  0.1320468E+00
        -11   -1    0    0    0    0  0.00000000000E+00  0.00000000000E+00  0.45593999997E+02  0.45594000000E+02  0.51100000000E-03 0. -1.
         11   -1    0    0    0    0 -0.00000000000E+00 -0.00000000000E+00 -0.45593999997E+02  0.45594000000E+02  0.51100000000E-03 0.  1.
    9900012    2    1    2    0    0  0.13808376730E+02  0.26866011889E+02  0.33416467535E+02  0.46142310248E+02  0.99999314869E+01 0.  0.
        -12    1    1    2    0    0 -0.13808376730E+02 -0.26866011889E+02 -0.33416467535E+02  0.45045689752E+02  0.00000000000E+00 0.  1.
         11    1    3    3    0    0  0.10926406224E+02  0.13644547626E+02  0.14580844713E+02  0.22763151488E+02  0.51100000000E-03 0. -1.
        -11    1    3    3    0    0  0.19741341697E+01  0.12479880257E+02  0.16678160102E+02  0.20923805620E+02  0.51100000000E-03 0.  1.
         12    1    3    3    0    0  0.90783633701E+00  0.74158400545E+00  0.21574627198E+01  0.24553531395E+01  0.00000000000E+00 0. -1.
</event>
<event>
 7    1  0.1541705E-008  0.4614232E+02  0.7816164E-02  0.1320468E+00
        -11   -1    0    0    0    0  0.00000000000E+00  0.00000000000E+00  0.45593999997E+02  0.45594000000E+02  0.51100000000E-03 0.  1.
         11   -1    0    0    0    0 -0.00000000000E+00 -0.00000000000E+00 -0.45593999997E+02  0.45594000000E+02  0.51100000000E-03 0. -1.
    9900012    2    1    2    0    0  0.95899039614E+01 -0.34459055519E+01 -0.43877934207E+02  0.46142316152E+02  0.99999853266E+01 0.  0.
        -12    1    1    2    0    0 -0.95899039614E+01  0.34459055519E+01  0.43877934207E+02  0.45045683848E+02  0.00000000000E+00 0.  1.
         11    1    3    3    0    0  0.28712633029E+01 -0.30785112588E+01 -0.95650951434E+01  0.10450475104E+02  0.51100000000E-03 0. -1.
        -11    1    3    3    0    0  0.16228827283E+01  0.26731046046E+01 -0.60237888263E+01  0.67871399471E+01  0.51100000000E-03 0.  1.
        -12    1    3    3    0    0  0.50957579302E+01 -0.30404988977E+01 -0.28289050237E+02  0.28904701101E+02  0.00000000000E+00 0.  1.
</event>
<event>
 7    1  0.1541705E-008  0.4614232E+02  0.7816164E-02  0.1320468E+00
        -11   -1    0    0    0    0  0.00000000000E+00  0.00000000000E+00  0.45593999997E+02  0.45594000000E+02  0.51100000000E-03 0.  1.
         11   -1    0    0    0    0 -0.00000000000E+00 -0.00000000000E+00 -0.45593999997E+02  0.45594000000E+02  0.51100000000E-03 0. -1.
    9900012    2    1    2    0    0 -0.33401772727E+02  0.19513459984E+02 -0.23079417975E+02  0.46142322339E+02  0.10000041748E+02 0.  0.
        -12    1    1    2    0    0  0.33401772727E+02 -0.19513459984E+02  0.23079417975E+02  0.45045677661E+02  0.00000000000E+00 0.  1.
         11    1    3    3    0    0 -0.25655001403E+02  0.16347117288E+02 -0.18229772047E+02  0.35464516488E+02  0.51100000000E-03 0. -1.
        -11    1    3    3    0    0 -0.45142057080E+01 -0.14879132313E+00 -0.93037958992E+00  0.46114854954E+01  0.51100000000E-03 0.  1.
        -12    1    3    3    0    0 -0.32325656161E+01  0.33151340186E+01 -0.39192663386E+01  0.60663203556E+01  0.00000000000E+00 0.  1.
</event>
<event>
 7    1  0.1541705E-008  0.4614232E+02  0.7816164E-02  0.1320468E+00
        -11   -1    0    0    0    0  0.00000000000E+00  0.00000000000E+00  0.45593999997E+02  0.45594000000E+02  0.51100000000E-03 0. -1.
         11   -1    0    0    0    0 -0.00000000000E+00 -0.00000000000E+00 -0.45593999997E+02  0.45594000000E+02  0.51100000000E-03 0.  1.
    9900012    2    1    2    0    0  0.24648698615E+01  0.23919517203E+02  0.38090613596E+02  0.46142315071E+02  0.99999754654E+01 0.  0.
        -12    1    1    2    0    0 -0.24648698615E+01 -0.23919517203E+02 -0.38090613596E+02  0.45045684929E+02  0.00000000000E+00 0.  1.
         11    1    3    3    0    0  0.19896609492E+01  0.86834608739E+01  0.16171163276E+02  0.18462604513E+02  0.51100000000E-03 0. -1.
        -11    1    3    3    0    0 -0.13289651384E+01  0.11021920233E+02  0.19639060781E+02  0.22559733655E+02  0.51100000000E-03 0.  1.
        -12    1    3    3    0    0  0.18041740507E+01  0.42141360954E+01  0.22803895398E+01  0.51199769032E+01  0.00000000000E+00 0.  1.
</event>
<event>
 7    1  0.1541705E-008  0.4614232E+02  0.7816164E-02  0.1320468E+00
        -11   -1    0    0    0    0  0.00000000000E+00  0.00000000000E+00  0.45593999997E+02  0.45594000000E+02  0.51100000000E-03 0.  1.
         11   -1    0    0    0    0 -0.00000000000E+00 -0.00000000000E+00 -0.45593999997E+02  0.45594000000E+02  0.51100000000E-03 0. -1.
    9900012    2    1    2    0    0 -0.43118189551E+02  0.20774656361E+01 -0.12869315625E+02  0.46142318539E+02  0.10000007096E+02 0.  0.
        -12    1    1    2    0    0  0.43118189551E+02 -0.20774656361E+01  0.12869315625E+02  0.45045681461E+02  0.00000000000E+00 0.  1.
         11    1    3    3    0    0 -0.86553053906E+01  0.25790687536E+01 -0.44592445567E+01  0.10072277266E+02  0.51100000000E-03 0. -1.
        -11    1    3    3    0    0 -0.13545569113E+02  0.15198059764E+01 -0.60846979811E+01  0.14927015863E+02  0.51100000000E-03 0.  1.
        -12    1    3    3    0    0 -0.20917315047E+02 -0.20214090939E+01 -0.23253730873E+01  0.21143025410E+02  0.00000000000E+00 0.  1.
</event>
<event>
 7    1  0.1541705E-008  0.4614232E+02  0.7816164E-02  0.1320468E+00
        -11   -1    0    0    0    0  0.00000000000E+00  0.00000000000E+00  0.45593999997E+02  0.45594000000E+02  0.51100000000E-03 0. -1.
         11   -1    0    0    0    0 -0.00000000000E+00 -0.00000000000E+00 -0.45593999997E+02  0.45594000000E+02  0.51100000000E-03 0.  1.
    9900012    2    1    2    0    0  0.35381391759E+02  0.96375060034E+01 -0.26160829928E+02  0.46142318439E+02  0.10000006180E+02 0.  0.
        -12    1    1    2    0    0 -0.35381391759E+02 -0.96375060034E+01  0.26160829928E+02  0.45045681561E+02  0.00000000000E+00 0.  1.
         11    1    3    3    0    0  0.18776884836E+02  0.48531313635E+01 -0.17976555717E+02  0.26443918845E+02  0.51100000000E-03 0. -1.
        -11    1    3    3    0    0  0.75466959153E+01  0.46371507637E+01 -0.41592965734E+01  0.97854757007E+01  0.51100000000E-03 0.  1.
         12    1    3    3    0    0  0.90578110080E+01  0.14722387618E+00 -0.40249776378E+01  0.99129238932E+01  0.00000000000E+00 0. -1.
</event>
<event>
 7    1  0.1541705E-008  0.4614232E+02  0.7816164E-02  0.1320468E+00
        -11   -1    0    0    0    0  0.00000000000E+00  0.00000000000E+00  0.45593999997E+02  0.45594000000E+02  0.51100000000E-03 0. -1.
         11   -1    0    0    0    0 -0.00000000000E+00 -0.00000000000E+00 -0.45593999997E+02  0.45594000000E+02  0.51100000000E-03 0.  1.
    9900012    2    1    2    0    0 -0.11976777728E+01  0.22794922617E+02  0.38833884740E+02  0.46142317264E+02  0.99999954628E+01 0.  0.
        -12    1    1    2    0    0  0.11976777728E+01 -0.22794922617E+02 -0.38833884740E+02  0.45045682736E+02  0.00000000000E+00 0.  1.
         11    1    3    3    0    0 -0.58338749069E+00  0.15411137071E+02  0.22715436078E+02  0.27456047117E+02  0.51100000000E-03 0. -1.
        -11    1    3    3    0    0 -0.24848045863E+00 -0.35530266439E+00 -0.30294163822E+00  0.52892004966E+00  0.51100000000E-03 0.  1.
        -12    1    3    3    0    0 -0.36580982347E+00  0.77390882103E+01  0.16421390300E+02  0.18157350097E+02  0.00000000000E+00 0.  1.
</event>
<event>
 7    1  0.1541705E-008  0.4614232E+02  0.7816164E-02  0.1320468E+00
        -11   -1    0    0    0    0  0.00000000000E+00  0.00000000000E+00  0.45593999997E+02  0.45594000000E+02  0.51100000000E-03 0.  1.
         11   -1    0    0    0    0 -0.00000000000E+00 -0.00000000000E+00 -0.45593999997E+02  0.45594000000E+02  0.51100000000E-03 0. -1.
    9900012    2    1    2    0    0  0.18271473541E+02  0.11861274024E+02 -0.39428123428E+02  0.46142317811E+02  0.10000000452E+02 0.  0.
        -12    1    1    2    0    0 -0.18271473541E+02 -0.11861274024E+02  0.39428123428E+02  0.45045682189E+02  0.00000000000E+00 0.  1.
         11    1    3    3    0    0  0.15667971688E+02  0.77136473151E+01 -0.33875216303E+02  0.38111887536E+02  0.51100000000E-03 0. -1.
        -11    1    3    3    0    0  0.75162193424E+00 -0.42312630829E+00 -0.69145085233E+00  0.11054754394E+01  0.51100000000E-03 0.  1.
         12    1    3    3    0    0  0.18518799188E+01  0.45707530172E+01 -0.48614562730E+01  0.69249548354E+01  0.00000000000E+00 0. -1.
</event>
<event>
 7    1  0.1541705E-008  0.4614232E+02  0.7816164E-02  0.1320468E+00
        -11   -1    0    0    0    0  0.00000000000E+00  0.00000000000E+00  0.45593999997E+02  0.45594000000E+02  0.51100000000E-03 0.  1.
         11   -1    0    0    0    0 -0.00000000000E+00 -0.00000000000E+00 -0.45593999997E+02  0.45594000000E+02  0.51100000000E-03 0. -1.
    9900012    2    1    2    0    0 -0.27304736668E+02 -0.18816893589E+02 -0.30487528674E+02  0.46142317260E+02  0.99999954332E+01 0.  0.
        -12    1    1    2    0    0  0.27304736668E+02  0.18816893589E+02  0.30487528674E+02  0.45045682740E+02  0.00000000000E+00 0.  1.
         11    1    3    3    0    0 -0.12548289331E+02 -0.46877624934E+01 -0.15787178946E+02  0.20704340165E+02  0.51100000000E-03 0. -1.
        -11    1    3    3    0    0 -0.34219518162E+01 -0.17904738344E+01 -0.16461148357E+01  0.41982430965E+01  0.51100000000E-03 0.  1.
         12    1    3    3    0    0 -0.11334495520E+02 -0.12338657261E+02 -0.13054234892E+02  0.21239733999E+02  0.00000000000E+00 0. -1.
</event>
<event>
 7    1  0.1541705E-008  0.4614232E+02  0.7816164E-02  0.1320468E+00
        -11   -1    0    0    0    0  0.00000000000E+00  0.00000000000E+00  0.45593999997E+02  0.45594000000E+02  0.51100000000E-03 0.  1.
         11   -1    0    0    0    0 -0.00000000000E+00 -0.00000000000E+00 -0.45593999997E+02  0.45594000000E+02  0.51100000000E-03 0. -1.
    9900012    2    1    2    0    0 -0.35850339838E+02  0.95784760195E+01  0.25536628961E+02  0.46142317765E+02  0.10000000034E+02 0.  0.
        -12    1    1    2    0    0  0.35850339838E+02 -0.95784760195E+01 -0.25536628961E+02  0.45045682235E+02  0.00000000000E+00 0.  1.
         11    1    3    3    0    0 -0.68512171905E+01  0.52819008640E+01  0.57014210890E+01  0.10360688028E+02  0.51100000000E-03 0. -1.
        -11    1    3    3    0    0 -0.14661564411E+02 -0.47707448658E+00  0.97788323570E+01  0.17629935723E+02  0.51100000000E-03 0.  1.
        -12    1    3    3    0    0 -0.14337558236E+02  0.47736496421E+01  0.10056375515E+02  0.18151694014E+02  0.00000000000E+00 0.  1.
</event>
<event>
 7    1  0.1541705E-008  0.4614232E+02  0.7816164E-02  0.1320468E+00
        -11   -1    0    0    0    0  0.00000000000E+00  0.00000000000E+00  0.45593999997E+02  0.45594000000E+02  0.51100000000E-03 0. -1.
         11   -1    0    0    0    0 -0.00000000000E+00 -0.00000000000E+00 -0.45593999997E+02  0.45594000000E+02  0.51100000000E-03 0.  1.
    9900012    2    1    2    0    0 -0.89575542080E+01  0.12889277102E+02  0.42222531877E+02  0.46142318301E+02  0.10000004926E+02 0.  0.
        -12    1    1    2    0    0  0.89575542080E+01 -0.12889277102E+02 -0.42222531877E+02  0.45045681699E+02  0.00000000000E+00 0.  1.
         11    1    3    3    0    0 -0.80638493586E+00  0.66124077343E+01  0.10925849826E+02  0.12796420882E+02  0.51100000000E-03 0. -1.
        -11    1    3    3    0    0 -0.81832355027E+01  0.62323395535E+01  0.24794989821E+02  0.26843973627E+02  0.51100000000E-03 0.  1.
         12    1    3    3    0    0  0.32066230556E-01  0.44529814035E-01  0.65016922297E+01  0.65019237921E+01  0.00000000000E+00 0. -1.
</event>
<event>
 7    1  0.1541705E-008  0.4614232E+02  0.7816164E-02  0.1320468E+00
        -11   -1    0    0    0    0  0.00000000000E+00  0.00000000000E+00  0.45593999997E+02  0.45594000000E+02  0.51100000000E-03 0.  1.
         11   -1    0    0    0    0 -0.00000000000E+00 -0.00000000000E+00 -0.45593999997E+02  0.45594000000E+02  0.51100000000E-03 0. -1.
    9900012    2    1    2    0    0 -0.13066843679E+01  0.39095321565E+02 -0.22337455125E+02  0.46142317701E+02  0.99999994515E+01 0.  0.
        -12    1    1    2    0    0  0.13066843679E+01 -0.39095321565E+02  0.22337455125E+02  0.45045682299E+02  0.00000000000E+00 0.  1.
         11    1    3    3    0    0  0.20506154005E+00  0.24443883348E+02 -0.14280732301E+02  0.28310506860E+02  0.51100000000E-03 0. -1.
        -11    1    3    3    0    0 -0.16958366557E+01  0.14566827336E+02 -0.61305789843E+01  0.15895040721E+02  0.51100000000E-03 0.  1.
        -12    1    3    3    0    0  0.18409074770E+00  0.84610881575E-01 -0.19261438395E+01  0.19367701194E+01  0.00000000000E+00 0.  1.
</event>
<event>
 7    1  0.1541705E-008  0.4614232E+02  0.7816164E-02  0.1320468E+00
        -11   -1    0    0    0    0  0.00000000000E+00  0.00000000000E+00  0.45593999997E+02  0.45594000000E+02  0.51100000000E-03 0.  1.
         11   -1    0    0    0    0 -0.00000000000E+00 -0.00000000000E+00 -0.45593999997E+02  0.45594000000E+02  0.51100000000E-03 0. -1.
    9900012    2    1    2    0    0 -0.38373057458E+02  0.19895468934E+01 -0.23508803131E+02  0.46142315854E+02  0.99999826118E+01 0.  0.
        -12    1    1    2    0    0  0.38373057458E+02 -0.19895468934E+01  0.23508803131E+02  0.45045684146E+02  0.00000000000E+00 0.  1.
         11    1    3    3    0    0 -0.19354555373E+01 -0.83174857521E+00  0.17261685194E+00  0.21136675869E+01  0.51100000000E-03 0. -1.
        -11    1    3    3    0    0 -0.24330649696E+01 -0.14381276839E+01 -0.14224171915E+01  0.31640618372E+01  0.51100000000E-03 0.  1.
         12    1    3    3    0    0 -0.34004536951E+02  0.42594231525E+01 -0.22259002791E+02  0.40864586430E+02  0.00000000000E+00 0. -1.
</event>
<event>
 7    1  0.1541705E-008  0.4614233E+02  0.7816164E-02  0.1320468E+00
        -11   -1    0    0    0    0  0.00000000000E+00  0.00000000000E+00  0.45593999997E+02  0.45594000000E+02  0.51100000000E-03 0.  1.
         11   -1    0    0    0    0 -0.00000000000E+00 -0.00000000000E+00 -0.45593999997E+02  0.45594000000E+02  0.51100000000E-03 0. -1.
    9900012    2    1    2    0    0  0.34327199616E+02  0.20938734110E+02 -0.20305801768E+02  0.46142325346E+02  0.10000069163E+02 0.  0.
        -12    1    1    2    0    0 -0.34327199616E+02 -0.20938734110E+02  0.20305801768E+02  0.45045674654E+02  0.00000000000E+00 0.  1.
         11    1    3    3    0    0  0.22724770598E+02  0.12520213106E+02 -0.98246737829E+01  0.27743380294E+02  0.51100000000E-03 0. -1.
        -11    1    3    3    0    0  0.64094519897E+01  0.20808259061E+01 -0.32976879916E+01  0.75023767975E+01  0.51100000000E-03 0.  1.
         12    1    3    3    0    0  0.51929770281E+01  0.63376950986E+01 -0.71834399930E+01  0.10896568254E+02  0.00000000000E+00 0. -1.
</event>
<event>
 7    1  0.1541705E-008  0.4614232E+02  0.7816164E-02  0.1320468E+00
        -11   -1    0    0    0    0  0.00000000000E+00  0.00000000000E+00  0.45593999997E+02  0.45594000000E+02  0.51100000000E-03 0.  1.
         11   -1    0    0    0    0 -0.00000000000E+00 -0.00000000000E+00 -0.45593999997E+02  0.45594000000E+02  0.51100000000E-03 0. -1.
    9900012    2    1    2    0    0 -0.22215823774E+02  0.31796959689E+02 -0.22902487043E+02  0.46142318918E+02  0.10000010552E+02 0.  0.
        -12    1    1    2    0    0  0.22215823774E+02 -0.31796959689E+02  0.22902487043E+02  0.45045681082E+02  0.00000000000E+00 0.  1.
         11    1    3    3    0    0 -0.22116177297E+02  0.30649061661E+02 -0.22258982906E+02  0.43862884073E+02  0.51100000000E-03 0. -1.
        -11    1    3    3    0    0  0.27670329034E-02  0.16517743711E+01 -0.62135218976E+00  0.17647790327E+01  0.51100000000E-03 0.  1.
         12    1    3    3    0    0 -0.10241350918E+00 -0.50387634350E+00 -0.22151946856E-01  0.51465581232E+00  0.00000000000E+00 0. -1.
</event>
<event>
 7    1  0.1541705E-008  0.4614232E+02  0.7816164E-02  0.1320468E+00
        -11   -1    0    0    0    0  0.00000000000E+00  0.00000000000E+00  0.45593999997E+02  0.45594000000E+02  0.51100000000E-03 0. -1.
         11   -1    0    0    0    0 -0.00000000000E+00 -0.00000000000E+00 -0.45593999997E+02  0.45594000000E+02  0.51100000000E-03 0.  1.
    9900012    2    1    2    0    0  0.35258946105E+02  0.11535844699E+02  0.25550820800E+02  0.46142318332E+02  0.10000005210E+02 0.  0.
        -12    1    1    2    0    0 -0.35258946105E+02 -0.11535844699E+02 -0.25550820800E+02  0.45045681668E+02  0.00000000000E+00 0.  1.
         11    1    3    3    0    0  0.12552673474E+01  0.20960584813E+01  0.31758190281E+01  0.40068671092E+01  0.51100000000E-03 0.  1.
        -11    1    3    3    0    0  0.26995617680E+02  0.96192581986E+01  0.17220891350E+02  0.33434302765E+02  0.51100000000E-03 0. -1.
         12    1    3    3    0    0  0.70080610769E+01 -0.17947198052E+00  0.51541104224E+01  0.87011484584E+01  0.00000000000E+00 0. -1.
</event>
<event>
 7    1  0.1541705E-008  0.4614232E+02  0.7816164E-02  0.1320468E+00
        -11   -1    0    0    0    0  0.00000000000E+00  0.00000000000E+00  0.45593999997E+02  0.45594000000E+02  0.51100000000E-03 0.  1.
         11   -1    0    0    0    0 -0.00000000000E+00 -0.00000000000E+00 -0.45593999997E+02  0.45594000000E+02  0.51100000000E-03 0. -1.
    9900012    2    1    2    0    0  0.34143472393E+02 -0.15764111984E+02 -0.24795757125E+02  0.46142317575E+02  0.99999983048E+01 0.  0.
        -12    1    1    2    0    0 -0.34143472393E+02  0.15764111984E+02  0.24795757125E+02  0.45045682425E+02  0.00000000000E+00 0.  1.
         11    1    3    3    0    0  0.16880792757E+02 -0.11427486618E+02 -0.12462780897E+02  0.23892875977E+02  0.51100000000E-03 0. -1.
        -11    1    3    3    0    0  0.40341859637E+01  0.11087516881E+01 -0.22774553070E+01  0.47634850301E+01  0.51100000000E-03 0.  1.
        -12    1    3    3    0    0  0.13228493672E+02 -0.54453770542E+01 -0.10055520921E+02  0.17485956568E+02  0.00000000000E+00 0.  1.
</event>
<event>
 7    1  0.1541705E-008  0.4614232E+02  0.7816164E-02  0.1320468E+00
        -11   -1    0    0    0    0  0.00000000000E+00  0.00000000000E+00  0.45593999997E+02  0.45594000000E+02  0.51100000000E-03 0.  1.
         11   -1    0    0    0    0 -0.00000000000E+00 -0.00000000000E+00 -0.45593999997E+02  0.45594000000E+02  0.51100000000E-03 0. -1.
    9900012    2    1    2    0    0  0.18490751787E+02  0.19377989878E+01 -0.41029873140E+02  0.46142318116E+02  0.10000003232E+02 0.  0.
        -12    1    1    2    0    0 -0.18490751787E+02 -0.19377989878E+01  0.41029873140E+02  0.45045681884E+02  0.00000000000E+00 0.  1.
         11    1    3    3    0    0  0.72293627424E+01 -0.37652270964E+00 -0.17349316920E+02  0.18799049254E+02  0.51100000000E-03 0. -1.
        -11    1    3    3    0    0  0.12646240049E+01  0.31236996428E+01 -0.85530609267E+01  0.91930204400E+01  0.51100000000E-03 0.  1.
        -12    1    3    3    0    0  0.99967650398E+01 -0.80937794535E+00 -0.15127495293E+02  0.18150248422E+02  0.00000000000E+00 0.  1.
</event>
<event>
 7    1  0.1541705E-008  0.4614232E+02  0.7816164E-02  0.1320468E+00
        -11   -1    0    0    0    0  0.00000000000E+00  0.00000000000E+00  0.45593999997E+02  0.45594000000E+02  0.51100000000E-03 0. -1.
         11   -1    0    0    0    0 -0.00000000000E+00 -0.00000000000E+00 -0.45593999997E+02  0.45594000000E+02  0.51100000000E-03 0.  1.
    9900012    2    1    2    0    0 -0.14363231167E+02  0.40940525894E+02  0.12111333901E+02  0.46142317866E+02  0.10000000957E+02 0.  0.
        -12    1    1    2    0    0  0.14363231167E+02 -0.40940525894E+02 -0.12111333901E+02  0.45045682134E+02  0.00000000000E+00 0.  1.
         11    1    3    3    0    0 -0.20173354749E+01  0.16046234744E+02  0.70149015510E+01  0.17628390054E+02  0.51100000000E-03 0. -1.
        -11    1    3    3    0    0 -0.53852716686E+01  0.14385222833E+02  0.16659844749E+01  0.15450284510E+02  0.51100000000E-03 0.  1.
         12    1    3    3    0    0 -0.69606240239E+01  0.10509068317E+02  0.34304478747E+01  0.13063643302E+02  0.00000000000E+00 0. -1.
</event>
<event>
 7    1  0.1541705E-008  0.4614232E+02  0.7816164E-02  0.1320468E+00
        -11   -1    0    0    0    0  0.00000000000E+00  0.00000000000E+00  0.45593999997E+02  0.45594000000E+02  0.51100000000E-03 0.  1.
         11   -1    0    0    0    0 -0.00000000000E+00 -0.00000000000E+00 -0.45593999997E+02  0.45594000000E+02  0.51100000000E-03 0. -1.
    9900012    2    1    2    0    0 -0.29368541915E+02 -0.22400802816E+02 -0.25783838146E+02  0.46142317293E+02  0.99999957303E+01 0.  0.
        -12    1    1    2    0    0  0.29368541915E+02  0.22400802816E+02  0.25783838146E+02  0.45045682707E+02  0.00000000000E+00 0.  1.
         11    1    3    3    0    0 -0.18896805343E+02 -0.10793330820E+02 -0.15110730868E+02  0.26493762096E+02  0.51100000000E-03 0. -1.
        -11    1    3    3    0    0 -0.91507107093E+01 -0.71826246284E+01 -0.60415408572E+01  0.13108234787E+02  0.51100000000E-03 0.  1.
         12    1    3    3    0    0 -0.13210258625E+01 -0.44248473680E+01 -0.46315664203E+01  0.65403204100E+01  0.00000000000E+00 0. -1.
</event>
<event>
 7    1  0.1541705E-008  0.4614232E+02  0.7816164E-02  0.1320468E+00
        -11   -1    0    0    0    0  0.00000000000E+00  0.00000000000E+00  0.45593999997E+02  0.45594000000E+02  0.51100000000E-03 0.  1.
         11   -1    0    0    0    0 -0.00000000000E+00 -0.00000000000E+00 -0.45593999997E+02  0.45594000000E+02  0.51100000000E-03 0. -1.
    9900012    2    1    2    0    0 -0.31726147850E+02 -0.22279120148E+02 -0.22939177369E+02  0.46142317517E+02  0.99999977767E+01 0.  0.
        -12    1    1    2    0    0  0.31726147850E+02  0.22279120148E+02  0.22939177369E+02  0.45045682483E+02  0.00000000000E+00 0.  1.
         11    1    3    3    0    0 -0.80305677841E+01 -0.72832529618E+01 -0.55465731799E+01  0.12177859703E+02  0.51100000000E-03 0. -1.
        -11    1    3    3    0    0 -0.22568140138E+02 -0.13337574538E+02 -0.13274495667E+02  0.29384078671E+02  0.51100000000E-03 0.  1.
        -12    1    3    3    0    0 -0.11274399272E+01 -0.16582926479E+01 -0.41181085223E+01  0.45803791434E+01  0.00000000000E+00 0.  1.
</event>
<event>
 7    1  0.1541705E-008  0.4614232E+02  0.7816164E-02  0.1320468E+00
        -11   -1    0    0    0    0  0.00000000000E+00  0.00000000000E+00  0.45593999997E+02  0.45594000000E+02  0.51100000000E-03 0.  1.
         11   -1    0    0    0    0 -0.00000000000E+00 -0.00000000000E+00 -0.45593999997E+02  0.45594000000E+02  0.51100000000E-03 0. -1.
    9900012    2    1    2    0    0  0.36849169817E+02  0.17311696687E+02 -0.19275817110E+02  0.46142320034E+02  0.10000020722E+02 0.  0.
        -12    1    1    2    0    0 -0.36849169817E+02 -0.17311696687E+02  0.19275817110E+02  0.45045679966E+02  0.00000000000E+00 0.  1.
         11    1    3    3    0    0  0.97264729403E+01  0.78791407715E+01 -0.94768930446E+01  0.15700211374E+02  0.51100000000E-03 0. -1.
        -11    1    3    3    0    0  0.10026602189E+02  0.35294472021E+01 -0.23784139716E+01  0.10892502113E+02  0.51100000000E-03 0.  1.
         12    1    3    3    0    0  0.17096094688E+02  0.59031087133E+01 -0.74205100942E+01  0.19549606546E+02  0.00000000000E+00 0. -1.
</event>
<event>
 7    1  0.1541705E-008  0.4614232E+02  0.7816164E-02  0.1320468E+00
        -11   -1    0    0    0    0  0.00000000000E+00  0.00000000000E+00  0.45593999997E+02  0.45594000000E+02  0.51100000000E-03 0. -1.
         11   -1    0    0    0    0 -0.00000000000E+00 -0.00000000000E+00 -0.45593999997E+02  0.45594000000E+02  0.51100000000E-03 0.  1.
    9900012    2    1    2    0    0 -0.32494360488E+02  0.27391946807E+02  0.14930216171E+02  0.46142316873E+02  0.99999919032E+01 0.  0.
        -12    1    1    2    0    0  0.32494360488E+02 -0.27391946807E+02 -0.14930216171E+02  0.45045683127E+02  0.00000000000E+00 0.  1.
         11    1    3    3    0    0 -0.91452742408E+01  0.58239462967E+01  0.18651542615E+00  0.10843854466E+02  0.51100000000E-03 0.  1.
        -11    1    3    3    0    0 -0.22890950783E+02  0.21519504155E+02  0.13938994398E+02  0.34371212547E+02  0.51100000000E-03 0. -1.
        -12    1    3    3    0    0 -0.45813546432E+00  0.48496355905E-01  0.80470634678E+00  0.92724986101E+00  0.00000000000E+00 0.  1.
</event>
<event>
 7    1  0.1541705E-008  0.4614232E+02  0.7816164E-02  0.1320468E+00
        -11   -1    0    0    0    0  0.00000000000E+00  0.00000000000E+00  0.45593999997E+02  0.45594000000E+02  0.51100000000E-03 0.  1.
         11   -1    0    0    0    0 -0.00000000000E+00 -0.00000000000E+00 -0.45593999997E+02  0.45594000000E+02  0.51100000000E-03 0. -1.
    9900012    2    1    2    0    0 -0.18900010670E+01 -0.16043386701E+02 -0.42049389965E+02  0.46142316996E+02  0.99999930257E+01 0.  0.
        -12    1    1    2    0    0  0.18900010670E+01  0.16043386701E+02  0.42049389965E+02  0.45045683004E+02  0.00000000000E+00 0.  1.
         11    1    3    3    0    0  0.22837338185E+01 -0.12805401668E+02 -0.25047910217E+02  0.28223953630E+02  0.51100000000E-03 0. -1.
        -11    1    3    3    0    0 -0.26574277808E+01 -0.17470975456E+01 -0.69309406205E+01  0.76257596599E+01  0.51100000000E-03 0.  1.
         12    1    3    3    0    0 -0.15163071047E+01 -0.14908874872E+01 -0.10070539128E+02  0.10292603706E+02  0.00000000000E+00 0. -1.
</event>
<event>
 7    1  0.1541705E-008  0.4614232E+02  0.7816164E-02  0.1320468E+00
        -11   -1    0    0    0    0  0.00000000000E+00  0.00000000000E+00  0.45593999997E+02  0.45594000000E+02  0.51100000000E-03 0. -1.
         11   -1    0    0    0    0 -0.00000000000E+00 -0.00000000000E+00 -0.45593999997E+02  0.45594000000E+02  0.51100000000E-03 0.  1.
    9900012    2    1    2    0    0 -0.22729380450E+02 -0.38814644273E+02  0.24314804193E+01  0.46142318268E+02  0.10000004619E+02 0.  0.
        -12    1    1    2    0    0  0.22729380450E+02  0.38814644273E+02 -0.24314804193E+01  0.45045681732E+02  0.00000000000E+00 0.  1.
         11    1    3    3    0    0 -0.18568143712E+01 -0.83838464646E+00 -0.66043040714E+00  0.21416855531E+01  0.51100000000E-03 0. -1.
        -11    1    3    3    0    0 -0.13506308679E+02 -0.22329373637E+02 -0.13959320126E+01  0.26133693340E+02  0.51100000000E-03 0.  1.
         12    1    3    3    0    0 -0.73662573995E+01 -0.15646885990E+02  0.44878428390E+01  0.17866939374E+02  0.00000000000E+00 0. -1.
</event>
<event>
 7    1  0.1541705E-008  0.4614232E+02  0.7816164E-02  0.1320468E+00
        -11   -1    0    0    0    0  0.00000000000E+00  0.00000000000E+00  0.45593999997E+02  0.45594000000E+02  0.51100000000E-03 0.  1.
         11   -1    0    0    0    0 -0.00000000000E+00 -0.00000000000E+00 -0.45593999997E+02  0.45594000000E+02  0.51100000000E-03 0. -1.
    9900012    2    1    2    0    0  0.35086102626E+02  0.94471855802E+01 -0.26623852597E+02  0.46142318298E+02  0.10000004894E+02 0.  0.
        -12    1    1    2    0    0 -0.35086102626E+02 -0.94471855802E+01  0.26623852597E+02  0.45045681702E+02  0.00000000000E+00 0.  1.
         11    1    3    3    0    0  0.29867442972E+01  0.35801639116E+01 -0.15022400454E+01  0.48984630800E+01  0.51100000000E-03 0. -1.
        -11    1    3    3    0    0  0.25351432497E+01  0.19574137130E+00 -0.13022320077E+01  0.28567594305E+01  0.51100000000E-03 0.  1.
         12    1    3    3    0    0  0.29564215079E+02  0.56712802973E+01 -0.23819380544E+02  0.38387095787E+02  0.00000000000E+00 0. -1.
</event>
<event>
 7    1  0.1541705E-008  0.4614232E+02  0.7816164E-02  0.1320468E+00
        -11   -1    0    0    0    0  0.00000000000E+00  0.00000000000E+00  0.45593999997E+02  0.45594000000E+02  0.51100000000E-03 0. -1.
         11   -1    0    0    0    0 -0.00000000000E+00 -0.00000000000E+00 -0.45593999997E+02  0.45594000000E+02  0.51100000000E-03 0.  1.
    9900012    2    1    2    0    0  0.43532884240E+02  0.11570567172E+02  0.35139263001E+00  0.46142317502E+02  0.99999976380E+01 0.  0.
        -12    1    1    2    0    0 -0.43532884240E+02 -0.11570567172E+02 -0.35139263001E+00  0.45045682498E+02  0.00000000000E+00 0.  1.
         11    1    3    3    0    0  0.29226904810E+02  0.57355416997E+01  0.21274521845E+01  0.29860248767E+02  0.51100000000E-03 0. -1.
        -11    1    3    3    0    0 -0.22911642075E+00  0.29345135085E+00  0.43222551688E+00  0.57046225829E+00  0.51100000000E-03 0.  1.
        -12    1    3    3    0    0  0.14535095850E+02  0.55415741210E+01 -0.22082850714E+01  0.15711606477E+02  0.00000000000E+00 0.  1.
</event>
<event>
 7    1  0.1541705E-008  0.4614232E+02  0.7816164E-02  0.1320468E+00
        -11   -1    0    0    0    0  0.00000000000E+00  0.00000000000E+00  0.45593999997E+02  0.45594000000E+02  0.51100000000E-03 0.  1.
         11   -1    0    0    0    0 -0.00000000000E+00 -0.00000000000E+00 -0.45593999997E+02  0.45594000000E+02  0.51100000000E-03 0. -1.
    9900012    2    1    2    0    0  0.42843313377E+02 -0.97774709829E+01 -0.98977236358E+01  0.46142319041E+02  0.10000011667E+02 0.  0.
        -12    1    1    2    0    0 -0.42843313377E+02  0.97774709829E+01  0.98977236358E+01  0.45045680959E+02  0.00000000000E+00 0.  1.
         11    1    3    3    0    0  0.13673548085E+02 -0.35093910156E+01  0.29529819429E+00  0.14119806791E+02  0.51100000000E-03 0. -1.
        -11    1    3    3    0    0  0.57431575109E+01 -0.35560999137E+01 -0.18029177141E+01  0.69914388602E+01  0.51100000000E-03 0.  1.
        -12    1    3    3    0    0  0.23426607781E+02 -0.27119800536E+01 -0.83901041160E+01  0.25031073389E+02  0.00000000000E+00 0.  1.
</event>
<event>
 7    1  0.1541705E-008  0.4614232E+02  0.7816164E-02  0.1320468E+00
        -11   -1    0    0    0    0  0.00000000000E+00  0.00000000000E+00  0.45593999997E+02  0.45594000000E+02  0.51100000000E-03 0. -1.
         11   -1    0    0    0    0 -0.00000000000E+00 -0.00000000000E+00 -0.45593999997E+02  0.45594000000E+02  0.51100000000E-03 0.  1.
    9900012    2    1    2    0    0 -0.17364327106E+02 -0.34481960950E+02  0.23207500428E+02  0.46142316934E+02  0.99999924558E+01 0.  0.
        -12    1    1    2    0    0  0.17364327106E+02  0.34481960950E+02 -0.23207500428E+02  0.45045683066E+02  0.00000000000E+00 0.  1.
         11    1    3    3    0    0 -0.88091001014E+01 -0.16317491908E+02  0.99970403957E+01  0.21066599244E+02  0.51100000000E-03 0. -1.
        -11    1    3    3    0    0 -0.28734988446E+01 -0.41282189133E+01  0.75913786004E-01  0.50304025853E+01  0.51100000000E-03 0.  1.
        -12    1    3    3    0    0 -0.56817281604E+01 -0.14036250128E+02  0.13134546246E+02  0.20045315105E+02  0.00000000000E+00 0.  1.
</event>
<event>
 7    1  0.1541705E-008  0.4614232E+02  0.7816164E-02  0.1320468E+00
        -11   -1    0    0    0    0  0.00000000000E+00  0.00000000000E+00  0.45593999997E+02  0.45594000000E+02  0.51100000000E-03 0.  1.
         11   -1    0    0    0    0 -0.00000000000E+00 -0.00000000000E+00 -0.45593999997E+02  0.45594000000E+02  0.51100000000E-03 0. -1.
    9900012    2    1    2    0    0 -0.11263332701E+01 -0.19092680176E+02 -0.40783752711E+02  0.46142317097E+02  0.99999939473E+01 0.  0.
        -12    1    1    2    0    0  0.11263332701E+01  0.19092680176E+02  0.40783752711E+02  0.45045682903E+02  0.00000000000E+00 0.  1.
         11    1    3    3    0    0 -0.41874516020E+01 -0.10282959658E+02 -0.19783677235E+02  0.22686293118E+02  0.51100000000E-03 0. -1.
        -11    1    3    3    0    0 -0.75079776283E-01 -0.37367212010E+01 -0.41667941626E+01  0.55974008398E+01  0.51100000000E-03 0.  1.
         12    1    3    3    0    0  0.31361981082E+01 -0.50729993175E+01 -0.16833281314E+02  0.17858623139E+02  0.00000000000E+00 0. -1.
</event>
<event>
 7    1  0.1541705E-008  0.4614232E+02  0.7816164E-02  0.1320468E+00
        -11   -1    0    0    0    0  0.00000000000E+00  0.00000000000E+00  0.45593999997E+02  0.45594000000E+02  0.51100000000E-03 0.  1.
         11   -1    0    0    0    0 -0.00000000000E+00 -0.00000000000E+00 -0.45593999997E+02  0.45594000000E+02  0.51100000000E-03 0. -1.
    9900012    2    1    2    0    0  0.34443294359E+02 -0.21078214002E+02 -0.19962011628E+02  0.46142317188E+02  0.99999947703E+01 0.  0.
        -12    1    1    2    0    0 -0.34443294359E+02  0.21078214002E+02  0.19962011628E+02  0.45045682812E+02  0.00000000000E+00 0.  1.
         11    1    3    3    0    0  0.90396197737E+01 -0.10588642831E+02 -0.50291080137E+01  0.14802905469E+02  0.51100000000E-03 0. -1.
        -11    1    3    3    0    0  0.15861895868E+02 -0.75240858082E+01 -0.98043287296E+01  0.20108119501E+02  0.51100000000E-03 0.  1.
         12    1    3    3    0    0  0.95417787177E+01 -0.29654853630E+01 -0.51285748842E+01  0.11231292218E+02  0.00000000000E+00 0. -1.
</event>
<event>
 7    1  0.1541705E-008  0.4614232E+02  0.7816164E-02  0.1320468E+00
        -11   -1    0    0    0    0  0.00000000000E+00  0.00000000000E+00  0.45593999997E+02  0.45594000000E+02  0.51100000000E-03 0.  1.
         11   -1    0    0    0    0 -0.00000000000E+00 -0.00000000000E+00 -0.45593999997E+02  0.45594000000E+02  0.51100000000E-03 0. -1.
    9900012    2    1    2    0    0 -0.44813209222E+02 -0.43976829624E+01 -0.12449736744E+01  0.46142319900E+02  0.10000019507E+02 0.  0.
        -12    1    1    2    0    0  0.44813209222E+02  0.43976829624E+01  0.12449736744E+01  0.45045680100E+02  0.00000000000E+00 0.  1.
         11    1    3    3    0    0 -0.12393918060E+02 -0.13739553972E+01  0.12108429775E+01  0.12528491501E+02  0.51100000000E-03 0. -1.
        -11    1    3    3    0    0 -0.19025713955E+02  0.14655316931E+01 -0.36846742865E+01  0.19434567129E+02  0.51100000000E-03 0.  1.
        -12    1    3    3    0    0 -0.13393577207E+02 -0.44892592583E+01  0.12288576346E+01  0.14179261270E+02  0.00000000000E+00 0.  1.
</event>
<event>
 7    1  0.1541705E-008  0.4614232E+02  0.7816164E-02  0.1320468E+00
        -11   -1    0    0    0    0  0.00000000000E+00  0.00000000000E+00  0.45593999997E+02  0.45594000000E+02  0.51100000000E-03 0.  1.
         11   -1    0    0    0    0 -0.00000000000E+00 -0.00000000000E+00 -0.45593999997E+02  0.45594000000E+02  0.51100000000E-03 0. -1.
    9900012    2    1    2    0    0 -0.20237978401E+02 -0.47759249595E+01 -0.39959081930E+02  0.46142318101E+02  0.10000003104E+02 0.  0.
        -12    1    1    2    0    0  0.20237978401E+02  0.47759249595E+01  0.39959081930E+02  0.45045681899E+02  0.00000000000E+00 0.  1.
         11    1    3    3    0    0 -0.65067074646E+01 -0.50712073136E+01 -0.14032550359E+02  0.16277802539E+02  0.51100000000E-03 0. -1.
        -11    1    3    3    0    0 -0.36695382420E+01 -0.11789391722E+01 -0.12113645091E+02  0.12712033910E+02  0.51100000000E-03 0.  1.
        -12    1    3    3    0    0 -0.10061732694E+02  0.14742215263E+01 -0.13812886480E+02  0.17152481652E+02  0.00000000000E+00 0.  1.
</event>
<event>
 7    1  0.1541705E-008  0.4614232E+02  0.7816164E-02  0.1320468E+00
        -11   -1    0    0    0    0  0.00000000000E+00  0.00000000000E+00  0.45593999997E+02  0.45594000000E+02  0.51100000000E-03 0.  1.
         11   -1    0    0    0    0 -0.00000000000E+00 -0.00000000000E+00 -0.45593999997E+02  0.45594000000E+02  0.51100000000E-03 0. -1.
    9900012    2    1    2    0    0  0.91327576589E+01 -0.37198055769E+02 -0.23706768650E+02  0.46142317684E+02  0.99999993007E+01 0.  0.
        -12    1    1    2    0    0 -0.91327576589E+01  0.37198055769E+02  0.23706768650E+02  0.45045682316E+02  0.00000000000E+00 0.  1.
         11    1    3    3    0    0  0.78535233882E+01 -0.26109799131E+02 -0.15073465667E+02  0.31154595291E+02  0.51100000000E-03 0. -1.
        -11    1    3    3    0    0 -0.10945800495E+01 -0.81409506042E+01 -0.44330828921E+01  0.93340991217E+01  0.51100000000E-03 0.  1.
         12    1    3    3    0    0  0.23738143202E+01 -0.29473060334E+01 -0.42002200914E+01  0.56536232716E+01  0.00000000000E+00 0. -1.
</event>
<event>
 7    1  0.1541705E-008  0.4614232E+02  0.7816164E-02  0.1320468E+00
        -11   -1    0    0    0    0  0.00000000000E+00  0.00000000000E+00  0.45593999997E+02  0.45594000000E+02  0.51100000000E-03 0.  1.
         11   -1    0    0    0    0 -0.00000000000E+00 -0.00000000000E+00 -0.45593999997E+02  0.45594000000E+02  0.51100000000E-03 0. -1.
    9900012    2    1    2    0    0  0.89189279822E+01  0.39526150542E+02 -0.19678661009E+02  0.46142317053E+02  0.99999935472E+01 0.  0.
        -12    1    1    2    0    0 -0.89189279822E+01 -0.39526150542E+02  0.19678661009E+02  0.45045682947E+02  0.00000000000E+00 0.  1.
         11    1    3    3    0    0  0.86695714410E+01  0.30639393823E+02 -0.11844380135E+02  0.33973861480E+02  0.51100000000E-03 0. -1.
        -11    1    3    3    0    0 -0.12623086446E+01  0.42659627144E+01 -0.38033835415E+01  0.58529981736E+01  0.51100000000E-03 0.  1.
         12    1    3    3    0    0  0.15116651859E+01  0.46207940048E+01 -0.40308973327E+01  0.63154574003E+01  0.00000000000E+00 0. -1.
</event>
<event>
 7    1  0.1541705E-008  0.4614232E+02  0.7816164E-02  0.1320468E+00
        -11   -1    0    0    0    0  0.00000000000E+00  0.00000000000E+00  0.45593999997E+02  0.45594000000E+02  0.51100000000E-03 0.  1.
         11   -1    0    0    0    0 -0.00000000000E+00 -0.00000000000E+00 -0.45593999997E+02  0.45594000000E+02  0.51100000000E-03 0. -1.
    9900012    2    1    2    0    0  0.63268224371E+01 -0.42431664629E+02 -0.13734574118E+02  0.46142319058E+02  0.10000011822E+02 0.  0.
        -12    1    1    2    0    0 -0.63268224371E+01  0.42431664629E+02  0.13734574118E+02  0.45045680942E+02  0.00000000000E+00 0.  1.
         11    1    3    3    0    0  0.25376575816E+01 -0.11980566172E+02 -0.62160369898E+01  0.13733637097E+02  0.51100000000E-03 0. -1.
        -11    1    3    3    0    0 -0.91929381533E+00 -0.58000372614E+00  0.38475872281E+00  0.11530589652E+01  0.51100000000E-03 0.  1.
         12    1    3    3    0    0  0.47084586708E+01 -0.29871094732E+02 -0.79032958513E+01  0.31255622995E+02  0.00000000000E+00 0. -1.
</event>
<event>
 7    1  0.1541705E-008  0.4614232E+02  0.7816164E-02  0.1320468E+00
        -11   -1    0    0    0    0  0.00000000000E+00  0.00000000000E+00  0.45593999997E+02  0.45594000000E+02  0.51100000000E-03 0.  1.
         11   -1    0    0    0    0 -0.00000000000E+00 -0.00000000000E+00 -0.45593999997E+02  0.45594000000E+02  0.51100000000E-03 0. -1.
    9900012    2    1    2    0    0 -0.32954284185E+02  0.23148367317E+02 -0.20181222047E+02  0.46142317866E+02  0.10000000958E+02 0.  0.
        -12    1    1    2    0    0  0.32954284185E+02 -0.23148367317E+02  0.20181222047E+02  0.45045682134E+02  0.00000000000E+00 0.  1.
         11    1    3    3    0    0 -0.23015372456E+02  0.14050619236E+02 -0.14753026961E+02  0.30737258742E+02  0.51100000000E-03 0. -1.
        -11    1    3    3    0    0 -0.47676098415E+01  0.11007318666E+01 -0.17746464523E+01  0.52049096567E+01  0.51100000000E-03 0.  1.
        -12    1    3    3    0    0 -0.51713018881E+01  0.79970162137E+01 -0.36535486335E+01  0.10200149467E+02  0.00000000000E+00 0.  1.
</event>
<event>
 7    1  0.1541705E-008  0.4614232E+02  0.7816164E-02  0.1320468E+00
        -11   -1    0    0    0    0  0.00000000000E+00  0.00000000000E+00  0.45593999997E+02  0.45594000000E+02  0.51100000000E-03 0.  1.
         11   -1    0    0    0    0 -0.00000000000E+00 -0.00000000000E+00 -0.45593999997E+02  0.45594000000E+02  0.51100000000E-03 0. -1.
    9900012    2    1    2    0    0  0.22807812168E+02 -0.11630339061E+01 -0.38827367681E+02  0.46142318467E+02  0.10000006435E+02 0.  0.
        -12    1    1    2    0    0 -0.22807812168E+02  0.11630339061E+01  0.38827367681E+02  0.45045681533E+02  0.00000000000E+00 0.  1.
         11    1    3    3    0    0  0.13863492767E+02  0.26068470111E+01 -0.18419653012E+02  0.23200769392E+02  0.51100000000E-03 0. -1.
        -11    1    3    3    0    0  0.31995818170E+01 -0.34219798367E+01 -0.81647374606E+01  0.94132995208E+01  0.51100000000E-03 0.  1.
         12    1    3    3    0    0  0.57447375834E+01 -0.34790108052E+00 -0.12242977208E+02  0.13528249554E+02  0.00000000000E+00 0. -1.
</event>
<event>
 7    1  0.1541705E-008  0.4614232E+02  0.7816164E-02  0.1320468E+00
        -11   -1    0    0    0    0  0.00000000000E+00  0.00000000000E+00  0.45593999997E+02  0.45594000000E+02  0.51100000000E-03 0.  1.
         11   -1    0    0    0    0 -0.00000000000E+00 -0.00000000000E+00 -0.45593999997E+02  0.45594000000E+02  0.51100000000E-03 0. -1.
    9900012    2    1    2    0    0 -0.32840751384E+02  0.14618431463E+02 -0.27145903300E+02  0.46142317012E+02  0.99999931685E+01 0.  0.
        -12    1    1    2    0    0  0.32840751384E+02 -0.14618431463E+02  0.27145903300E+02  0.45045682988E+02  0.00000000000E+00 0.  1.
         11    1    3    3    0    0 -0.23221487465E+02  0.11300519357E+02 -0.22889649350E+02  0.34509060629E+02  0.51100000000E-03 0. -1.
        -11    1    3    3    0    0 -0.50053541788E+01  0.33056904357E+01 -0.12527090573E+01  0.61278413781E+01  0.51100000000E-03 0.  1.
         12    1    3    3    0    0 -0.46139097401E+01  0.12221669851E-01 -0.30035448922E+01  0.55054150051E+01  0.00000000000E+00 0. -1.
</event>
<event>
 7    1  0.1541705E-008  0.4614231E+02  0.7816164E-02  0.1320468E+00
        -11   -1    0    0    0    0  0.00000000000E+00  0.00000000000E+00  0.45593999997E+02  0.45594000000E+02  0.51100000000E-03 0. -1.
         11   -1    0    0    0    0 -0.00000000000E+00 -0.00000000000E+00 -0.45593999997E+02  0.45594000000E+02  0.51100000000E-03 0.  1.
    9900012    2    1    2    0    0  0.34198610073E+02  0.97206502642E+01 -0.27660046709E+02  0.46142310345E+02  0.99999323771E+01 0.  0.
        -12    1    1    2    0    0 -0.34198610073E+02 -0.97206502642E+01  0.27660046709E+02  0.45045689655E+02  0.00000000000E+00 0.  1.
         11    1    3    3    0    0  0.16743567407E+02  0.13988576962E+01 -0.16505898690E+02  0.23553100522E+02  0.51100000000E-03 0. -1.
        -11    1    3    3    0    0  0.14500688686E+02  0.64873835362E+01 -0.75766623970E+01  0.17600054853E+02  0.51100000000E-03 0.  1.
        -12    1    3    3    0    0  0.29543539811E+01  0.18344090318E+01 -0.35774856221E+01  0.49891549703E+01  0.00000000000E+00 0.  1.
</event>
<event>
 7    1  0.1541705E-008  0.4614232E+02  0.7816164E-02  0.1320468E+00
        -11   -1    0    0    0    0  0.00000000000E+00  0.00000000000E+00  0.45593999997E+02  0.45594000000E+02  0.51100000000E-03 0.  1.
         11   -1    0    0    0    0 -0.00000000000E+00 -0.00000000000E+00 -0.45593999997E+02  0.45594000000E+02  0.51100000000E-03 0. -1.
    9900012    2    1    2    0    0 -0.21548170832E+02  0.18035422290E+02 -0.35206722672E+02  0.46142318246E+02  0.10000004419E+02 0.  0.
        -12    1    1    2    0    0  0.21548170832E+02 -0.18035422290E+02  0.35206722672E+02  0.45045681754E+02  0.00000000000E+00 0.  1.
         11    1    3    3    0    0 -0.16618192273E+02  0.13065279675E+02 -0.20597170431E+02  0.29514560431E+02  0.51100000000E-03 0. -1.
        -11    1    3    3    0    0 -0.23148764064E+01  0.72921831780E-02 -0.47503642807E+01  0.52843795296E+01  0.51100000000E-03 0.  1.
         12    1    3    3    0    0 -0.26151021527E+01  0.49628504310E+01 -0.98591879610E+01  0.11343378285E+02  0.00000000000E+00 0. -1.
</event>
<event>
 7    1  0.1541705E-008  0.4614232E+02  0.7816164E-02  0.1320468E+00
        -11   -1    0    0    0    0  0.00000000000E+00  0.00000000000E+00  0.45593999997E+02  0.45594000000E+02  0.51100000000E-03 0. -1.
         11   -1    0    0    0    0 -0.00000000000E+00 -0.00000000000E+00 -0.45593999997E+02  0.45594000000E+02  0.51100000000E-03 0.  1.
    9900012    2    1    2    0    0 -0.10326195524E+02 -0.42015773208E+02  0.12536266760E+02  0.46142317670E+02  0.99999991721E+01 0.  0.
        -12    1    1    2    0    0  0.10326195524E+02  0.42015773208E+02 -0.12536266760E+02  0.45045682330E+02  0.00000000000E+00 0.  1.
         11    1    3    3    0    0 -0.84541912191E+01 -0.26216769188E+02  0.92103245249E+01  0.29045178841E+02  0.51100000000E-03 0. -1.
        -11    1    3    3    0    0 -0.47544342396E+00 -0.11715740380E+02  0.12832004508E+00  0.11726085681E+02  0.51100000000E-03 0.  1.
        -12    1    3    3    0    0 -0.13965608810E+01 -0.40832636405E+01  0.31976221897E+01  0.53710531482E+01  0.00000000000E+00 0.  1.
</event>
<event>
 7    1  0.1541705E-008  0.4614232E+02  0.7816164E-02  0.1320468E+00
        -11   -1    0    0    0    0  0.00000000000E+00  0.00000000000E+00  0.45593999997E+02  0.45594000000E+02  0.51100000000E-03 0.  1.
         11   -1    0    0    0    0 -0.00000000000E+00 -0.00000000000E+00 -0.45593999997E+02  0.45594000000E+02  0.51100000000E-03 0. -1.
    9900012    2    1    2    0    0 -0.23785381908E+02 -0.27894242995E+02 -0.26177859227E+02  0.46142317649E+02  0.99999989753E+01 0.  0.
        -12    1    1    2    0    0  0.23785381908E+02  0.27894242995E+02  0.26177859227E+02  0.45045682351E+02  0.00000000000E+00 0.  1.
         11    1    3    3    0    0 -0.12055564452E+02 -0.14741167550E+02 -0.10520330031E+02  0.21755826788E+02  0.51100000000E-03 0. -1.
        -11    1    3    3    0    0 -0.53495450721E+01 -0.22504355927E+01 -0.31222686647E+01  0.65901938296E+01  0.51100000000E-03 0.  1.
         12    1    3    3    0    0 -0.63802723839E+01 -0.10902639853E+02 -0.12535260531E+02  0.17796297032E+02  0.00000000000E+00 0. -1.
</event>
<event>
 7    1  0.1541705E-008  0.4614232E+02  0.7816164E-02  0.1320468E+00
        -11   -1    0    0    0    0  0.00000000000E+00  0.00000000000E+00  0.45593999997E+02  0.45594000000E+02  0.51100000000E-03 0. -1.
         11   -1    0    0    0    0 -0.00000000000E+00 -0.00000000000E+00 -0.45593999997E+02  0.45594000000E+02  0.51100000000E-03 0.  1.
    9900012    2    1    2    0    0  0.37644060249E+02 -0.24672650818E+02 -0.18161785013E+01  0.46142317912E+02  0.10000001374E+02 0.  0.
        -12    1    1    2    0    0 -0.37644060249E+02  0.24672650818E+02  0.18161785013E+01  0.45045682088E+02  0.00000000000E+00 0.  1.
         11    1    3    3    0    0  0.18656544685E+02 -0.91503248160E+01 -0.17546187198E+01  0.20853627764E+02  0.51100000000E-03 0. -1.
        -11    1    3    3    0    0  0.70840341564E+00 -0.30663100080E+01 -0.35557555781E+00  0.31671006777E+01  0.51100000000E-03 0.  1.
         12    1    3    3    0    0  0.18279112149E+02 -0.12456015994E+02  0.29401577635E+00  0.22121589470E+02  0.00000000000E+00 0. -1.
</event>
<event>
 7    1  0.1541705E-008  0.4614232E+02  0.7816164E-02  0.1320468E+00
        -11   -1    0    0    0    0  0.00000000000E+00  0.00000000000E+00  0.45593999997E+02  0.45594000000E+02  0.51100000000E-03 0. -1.
         11   -1    0    0    0    0 -0.00000000000E+00 -0.00000000000E+00 -0.45593999997E+02  0.45594000000E+02  0.51100000000E-03 0.  1.
    9900012    2    1    2    0    0 -0.63278460051E+01  0.39318160958E+02 -0.21051225685E+02  0.46142317420E+02  0.99999968917E+01 0.  0.
        -12    1    1    2    0    0  0.63278460051E+01 -0.39318160958E+02  0.21051225685E+02  0.45045682580E+02  0.00000000000E+00 0.  1.
         11    1    3    3    0    0 -0.11071175841E+01  0.40880994000E+01 -0.74407274855E+00  0.43002221530E+01  0.51100000000E-03 0. -1.
        -11    1    3    3    0    0 -0.55202324510E+01  0.10598914954E+02 -0.65209958955E+01  0.13613719266E+02  0.51100000000E-03 0.  1.
        -12    1    3    3    0    0  0.29950403000E+00  0.24631146604E+02 -0.13786157041E+02  0.28228376001E+02  0.00000000000E+00 0.  1.
</event>
<event>
 7    1  0.1541705E-008  0.4614233E+02  0.7816164E-02  0.1320468E+00
        -11   -1    0    0    0    0  0.00000000000E+00  0.00000000000E+00  0.45593999997E+02  0.45594000000E+02  0.51100000000E-03 0. -1.
         11   -1    0    0    0    0 -0.00000000000E+00 -0.00000000000E+00 -0.45593999997E+02  0.45594000000E+02  0.51100000000E-03 0.  1.
    9900012    2    1    2    0    0 -0.33925228604E+02  0.29622776576E+02 -0.82612926158E+00  0.46142328538E+02  0.10000098268E+02 0.  0.
        -12    1    1    2    0    0  0.33925228604E+02 -0.29622776576E+02  0.82612926158E+00  0.45045671462E+02  0.00000000000E+00 0.  1.
         11    1    3    3    0    0 -0.25655165465E+02  0.18173932057E+02  0.23604160132E+01  0.31528572525E+02  0.51100000000E-03 0. -1.
        -11    1    3    3    0    0 -0.23287464413E+01  0.22564710816E+01 -0.13637267625E+01  0.35177368682E+01  0.51100000000E-03 0.  1.
         12    1    3    3    0    0 -0.59413166982E+01  0.91923734374E+01 -0.18228185123E+01  0.11096019144E+02  0.00000000000E+00 0. -1.
</event>
<event>
 7    1  0.1541705E-008  0.4614232E+02  0.7816164E-02  0.1320468E+00
        -11   -1    0    0    0    0  0.00000000000E+00  0.00000000000E+00  0.45593999997E+02  0.45594000000E+02  0.51100000000E-03 0.  1.
         11   -1    0    0    0    0 -0.00000000000E+00 -0.00000000000E+00 -0.45593999997E+02  0.45594000000E+02  0.51100000000E-03 0. -1.
    9900012    2    1    2    0    0 -0.27602836930E+02  0.87811045791E+01 -0.34497670229E+02  0.46142315907E+02  0.99999830892E+01 0.  0.
        -12    1    1    2    0    0  0.27602836930E+02 -0.87811045791E+01  0.34497670229E+02  0.45045684093E+02  0.00000000000E+00 0.  1.
         11    1    3    3    0    0 -0.14936850070E+02  0.45800154580E+01 -0.25743747858E+02  0.30113561491E+02  0.51100000000E-03 0. -1.
        -11    1    3    3    0    0 -0.10546180383E+02  0.40608693631E+01 -0.74628038532E+01  0.13542747959E+02  0.51100000000E-03 0.  1.
         12    1    3    3    0    0 -0.21198064764E+01  0.14021975797E+00 -0.12911185178E+01  0.24860064571E+01  0.00000000000E+00 0. -1.
</event>
<event>
 7    1  0.1541705E-008  0.4614232E+02  0.7816164E-02  0.1320468E+00
        -11   -1    0    0    0    0  0.00000000000E+00  0.00000000000E+00  0.45593999997E+02  0.45594000000E+02  0.51100000000E-03 0.  1.
         11   -1    0    0    0    0 -0.00000000000E+00 -0.00000000000E+00 -0.45593999997E+02  0.45594000000E+02  0.51100000000E-03 0. -1.
    9900012    2    1    2    0    0  0.10657865663E+02  0.58869051122E+01 -0.43368971810E+02  0.46142317986E+02  0.10000002050E+02 0.  0.
        -12    1    1    2    0    0 -0.10657865663E+02 -0.58869051122E+01  0.43368971810E+02  0.45045682014E+02  0.00000000000E+00 0.  1.
         11    1    3    3    0    0  0.11831657466E+01  0.37263464402E+01 -0.13650427275E+02  0.14199285335E+02  0.51100000000E-03 0. -1.
        -11    1    3    3    0    0  0.91387130472E+01  0.37452757119E+01 -0.22979292088E+02  0.25011817836E+02  0.51100000000E-03 0.  1.
        -12    1    3    3    0    0  0.33598686874E+00 -0.15847170399E+01 -0.67392524469E+01  0.69312148152E+01  0.00000000000E+00 0.  1.
</event>
<event>
 7    1  0.1541705E-008  0.4614232E+02  0.7816164E-02  0.1320468E+00
        -11   -1    0    0    0    0  0.00000000000E+00  0.00000000000E+00  0.45593999997E+02  0.45594000000E+02  0.51100000000E-03 0.  1.
         11   -1    0    0    0    0 -0.00000000000E+00 -0.00000000000E+00 -0.45593999997E+02  0.45594000000E+02  0.51100000000E-03 0. -1.
    9900012    2    1    2    0    0  0.38184453167E+02  0.23000596066E+02  0.64833132476E+01  0.46142320588E+02  0.10000025775E+02 0.  0.
        -12    1    1    2    0    0 -0.38184453167E+02 -0.23000596066E+02 -0.64833132476E+01  0.45045679412E+02  0.00000000000E+00 0.  1.
         11    1    3    3    0    0  0.36149082459E-01 -0.43120661499E+00  0.12824199287E+00  0.45132269036E+00  0.51100000000E-03 0. -1.
        -11    1    3    3    0    0  0.46837321377E+01  0.55294173637E+01  0.24969994628E+00  0.72508036413E+01  0.51100000000E-03 0.  1.
         12    1    3    3    0    0  0.33464571947E+02  0.17902385317E+02  0.61053713085E+01  0.38440194256E+02  0.00000000000E+00 0. -1.
</event>
<event>
 7    1  0.1541705E-008  0.4614232E+02  0.7816164E-02  0.1320468E+00
        -11   -1    0    0    0    0  0.00000000000E+00  0.00000000000E+00  0.45593999997E+02  0.45594000000E+02  0.51100000000E-03 0.  1.
         11   -1    0    0    0    0 -0.00000000000E+00 -0.00000000000E+00 -0.45593999997E+02  0.45594000000E+02  0.51100000000E-03 0. -1.
    9900012    2    1    2    0    0  0.25403629312E+02 -0.42975885098E+01 -0.36949964453E+02  0.46142317385E+02  0.99999965686E+01 0.  0.
        -12    1    1    2    0    0 -0.25403629312E+02  0.42975885098E+01  0.36949964453E+02  0.45045682615E+02  0.00000000000E+00 0.  1.
         11    1    3    3    0    0  0.92498175491E+00 -0.90876500113E+00 -0.29223496437E+01  0.31971194496E+01  0.51100000000E-03 0. -1.
        -11    1    3    3    0    0  0.47343476193E+01 -0.29947077330E+01 -0.35607587828E+01  0.66378705288E+01  0.51100000000E-03 0.  1.
        -12    1    3    3    0    0  0.19744299937E+02 -0.39411577569E+00 -0.30466856026E+02  0.36307327406E+02  0.00000000000E+00 0.  1.
</event>
<event>
 7    1  0.1541705E-008  0.4614232E+02  0.7816164E-02  0.1320468E+00
        -11   -1    0    0    0    0  0.00000000000E+00  0.00000000000E+00  0.45593999997E+02  0.45594000000E+02  0.51100000000E-03 0. -1.
         11   -1    0    0    0    0 -0.00000000000E+00 -0.00000000000E+00 -0.45593999997E+02  0.45594000000E+02  0.51100000000E-03 0.  1.
    9900012    2    1    2    0    0  0.11887874214E+01 -0.16496932915E+02  0.41899304074E+02  0.46142315490E+02  0.99999792874E+01 0.  0.
        -12    1    1    2    0    0 -0.11887874214E+01  0.16496932915E+02 -0.41899304074E+02  0.45045684510E+02  0.00000000000E+00 0.  1.
         11    1    3    3    0    0  0.22577895123E+01 -0.77132060996E+00  0.18180952258E+01  0.29996698946E+01  0.51100000000E-03 0.  1.
        -11    1    3    3    0    0 -0.15127689420E+00 -0.96372282721E+01  0.27397639207E+02  0.29043582558E+02  0.51100000000E-03 0. -1.
         12    1    3    3    0    0 -0.91772519667E+00 -0.60883840326E+01  0.12683569642E+02  0.14099063037E+02  0.00000000000E+00 0. -1.
</event>
<event>
 7    1  0.1541705E-008  0.4614232E+02  0.7816164E-02  0.1320468E+00
        -11   -1    0    0    0    0  0.00000000000E+00  0.00000000000E+00  0.45593999997E+02  0.45594000000E+02  0.51100000000E-03 0.  1.
         11   -1    0    0    0    0 -0.00000000000E+00 -0.00000000000E+00 -0.45593999997E+02  0.45594000000E+02  0.51100000000E-03 0. -1.
    9900012    2    1    2    0    0  0.21040856585E+02  0.25238807700E+01 -0.39749539299E+02  0.46142317693E+02  0.99999993825E+01 0.  0.
        -12    1    1    2    0    0 -0.21040856585E+02 -0.25238807700E+01  0.39749539299E+02  0.45045682307E+02  0.00000000000E+00 0.  1.
         11    1    3    3    0    0  0.47793189959E+01 -0.14558584611E+01 -0.47043149085E+01  0.68623605955E+01  0.51100000000E-03 0. -1.
        -11    1    3    3    0    0  0.16244353160E+01  0.16578840752E+01 -0.20009838910E+01  0.30645238612E+01  0.51100000000E-03 0.  1.
         12    1    3    3    0    0  0.14637102273E+02  0.23218551559E+01 -0.33044240500E+02  0.36215433237E+02  0.00000000000E+00 0. -1.
</event>
<event>
 7    1  0.1541705E-008  0.4614232E+02  0.7816164E-02  0.1320468E+00
        -11   -1    0    0    0    0  0.00000000000E+00  0.00000000000E+00  0.45593999997E+02  0.45594000000E+02  0.51100000000E-03 0.  1.
         11   -1    0    0    0    0 -0.00000000000E+00 -0.00000000000E+00 -0.45593999997E+02  0.45594000000E+02  0.51100000000E-03 0. -1.
    9900012    2    1    2    0    0 -0.34368688953E+02 -0.10744257333E+02 -0.27064139309E+02  0.46142317826E+02  0.10000000589E+02 0.  0.
        -12    1    1    2    0    0  0.34368688953E+02  0.10744257333E+02  0.27064139309E+02  0.45045682174E+02  0.00000000000E+00 0.  1.
         11    1    3    3    0    0 -0.19446427782E+02 -0.50304611800E+01 -0.16936660489E+02  0.26273933126E+02  0.51100000000E-03 0. -1.
        -11    1    3    3    0    0 -0.54694950266E+01 -0.53105652674E+01 -0.42057580493E+01  0.87066572423E+01  0.51100000000E-03 0.  1.
         12    1    3    3    0    0 -0.94527661445E+01 -0.40323088575E+00 -0.59217207713E+01  0.11161727457E+02  0.00000000000E+00 0. -1.
</event>
<event>
 7    1  0.1541705E-008  0.4614232E+02  0.7816164E-02  0.1320468E+00
        -11   -1    0    0    0    0  0.00000000000E+00  0.00000000000E+00  0.45593999997E+02  0.45594000000E+02  0.51100000000E-03 0.  1.
         11   -1    0    0    0    0 -0.00000000000E+00 -0.00000000000E+00 -0.45593999997E+02  0.45594000000E+02  0.51100000000E-03 0. -1.
    9900012    2    1    2    0    0  0.22209943536E+02 -0.39169963485E+02 -0.12433146770E+01  0.46142318046E+02  0.10000002596E+02 0.  0.
        -12    1    1    2    0    0 -0.22209943536E+02  0.39169963485E+02  0.12433146770E+01  0.45045681954E+02  0.00000000000E+00 0.  1.
         11    1    3    3    0    0  0.12296685407E+02 -0.19218063436E+02 -0.37482926434E+01  0.23121248501E+02  0.51100000000E-03 0. -1.
        -11    1    3    3    0    0  0.97540031527E+01 -0.19781157817E+02  0.16299353614E+01  0.22115412536E+02  0.51100000000E-03 0.  1.
        -12    1    3    3    0    0  0.15925497614E+00 -0.17074223215E+00  0.87504260500E+00  0.90565700894E+00  0.00000000000E+00 0.  1.
</event>
<event>
 7    1  0.1541705E-008  0.4614232E+02  0.7816164E-02  0.1320468E+00
        -11   -1    0    0    0    0  0.00000000000E+00  0.00000000000E+00  0.45593999997E+02  0.45594000000E+02  0.51100000000E-03 0. -1.
         11   -1    0    0    0    0 -0.00000000000E+00 -0.00000000000E+00 -0.45593999997E+02  0.45594000000E+02  0.51100000000E-03 0.  1.
    9900012    2    1    2    0    0  0.74113834937E+01 -0.44350181014E+02 -0.26918726006E+01  0.46142319415E+02  0.10000015083E+02 0.  0.
        -12    1    1    2    0    0 -0.74113834937E+01  0.44350181014E+02  0.26918726006E+01  0.45045680585E+02  0.00000000000E+00 0.  1.
         11    1    3    3    0    0  0.23048515655E+01 -0.15346233221E+02  0.53722252177E+00  0.15527647057E+02  0.51100000000E-03 0. -1.
        -11    1    3    3    0    0  0.36885432032E+01 -0.49898823187E+01  0.68335065865E+00  0.62426953233E+01  0.51100000000E-03 0.  1.
        -12    1    3    3    0    0  0.14179887250E+01 -0.24014065474E+02 -0.39124457811E+01  0.24371977035E+02  0.00000000000E+00 0.  1.
</event>
<event>
 7    1  0.1541705E-008  0.4614232E+02  0.7816164E-02  0.1320468E+00
        -11   -1    0    0    0    0  0.00000000000E+00  0.00000000000E+00  0.45593999997E+02  0.45594000000E+02  0.51100000000E-03 0.  1.
         11   -1    0    0    0    0 -0.00000000000E+00 -0.00000000000E+00 -0.45593999997E+02  0.45594000000E+02  0.51100000000E-03 0. -1.
    9900012    2    1    2    0    0 -0.24632185125E+02 -0.11047461939E+01 -0.37698119676E+02  0.46142320570E+02  0.10000025613E+02 0.  0.
        -12    1    1    2    0    0  0.24632185125E+02  0.11047461939E+01  0.37698119676E+02  0.45045679430E+02  0.00000000000E+00 0.  1.
         11    1    3    3    0    0 -0.12436205525E+01 -0.28654572197E+00 -0.25596960239E+01  0.28602000848E+01  0.51100000000E-03 0. -1.
        -11    1    3    3    0    0 -0.80853659731E+00 -0.12081728462E+01  0.67689179739E-01  0.14553333438E+01  0.51100000000E-03 0.  1.
        -12    1    3    3    0    0 -0.22580027975E+02  0.38997237424E+00 -0.35206112832E+02  0.41826787141E+02  0.00000000000E+00 0.  1.
</event>
<event>
 7    1  0.1541705E-008  0.4614232E+02  0.7816164E-02  0.1320468E+00
        -11   -1    0    0    0    0  0.00000000000E+00  0.00000000000E+00  0.45593999997E+02  0.45594000000E+02  0.51100000000E-03 0.  1.
         11   -1    0    0    0    0 -0.00000000000E+00 -0.00000000000E+00 -0.45593999997E+02  0.45594000000E+02  0.51100000000E-03 0. -1.
    9900012    2    1    2    0    0  0.34879774030E+02 -0.17299900073E+02 -0.22654543640E+02  0.46142317339E+02  0.99999961495E+01 0.  0.
        -12    1    1    2    0    0 -0.34879774030E+02  0.17299900073E+02  0.22654543640E+02  0.45045682661E+02  0.00000000000E+00 0.  1.
         11    1    3    3    0    0  0.19639619970E+02 -0.14355078158E+02 -0.11392604521E+02  0.26862136541E+02  0.51100000000E-03 0. -1.
        -11    1    3    3    0    0  0.39323376838E+01  0.10214818067E+00 -0.26373060847E+01  0.47359368192E+01  0.51100000000E-03 0.  1.
         12    1    3    3    0    0  0.11307816376E+02 -0.30469700951E+01 -0.86246330338E+01  0.14544243979E+02  0.00000000000E+00 0. -1.
</event>
<event>
 7    1  0.1541705E-008  0.4614232E+02  0.7816164E-02  0.1320468E+00
        -11   -1    0    0    0    0  0.00000000000E+00  0.00000000000E+00  0.45593999997E+02  0.45594000000E+02  0.51100000000E-03 0.  1.
         11   -1    0    0    0    0 -0.00000000000E+00 -0.00000000000E+00 -0.45593999997E+02  0.45594000000E+02  0.51100000000E-03 0. -1.
    9900012    2    1    2    0    0  0.41839829014E+02  0.83790544591E+01 -0.14433765162E+02  0.46142318495E+02  0.10000006690E+02 0.  0.
        -12    1    1    2    0    0 -0.41839829014E+02 -0.83790544591E+01  0.14433765162E+02  0.45045681505E+02  0.00000000000E+00 0.  1.
         11    1    3    3    0    0  0.27434210015E+02  0.70097042035E+01 -0.47664055595E+01  0.28713941812E+02  0.51100000000E-03 0. -1.
        -11    1    3    3    0    0  0.10795218074E+02  0.65752447947E+00 -0.69880094832E+01  0.12876387246E+02  0.51100000000E-03 0.  1.
         12    1    3    3    0    0  0.36104009251E+01  0.71182577621E+00 -0.26793501194E+01  0.45519894374E+01  0.00000000000E+00 0. -1.
</event>
<event>
 7    1  0.1541705E-008  0.4614232E+02  0.7816164E-02  0.1320468E+00
        -11   -1    0    0    0    0  0.00000000000E+00  0.00000000000E+00  0.45593999997E+02  0.45594000000E+02  0.51100000000E-03 0.  1.
         11   -1    0    0    0    0 -0.00000000000E+00 -0.00000000000E+00 -0.45593999997E+02  0.45594000000E+02  0.51100000000E-03 0. -1.
    9900012    2    1    2    0    0  0.39441011268E+01  0.43003359702E+01 -0.44666146839E+02  0.46142317670E+02  0.99999991655E+01 0.  0.
        -12    1    1    2    0    0 -0.39441011268E+01 -0.43003359702E+01  0.44666146839E+02  0.45045682330E+02  0.00000000000E+00 0.  1.
         11    1    3    3    0    0  0.16961209314E+01  0.26085532034E+01 -0.89710099815E+01  0.94952828488E+01  0.51100000000E-03 0. -1.
        -11    1    3    3    0    0 -0.26811173761E+00  0.29735560226E+01 -0.31173188386E+02  0.31315836149E+02  0.51100000000E-03 0.  1.
        -12    1    3    3    0    0  0.25160919330E+01 -0.12817732557E+01 -0.45219484716E+01  0.53311986714E+01  0.00000000000E+00 0.  1.
</event>
<event>
 7    1  0.1541705E-008  0.4614232E+02  0.7816164E-02  0.1320468E+00
        -11   -1    0    0    0    0  0.00000000000E+00  0.00000000000E+00  0.45593999997E+02  0.45594000000E+02  0.51100000000E-03 0.  1.
         11   -1    0    0    0    0 -0.00000000000E+00 -0.00000000000E+00 -0.45593999997E+02  0.45594000000E+02  0.51100000000E-03 0. -1.
    9900012    2    1    2    0    0  0.35145401847E+02  0.22966411321E+01 -0.28082725468E+02  0.46142319839E+02  0.10000018944E+02 0.  0.
        -12    1    1    2    0    0 -0.35145401847E+02 -0.22966411321E+01  0.28082725468E+02  0.45045680161E+02  0.00000000000E+00 0.  1.
         11    1    3    3    0    0  0.22065106991E+02  0.48545134143E+01 -0.19824882333E+02  0.30057631424E+02  0.51100000000E-03 0. -1.
        -11    1    3    3    0    0  0.65209840763E+01 -0.46091742773E+00 -0.21551193107E+01  0.68833289695E+01  0.51100000000E-03 0.  1.
        -12    1    3    3    0    0  0.65593107801E+01 -0.20969548545E+01 -0.61027238242E+01  0.92013594456E+01  0.00000000000E+00 0.  1.
</event>
<event>
 7    1  0.1541705E-008  0.4614232E+02  0.7816164E-02  0.1320468E+00
        -11   -1    0    0    0    0  0.00000000000E+00  0.00000000000E+00  0.45593999997E+02  0.45594000000E+02  0.51100000000E-03 0.  1.
         11   -1    0    0    0    0 -0.00000000000E+00 -0.00000000000E+00 -0.45593999997E+02  0.45594000000E+02  0.51100000000E-03 0. -1.
    9900012    2    1    2    0    0 -0.43027565910E+02  0.21519150797E+01 -0.13157177598E+02  0.46142317754E+02  0.99999999388E+01 0.  0.
        -12    1    1    2    0    0  0.43027565910E+02 -0.21519150797E+01  0.13157177598E+02  0.45045682246E+02  0.00000000000E+00 0.  1.
         11    1    3    3    0    0 -0.26830784814E+02  0.74355118461E+00 -0.67246843388E+01  0.27670657054E+02  0.51100000000E-03 0. -1.
        -11    1    3    3    0    0 -0.11496039305E+02  0.37056688049E+01 -0.42865934103E+01  0.12816621408E+02  0.51100000000E-03 0.  1.
        -12    1    3    3    0    0 -0.47007417906E+01 -0.22973049098E+01 -0.21458998491E+01  0.56550392919E+01  0.00000000000E+00 0.  1.
</event>
<event>
 7    1  0.1541705E-008  0.4614232E+02  0.7816164E-02  0.1320468E+00
        -11   -1    0    0    0    0  0.00000000000E+00  0.00000000000E+00  0.45593999997E+02  0.45594000000E+02  0.51100000000E-03 0.  1.
         11   -1    0    0    0    0 -0.00000000000E+00 -0.00000000000E+00 -0.45593999997E+02  0.45594000000E+02  0.51100000000E-03 0. -1.
    9900012    2    1    2    0    0  0.40829598862E+01 -0.35294975947E+02 -0.27689485707E+02  0.46142317551E+02  0.99999980879E+01 0.  0.
        -12    1    1    2    0    0 -0.40829598862E+01  0.35294975947E+02  0.27689485707E+02  0.45045682449E+02  0.00000000000E+00 0.  1.
         11    1    3    3    0    0  0.43630026894E+01 -0.72627029099E+01 -0.65699671438E+01  0.10721339215E+02  0.51100000000E-03 0. -1.
        -11    1    3    3    0    0 -0.52816345252E+00 -0.11911854546E+01 -0.61758997116E-01  0.13044898829E+01  0.51100000000E-03 0.  1.
         12    1    3    3    0    0  0.24812064938E+00 -0.26841087583E+02 -0.21057759566E+02  0.34116488454E+02  0.00000000000E+00 0. -1.
</event>
<event>
 7    1  0.1541705E-008  0.4614232E+02  0.7816164E-02  0.1320468E+00
        -11   -1    0    0    0    0  0.00000000000E+00  0.00000000000E+00  0.45593999997E+02  0.45594000000E+02  0.51100000000E-03 0. -1.
         11   -1    0    0    0    0 -0.00000000000E+00 -0.00000000000E+00 -0.45593999997E+02  0.45594000000E+02  0.51100000000E-03 0.  1.
    9900012    2    1    2    0    0  0.33623976152E+02 -0.25099671313E+02  0.16387440120E+02  0.46142318010E+02  0.10000002266E+02 0.  0.
        -12    1    1    2    0    0 -0.33623976152E+02  0.25099671313E+02 -0.16387440120E+02  0.45045681990E+02  0.00000000000E+00 0.  1.
         11    1    3    3    0    0  0.16598726697E+02 -0.17602596681E+02  0.11441957360E+02  0.26763548463E+02  0.51100000000E-03 0.  1.
        -11    1    3    3    0    0  0.12077025021E+02 -0.61970291835E+01  0.41967930515E+01  0.14208123600E+02  0.51100000000E-03 0. -1.
        -12    1    3    3    0    0  0.49482244344E+01 -0.13000454483E+01  0.74868970913E+00  0.51706459462E+01  0.00000000000E+00 0.  1.
</event>
<event>
 7    1  0.1541705E-008  0.4614232E+02  0.7816164E-02  0.1320468E+00
        -11   -1    0    0    0    0  0.00000000000E+00  0.00000000000E+00  0.45593999997E+02  0.45594000000E+02  0.51100000000E-03 0.  1.
         11   -1    0    0    0    0 -0.00000000000E+00 -0.00000000000E+00 -0.45593999997E+02  0.45594000000E+02  0.51100000000E-03 0. -1.
    9900012    2    1    2    0    0 -0.40787715472E+02 -0.15668377901E+02 -0.10953422047E+02  0.46142320363E+02  0.10000023722E+02 0.  0.
        -12    1    1    2    0    0  0.40787715472E+02  0.15668377901E+02  0.10953422047E+02  0.45045679637E+02  0.00000000000E+00 0.  1.
         11    1    3    3    0    0 -0.26550589197E+02 -0.69755294996E+01 -0.68732620594E+01  0.28299002281E+02  0.51100000000E-03 0. -1.
        -11    1    3    3    0    0 -0.44802339114E+01 -0.29734982489E+01  0.95865517372E+00  0.54619783723E+01  0.51100000000E-03 0.  1.
         12    1    3    3    0    0 -0.97568923631E+01 -0.57193501526E+01 -0.50388151613E+01  0.12381339709E+02  0.00000000000E+00 0. -1.
</event>
<event>
 7    1  0.1541705E-008  0.4614232E+02  0.7816164E-02  0.1320468E+00
        -11   -1    0    0    0    0  0.00000000000E+00  0.00000000000E+00  0.45593999997E+02  0.45594000000E+02  0.51100000000E-03 0.  1.
         11   -1    0    0    0    0 -0.00000000000E+00 -0.00000000000E+00 -0.45593999997E+02  0.45594000000E+02  0.51100000000E-03 0. -1.
    9900012    2    1    2    0    0  0.46366102007E+01  0.40997503754E+02 -0.18078162990E+02  0.46142318240E+02  0.10000004363E+02 0.  0.
        -12    1    1    2    0    0 -0.46366102007E+01 -0.40997503754E+02  0.18078162990E+02  0.45045681760E+02  0.00000000000E+00 0.  1.
         11    1    3    3    0    0 -0.86245684597E-01  0.88616031320E+01 -0.43080087526E+01  0.98536484645E+01  0.51100000000E-03 0. -1.
        -11    1    3    3    0    0  0.29174724918E+01  0.26450136598E+02 -0.14456419772E+02  0.30283814896E+02  0.51100000000E-03 0.  1.
        -12    1    3    3    0    0  0.18053833935E+01  0.56857640239E+01  0.68626553507E+00  0.60048548790E+01  0.00000000000E+00 0.  1.
</event>
<event>
 7    1  0.1541705E-008  0.4614231E+02  0.7816164E-02  0.1320468E+00
        -11   -1    0    0    0    0  0.00000000000E+00  0.00000000000E+00  0.45593999997E+02  0.45594000000E+02  0.51100000000E-03 0. -1.
         11   -1    0    0    0    0 -0.00000000000E+00 -0.00000000000E+00 -0.45593999997E+02  0.45594000000E+02  0.51100000000E-03 0.  1.
    9900012    2    1    2    0    0  0.27990513705E+02 -0.27889352430E+02  0.21629362814E+02  0.46142310171E+02  0.99999307862E+01 0.  0.
        -12    1    1    2    0    0 -0.27990513705E+02  0.27889352430E+02 -0.21629362814E+02  0.45045689829E+02  0.00000000000E+00 0.  1.
         11    1    3    3    0    0  0.12880451085E+02 -0.11306169328E+02  0.64363157105E+01  0.18307420496E+02  0.51100000000E-03 0. -1.
        -11    1    3    3    0    0  0.51616528636E-01 -0.10694786826E+01 -0.43715533900E+00  0.11565266837E+01  0.51100000000E-03 0.  1.
         12    1    3    3    0    0  0.15058446091E+02 -0.15513704420E+02  0.15630202442E+02  0.26678362991E+02  0.00000000000E+00 0. -1.
</event>
<event>
 7    1  0.1541705E-008  0.4614232E+02  0.7816164E-02  0.1320468E+00
        -11   -1    0    0    0    0  0.00000000000E+00  0.00000000000E+00  0.45593999997E+02  0.45594000000E+02  0.51100000000E-03 0. -1.
         11   -1    0    0    0    0 -0.00000000000E+00 -0.00000000000E+00 -0.45593999997E+02  0.45594000000E+02  0.51100000000E-03 0.  1.
    9900012    2    1    2    0    0  0.44947052429E+02 -0.26337508291E+01  0.13925933760E+01  0.46142317834E+02  0.10000000669E+02 0.  0.
        -12    1    1    2    0    0 -0.44947052429E+02  0.26337508291E+01 -0.13925933760E+01  0.45045682166E+02  0.00000000000E+00 0.  1.
         11    1    3    3    0    0  0.28874918019E+02 -0.10851351268E+00  0.10617639422E+01  0.28894636331E+02  0.51100000000E-03 0. -1.
        -11    1    3    3    0    0  0.11047102441E+02 -0.39887630617E+01  0.16228625717E+01  0.11856744338E+02  0.51100000000E-03 0.  1.
        -12    1    3    3    0    0  0.50250319688E+01  0.14635257453E+01 -0.12920331378E+01  0.53909371657E+01  0.00000000000E+00 0.  1.
</event>
<event>
 7    1  0.1541705E-008  0.4614232E+02  0.7816164E-02  0.1320468E+00
        -11   -1    0    0    0    0  0.00000000000E+00  0.00000000000E+00  0.45593999997E+02  0.45594000000E+02  0.51100000000E-03 0. -1.
         11   -1    0    0    0    0 -0.00000000000E+00 -0.00000000000E+00 -0.45593999997E+02  0.45594000000E+02  0.51100000000E-03 0.  1.
    9900012    2    1    2    0    0 -0.18172789077E+02  0.28536573494E+02  0.29741002048E+02  0.46142317715E+02  0.99999995824E+01 0.  0.
        -12    1    1    2    0    0  0.18172789077E+02 -0.28536573494E+02 -0.29741002048E+02  0.45045682285E+02  0.00000000000E+00 0.  1.
         11    1    3    3    0    0 -0.37478137447E+01  0.81657558805E+01  0.84408714896E+01  0.12327773065E+02  0.51100000000E-03 0. -1.
        -11    1    3    3    0    0 -0.72740842974E+01  0.16648325758E+02  0.13963346893E+02  0.22914059214E+02  0.51100000000E-03 0.  1.
        -12    1    3    3    0    0 -0.71508910353E+01  0.37224918556E+01  0.73367836654E+01  0.10900485437E+02  0.00000000000E+00 0.  1.
</event>
<event>
 7    1  0.1541705E-008  0.4614232E+02  0.7816164E-02  0.1320468E+00
        -11   -1    0    0    0    0  0.00000000000E+00  0.00000000000E+00  0.45593999997E+02  0.45594000000E+02  0.51100000000E-03 0.  1.
         11   -1    0    0    0    0 -0.00000000000E+00 -0.00000000000E+00 -0.45593999997E+02  0.45594000000E+02  0.51100000000E-03 0. -1.
    9900012    2    1    2    0    0  0.39524274415E+02  0.18310521789E+02 -0.11474753236E+02  0.46142318319E+02  0.10000005091E+02 0.  0.
        -12    1    1    2    0    0 -0.39524274415E+02 -0.18310521789E+02  0.11474753236E+02  0.45045681681E+02  0.00000000000E+00 0.  1.
         11    1    3    3    0    0  0.19330891647E+02  0.73187909872E+01 -0.55597002749E+01  0.21404633629E+02  0.51100000000E-03 0. -1.
        -11    1    3    3    0    0  0.17650549265E+02  0.87078224163E+01 -0.23876214337E+01  0.19825962699E+02  0.51100000000E-03 0.  1.
        -12    1    3    3    0    0  0.25428335036E+01  0.22839083858E+01 -0.35274315270E+01  0.49117219912E+01  0.00000000000E+00 0.  1.
</event>
<event>
 7    1  0.1541705E-008  0.4614230E+02  0.7816164E-02  0.1320468E+00
        -11   -1    0    0    0    0  0.00000000000E+00  0.00000000000E+00  0.45593999997E+02  0.45594000000E+02  0.51100000000E-03 0.  1.
         11   -1    0    0    0    0 -0.00000000000E+00 -0.00000000000E+00 -0.45593999997E+02  0.45594000000E+02  0.51100000000E-03 0. -1.
    9900012    2    1    2    0    0  0.40992563998E+02  0.74684028040E+00 -0.18659225559E+02  0.46142303513E+02  0.99998700766E+01 0.  0.
        -12    1    1    2    0    0 -0.40992563998E+02 -0.74684028040E+00  0.18659225559E+02  0.45045696487E+02  0.00000000000E+00 0.  1.
         11    1    3    3    0    0  0.30459730848E+02 -0.77952593408E+00 -0.11307332306E+02  0.32500132741E+02  0.51100000000E-03 0. -1.
        -11    1    3    3    0    0  0.32926648769E+01  0.24241027066E+01 -0.35527376463E+01  0.54166281918E+01  0.51100000000E-03 0.  1.
        -12    1    3    3    0    0  0.72401682726E+01 -0.89773649208E+00 -0.37991556067E+01  0.82255425808E+01  0.00000000000E+00 0.  1.
</event>
<event>
 7    1  0.1541705E-008  0.4614232E+02  0.7816164E-02  0.1320468E+00
        -11   -1    0    0    0    0  0.00000000000E+00  0.00000000000E+00  0.45593999997E+02  0.45594000000E+02  0.51100000000E-03 0.  1.
         11   -1    0    0    0    0 -0.00000000000E+00 -0.00000000000E+00 -0.45593999997E+02  0.45594000000E+02  0.51100000000E-03 0. -1.
    9900012    2    1    2    0    0  0.46713376907E+01 -0.14998678408E+02 -0.42217671193E+02  0.46142317513E+02  0.99999977346E+01 0.  0.
        -12    1    1    2    0    0 -0.46713376907E+01  0.14998678408E+02  0.42217671193E+02  0.45045682487E+02  0.00000000000E+00 0.  1.
         11    1    3    3    0    0  0.44332242669E+01 -0.39223912701E+01 -0.11279794688E+02  0.12738618416E+02  0.51100000000E-03 0. -1.
        -11    1    3    3    0    0 -0.33248106359E+00 -0.10745083746E+02 -0.30928863854E+02  0.32743884741E+02  0.51100000000E-03 0.  1.
         12    1    3    3    0    0  0.57059448745E+00 -0.33120339182E+00 -0.90126502188E-02  0.65981435550E+00  0.00000000000E+00 0. -1.
</event>
<event>
 7    1  0.1541705E-008  0.4614232E+02  0.7816164E-02  0.1320468E+00
        -11   -1    0    0    0    0  0.00000000000E+00  0.00000000000E+00  0.45593999997E+02  0.45594000000E+02  0.51100000000E-03 0. -1.
         11   -1    0    0    0    0 -0.00000000000E+00 -0.00000000000E+00 -0.45593999997E+02  0.45594000000E+02  0.51100000000E-03 0.  1.
    9900012    2    1    2    0    0  0.13680843075E+01  0.44759889678E+02 -0.48779270023E+01  0.46142317071E+02  0.99999937076E+01 0.  0.
        -12    1    1    2    0    0 -0.13680843075E+01 -0.44759889678E+02  0.48779270023E+01  0.45045682929E+02  0.00000000000E+00 0.  1.
         11    1    3    3    0    0 -0.92597801472E+00  0.28255332043E+02 -0.44411291742E+01  0.28617212526E+02  0.51100000000E-03 0. -1.
        -11    1    3    3    0    0  0.11480588189E+01  0.89585377479E+01  0.24608217804E+01  0.93610406328E+01  0.51100000000E-03 0.  1.
        -12    1    3    3    0    0  0.11460035033E+01  0.75460198876E+01 -0.28976196085E+01  0.81640639126E+01  0.00000000000E+00 0.  1.
</event>
<event>
 7    1  0.1541705E-008  0.4614232E+02  0.7816164E-02  0.1320468E+00
        -11   -1    0    0    0    0  0.00000000000E+00  0.00000000000E+00  0.45593999997E+02  0.45594000000E+02  0.51100000000E-03 0.  1.
         11   -1    0    0    0    0 -0.00000000000E+00 -0.00000000000E+00 -0.45593999997E+02  0.45594000000E+02  0.51100000000E-03 0. -1.
    9900012    2    1    2    0    0 -0.37525053156E-01 -0.33091516642E+02 -0.30562454344E+02  0.46142317661E+02  0.99999990901E+01 0.  0.
        -12    1    1    2    0    0  0.37525053156E-01  0.33091516642E+02  0.30562454344E+02  0.45045682339E+02  0.00000000000E+00 0.  1.
         11    1    3    3    0    0  0.47611005750E+01 -0.18437140165E+02 -0.16032682914E+02  0.24892632200E+02  0.51100000000E-03 0. -1.
        -11    1    3    3    0    0 -0.21697499374E+01 -0.47385153998E+01 -0.55889032958E+01  0.76418049764E+01  0.51100000000E-03 0.  1.
        -12    1    3    3    0    0 -0.26288756907E+01 -0.99158610775E+01 -0.89408681345E+01  0.13607880485E+02  0.00000000000E+00 0.  1.
</event>
<event>
 7    1  0.1541705E-008  0.4614232E+02  0.7816164E-02  0.1320468E+00
        -11   -1    0    0    0    0  0.00000000000E+00  0.00000000000E+00  0.45593999997E+02  0.45594000000E+02  0.51100000000E-03 0.  1.
         11   -1    0    0    0    0 -0.00000000000E+00 -0.00000000000E+00 -0.45593999997E+02  0.45594000000E+02  0.51100000000E-03 0. -1.
    9900012    2    1    2    0    0  0.32674922690E+02 -0.16142122055E+02 -0.26474418171E+02  0.46142317691E+02  0.99999993578E+01 0.  0.
        -12    1    1    2    0    0 -0.32674922690E+02  0.16142122055E+02  0.26474418171E+02  0.45045682309E+02  0.00000000000E+00 0.  1.
         11    1    3    3    0    0  0.18240714488E+02 -0.61724180947E+01 -0.18155441808E+02  0.26465873831E+02  0.51100000000E-03 0. -1.
        -11    1    3    3    0    0  0.23392647439E+01 -0.28590389260E+01 -0.88604788983E+00  0.37988609144E+01  0.51100000000E-03 0.  1.
         12    1    3    3    0    0  0.12094943458E+02 -0.71106650347E+01 -0.74329284732E+01  0.15877582945E+02  0.00000000000E+00 0. -1.
</event>
<event>
 7    1  0.1541705E-008  0.4614232E+02  0.7816164E-02  0.1320468E+00
        -11   -1    0    0    0    0  0.00000000000E+00  0.00000000000E+00  0.45593999997E+02  0.45594000000E+02  0.51100000000E-03 0. -1.
         11   -1    0    0    0    0 -0.00000000000E+00 -0.00000000000E+00 -0.45593999997E+02  0.45594000000E+02  0.51100000000E-03 0.  1.
    9900012    2    1    2    0    0  0.28920057706E+02  0.27931264098E+02  0.20312267164E+02  0.46142318196E+02  0.10000003968E+02 0.  0.
        -12    1    1    2    0    0 -0.28920057706E+02 -0.27931264098E+02 -0.20312267164E+02  0.45045681804E+02  0.00000000000E+00 0.  1.
         11    1    3    3    0    0  0.16423151887E+02  0.12373072585E+02  0.90437984583E+01  0.22463373165E+02  0.51100000000E-03 0. -1.
        -11    1    3    3    0    0 -0.16205054506E+00  0.27972821066E+01  0.20957823629E+01  0.34990500907E+01  0.51100000000E-03 0.  1.
         12    1    3    3    0    0  0.12658956364E+02  0.12760909406E+02  0.91726863432E+01  0.20179894941E+02  0.00000000000E+00 0. -1.
</event>
<event>
 7    1  0.1541705E-008  0.4614232E+02  0.7816164E-02  0.1320468E+00
        -11   -1    0    0    0    0  0.00000000000E+00  0.00000000000E+00  0.45593999997E+02  0.45594000000E+02  0.51100000000E-03 0. -1.
         11   -1    0    0    0    0 -0.00000000000E+00 -0.00000000000E+00 -0.45593999997E+02  0.45594000000E+02  0.51100000000E-03 0.  1.
    9900012    2    1    2    0    0 -0.27645546590E+02  0.42931084333E+01  0.35304481914E+02  0.46142317971E+02  0.10000001911E+02 0.  0.
        -12    1    1    2    0    0  0.27645546590E+02 -0.42931084333E+01 -0.35304481914E+02  0.45045682029E+02  0.00000000000E+00 0.  1.
         11    1    3    3    0    0 -0.83796336732E+01  0.39920165097E+01  0.10469221639E+02  0.13991392293E+02  0.51100000000E-03 0. -1.
        -11    1    3    3    0    0 -0.11975918249E+02 -0.26137555388E+01  0.12336783220E+02  0.17391105669E+02  0.51100000000E-03 0.  1.
        -12    1    3    3    0    0 -0.72899946678E+01  0.29148474623E+01  0.12498477055E+02  0.14759820008E+02  0.00000000000E+00 0.  1.
</event>
<event>
 7    1  0.1541705E-008  0.4614232E+02  0.7816164E-02  0.1320468E+00
        -11   -1    0    0    0    0  0.00000000000E+00  0.00000000000E+00  0.45593999997E+02  0.45594000000E+02  0.51100000000E-03 0.  1.
         11   -1    0    0    0    0 -0.00000000000E+00 -0.00000000000E+00 -0.45593999997E+02  0.45594000000E+02  0.51100000000E-03 0. -1.
    9900012    2    1    2    0    0  0.39424071780E+02  0.23791013946E+01  0.21660933098E+02  0.46142316724E+02  0.99999905442E+01 0.  0.
        -12    1    1    2    0    0 -0.39424071780E+02 -0.23791013946E+01 -0.21660933098E+02  0.45045683276E+02  0.00000000000E+00 0.  1.
         11    1    3    3    0    0  0.46621499362E-02 -0.66621757737E+00  0.15396337695E+01  0.16775994759E+01  0.51100000000E-03 0. -1.
        -11    1    3    3    0    0  0.62303305918E+01 -0.38275617975E+00  0.39483977622E+01  0.73860250965E+01  0.51100000000E-03 0.  1.
         12    1    3    3    0    0  0.33189079038E+02  0.34280751517E+01  0.16172901566E+02  0.37078692152E+02  0.00000000000E+00 0. -1.
</event>
<event>
 7    1  0.1541705E-008  0.4614232E+02  0.7816164E-02  0.1320468E+00
        -11   -1    0    0    0    0  0.00000000000E+00  0.00000000000E+00  0.45593999997E+02  0.45594000000E+02  0.51100000000E-03 0. -1.
         11   -1    0    0    0    0 -0.00000000000E+00 -0.00000000000E+00 -0.45593999997E+02  0.45594000000E+02  0.51100000000E-03 0.  1.
    9900012    2    1    2    0    0 -0.43150714304E+01 -0.23695188724E+02  0.38066148698E+02  0.46142317779E+02  0.10000000160E+02 0.  0.
        -12    1    1    2    0    0  0.43150714304E+01  0.23695188724E+02 -0.38066148698E+02  0.45045682221E+02  0.00000000000E+00 0.  1.
         11    1    3    3    0    0  0.20550921116E+01 -0.97624338384E+01  0.10551860410E+02  0.14521373089E+02  0.51100000000E-03 0. -1.
        -11    1    3    3    0    0 -0.57530252515E+01 -0.97032377140E+01  0.19073192371E+02  0.22159349927E+02  0.51100000000E-03 0.  1.
        -12    1    3    3    0    0 -0.61713829052E+00 -0.42295171718E+01  0.84410959165E+01  0.94615947624E+01  0.00000000000E+00 0.  1.
</event>
<event>
 7    1  0.1541705E-008  0.4614232E+02  0.7816164E-02  0.1320468E+00
        -11   -1    0    0    0    0  0.00000000000E+00  0.00000000000E+00  0.45593999997E+02  0.45594000000E+02  0.51100000000E-03 0.  1.
         11   -1    0    0    0    0 -0.00000000000E+00 -0.00000000000E+00 -0.45593999997E+02  0.45594000000E+02  0.51100000000E-03 0. -1.
    9900012    2    1    2    0    0 -0.51721941139E+00  0.13171650143E+02 -0.43073815485E+02  0.46142318034E+02  0.10000002486E+02 0.  0.
        -12    1    1    2    0    0  0.51721941139E+00 -0.13171650143E+02  0.43073815485E+02  0.45045681966E+02  0.00000000000E+00 0.  1.
         11    1    3    3    0    0 -0.19542578413E+01  0.63320112420E+01 -0.11304921950E+02  0.13103997506E+02  0.51100000000E-03 0. -1.
        -11    1    3    3    0    0  0.29789715364E+01  0.60442613366E+01 -0.19155688263E+02  0.20306347767E+02  0.51100000000E-03 0.  1.
        -12    1    3    3    0    0 -0.15419331065E+01  0.79537756425E+00 -0.12613205272E+02  0.12731972761E+02  0.00000000000E+00 0.  1.
</event>
<event>
 7    1  0.1541705E-008  0.4614232E+02  0.7816164E-02  0.1320468E+00
        -11   -1    0    0    0    0  0.00000000000E+00  0.00000000000E+00  0.45593999997E+02  0.45594000000E+02  0.51100000000E-03 0.  1.
         11   -1    0    0    0    0 -0.00000000000E+00 -0.00000000000E+00 -0.45593999997E+02  0.45594000000E+02  0.51100000000E-03 0. -1.
    9900012    2    1    2    0    0 -0.11315971339E+02  0.42724339732E+02 -0.87001804294E+01  0.46142317050E+02  0.99999935183E+01 0.  0.
        -12    1    1    2    0    0  0.11315971339E+02 -0.42724339732E+02  0.87001804294E+01  0.45045682950E+02  0.00000000000E+00 0.  1.
         11    1    3    3    0    0 -0.25998874194E+01  0.15997010061E+02 -0.19634769086E+01  0.16325409254E+02  0.51100000000E-03 0. -1.
        -11    1    3    3    0    0 -0.15808172645E+01  0.39953773652E+01 -0.39366439713E+01  0.58274513753E+01  0.51100000000E-03 0.  1.
        -12    1    3    3    0    0 -0.71352666555E+01  0.22731952306E+02 -0.28000595495E+01  0.23989456421E+02  0.00000000000E+00 0.  1.
</event>
<event>
 7    1  0.1541705E-008  0.4614232E+02  0.7816164E-02  0.1320468E+00
        -11   -1    0    0    0    0  0.00000000000E+00  0.00000000000E+00  0.45593999997E+02  0.45594000000E+02  0.51100000000E-03 0.  1.
         11   -1    0    0    0    0 -0.00000000000E+00 -0.00000000000E+00 -0.45593999997E+02  0.45594000000E+02  0.51100000000E-03 0. -1.
    9900012    2    1    2    0    0  0.12712646737E+02  0.65566315084E+01 -0.42714313658E+02  0.46142318797E+02  0.10000009445E+02 0.  0.
        -12    1    1    2    0    0 -0.12712646737E+02 -0.65566315084E+01  0.42714313658E+02  0.45045681203E+02  0.00000000000E+00 0.  1.
         11    1    3    3    0    0 -0.50169932634E-01  0.14202639700E+01 -0.93376761263E+01  0.94452031459E+01  0.51100000000E-03 0. -1.
        -11    1    3    3    0    0  0.12231306937E+02  0.57278727585E+01 -0.26197763690E+02  0.29474331516E+02  0.51100000000E-03 0.  1.
        -12    1    3    3    0    0  0.53150973277E+00 -0.59150522021E+00 -0.71788738416E+01  0.72227841346E+01  0.00000000000E+00 0.  1.
</event>
<event>
 7    1  0.1541705E-008  0.4614232E+02  0.7816164E-02  0.1320468E+00
        -11   -1    0    0    0    0  0.00000000000E+00  0.00000000000E+00  0.45593999997E+02  0.45594000000E+02  0.51100000000E-03 0.  1.
         11   -1    0    0    0    0 -0.00000000000E+00 -0.00000000000E+00 -0.45593999997E+02  0.45594000000E+02  0.51100000000E-03 0. -1.
    9900012    2    1    2    0    0  0.41228647714E+02  0.26560655839E+01  0.17951520988E+02  0.46142321156E+02  0.10000030956E+02 0.  0.
        -12    1    1    2    0    0 -0.41228647714E+02 -0.26560655839E+01 -0.17951520988E+02  0.45045678844E+02  0.00000000000E+00 0.  1.
         11    1    3    3    0    0  0.20033151070E+02  0.20896427044E+01  0.10685673070E+02  0.22800819231E+02  0.51100000000E-03 0. -1.
        -11    1    3    3    0    0  0.32804172725E+01  0.24588086989E+01  0.20690928579E+01  0.45921697721E+01  0.51100000000E-03 0.  1.
         12    1    3    3    0    0  0.17915079372E+02 -0.18923858194E+01  0.51967550604E+01  0.18749332152E+02  0.00000000000E+00 0. -1.
</event>
<event>
 7    1  0.1541705E-008  0.4614232E+02  0.7816164E-02  0.1320468E+00
        -11   -1    0    0    0    0  0.00000000000E+00  0.00000000000E+00  0.45593999997E+02  0.45594000000E+02  0.51100000000E-03 0.  1.
         11   -1    0    0    0    0 -0.00000000000E+00 -0.00000000000E+00 -0.45593999997E+02  0.45594000000E+02  0.51100000000E-03 0. -1.
    9900012    2    1    2    0    0 -0.64905589404E+01 -0.43797401895E+02 -0.82929995221E+01  0.46142316420E+02  0.99999877690E+01 0.  0.
        -12    1    1    2    0    0  0.64905589404E+01  0.43797401895E+02  0.82929995221E+01  0.45045683580E+02  0.00000000000E+00 0.  1.
         11    1    3    3    0    0 -0.33596934879E+01 -0.59030686882E+01 -0.12592164057E+01  0.69079220093E+01  0.51100000000E-03 0. -1.
        -11    1    3    3    0    0  0.75885946149E-01 -0.79708436028E+01  0.11325673125E+01  0.80512617270E+01  0.51100000000E-03 0.  1.
         12    1    3    3    0    0 -0.32067513986E+01 -0.29923489604E+02 -0.81663504289E+01  0.31183132684E+02  0.00000000000E+00 0. -1.
</event>
<event>
 7    1  0.1541705E-008  0.4614232E+02  0.7816164E-02  0.1320468E+00
        -11   -1    0    0    0    0  0.00000000000E+00  0.00000000000E+00  0.45593999997E+02  0.45594000000E+02  0.51100000000E-03 0. -1.
         11   -1    0    0    0    0 -0.00000000000E+00 -0.00000000000E+00 -0.45593999997E+02  0.45594000000E+02  0.51100000000E-03 0.  1.
    9900012    2    1    2    0    0 -0.38747831652E+02  0.22904789671E+02 -0.17577552892E+01  0.46142317063E+02  0.99999936321E+01 0.  0.
        -12    1    1    2    0    0  0.38747831652E+02 -0.22904789671E+02  0.17577552892E+01  0.45045682937E+02  0.00000000000E+00 0.  1.
         11    1    3    3    0    0 -0.11150838354E+02  0.86716738894E+01 -0.36175343254E+00  0.14130463186E+02  0.51100000000E-03 0. -1.
        -11    1    3    3    0    0 -0.29067845325E+01  0.58693734539E+00 -0.23525392957E+01  0.37852784792E+01  0.51100000000E-03 0.  1.
        -12    1    3    3    0    0 -0.24690208766E+02  0.13646178437E+02  0.95653743914E+00  0.28226575398E+02  0.00000000000E+00 0.  1.
</event>
<event>
 7    1  0.1541705E-008  0.4614232E+02  0.7816164E-02  0.1320468E+00
        -11   -1    0    0    0    0  0.00000000000E+00  0.00000000000E+00  0.45593999997E+02  0.45594000000E+02  0.51100000000E-03 0.  1.
         11   -1    0    0    0    0 -0.00000000000E+00 -0.00000000000E+00 -0.45593999997E+02  0.45594000000E+02  0.51100000000E-03 0. -1.
    9900012    2    1    2    0    0 -0.18023829918E+02 -0.34670494761E+01 -0.41136776380E+02  0.46142320430E+02  0.10000024339E+02 0.  0.
        -12    1    1    2    0    0  0.18023829918E+02  0.34670494761E+01  0.41136776380E+02  0.45045679570E+02  0.00000000000E+00 0.  1.
         11    1    3    3    0    0 -0.81013414978E+01 -0.18230120019E+01 -0.20105158656E+02  0.21752528857E+02  0.51100000000E-03 0. -1.
        -11    1    3    3    0    0 -0.34658028386E+01 -0.37860154714E+01 -0.60361470644E+01  0.79234319654E+01  0.51100000000E-03 0.  1.
        -12    1    3    3    0    0 -0.64566855819E+01  0.21419779973E+01 -0.14995470659E+02  0.16466359608E+02  0.00000000000E+00 0.  1.
</event>
<event>
 7    1  0.1541705E-008  0.4614232E+02  0.7816164E-02  0.1320468E+00
        -11   -1    0    0    0    0  0.00000000000E+00  0.00000000000E+00  0.45593999997E+02  0.45594000000E+02  0.51100000000E-03 0.  1.
         11   -1    0    0    0    0 -0.00000000000E+00 -0.00000000000E+00 -0.45593999997E+02  0.45594000000E+02  0.51100000000E-03 0. -1.
    9900012    2    1    2    0    0  0.21761045720E+02  0.32592433161E+02 -0.22210430891E+02  0.46142322620E+02  0.10000044309E+02 0.  0.
        -12    1    1    2    0    0 -0.21761045720E+02 -0.32592433161E+02  0.22210430891E+02  0.45045677380E+02  0.00000000000E+00 0.  1.
         11    1    3    3    0    0  0.12606567621E+02  0.14009292206E+02 -0.87496432327E+01  0.20778403987E+02  0.51100000000E-03 0. -1.
        -11    1    3    3    0    0  0.37517623198E+00  0.16909080725E+01  0.44540551889E+00  0.17883829713E+01  0.51100000000E-03 0.  1.
         12    1    3    3    0    0  0.87793018675E+01  0.16892232883E+02 -0.13906193178E+02  0.23575535662E+02  0.00000000000E+00 0. -1.
</event>
<event>
 7    1  0.1541705E-008  0.4614232E+02  0.7816164E-02  0.1320468E+00
        -11   -1    0    0    0    0  0.00000000000E+00  0.00000000000E+00  0.45593999997E+02  0.45594000000E+02  0.51100000000E-03 0. -1.
         11   -1    0    0    0    0 -0.00000000000E+00 -0.00000000000E+00 -0.45593999997E+02  0.45594000000E+02  0.51100000000E-03 0.  1.
    9900012    2    1    2    0    0  0.42482933408E+02  0.10105606312E+02  0.11053985689E+02  0.46142317527E+02  0.99999978637E+01 0.  0.
        -12    1    1    2    0    0 -0.42482933408E+02 -0.10105606312E+02 -0.11053985689E+02  0.45045682473E+02  0.00000000000E+00 0.  1.
         11    1    3    3    0    0  0.18406936888E+02  0.27582485202E+01  0.16547938805E+01  0.18685866411E+02  0.51100000000E-03 0. -1.
        -11    1    3    3    0    0  0.19366033207E+02  0.81621846275E+01  0.77822829905E+01  0.22410453562E+02  0.51100000000E-03 0.  1.
        -12    1    3    3    0    0  0.47099633131E+01 -0.81482683555E+00  0.16169088176E+01  0.50459975532E+01  0.00000000000E+00 0.  1.
</event>
<event>
 7    1  0.1541705E-008  0.4614232E+02  0.7816164E-02  0.1320468E+00
        -11   -1    0    0    0    0  0.00000000000E+00  0.00000000000E+00  0.45593999997E+02  0.45594000000E+02  0.51100000000E-03 0.  1.
         11   -1    0    0    0    0 -0.00000000000E+00 -0.00000000000E+00 -0.45593999997E+02  0.45594000000E+02  0.51100000000E-03 0. -1.
    9900012    2    1    2    0    0  0.31329843709E+02 -0.91380864027E+01 -0.31049148267E+02  0.46142319430E+02  0.10000015219E+02 0.  0.
        -12    1    1    2    0    0 -0.31329843709E+02  0.91380864027E+01  0.31049148267E+02  0.45045680570E+02  0.00000000000E+00 0.  1.
         11    1    3    3    0    0  0.11498526723E+02 -0.58059918525E+01 -0.10417762417E+02  0.16566696479E+02  0.51100000000E-03 0. -1.
        -11    1    3    3    0    0  0.27167104635E+00 -0.32848239364E+00 -0.31267527342E+01  0.31556756428E+01  0.51100000000E-03 0.  1.
        -12    1    3    3    0    0  0.19559645939E+02 -0.30036121566E+01 -0.17504633115E+02  0.26419947308E+02  0.00000000000E+00 0.  1.
</event>
<event>
 7    1  0.1541705E-008  0.4614232E+02  0.7816164E-02  0.1320468E+00
        -11   -1    0    0    0    0  0.00000000000E+00  0.00000000000E+00  0.45593999997E+02  0.45594000000E+02  0.51100000000E-03 0.  1.
         11   -1    0    0    0    0 -0.00000000000E+00 -0.00000000000E+00 -0.45593999997E+02  0.45594000000E+02  0.51100000000E-03 0. -1.
    9900012    2    1    2    0    0  0.40290236261E+02 -0.18171980373E+02  0.86942218357E+01  0.46142317610E+02  0.99999986212E+01 0.  0.
        -12    1    1    2    0    0 -0.40290236261E+02  0.18171980373E+02 -0.86942218357E+01  0.45045682390E+02  0.00000000000E+00 0.  1.
         11    1    3    3    0    0  0.43102578485E+01 -0.28368771667E+00  0.25413176455E+00  0.43270526523E+01  0.51100000000E-03 0. -1.
        -11    1    3    3    0    0  0.13513551024E+02 -0.57852382416E+01  0.69301853025E+01  0.16251538739E+02  0.51100000000E-03 0.  1.
        -12    1    3    3    0    0  0.22466427389E+02 -0.12103054415E+02  0.15099047686E+01  0.25563726219E+02  0.00000000000E+00 0.  1.
</event>
<event>
 7    1  0.1541705E-008  0.4614232E+02  0.7816164E-02  0.1320468E+00
        -11   -1    0    0    0    0  0.00000000000E+00  0.00000000000E+00  0.45593999997E+02  0.45594000000E+02  0.51100000000E-03 0.  1.
         11   -1    0    0    0    0 -0.00000000000E+00 -0.00000000000E+00 -0.45593999997E+02  0.45594000000E+02  0.51100000000E-03 0. -1.
    9900012    2    1    2    0    0 -0.23404700366E+02  0.35409827338E+02 -0.15082357747E+02  0.46142318891E+02  0.10000010305E+02 0.  0.
        -12    1    1    2    0    0  0.23404700366E+02 -0.35409827338E+02  0.15082357747E+02  0.45045681109E+02  0.00000000000E+00 0.  1.
         11    1    3    3    0    0 -0.31039249205E+01  0.55424467468E+01 -0.30019065248E+01  0.70259881083E+01  0.51100000000E-03 0. -1.
        -11    1    3    3    0    0 -0.11755973594E+02  0.12534734087E+02 -0.94552357874E+01  0.19614381403E+02  0.51100000000E-03 0.  1.
        -12    1    3    3    0    0 -0.85448018514E+01  0.17332646504E+02 -0.26252154350E+01  0.19501949380E+02  0.00000000000E+00 0.  1.
</event>
<event>
 7    1  0.1541705E-008  0.4614232E+02  0.7816164E-02  0.1320468E+00
        -11   -1    0    0    0    0  0.00000000000E+00  0.00000000000E+00  0.45593999997E+02  0.45594000000E+02  0.51100000000E-03 0. -1.
         11   -1    0    0    0    0 -0.00000000000E+00 -0.00000000000E+00 -0.45593999997E+02  0.45594000000E+02  0.51100000000E-03 0.  1.
    9900012    2    1    2    0    0 -0.16957735295E+02 -0.36605643257E+02  0.20039351202E+02  0.46142317619E+02  0.99999987004E+01 0.  0.
        -12    1    1    2    0    0  0.16957735295E+02  0.36605643257E+02 -0.20039351202E+02  0.45045682381E+02  0.00000000000E+00 0.  1.
         11    1    3    3    0    0 -0.10002065986E+02 -0.22396640699E+02  0.79523704569E+01  0.25785481084E+02  0.51100000000E-03 0. -1.
        -11    1    3    3    0    0 -0.16138861630E+01 -0.27683760726E+01  0.48219963607E+01  0.57896618027E+01  0.51100000000E-03 0.  1.
        -12    1    3    3    0    0 -0.53417831458E+01 -0.11440626486E+02  0.72649843847E+01  0.14567174732E+02  0.00000000000E+00 0.  1.
</event>
<event>
 7    1  0.1541705E-008  0.4614232E+02  0.7816164E-02  0.1320468E+00
        -11   -1    0    0    0    0  0.00000000000E+00  0.00000000000E+00  0.45593999997E+02  0.45594000000E+02  0.51100000000E-03 0.  1.
         11   -1    0    0    0    0 -0.00000000000E+00 -0.00000000000E+00 -0.45593999997E+02  0.45594000000E+02  0.51100000000E-03 0. -1.
    9900012    2    1    2    0    0 -0.43439785762E+02 -0.48092959935E+01 -0.10907300701E+02  0.46142317370E+02  0.99999964359E+01 0.  0.
        -12    1    1    2    0    0  0.43439785762E+02  0.48092959935E+01  0.10907300701E+02  0.45045682630E+02  0.00000000000E+00 0.  1.
         11    1    3    3    0    0 -0.14384019263E+02  0.18531709675E+00 -0.65463783490E+01  0.15804727848E+02  0.51100000000E-03 0. -1.
        -11    1    3    3    0    0 -0.12614561582E+02 -0.46964877179E+01 -0.33023641292E+01  0.13859645374E+02  0.51100000000E-03 0.  1.
         12    1    3    3    0    0 -0.16441204917E+02 -0.29812537235E+00 -0.10585582231E+01  0.16477944149E+02  0.00000000000E+00 0. -1.
</event>
<event>
 7    1  0.1541705E-008  0.4614232E+02  0.7816164E-02  0.1320468E+00
        -11   -1    0    0    0    0  0.00000000000E+00  0.00000000000E+00  0.45593999997E+02  0.45594000000E+02  0.51100000000E-03 0.  1.
         11   -1    0    0    0    0 -0.00000000000E+00 -0.00000000000E+00 -0.45593999997E+02  0.45594000000E+02  0.51100000000E-03 0. -1.
    9900012    2    1    2    0    0  0.46517865365E+01  0.32783598868E+01 -0.44684741807E+02  0.46142324160E+02  0.10000058350E+02 0.  0.
        -12    1    1    2    0    0 -0.46517865365E+01 -0.32783598868E+01  0.44684741807E+02  0.45045675840E+02  0.00000000000E+00 0.  1.
         11    1    3    3    0    0  0.44713932266E+01 -0.12468122792E+01 -0.24207236760E+02  0.24648290206E+02  0.51100000000E-03 0. -1.
        -11    1    3    3    0    0 -0.15719639584E+01  0.93041962332E-01 -0.76348762188E+01  0.77955796854E+01  0.51100000000E-03 0.  1.
         12    1    3    3    0    0  0.17523572683E+01  0.44321302037E+01 -0.12842628828E+02  0.13698454268E+02  0.00000000000E+00 0. -1.
</event>
<event>
 7    1  0.1541705E-008  0.4614232E+02  0.7816164E-02  0.1320468E+00
        -11   -1    0    0    0    0  0.00000000000E+00  0.00000000000E+00  0.45593999997E+02  0.45594000000E+02  0.51100000000E-03 0.  1.
         11   -1    0    0    0    0 -0.00000000000E+00 -0.00000000000E+00 -0.45593999997E+02  0.45594000000E+02  0.51100000000E-03 0. -1.
    9900012    2    1    2    0    0  0.40946739789E+02  0.76130678142E+01  0.17161555378E+02  0.46142320031E+02  0.10000020697E+02 0.  0.
        -12    1    1    2    0    0 -0.40946739789E+02 -0.76130678142E+01 -0.17161555378E+02  0.45045679969E+02  0.00000000000E+00 0.  1.
         11    1    3    3    0    0  0.17906273616E+02  0.60002197624E+01  0.10224708381E+02  0.21475146885E+02  0.51100000000E-03 0. -1.
        -11    1    3    3    0    0  0.82188145735E+01 -0.18778756552E+01  0.20680332666E+01  0.86805582668E+01  0.51100000000E-03 0.  1.
        -12    1    3    3    0    0  0.14821651600E+02  0.34907237070E+01  0.48688137299E+01  0.15986614879E+02  0.00000000000E+00 0.  1.
</event>
<event>
 7    1  0.1541705E-008  0.4614232E+02  0.7816164E-02  0.1320468E+00
        -11   -1    0    0    0    0  0.00000000000E+00  0.00000000000E+00  0.45593999997E+02  0.45594000000E+02  0.51100000000E-03 0. -1.
         11   -1    0    0    0    0 -0.00000000000E+00 -0.00000000000E+00 -0.45593999997E+02  0.45594000000E+02  0.51100000000E-03 0.  1.
    9900012    2    1    2    0    0 -0.38073850705E+02 -0.20823346349E+02  0.12078233322E+02  0.46142316735E+02  0.99999906394E+01 0.  0.
        -12    1    1    2    0    0  0.38073850705E+02  0.20823346349E+02 -0.12078233322E+02  0.45045683265E+02  0.00000000000E+00 0.  1.
         11    1    3    3    0    0 -0.14766293251E+02 -0.61520912743E+01  0.12507004452E+01  0.16045432225E+02  0.51100000000E-03 0. -1.
        -11    1    3    3    0    0 -0.75922925258E+01 -0.19116506552E+01  0.26688443140E+01  0.82716409653E+01  0.51100000000E-03 0.  1.
         12    1    3    3    0    0 -0.15715264928E+02 -0.12759604420E+02  0.81586885630E+01  0.21825243544E+02  0.00000000000E+00 0. -1.
</event>
<event>
 7    1  0.1541705E-008  0.4614232E+02  0.7816164E-02  0.1320468E+00
        -11   -1    0    0    0    0  0.00000000000E+00  0.00000000000E+00  0.45593999997E+02  0.45594000000E+02  0.51100000000E-03 0.  1.
         11   -1    0    0    0    0 -0.00000000000E+00 -0.00000000000E+00 -0.45593999997E+02  0.45594000000E+02  0.51100000000E-03 0. -1.
    9900012    2    1    2    0    0 -0.42254890622E+02 -0.14228425575E+02 -0.64179115806E+01  0.46142318022E+02  0.10000002375E+02 0.  0.
        -12    1    1    2    0    0  0.42254890622E+02  0.14228425575E+02  0.64179115806E+01  0.45045681978E+02  0.00000000000E+00 0.  1.
         11    1    3    3    0    0 -0.13170361653E+02 -0.59813745351E+00 -0.20318220798E+00  0.13185502560E+02  0.51100000000E-03 0. -1.
        -11    1    3    3    0    0 -0.13666287549E+02 -0.82423339243E+01 -0.19612904054E+01  0.16079494526E+02  0.51100000000E-03 0.  1.
         12    1    3    3    0    0 -0.15418241420E+02 -0.53879541968E+01 -0.42534389673E+01  0.16877320936E+02  0.00000000000E+00 0. -1.
</event>
<event>
 7    1  0.1541705E-008  0.4614232E+02  0.7816164E-02  0.1320468E+00
        -11   -1    0    0    0    0  0.00000000000E+00  0.00000000000E+00  0.45593999997E+02  0.45594000000E+02  0.51100000000E-03 0.  1.
         11   -1    0    0    0    0 -0.00000000000E+00 -0.00000000000E+00 -0.45593999997E+02  0.45594000000E+02  0.51100000000E-03 0. -1.
    9900012    2    1    2    0    0 -0.17250438313E+02 -0.13646798468E+02 -0.39310314609E+02  0.46142316910E+02  0.99999922354E+01 0.  0.
        -12    1    1    2    0    0  0.17250438313E+02  0.13646798468E+02  0.39310314609E+02  0.45045683090E+02  0.00000000000E+00 0.  1.
         11    1    3    3    0    0 -0.78948355023E+01 -0.31937601243E+01 -0.10803343675E+02  0.13756480878E+02  0.51100000000E-03 0. -1.
        -11    1    3    3    0    0 -0.96151464822E+01 -0.94051408359E+01 -0.21969194145E+02  0.25759526542E+02  0.51100000000E-03 0.  1.
        -12    1    3    3    0    0  0.25954367137E+00 -0.10478975075E+01 -0.65377767890E+01  0.66263094892E+01  0.00000000000E+00 0.  1.
</event>
<event>
 7    1  0.1541705E-008  0.4614232E+02  0.7816164E-02  0.1320468E+00
        -11   -1    0    0    0    0  0.00000000000E+00  0.00000000000E+00  0.45593999997E+02  0.45594000000E+02  0.51100000000E-03 0.  1.
         11   -1    0    0    0    0 -0.00000000000E+00 -0.00000000000E+00 -0.45593999997E+02  0.45594000000E+02  0.51100000000E-03 0. -1.
    9900012    2    1    2    0    0  0.38764494544E+02  0.11454268348E+02 -0.19880322232E+02  0.46142317492E+02  0.99999975436E+01 0.  0.
        -12    1    1    2    0    0 -0.38764494544E+02 -0.11454268348E+02  0.19880322232E+02  0.45045682508E+02  0.00000000000E+00 0.  1.
         11    1    3    3    0    0  0.21626041671E+02  0.92532094037E+01 -0.76197255448E+01  0.24725852468E+02  0.51100000000E-03 0. -1.
        -11    1    3    3    0    0  0.93763820078E+00  0.88482883612E+00 -0.66954200050E+00  0.14527127095E+01  0.51100000000E-03 0.  1.
         12    1    3    3    0    0  0.16200814672E+02  0.13162301079E+01 -0.11591054686E+02  0.19963752314E+02  0.00000000000E+00 0. -1.
</event>
<event>
 7    1  0.1541705E-008  0.4614232E+02  0.7816164E-02  0.1320468E+00
        -11   -1    0    0    0    0  0.00000000000E+00  0.00000000000E+00  0.45593999997E+02  0.45594000000E+02  0.51100000000E-03 0.  1.
         11   -1    0    0    0    0 -0.00000000000E+00 -0.00000000000E+00 -0.45593999997E+02  0.45594000000E+02  0.51100000000E-03 0. -1.
    9900012    2    1    2    0    0  0.10248958782E+02 -0.68152144246E+01 -0.43331572385E+02  0.46142317975E+02  0.10000001948E+02 0.  0.
        -12    1    1    2    0    0 -0.10248958782E+02  0.68152144246E+01  0.43331572385E+02  0.45045682025E+02  0.00000000000E+00 0.  1.
         11    1    3    3    0    0 -0.15018966696E+01  0.10927783296E+00 -0.90737516107E+01  0.91978586532E+01  0.51100000000E-03 0. -1.
        -11    1    3    3    0    0  0.11463273090E+02 -0.65391353690E+01 -0.33780591194E+02  0.36266999641E+02  0.51100000000E-03 0.  1.
        -12    1    3    3    0    0  0.28758236131E+00 -0.38535688862E+00 -0.47722958076E+00  0.67745968064E+00  0.00000000000E+00 0.  1.
</event>
<event>
 7    1  0.1541705E-008  0.4614231E+02  0.7816164E-02  0.1320468E+00
        -11   -1    0    0    0    0  0.00000000000E+00  0.00000000000E+00  0.45593999997E+02  0.45594000000E+02  0.51100000000E-03 0. -1.
         11   -1    0    0    0    0 -0.00000000000E+00 -0.00000000000E+00 -0.45593999997E+02  0.45594000000E+02  0.51100000000E-03 0.  1.
    9900012    2    1    2    0    0  0.16475140815E+02 -0.10343391261E+02  0.40628779610E+02  0.46142314965E+02  0.99999745039E+01 0.  0.
        -12    1    1    2    0    0 -0.16475140815E+02  0.10343391261E+02 -0.40628779610E+02  0.45045685035E+02  0.00000000000E+00 0.  1.
         11    1    3    3    0    0  0.14857453005E+02 -0.85798997044E+01  0.28425400168E+02  0.33201836752E+02  0.51100000000E-03 0. -1.
        -11    1    3    3    0    0  0.10288549252E+01  0.97190162160E+00  0.29258165580E+01  0.32501596901E+01  0.51100000000E-03 0.  1.
         12    1    3    3    0    0  0.58883288438E+00 -0.27353931781E+01  0.92775628842E+01  0.96903185229E+01  0.00000000000E+00 0. -1.
</event>
<event>
 7    1  0.1541705E-008  0.4614232E+02  0.7816164E-02  0.1320468E+00
        -11   -1    0    0    0    0  0.00000000000E+00  0.00000000000E+00  0.45593999997E+02  0.45594000000E+02  0.51100000000E-03 0.  1.
         11   -1    0    0    0    0 -0.00000000000E+00 -0.00000000000E+00 -0.45593999997E+02  0.45594000000E+02  0.51100000000E-03 0. -1.
    9900012    2    1    2    0    0  0.22565286445E+02 -0.18813026174E+02 -0.34146616532E+02  0.46142317335E+02  0.99999961113E+01 0.  0.
        -12    1    1    2    0    0 -0.22565286445E+02  0.18813026174E+02  0.34146616532E+02  0.45045682665E+02  0.00000000000E+00 0.  1.
         11    1    3    3    0    0  0.76448298443E+01 -0.10578999597E+02 -0.10996871792E+02  0.17067215510E+02  0.51100000000E-03 0. -1.
        -11    1    3    3    0    0  0.29534319674E+01 -0.31760769978E+01 -0.37881372824E+01  0.57584902373E+01  0.51100000000E-03 0.  1.
         12    1    3    3    0    0  0.11967024634E+02 -0.50579495797E+01 -0.19361607458E+02  0.23316611587E+02  0.00000000000E+00 0. -1.
</event>
<event>
 7    1  0.1541705E-008  0.4614233E+02  0.7816164E-02  0.1320468E+00
        -11   -1    0    0    0    0  0.00000000000E+00  0.00000000000E+00  0.45593999997E+02  0.45594000000E+02  0.51100000000E-03 0. -1.
         11   -1    0    0    0    0 -0.00000000000E+00 -0.00000000000E+00 -0.45593999997E+02  0.45594000000E+02  0.51100000000E-03 0.  1.
    9900012    2    1    2    0    0  0.44013026289E+02  0.17660953117E+01  0.94258758001E+01  0.46142326397E+02  0.10000078751E+02 0.  0.
        -12    1    1    2    0    0 -0.44013026289E+02 -0.17660953117E+01 -0.94258758001E+01  0.45045673603E+02  0.00000000000E+00 0.  1.
         11    1    3    3    0    0  0.10776844523E+02 -0.22924415056E+01  0.26494096243E+01  0.11332035896E+02  0.51100000000E-03 0. -1.
        -11    1    3    3    0    0  0.25537187342E+02  0.44746649149E+01  0.26393859093E+01  0.26060255595E+02  0.51100000000E-03 0.  1.
        -12    1    3    3    0    0  0.76989944235E+01 -0.41612809768E+00  0.41370802665E+01  0.87500349061E+01  0.00000000000E+00 0.  1.
</event>
<event>
 7    1  0.1541705E-008  0.4614232E+02  0.7816164E-02  0.1320468E+00
        -11   -1    0    0    0    0  0.00000000000E+00  0.00000000000E+00  0.45593999997E+02  0.45594000000E+02  0.51100000000E-03 0.  1.
         11   -1    0    0    0    0 -0.00000000000E+00 -0.00000000000E+00 -0.45593999997E+02  0.45594000000E+02  0.51100000000E-03 0. -1.
    9900012    2    1    2    0    0  0.16829736088E+02 -0.35994255126E+02 -0.21219969888E+02  0.46142317178E+02  0.99999946801E+01 0.  0.
        -12    1    1    2    0    0 -0.16829736088E+02  0.35994255126E+02  0.21219969888E+02  0.45045682822E+02  0.00000000000E+00 0.  1.
         11    1    3    3    0    0  0.55018643449E+01 -0.50496815671E+01 -0.31300920581E+01  0.80973620243E+01  0.51100000000E-03 0. -1.
        -11    1    3    3    0    0  0.32022912197E+01 -0.16386936642E+02 -0.75801841047E+01  0.18336999560E+02  0.51100000000E-03 0.  1.
         12    1    3    3    0    0  0.81255805236E+01 -0.14557636917E+02 -0.10509693725E+02  0.19707955593E+02  0.00000000000E+00 0. -1.
</event>
<event>
 7    1  0.1541705E-008  0.4614232E+02  0.7816164E-02  0.1320468E+00
        -11   -1    0    0    0    0  0.00000000000E+00  0.00000000000E+00  0.45593999997E+02  0.45594000000E+02  0.51100000000E-03 0.  1.
         11   -1    0    0    0    0 -0.00000000000E+00 -0.00000000000E+00 -0.45593999997E+02  0.45594000000E+02  0.51100000000E-03 0. -1.
    9900012    2    1    2    0    0 -0.12229346064E+02  0.35041887883E+02 -0.25526901871E+02  0.46142317291E+02  0.99999957158E+01 0.  0.
        -12    1    1    2    0    0  0.12229346064E+02 -0.35041887883E+02  0.25526901871E+02  0.45045682709E+02  0.00000000000E+00 0.  1.
         11    1    3    3    0    0 -0.40307265434E+01  0.10635168687E+02 -0.69549633423E+01  0.13331357201E+02  0.51100000000E-03 0. -1.
        -11    1    3    3    0    0  0.17272661119E+01  0.36718441495E+01 -0.26177585918E+01  0.48289282440E+01  0.51100000000E-03 0.  1.
        -12    1    3    3    0    0 -0.99258856321E+01  0.20734875046E+02 -0.15954179937E+02  0.27982031846E+02  0.00000000000E+00 0.  1.
</event>
<event>
 7    1  0.1541705E-008  0.4614232E+02  0.7816164E-02  0.1320468E+00
        -11   -1    0    0    0    0  0.00000000000E+00  0.00000000000E+00  0.45593999997E+02  0.45594000000E+02  0.51100000000E-03 0.  1.
         11   -1    0    0    0    0 -0.00000000000E+00 -0.00000000000E+00 -0.45593999997E+02  0.45594000000E+02  0.51100000000E-03 0. -1.
    9900012    2    1    2    0    0 -0.23159638845E+02 -0.38237045062E+02  0.55383295566E+01  0.46142316735E+02  0.99999906466E+01 0.  0.
        -12    1    1    2    0    0  0.23159638845E+02  0.38237045062E+02 -0.55383295566E+01  0.45045683265E+02  0.00000000000E+00 0.  1.
         11    1    3    3    0    0 -0.14202088565E+02 -0.27441534275E+02  0.29359329859E+01  0.31037990040E+02  0.51100000000E-03 0. -1.
        -11    1    3    3    0    0 -0.81623971288E+01 -0.69384762149E+01  0.30555963775E+01  0.11140190688E+02  0.51100000000E-03 0.  1.
        -12    1    3    3    0    0 -0.79515315195E+00 -0.38570345723E+01 -0.45319980678E+00  0.39641360082E+01  0.00000000000E+00 0.  1.
</event>
<event>
 7    1  0.1541705E-008  0.4614232E+02  0.7816164E-02  0.1320468E+00
        -11   -1    0    0    0    0  0.00000000000E+00  0.00000000000E+00  0.45593999997E+02  0.45594000000E+02  0.51100000000E-03 0.  1.
         11   -1    0    0    0    0 -0.00000000000E+00 -0.00000000000E+00 -0.45593999997E+02  0.45594000000E+02  0.51100000000E-03 0. -1.
    9900012    2    1    2    0    0  0.20671617304E+02  0.31970356169E+02 -0.24076838302E+02  0.46142316765E+02  0.99999909143E+01 0.  0.
        -12    1    1    2    0    0 -0.20671617304E+02 -0.31970356169E+02  0.24076838302E+02  0.45045683235E+02  0.00000000000E+00 0.  1.
         11    1    3    3    0    0  0.93897872835E+01  0.22223045596E+02 -0.15539878779E+02  0.28697032835E+02  0.51100000000E-03 0.  1.
        -11    1    3    3    0    0  0.59541837592E+01  0.31944054332E+01 -0.34593875630E+01  0.75910403030E+01  0.51100000000E-03 0. -1.
        -12    1    3    3    0    0  0.53276462609E+01  0.65529051394E+01 -0.50775719606E+01  0.98542436271E+01  0.00000000000E+00 0.  1.
</event>
<event>
 7    1  0.1541705E-008  0.4614232E+02  0.7816164E-02  0.1320468E+00
        -11   -1    0    0    0    0  0.00000000000E+00  0.00000000000E+00  0.45593999997E+02  0.45594000000E+02  0.51100000000E-03 0.  1.
         11   -1    0    0    0    0 -0.00000000000E+00 -0.00000000000E+00 -0.45593999997E+02  0.45594000000E+02  0.51100000000E-03 0. -1.
    9900012    2    1    2    0    0 -0.42505120289E+01  0.18539744786E+01 -0.44806356225E+02  0.46142316167E+02  0.99999854622E+01 0.  0.
        -12    1    1    2    0    0  0.42505120289E+01 -0.18539744786E+01  0.44806356225E+02  0.45045683833E+02  0.00000000000E+00 0.  1.
         11    1    3    3    0    0 -0.30833772133E+01  0.40747545194E+01 -0.24022323267E+02  0.24559781246E+02  0.51100000000E-03 0. -1.
        -11    1    3    3    0    0 -0.13934139496E+01 -0.33870795222E+01 -0.86897602771E+01  0.94300500560E+01  0.51100000000E-03 0.  1.
        -12    1    3    3    0    0  0.22627913400E+00  0.11662994813E+01 -0.12094272681E+02  0.12152484865E+02  0.00000000000E+00 0.  1.
</event>
<event>
 7    1  0.1541705E-008  0.4614232E+02  0.7816164E-02  0.1320468E+00
        -11   -1    0    0    0    0  0.00000000000E+00  0.00000000000E+00  0.45593999997E+02  0.45594000000E+02  0.51100000000E-03 0.  1.
         11   -1    0    0    0    0 -0.00000000000E+00 -0.00000000000E+00 -0.45593999997E+02  0.45594000000E+02  0.51100000000E-03 0. -1.
    9900012    2    1    2    0    0  0.19064837412E+02 -0.77079114856E+01 -0.40077843940E+02  0.46142317633E+02  0.99999988350E+01 0.  0.
        -12    1    1    2    0    0 -0.19064837412E+02  0.77079114856E+01  0.40077843940E+02  0.45045682367E+02  0.00000000000E+00 0.  1.
         11    1    3    3    0    0  0.15270075477E+01  0.13052696234E+01 -0.31152395794E+01  0.37067774062E+01  0.51100000000E-03 0.  1.
        -11    1    3    3    0    0  0.16324211409E+02 -0.93651731222E+01 -0.30412027688E+02  0.35764196819E+02  0.51100000000E-03 0. -1.
        -12    1    3    3    0    0  0.12136184554E+01  0.35199201315E+00 -0.65505766726E+01  0.66713434087E+01  0.00000000000E+00 0.  1.
</event>
<event>
 7    1  0.1541705E-008  0.4614232E+02  0.7816164E-02  0.1320468E+00
        -11   -1    0    0    0    0  0.00000000000E+00  0.00000000000E+00  0.45593999997E+02  0.45594000000E+02  0.51100000000E-03 0.  1.
         11   -1    0    0    0    0 -0.00000000000E+00 -0.00000000000E+00 -0.45593999997E+02  0.45594000000E+02  0.51100000000E-03 0. -1.
    9900012    2    1    2    0    0  0.27561664249E+02 -0.35623574754E+02 -0.65513771580E+00  0.46142316302E+02  0.99999866931E+01 0.  0.
        -12    1    1    2    0    0 -0.27561664249E+02  0.35623574754E+02  0.65513771580E+00  0.45045683698E+02  0.00000000000E+00 0.  1.
         11    1    3    3    0    0  0.75504526696E+01 -0.16708851783E+02 -0.48732983251E+00  0.18342097864E+02  0.51100000000E-03 0.  1.
        -11    1    3    3    0    0  0.16005875179E+02 -0.14074642846E+02 -0.15406070137E+01  0.21369536301E+02  0.51100000000E-03 0. -1.
        -12    1    3    3    0    0  0.40053364002E+01 -0.48400801248E+01  0.13727991304E+01  0.64306821369E+01  0.00000000000E+00 0.  1.
</event>
<event>
 7    1  0.1541705E-008  0.4614232E+02  0.7816164E-02  0.1320468E+00
        -11   -1    0    0    0    0  0.00000000000E+00  0.00000000000E+00  0.45593999997E+02  0.45594000000E+02  0.51100000000E-03 0. -1.
         11   -1    0    0    0    0 -0.00000000000E+00 -0.00000000000E+00 -0.45593999997E+02  0.45594000000E+02  0.51100000000E-03 0.  1.
    9900012    2    1    2    0    0  0.38485964041E+02  0.13598101581E+02  0.19053495627E+02  0.46142317738E+02  0.99999997935E+01 0.  0.
        -12    1    1    2    0    0 -0.38485964041E+02 -0.13598101581E+02 -0.19053495627E+02  0.45045682262E+02  0.00000000000E+00 0.  1.
         11    1    3    3    0    0  0.29471997283E+02  0.87985463575E+01  0.15623278230E+02  0.34497824059E+02  0.51100000000E-03 0. -1.
        -11    1    3    3    0    0  0.36940550462E+01 -0.27864354428E+00  0.54584768119E+00  0.37445473507E+01  0.51100000000E-03 0.  1.
         12    1    3    3    0    0  0.53199117121E+01  0.50781987674E+01  0.28843697154E+01  0.78999463290E+01  0.00000000000E+00 0. -1.
</event>
<event>
 7    1  0.1541705E-008  0.4614232E+02  0.7816164E-02  0.1320468E+00
        -11   -1    0    0    0    0  0.00000000000E+00  0.00000000000E+00  0.45593999997E+02  0.45594000000E+02  0.51100000000E-03 0.  1.
         11   -1    0    0    0    0 -0.00000000000E+00 -0.00000000000E+00 -0.45593999997E+02  0.45594000000E+02  0.51100000000E-03 0. -1.
    9900012    2    1    2    0    0  0.69420902241E+01  0.12697388362E+02 -0.42657908938E+02  0.46142317823E+02  0.10000000562E+02 0.  0.
        -12    1    1    2    0    0 -0.69420902241E+01 -0.12697388362E+02  0.42657908938E+02  0.45045682177E+02  0.00000000000E+00 0.  1.
         11    1    3    3    0    0 -0.15655862973E+01  0.13862902758E+01 -0.23761112394E+01  0.31652434451E+01  0.51100000000E-03 0. -1.
        -11    1    3    3    0    0  0.40893964430E+01  0.37417834414E+01 -0.97855452995E+01  0.11246377357E+02  0.51100000000E-03 0.  1.
         12    1    3    3    0    0  0.44182800784E+01  0.75693146446E+01 -0.30496252399E+02  0.31730697020E+02  0.00000000000E+00 0. -1.
</event>
<event>
 7    1  0.1541705E-008  0.4614232E+02  0.7816164E-02  0.1320468E+00
        -11   -1    0    0    0    0  0.00000000000E+00  0.00000000000E+00  0.45593999997E+02  0.45594000000E+02  0.51100000000E-03 0. -1.
         11   -1    0    0    0    0 -0.00000000000E+00 -0.00000000000E+00 -0.45593999997E+02  0.45594000000E+02  0.51100000000E-03 0.  1.
    9900012    2    1    2    0    0  0.32225194293E+02  0.15653831779E+01  0.31435648653E+02  0.46142316767E+02  0.99999909331E+01 0.  0.
        -12    1    1    2    0    0 -0.32225194293E+02 -0.15653831779E+01 -0.31435648653E+02  0.45045683233E+02  0.00000000000E+00 0.  1.
         11    1    3    3    0    0  0.20056410465E+02  0.18642499653E+01  0.17656552248E+02  0.26785982645E+02  0.51100000000E-03 0. -1.
        -11    1    3    3    0    0  0.52163945171E+01 -0.31020842528E+01  0.55400740496E+01  0.82174277731E+01  0.51100000000E-03 0.  1.
        -12    1    3    3    0    0  0.69523893106E+01  0.28032174654E+01  0.82390223551E+01  0.11138906349E+02  0.00000000000E+00 0.  1.
</event>
<event>
 7    1  0.1541705E-008  0.4614232E+02  0.7816164E-02  0.1320468E+00
        -11   -1    0    0    0    0  0.00000000000E+00  0.00000000000E+00  0.45593999997E+02  0.45594000000E+02  0.51100000000E-03 0.  1.
         11   -1    0    0    0    0 -0.00000000000E+00 -0.00000000000E+00 -0.45593999997E+02  0.45594000000E+02  0.51100000000E-03 0. -1.
    9900012    2    1    2    0    0 -0.16491887253E+02  0.23794077154E+02 -0.34510476144E+02  0.46142318559E+02  0.10000007277E+02 0.  0.
        -12    1    1    2    0    0  0.16491887253E+02 -0.23794077154E+02  0.34510476144E+02  0.45045681441E+02  0.00000000000E+00 0.  1.
         11    1    3    3    0    0 -0.92611188129E+01  0.13066157641E+02 -0.18031080615E+02  0.24116647063E+02  0.51100000000E-03 0. -1.
        -11    1    3    3    0    0 -0.18073995585E+01  0.82709320383E+01 -0.78772629421E+01  0.11564008028E+02  0.51100000000E-03 0.  1.
         12    1    3    3    0    0 -0.54233688819E+01  0.24569874749E+01 -0.86021325867E+01  0.10461663468E+02  0.00000000000E+00 0. -1.
</event>
<event>
 7    1  0.1541705E-008  0.4614232E+02  0.7816164E-02  0.1320468E+00
        -11   -1    0    0    0    0  0.00000000000E+00  0.00000000000E+00  0.45593999997E+02  0.45594000000E+02  0.51100000000E-03 0.  1.
         11   -1    0    0    0    0 -0.00000000000E+00 -0.00000000000E+00 -0.45593999997E+02  0.45594000000E+02  0.51100000000E-03 0. -1.
    9900012    2    1    2    0    0 -0.25683085076E+02 -0.36777106778E+02 -0.41154722378E+01  0.46142317035E+02  0.99999933824E+01 0.  0.
        -12    1    1    2    0    0  0.25683085076E+02  0.36777106778E+02  0.41154722378E+01  0.45045682965E+02  0.00000000000E+00 0.  1.
         11    1    3    3    0    0 -0.10715525447E+02 -0.99227885951E+01  0.20440525232E+00  0.14605683855E+02  0.51100000000E-03 0. -1.
        -11    1    3    3    0    0 -0.72801259253E+01 -0.17819417868E+02 -0.40506241222E+01  0.19670776362E+02  0.51100000000E-03 0.  1.
         12    1    3    3    0    0 -0.76874337035E+01 -0.90349003154E+01 -0.26925336791E+00  0.11865856818E+02  0.00000000000E+00 0. -1.
</event>
<event>
 7    1  0.1541705E-008  0.4614232E+02  0.7816164E-02  0.1320468E+00
        -11   -1    0    0    0    0  0.00000000000E+00  0.00000000000E+00  0.45593999997E+02  0.45594000000E+02  0.51100000000E-03 0. -1.
         11   -1    0    0    0    0 -0.00000000000E+00 -0.00000000000E+00 -0.45593999997E+02  0.45594000000E+02  0.51100000000E-03 0.  1.
    9900012    2    1    2    0    0 -0.39251094682E+02 -0.21918538368E+02 -0.28359555749E+01  0.46142318721E+02  0.10000008750E+02 0.  0.
        -12    1    1    2    0    0  0.39251094682E+02  0.21918538368E+02  0.28359555749E+01  0.45045681279E+02  0.00000000000E+00 0.  1.
         11    1    3    3    0    0 -0.75949688818E+01 -0.14544828992E+01 -0.16725334739E+01  0.79117912828E+01  0.51100000000E-03 0. -1.
        -11    1    3    3    0    0 -0.20313386268E+02 -0.12240837339E+02  0.22127981715E+01  0.23819492783E+02  0.51100000000E-03 0.  1.
        -12    1    3    3    0    0 -0.11342739532E+02 -0.82232181296E+01 -0.33762202725E+01  0.14411034655E+02  0.00000000000E+00 0.  1.
</event>
<event>
 7    1  0.1541705E-008  0.4614232E+02  0.7816164E-02  0.1320468E+00
        -11   -1    0    0    0    0  0.00000000000E+00  0.00000000000E+00  0.45593999997E+02  0.45594000000E+02  0.51100000000E-03 0.  1.
         11   -1    0    0    0    0 -0.00000000000E+00 -0.00000000000E+00 -0.45593999997E+02  0.45594000000E+02  0.51100000000E-03 0. -1.
    9900012    2    1    2    0    0 -0.19181106711E+02 -0.30425616895E+02 -0.27119742398E+02  0.46142318234E+02  0.10000004308E+02 0.  0.
        -12    1    1    2    0    0  0.19181106711E+02  0.30425616895E+02  0.27119742398E+02  0.45045681766E+02  0.00000000000E+00 0.  1.
         11    1    3    3    0    0 -0.24963943346E+01 -0.53711719177E+01 -0.95282608345E+01  0.11219145566E+02  0.51100000000E-03 0. -1.
        -11    1    3    3    0    0 -0.88868686831E+01 -0.12434042779E+02 -0.99357838424E+01  0.18229143031E+02  0.51100000000E-03 0.  1.
         12    1    3    3    0    0 -0.77978436928E+01 -0.12620402198E+02 -0.76556977206E+01  0.16694029636E+02  0.00000000000E+00 0. -1.
</event>
<event>
 7    1  0.1541705E-008  0.4614232E+02  0.7816164E-02  0.1320468E+00
        -11   -1    0    0    0    0  0.00000000000E+00  0.00000000000E+00  0.45593999997E+02  0.45594000000E+02  0.51100000000E-03 0.  1.
         11   -1    0    0    0    0 -0.00000000000E+00 -0.00000000000E+00 -0.45593999997E+02  0.45594000000E+02  0.51100000000E-03 0. -1.
    9900012    2    1    2    0    0  0.38433440672E+02  0.10069683832E+02 -0.21227001039E+02  0.46142317993E+02  0.10000002114E+02 0.  0.
        -12    1    1    2    0    0 -0.38433440672E+02 -0.10069683832E+02  0.21227001039E+02  0.45045682007E+02  0.00000000000E+00 0.  1.
         11    1    3    3    0    0  0.25278577397E+02  0.32596053534E+01 -0.12080975338E+02  0.28206053741E+02  0.51100000000E-03 0. -1.
        -11    1    3    3    0    0  0.91537174251E+00 -0.53750522581E+00 -0.11850051873E+01  0.15909289267E+01  0.51100000000E-03 0.  1.
        -12    1    3    3    0    0  0.12239491533E+02  0.73475837044E+01 -0.79610205144E+01  0.16345335325E+02  0.00000000000E+00 0.  1.
</event>
<event>
 7    1  0.1541705E-008  0.4614232E+02  0.7816164E-02  0.1320468E+00
        -11   -1    0    0    0    0  0.00000000000E+00  0.00000000000E+00  0.45593999997E+02  0.45594000000E+02  0.51100000000E-03 0. -1.
         11   -1    0    0    0    0 -0.00000000000E+00 -0.00000000000E+00 -0.45593999997E+02  0.45594000000E+02  0.51100000000E-03 0.  1.
    9900012    2    1    2    0    0 -0.11733986759E+01 -0.23150302587E+02  0.38623828680E+02  0.46142317452E+02  0.99999971814E+01 0.  0.
        -12    1    1    2    0    0  0.11733986759E+01  0.23150302587E+02 -0.38623828680E+02  0.45045682548E+02  0.00000000000E+00 0.  1.
         11    1    3    3    0    0 -0.34662189878E+01 -0.77599689218E+01  0.19131150401E+02  0.20934008400E+02  0.51100000000E-03 0. -1.
        -11    1    3    3    0    0  0.27235687783E+01 -0.12221296665E+02  0.17193019838E+02  0.21269176065E+02  0.51100000000E-03 0.  1.
         12    1    3    3    0    0 -0.43074846647E+00 -0.31690370002E+01  0.22996584406E+01  0.39391329875E+01  0.00000000000E+00 0. -1.
</event>
<event>
 7    1  0.1542086E-008  0.4614232E+02  0.7816164E-02  0.1320468E+00
        -11   -1    0    0    0    0  0.00000000000E+00  0.00000000000E+00  0.45593999997E+02  0.45594000000E+02  0.51100000000E-03 0. -1.
         11   -1    0    0    0    0 -0.00000000000E+00 -0.00000000000E+00 -0.45593999997E+02  0.45594000000E+02  0.51100000000E-03 0.  1.
    9900012    2    1    2    0    0 -0.37626164434E+02 -0.98891662788E+01  0.22706598943E+02  0.46142317684E+02  0.99999992977E+01 0.  0.
        -12    1    1    2    0    0  0.37626164434E+02  0.98891662788E+01 -0.22706598943E+02  0.45045682316E+02  0.00000000000E+00 0.  1.
         11    1    3    3    0    0 -0.35621248567E+02 -0.88231909499E+01  0.22903300535E+02  0.43258331264E+02  0.51100000000E-03 0. -1.
        -11    1    3    3    0    0  0.19322248597E+00  0.21782647331E+00  0.12746299200E+00  0.31785275995E+00  0.51100000000E-03 0.  1.
         12    1    3    3    0    0 -0.21981383529E+01 -0.12838018022E+01 -0.32416458406E+00  0.25661336605E+01  0.00000000000E+00 0. -1.
</event>
<event>
 7    1  0.1541705E-008  0.4614232E+02  0.7816164E-02  0.1320468E+00
        -11   -1    0    0    0    0  0.00000000000E+00  0.00000000000E+00  0.45593999997E+02  0.45594000000E+02  0.51100000000E-03 0.  1.
         11   -1    0    0    0    0 -0.00000000000E+00 -0.00000000000E+00 -0.45593999997E+02  0.45594000000E+02  0.51100000000E-03 0. -1.
    9900012    2    1    2    0    0 -0.30004941936E+01 -0.42752459790E+02  0.13868572137E+02  0.46142322331E+02  0.10000041673E+02 0.  0.
        -12    1    1    2    0    0  0.30004941936E+01  0.42752459790E+02 -0.13868572137E+02  0.45045677669E+02  0.00000000000E+00 0.  1.
         11    1    3    3    0    0 -0.24573694100E+01 -0.22420408567E+02  0.24043479805E+01  0.22682466228E+02  0.51100000000E-03 0. -1.
        -11    1    3    3    0    0 -0.36383556937E+00 -0.16263922678E+02  0.10177609318E+02  0.19189353530E+02  0.51100000000E-03 0.  1.
        -12    1    3    3    0    0 -0.17928921423E+00 -0.40681285451E+01  0.12866148378E+01  0.42705025726E+01  0.00000000000E+00 0.  1.
</event>
<event>
 7    1  0.1541705E-008  0.4614232E+02  0.7816164E-02  0.1320468E+00
        -11   -1    0    0    0    0  0.00000000000E+00  0.00000000000E+00  0.45593999997E+02  0.45594000000E+02  0.51100000000E-03 0. -1.
         11   -1    0    0    0    0 -0.00000000000E+00 -0.00000000000E+00 -0.45593999997E+02  0.45594000000E+02  0.51100000000E-03 0.  1.
    9900012    2    1    2    0    0 -0.33435905657E+02 -0.15426993296E+02  0.25945357505E+02  0.46142317795E+02  0.10000000309E+02 0.  0.
        -12    1    1    2    0    0  0.33435905657E+02  0.15426993296E+02 -0.25945357505E+02  0.45045682205E+02  0.00000000000E+00 0.  1.
         11    1    3    3    0    0 -0.26583491818E+02 -0.93279198260E+01  0.18353335298E+02  0.33623459702E+02  0.51100000000E-03 0. -1.
        -11    1    3    3    0    0 -0.63285977964E-01 -0.76680789360E+00  0.22236374874E+01  0.23529903096E+01  0.51100000000E-03 0.  1.
         12    1    3    3    0    0 -0.67891278611E+01 -0.53322655764E+01  0.53683847197E+01  0.10165867783E+02  0.00000000000E+00 0. -1.
</event>
<event>
 7    1  0.1541705E-008  0.4614232E+02  0.7816164E-02  0.1320468E+00
        -11   -1    0    0    0    0  0.00000000000E+00  0.00000000000E+00  0.45593999997E+02  0.45594000000E+02  0.51100000000E-03 0. -1.
         11   -1    0    0    0    0 -0.00000000000E+00 -0.00000000000E+00 -0.45593999997E+02  0.45594000000E+02  0.51100000000E-03 0.  1.
    9900012    2    1    2    0    0  0.15394881196E+02  0.37138258482E+02  0.20318977672E+02  0.46142318034E+02  0.10000002488E+02 0.  0.
        -12    1    1    2    0    0 -0.15394881196E+02 -0.37138258482E+02 -0.20318977672E+02  0.45045681966E+02  0.00000000000E+00 0.  1.
         11    1    3    3    0    0  0.73654170802E+01  0.15861928499E+02  0.14102106738E+02  0.22465964461E+02  0.51100000000E-03 0. -1.
        -11    1    3    3    0    0  0.36253197469E+01  0.10701804354E+02  0.20295361561E+01  0.11480007708E+02  0.51100000000E-03 0.  1.
         12    1    3    3    0    0  0.44041443692E+01  0.10574525629E+02  0.41873347779E+01  0.12196345864E+02  0.00000000000E+00 0. -1.
</event>
<event>
 7    1  0.1541705E-008  0.4614232E+02  0.7816164E-02  0.1320468E+00
        -11   -1    0    0    0    0  0.00000000000E+00  0.00000000000E+00  0.45593999997E+02  0.45594000000E+02  0.51100000000E-03 0.  1.
         11   -1    0    0    0    0 -0.00000000000E+00 -0.00000000000E+00 -0.45593999997E+02  0.45594000000E+02  0.51100000000E-03 0. -1.
    9900012    2    1    2    0    0 -0.10506191711E+02 -0.15239280888E+02 -0.41066990483E+02  0.46142318147E+02  0.10000003516E+02 0.  0.
        -12    1    1    2    0    0  0.10506191711E+02  0.15239280888E+02  0.41066990483E+02  0.45045681853E+02  0.00000000000E+00 0.  1.
         11    1    3    3    0    0 -0.52449617238E+01 -0.80255673804E+01 -0.20830429219E+02  0.22930899175E+02  0.51100000000E-03 0. -1.
        -11    1    3    3    0    0 -0.33886988410E+01 -0.72845050212E+00 -0.26170708403E+01  0.43431532339E+01  0.51100000000E-03 0.  1.
        -12    1    3    3    0    0 -0.18725311462E+01 -0.64852630057E+01 -0.17619490424E+02  0.18868265738E+02  0.00000000000E+00 0.  1.
</event>
<event>
 7    1  0.1541705E-008  0.4614232E+02  0.7816164E-02  0.1320468E+00
        -11   -1    0    0    0    0  0.00000000000E+00  0.00000000000E+00  0.45593999997E+02  0.45594000000E+02  0.51100000000E-03 0. -1.
         11   -1    0    0    0    0 -0.00000000000E+00 -0.00000000000E+00 -0.45593999997E+02  0.45594000000E+02  0.51100000000E-03 0.  1.
    9900012    2    1    2    0    0 -0.11392381094E+02  0.33523241383E+02  0.27848148478E+02  0.46142318371E+02  0.10000005558E+02 0.  0.
        -12    1    1    2    0    0  0.11392381094E+02 -0.33523241383E+02 -0.27848148478E+02  0.45045681629E+02  0.00000000000E+00 0.  1.
         11    1    3    3    0    0 -0.16745949712E+01  0.10884591839E+02  0.13613067932E+02  0.17509832284E+02  0.51100000000E-03 0.  1.
        -11    1    3    3    0    0 -0.89846928599E+01  0.17869016179E+02  0.11879493300E+02  0.23262605321E+02  0.51100000000E-03 0. -1.
        -12    1    3    3    0    0 -0.73309326263E+00  0.47696333650E+01  0.23555872460E+01  0.53698807660E+01  0.00000000000E+00 0.  1.
</event>
<event>
 7    1  0.1541705E-008  0.4614232E+02  0.7816164E-02  0.1320468E+00
        -11   -1    0    0    0    0  0.00000000000E+00  0.00000000000E+00  0.45593999997E+02  0.45594000000E+02  0.51100000000E-03 0.  1.
         11   -1    0    0    0    0 -0.00000000000E+00 -0.00000000000E+00 -0.45593999997E+02  0.45594000000E+02  0.51100000000E-03 0. -1.
    9900012    2    1    2    0    0 -0.22222021221E+02 -0.35501209004E+01 -0.39021685491E+02  0.46142317364E+02  0.99999963808E+01 0.  0.
        -12    1    1    2    0    0  0.22222021221E+02  0.35501209004E+01  0.39021685491E+02  0.45045682636E+02  0.00000000000E+00 0.  1.
         11    1    3    3    0    0 -0.14765759313E+02 -0.54301437299E+00 -0.30536492926E+02  0.33923441942E+02  0.51100000000E-03 0. -1.
        -11    1    3    3    0    0 -0.26610350343E+00  0.64554228685E+00 -0.42820144142E+00  0.81908037103E+00  0.51100000000E-03 0.  1.
         12    1    3    3    0    0 -0.71901584050E+01 -0.36526488143E+01 -0.80569911236E+01  0.11399795051E+02  0.00000000000E+00 0. -1.
</event>
<event>
 7    1  0.1541705E-008  0.4614232E+02  0.7816164E-02  0.1320468E+00
        -11   -1    0    0    0    0  0.00000000000E+00  0.00000000000E+00  0.45593999997E+02  0.45594000000E+02  0.51100000000E-03 0.  1.
         11   -1    0    0    0    0 -0.00000000000E+00 -0.00000000000E+00 -0.45593999997E+02  0.45594000000E+02  0.51100000000E-03 0. -1.
    9900012    2    1    2    0    0 -0.44394827519E+02  0.65487922383E+01 -0.39148484957E+01  0.46142318420E+02  0.10000006008E+02 0.  0.
        -12    1    1    2    0    0  0.44394827519E+02 -0.65487922383E+01  0.39148484957E+01  0.45045681580E+02  0.00000000000E+00 0.  1.
         11    1    3    3    0    0 -0.18090307587E+02  0.66192956092E+01 -0.34994477143E+01  0.19578570875E+02  0.51100000000E-03 0. -1.
        -11    1    3    3    0    0 -0.37268978379E+01 -0.46180181086E+00  0.11527749024E+01  0.39283480807E+01  0.51100000000E-03 0.  1.
         12    1    3    3    0    0 -0.22577622095E+02  0.39129844000E+00 -0.15681756837E+01  0.22635399464E+02  0.00000000000E+00 0. -1.
</event>
<event>
 7    1  0.1541705E-008  0.4614232E+02  0.7816164E-02  0.1320468E+00
        -11   -1    0    0    0    0  0.00000000000E+00  0.00000000000E+00  0.45593999997E+02  0.45594000000E+02  0.51100000000E-03 0.  1.
         11   -1    0    0    0    0 -0.00000000000E+00 -0.00000000000E+00 -0.45593999997E+02  0.45594000000E+02  0.51100000000E-03 0. -1.
    9900012    2    1    2    0    0  0.29886897946E+02  0.33608985118E+02  0.25145508963E+01  0.46142317458E+02  0.99999972366E+01 0.  0.
        -12    1    1    2    0    0 -0.29886897946E+02 -0.33608985118E+02 -0.25145508963E+01  0.45045682542E+02  0.00000000000E+00 0.  1.
         11    1    3    3    0    0  0.27357931620E+02  0.30164714915E+02  0.11183594464E+01  0.40738399288E+02  0.51100000000E-03 0. -1.
        -11    1    3    3    0    0  0.26124942579E+01  0.10791900225E+01  0.10340088063E+01  0.30098092672E+01  0.51100000000E-03 0.  1.
         12    1    3    3    0    0 -0.83527931651E-01  0.23650801798E+01  0.36218264361E+00  0.23941089031E+01  0.00000000000E+00 0. -1.
</event>
<event>
 7    1  0.1541705E-008  0.4614232E+02  0.7816164E-02  0.1320468E+00
        -11   -1    0    0    0    0  0.00000000000E+00  0.00000000000E+00  0.45593999997E+02  0.45594000000E+02  0.51100000000E-03 0.  1.
         11   -1    0    0    0    0 -0.00000000000E+00 -0.00000000000E+00 -0.45593999997E+02  0.45594000000E+02  0.51100000000E-03 0. -1.
    9900012    2    1    2    0    0  0.35689794753E+02 -0.25570014986E+02 -0.10076032027E+02  0.46142317218E+02  0.99999950481E+01 0.  0.
        -12    1    1    2    0    0 -0.35689794753E+02  0.25570014986E+02  0.10076032027E+02  0.45045682782E+02  0.00000000000E+00 0.  1.
         11    1    3    3    0    0  0.47281837486E+01 -0.58872498907E+01 -0.28568067912E+01  0.80732136191E+01  0.51100000000E-03 0. -1.
        -11    1    3    3    0    0  0.81705531437E+01 -0.91071368301E+01 -0.29199746305E+01  0.12578717423E+02  0.51100000000E-03 0.  1.
        -12    1    3    3    0    0  0.22791057861E+02 -0.10575628265E+02 -0.42992506053E+01  0.25490386176E+02  0.00000000000E+00 0.  1.
</event>
<event>
 7    1  0.1541705E-008  0.4614232E+02  0.7816164E-02  0.1320468E+00
        -11   -1    0    0    0    0  0.00000000000E+00  0.00000000000E+00  0.45593999997E+02  0.45594000000E+02  0.51100000000E-03 0. -1.
         11   -1    0    0    0    0 -0.00000000000E+00 -0.00000000000E+00 -0.45593999997E+02  0.45594000000E+02  0.51100000000E-03 0.  1.
    9900012    2    1    2    0    0  0.30469573665E+02 -0.32625299493E+02  0.60256477559E+01  0.46142317441E+02  0.99999970809E+01 0.  0.
        -12    1    1    2    0    0 -0.30469573665E+02  0.32625299493E+02 -0.60256477559E+01  0.45045682559E+02  0.00000000000E+00 0.  1.
         11    1    3    3    0    0  0.19795548548E+02 -0.24722148816E+02  0.37379039316E+01  0.31890755878E+02  0.51100000000E-03 0. -1.
        -11    1    3    3    0    0 -0.88932723668E-01  0.39892489503E+00 -0.16212369910E+00  0.43969814207E+00  0.51100000000E-03 0.  1.
        -12    1    3    3    0    0  0.10762957840E+02 -0.83020755720E+01  0.24498675234E+01  0.13811863421E+02  0.00000000000E+00 0.  1.
</event>
<event>
 7    1  0.1541705E-008  0.4614232E+02  0.7816164E-02  0.1320468E+00
        -11   -1    0    0    0    0  0.00000000000E+00  0.00000000000E+00  0.45593999997E+02  0.45594000000E+02  0.51100000000E-03 0. -1.
         11   -1    0    0    0    0 -0.00000000000E+00 -0.00000000000E+00 -0.45593999997E+02  0.45594000000E+02  0.51100000000E-03 0.  1.
    9900012    2    1    2    0    0  0.39633629416E+02 -0.18145691361E+02  0.11358820612E+02  0.46142317617E+02  0.99999986891E+01 0.  0.
        -12    1    1    2    0    0 -0.39633629416E+02  0.18145691361E+02 -0.11358820612E+02  0.45045682383E+02  0.00000000000E+00 0.  1.
         11    1    3    3    0    0  0.16075777564E+02 -0.10897142249E+02  0.17228975611E+01  0.19497351352E+02  0.51100000000E-03 0. -1.
        -11    1    3    3    0    0  0.95959216077E+01 -0.27078156863E+01  0.55223797202E+01  0.11397835554E+02  0.51100000000E-03 0.  1.
         12    1    3    3    0    0  0.13961930244E+02 -0.45407334261E+01  0.41135433304E+01  0.15247130711E+02  0.00000000000E+00 0. -1.
</event>
<event>
 7    1  0.1541705E-008  0.4614232E+02  0.7816164E-02  0.1320468E+00
        -11   -1    0    0    0    0  0.00000000000E+00  0.00000000000E+00  0.45593999997E+02  0.45594000000E+02  0.51100000000E-03 0.  1.
         11   -1    0    0    0    0 -0.00000000000E+00 -0.00000000000E+00 -0.45593999997E+02  0.45594000000E+02  0.51100000000E-03 0. -1.
    9900012    2    1    2    0    0 -0.37788611800E+02  0.21916704698E+02  0.10990533115E+02  0.46142323795E+02  0.10000055025E+02 0.  0.
        -12    1    1    2    0    0  0.37788611800E+02 -0.21916704698E+02 -0.10990533115E+02  0.45045676205E+02  0.00000000000E+00 0.  1.
         11    1    3    3    0    0 -0.63217277240E+00  0.54103654905E+00  0.17505177015E+01  0.19382144995E+01  0.51100000000E-03 0.  1.
        -11    1    3    3    0    0 -0.10570576126E+02  0.88878293876E+01  0.20241792507E+01  0.13958076255E+02  0.51100000000E-03 0. -1.
        -12    1    3    3    0    0 -0.26585862902E+02  0.12487838762E+02  0.72158361627E+01  0.30246033040E+02  0.00000000000E+00 0.  1.
</event>
<event>
 7    1  0.1541705E-008  0.4614232E+02  0.7816164E-02  0.1320468E+00
        -11   -1    0    0    0    0  0.00000000000E+00  0.00000000000E+00  0.45593999997E+02  0.45594000000E+02  0.51100000000E-03 0. -1.
         11   -1    0    0    0    0 -0.00000000000E+00 -0.00000000000E+00 -0.45593999997E+02  0.45594000000E+02  0.51100000000E-03 0.  1.
    9900012    2    1    2    0    0 -0.71499390121E+01 -0.16556427162E+02  0.41278039817E+02  0.46142317861E+02  0.10000000908E+02 0.  0.
        -12    1    1    2    0    0  0.71499390121E+01  0.16556427162E+02 -0.41278039817E+02  0.45045682139E+02  0.00000000000E+00 0.  1.
         11    1    3    3    0    0 -0.10057526119E+01 -0.35812509698E+01  0.92210368852E+01  0.99430588012E+01  0.51100000000E-03 0. -1.
        -11    1    3    3    0    0 -0.18244981655E+01 -0.53818951311E+01  0.22689700071E+02  0.23390512571E+02  0.51100000000E-03 0.  1.
        -12    1    3    3    0    0 -0.43196882347E+01 -0.75932810614E+01  0.93673028613E+01  0.12808746489E+02  0.00000000000E+00 0.  1.
</event>
<event>
 7    1  0.1541705E-008  0.4614232E+02  0.7816164E-02  0.1320468E+00
        -11   -1    0    0    0    0  0.00000000000E+00  0.00000000000E+00  0.45593999997E+02  0.45594000000E+02  0.51100000000E-03 0.  1.
         11   -1    0    0    0    0 -0.00000000000E+00 -0.00000000000E+00 -0.45593999997E+02  0.45594000000E+02  0.51100000000E-03 0. -1.
    9900012    2    1    2    0    0  0.64127859742E+01  0.11515170847E+01 -0.44572005483E+02  0.46142317762E+02  0.10000000007E+02 0.  0.
        -12    1    1    2    0    0 -0.64127859742E+01 -0.11515170847E+01  0.44572005483E+02  0.45045682238E+02  0.00000000000E+00 0.  1.
         11    1    3    3    0    0  0.83982262991E+01  0.21596415095E+01 -0.36241483184E+02  0.37264451694E+02  0.51100000000E-03 0. -1.
        -11    1    3    3    0    0  0.29052138230E-01  0.52585662514E+00 -0.11774449027E+01  0.12898627745E+01  0.51100000000E-03 0.  1.
        -12    1    3    3    0    0 -0.20144924632E+01 -0.15339810500E+01 -0.71530773957E+01  0.75880032931E+01  0.00000000000E+00 0.  1.
</event>
<event>
 7    1  0.1541705E-008  0.4614232E+02  0.7816164E-02  0.1320468E+00
        -11   -1    0    0    0    0  0.00000000000E+00  0.00000000000E+00  0.45593999997E+02  0.45594000000E+02  0.51100000000E-03 0. -1.
         11   -1    0    0    0    0 -0.00000000000E+00 -0.00000000000E+00 -0.45593999997E+02  0.45594000000E+02  0.51100000000E-03 0.  1.
    9900012    2    1    2    0    0  0.36568046997E+02 -0.22591110239E+02  0.13473425729E+02  0.46142317367E+02  0.99999964038E+01 0.  0.
        -12    1    1    2    0    0 -0.36568046997E+02  0.22591110239E+02 -0.13473425729E+02  0.45045682633E+02  0.00000000000E+00 0.  1.
         11    1    3    3    0    0  0.26739094262E+02 -0.16509325332E+02  0.12521496030E+02  0.33827870875E+02  0.51100000000E-03 0. -1.
        -11    1    3    3    0    0  0.76539536660E+00 -0.14105726783E+01 -0.10573767846E+01  0.19218718151E+01  0.51100000000E-03 0.  1.
        -12    1    3    3    0    0  0.90635573684E+01 -0.46712122287E+01  0.20093064843E+01  0.10392574676E+02  0.00000000000E+00 0.  1.
</event>
<event>
 7    1  0.1541705E-008  0.4614232E+02  0.7816164E-02  0.1320468E+00
        -11   -1    0    0    0    0  0.00000000000E+00  0.00000000000E+00  0.45593999997E+02  0.45594000000E+02  0.51100000000E-03 0. -1.
         11   -1    0    0    0    0 -0.00000000000E+00 -0.00000000000E+00 -0.45593999997E+02  0.45594000000E+02  0.51100000000E-03 0.  1.
    9900012    2    1    2    0    0  0.12999199835E+02  0.41834439063E+02  0.10488757933E+02  0.46142317288E+02  0.99999956844E+01 0.  0.
        -12    1    1    2    0    0 -0.12999199835E+02 -0.41834439063E+02 -0.10488757933E+02  0.45045682712E+02  0.00000000000E+00 0.  1.
         11    1    3    3    0    0  0.71875589455E+01  0.29106455658E+02  0.81467583967E+01  0.31067932619E+02  0.51100000000E-03 0. -1.
        -11    1    3    3    0    0  0.26533676976E+01  0.30772558541E+01  0.27590766829E+01  0.49114527518E+01  0.51100000000E-03 0.  1.
        -12    1    3    3    0    0  0.31582731922E+01  0.96507275503E+01 -0.41707714697E+00  0.10162931917E+02  0.00000000000E+00 0.  1.
</event>
<event>
 7    1  0.1541705E-008  0.4614232E+02  0.7816164E-02  0.1320468E+00
        -11   -1    0    0    0    0  0.00000000000E+00  0.00000000000E+00  0.45593999997E+02  0.45594000000E+02  0.51100000000E-03 0. -1.
         11   -1    0    0    0    0 -0.00000000000E+00 -0.00000000000E+00 -0.45593999997E+02  0.45594000000E+02  0.51100000000E-03 0.  1.
    9900012    2    1    2    0    0 -0.24125782496E+02 -0.18825663574E+02  0.33055323579E+02  0.46142318664E+02  0.10000008238E+02 0.  0.
        -12    1    1    2    0    0  0.24125782496E+02  0.18825663574E+02 -0.33055323579E+02  0.45045681336E+02  0.00000000000E+00 0.  1.
         11    1    3    3    0    0 -0.35529669270E+00 -0.45038673240E+00  0.36769125080E+01  0.37213935294E+01  0.51100000000E-03 0. -1.
        -11    1    3    3    0    0 -0.18884343546E+02 -0.15468560738E+02  0.20494229347E+02  0.31873315473E+02  0.51100000000E-03 0.  1.
        -12    1    3    3    0    0 -0.48861422577E+01 -0.29067161036E+01  0.88841817245E+01  0.10547609662E+02  0.00000000000E+00 0.  1.
</event>
<event>
 7    1  0.1541705E-008  0.4614232E+02  0.7816164E-02  0.1320468E+00
        -11   -1    0    0    0    0  0.00000000000E+00  0.00000000000E+00  0.45593999997E+02  0.45594000000E+02  0.51100000000E-03 0. -1.
         11   -1    0    0    0    0 -0.00000000000E+00 -0.00000000000E+00 -0.45593999997E+02  0.45594000000E+02  0.51100000000E-03 0.  1.
    9900012    2    1    2    0    0 -0.76132688148E+01 -0.43907836975E+02  0.65767408065E+01  0.46142317304E+02  0.99999958351E+01 0.  0.
        -12    1    1    2    0    0  0.76132688148E+01  0.43907836975E+02 -0.65767408065E+01  0.45045682696E+02  0.00000000000E+00 0.  1.
         11    1    3    3    0    0 -0.25824922105E+01 -0.30798489944E+02  0.69635416484E+01  0.31681337747E+02  0.51100000000E-03 0. -1.
        -11    1    3    3    0    0  0.14987438115E+00 -0.49632246535E+00 -0.63931442735E+00  0.82311695273E+00  0.51100000000E-03 0.  1.
        -12    1    3    3    0    0 -0.51806509855E+01 -0.12613024565E+02  0.25251358544E+00  0.13637862605E+02  0.00000000000E+00 0.  1.
</event>
<event>
 7    1  0.1541705E-008  0.4614232E+02  0.7816164E-02  0.1320468E+00
        -11   -1    0    0    0    0  0.00000000000E+00  0.00000000000E+00  0.45593999997E+02  0.45594000000E+02  0.51100000000E-03 0.  1.
         11   -1    0    0    0    0 -0.00000000000E+00 -0.00000000000E+00 -0.45593999997E+02  0.45594000000E+02  0.51100000000E-03 0. -1.
    9900012    2    1    2    0    0 -0.17041382830E+02  0.89400945359E+01 -0.40728117304E+02  0.46142316986E+02  0.99999929308E+01 0.  0.
        -12    1    1    2    0    0  0.17041382830E+02 -0.89400945359E+01  0.40728117304E+02  0.45045683014E+02  0.00000000000E+00 0.  1.
         11    1    3    3    0    0 -0.44093503908E+01  0.58724111050E+01 -0.11923408132E+02  0.14003401187E+02  0.51100000000E-03 0. -1.
        -11    1    3    3    0    0 -0.89898138373E+01  0.42366260411E+00 -0.13813222382E+02  0.16486399112E+02  0.51100000000E-03 0.  1.
         12    1    3    3    0    0 -0.36422186022E+01  0.26440208268E+01 -0.14991486789E+02  0.15652516687E+02  0.00000000000E+00 0. -1.
</event>
<event>
 7    1  0.1541705E-008  0.4614232E+02  0.7816164E-02  0.1320468E+00
        -11   -1    0    0    0    0  0.00000000000E+00  0.00000000000E+00  0.45593999997E+02  0.45594000000E+02  0.51100000000E-03 0.  1.
         11   -1    0    0    0    0 -0.00000000000E+00 -0.00000000000E+00 -0.45593999997E+02  0.45594000000E+02  0.51100000000E-03 0. -1.
    9900012    2    1    2    0    0  0.44323387814E+02 -0.35531744630E+01  0.72059478809E+01  0.46142318287E+02  0.10000004798E+02 0.  0.
        -12    1    1    2    0    0 -0.44323387814E+02  0.35531744630E+01 -0.72059478809E+01  0.45045681713E+02  0.00000000000E+00 0.  1.
         11    1    3    3    0    0  0.30400767119E+02 -0.45766076786E+01  0.78192297646E+01  0.31722111116E+02  0.51100000000E-03 0. -1.
        -11    1    3    3    0    0  0.59984857665E+01  0.21646269225E+01  0.14275491587E+00  0.63787005285E+01  0.51100000000E-03 0.  1.
         12    1    3    3    0    0  0.79241349291E+01 -0.11411937070E+01 -0.75603679956E+00  0.80415066433E+01  0.00000000000E+00 0. -1.
</event>
<event>
 7    1  0.1541705E-008  0.4614232E+02  0.7816164E-02  0.1320468E+00
        -11   -1    0    0    0    0  0.00000000000E+00  0.00000000000E+00  0.45593999997E+02  0.45594000000E+02  0.51100000000E-03 0. -1.
         11   -1    0    0    0    0 -0.00000000000E+00 -0.00000000000E+00 -0.45593999997E+02  0.45594000000E+02  0.51100000000E-03 0.  1.
    9900012    2    1    2    0    0 -0.28869808958E+02  0.32646263828E+02 -0.11396013603E+02  0.46142317218E+02  0.99999950502E+01 0.  0.
        -12    1    1    2    0    0  0.28869808958E+02 -0.32646263828E+02  0.11396013603E+02  0.45045682782E+02  0.00000000000E+00 0.  1.
         11    1    3    3    0    0 -0.35640620433E+01  0.26322388958E+01 -0.42245704571E+00  0.44508077996E+01  0.51100000000E-03 0. -1.
        -11    1    3    3    0    0 -0.16387286498E+02  0.13410493988E+02 -0.78711501013E+01  0.22590695251E+02  0.51100000000E-03 0.  1.
        -12    1    3    3    0    0 -0.89184604175E+01  0.16603530944E+02 -0.31024064559E+01  0.19100814167E+02  0.00000000000E+00 0.  1.
</event>
<event>
 7    1  0.1541705E-008  0.4614232E+02  0.7816164E-02  0.1320468E+00
        -11   -1    0    0    0    0  0.00000000000E+00  0.00000000000E+00  0.45593999997E+02  0.45594000000E+02  0.51100000000E-03 0.  1.
         11   -1    0    0    0    0 -0.00000000000E+00 -0.00000000000E+00 -0.45593999997E+02  0.45594000000E+02  0.51100000000E-03 0. -1.
    9900012    2    1    2    0    0 -0.33548607451E+02  0.14337244903E+02 -0.26420593551E+02  0.46142318555E+02  0.10000007235E+02 0.  0.
        -12    1    1    2    0    0  0.33548607451E+02 -0.14337244903E+02  0.26420593551E+02  0.45045681445E+02  0.00000000000E+00 0.  1.
         11    1    3    3    0    0 -0.11232842503E+02  0.74540683133E+01 -0.13898530629E+02  0.19362567986E+02  0.51100000000E-03 0.  1.
        -11    1    3    3    0    0 -0.17658696327E+02  0.70344921340E+01 -0.10251256924E+02  0.21596340068E+02  0.51100000000E-03 0. -1.
        -12    1    3    3    0    0 -0.46570686208E+01 -0.15131554409E+00 -0.22708059975E+01  0.51834104999E+01  0.00000000000E+00 0.  1.
</event>
<event>
 7    1  0.1541705E-008  0.4614232E+02  0.7816164E-02  0.1320468E+00
        -11   -1    0    0    0    0  0.00000000000E+00  0.00000000000E+00  0.45593999997E+02  0.45594000000E+02  0.51100000000E-03 0.  1.
         11   -1    0    0    0    0 -0.00000000000E+00 -0.00000000000E+00 -0.45593999997E+02  0.45594000000E+02  0.51100000000E-03 0. -1.
    9900012    2    1    2    0    0 -0.43592970054E+02 -0.64752326644E+01 -0.93186860277E+01  0.46142316684E+02  0.99999901751E+01 0.  0.
        -12    1    1    2    0    0  0.43592970054E+02  0.64752326644E+01  0.93186860277E+01  0.45045683316E+02  0.00000000000E+00 0.  1.
         11    1    3    3    0    0 -0.15667096223E+02 -0.50555248504E+01 -0.12910831553E+01  0.16513119982E+02  0.51100000000E-03 0. -1.
        -11    1    3    3    0    0 -0.22558270324E+02  0.10916259545E+01 -0.66802029443E+01  0.23551906905E+02  0.51100000000E-03 0.  1.
        -12    1    3    3    0    0 -0.53676035070E+01 -0.25113337685E+01 -0.13473999280E+01  0.60772897965E+01  0.00000000000E+00 0.  1.
</event>
<event>
 7    1  0.1541705E-008  0.4614231E+02  0.7816164E-02  0.1320468E+00
        -11   -1    0    0    0    0  0.00000000000E+00  0.00000000000E+00  0.45593999997E+02  0.45594000000E+02  0.51100000000E-03 0. -1.
         11   -1    0    0    0    0 -0.00000000000E+00 -0.00000000000E+00 -0.45593999997E+02  0.45594000000E+02  0.51100000000E-03 0.  1.
    9900012    2    1    2    0    0  0.38079364405E+02  0.95404684017E+01  0.22091973889E+02  0.46142313846E+02  0.99999642996E+01 0.  0.
        -12    1    1    2    0    0 -0.38079364405E+02 -0.95404684017E+01 -0.22091973889E+02  0.45045686154E+02  0.00000000000E+00 0.  1.
         11    1    3    3    0    0  0.24237314206E+02  0.95221193657E+01  0.14928481702E+02  0.30016290966E+02  0.51100000000E-03 0. -1.
        -11    1    3    3    0    0  0.53723098344E+00 -0.81831412970E+00 -0.27164163644E-01  0.97928203156E+00  0.51100000000E-03 0.  1.
        -12    1    3    3    0    0  0.13304819215E+02  0.83666316565E+00  0.71906563500E+01  0.15146740849E+02  0.00000000000E+00 0.  1.
</event>
<event>
 7    1  0.1541705E-008  0.4614232E+02  0.7816164E-02  0.1320468E+00
        -11   -1    0    0    0    0  0.00000000000E+00  0.00000000000E+00  0.45593999997E+02  0.45594000000E+02  0.51100000000E-03 0. -1.
         11   -1    0    0    0    0 -0.00000000000E+00 -0.00000000000E+00 -0.45593999997E+02  0.45594000000E+02  0.51100000000E-03 0.  1.
    9900012    2    1    2    0    0  0.26452744033E+02 -0.26159385179E+02  0.25397883053E+02  0.46142316928E+02  0.99999924019E+01 0.  0.
        -12    1    1    2    0    0 -0.26452744033E+02  0.26159385179E+02 -0.25397883053E+02  0.45045683072E+02  0.00000000000E+00 0.  1.
         11    1    3    3    0    0  0.69226500119E+01 -0.11201369562E+02  0.61336194664E+01  0.14526357123E+02  0.51100000000E-03 0. -1.
        -11    1    3    3    0    0  0.14638891618E+02 -0.13609947308E+02  0.15667220601E+02  0.25396645747E+02  0.51100000000E-03 0.  1.
         12    1    3    3    0    0  0.48912024031E+01 -0.13480683092E+01  0.35970429853E+01  0.62193140580E+01  0.00000000000E+00 0. -1.
</event>
<event>
 7    1  0.1541705E-008  0.4614232E+02  0.7816164E-02  0.1320468E+00
        -11   -1    0    0    0    0  0.00000000000E+00  0.00000000000E+00  0.45593999997E+02  0.45594000000E+02  0.51100000000E-03 0.  1.
         11   -1    0    0    0    0 -0.00000000000E+00 -0.00000000000E+00 -0.45593999997E+02  0.45594000000E+02  0.51100000000E-03 0. -1.
    9900012    2    1    2    0    0  0.15181773193E+02  0.39182000342E+02 -0.16229542386E+02  0.46142318363E+02  0.10000005489E+02 0.  0.
        -12    1    1    2    0    0 -0.15181773193E+02 -0.39182000342E+02  0.16229542386E+02  0.45045681637E+02  0.00000000000E+00 0.  1.
         11    1    3    3    0    0  0.19676776667E+01  0.24900843151E+01 -0.17949709309E-02  0.31736853624E+01  0.51100000000E-03 0.  1.
        -11    1    3    3    0    0  0.10736514548E+01  0.86819591962E+01 -0.66003005239E+01  0.10958700206E+02  0.51100000000E-03 0. -1.
         12    1    3    3    0    0  0.12140444071E+02  0.28009956830E+02 -0.96274468916E+01  0.32009932795E+02  0.00000000000E+00 0. -1.
</event>
<event>
 7    1  0.1541705E-008  0.4614232E+02  0.7816164E-02  0.1320468E+00
        -11   -1    0    0    0    0  0.00000000000E+00  0.00000000000E+00  0.45593999997E+02  0.45594000000E+02  0.51100000000E-03 0.  1.
         11   -1    0    0    0    0 -0.00000000000E+00 -0.00000000000E+00 -0.45593999997E+02  0.45594000000E+02  0.51100000000E-03 0. -1.
    9900012    2    1    2    0    0 -0.25932890432E+02  0.35556722514E+02  0.96082369464E+01  0.46142317196E+02  0.99999948438E+01 0.  0.
        -12    1    1    2    0    0  0.25932890432E+02 -0.35556722514E+02 -0.96082369464E+01  0.45045682804E+02  0.00000000000E+00 0.  1.
         11    1    3    3    0    0 -0.11176307125E+02  0.14712226177E+02 -0.30928990219E+00  0.18478503742E+02  0.51100000000E-03 0. -1.
        -11    1    3    3    0    0 -0.14894575925E+02  0.20742788082E+02  0.95599616728E+01  0.27267279235E+02  0.51100000000E-03 0.  1.
        -12    1    3    3    0    0  0.13799261841E+00  0.10170825462E+00  0.35756517579E+00  0.39653421886E+00  0.00000000000E+00 0.  1.
</event>
<event>
 7    1  0.1541705E-008  0.4614232E+02  0.7816164E-02  0.1320468E+00
        -11   -1    0    0    0    0  0.00000000000E+00  0.00000000000E+00  0.45593999997E+02  0.45594000000E+02  0.51100000000E-03 0.  1.
         11   -1    0    0    0    0 -0.00000000000E+00 -0.00000000000E+00 -0.45593999997E+02  0.45594000000E+02  0.51100000000E-03 0. -1.
    9900012    2    1    2    0    0 -0.12782148416E+02 -0.31483959144E+01 -0.43079202854E+02  0.46142318370E+02  0.10000005555E+02 0.  0.
        -12    1    1    2    0    0  0.12782148416E+02  0.31483959144E+01  0.43079202854E+02  0.45045681630E+02  0.00000000000E+00 0.  1.
         11    1    3    3    0    0 -0.11697328789E+02 -0.37946961715E+01 -0.40623443334E+02  0.42443979177E+02  0.51100000000E-03 0. -1.
        -11    1    3    3    0    0 -0.62669377494E+00 -0.47962367359E+00  0.16784608522E+00  0.80681876854E+00  0.51100000000E-03 0.  1.
        -12    1    3    3    0    0 -0.45812585282E+00  0.11259239307E+01 -0.26236056048E+01  0.28915204243E+01  0.00000000000E+00 0.  1.
</event>
<event>
 7    1  0.1541705E-008  0.4614232E+02  0.7816164E-02  0.1320468E+00
        -11   -1    0    0    0    0  0.00000000000E+00  0.00000000000E+00  0.45593999997E+02  0.45594000000E+02  0.51100000000E-03 0.  1.
         11   -1    0    0    0    0 -0.00000000000E+00 -0.00000000000E+00 -0.45593999997E+02  0.45594000000E+02  0.51100000000E-03 0. -1.
    9900012    2    1    2    0    0  0.56624182022E+01  0.15054272793E+02 -0.42076351843E+02  0.46142317703E+02  0.99999994708E+01 0.  0.
        -12    1    1    2    0    0 -0.56624182022E+01 -0.15054272793E+02  0.42076351843E+02  0.45045682297E+02  0.00000000000E+00 0.  1.
         11    1    3    3    0    0  0.22839878057E+01  0.90064775203E+01 -0.18682335910E+02  0.20865351972E+02  0.51100000000E-03 0. -1.
        -11    1    3    3    0    0 -0.16669354251E+01  0.56578117754E-01 -0.30331634090E+01  0.34614961103E+01  0.51100000000E-03 0.  1.
        -12    1    3    3    0    0  0.50453658216E+01  0.59912171548E+01 -0.20360852524E+02  0.21815469620E+02  0.00000000000E+00 0.  1.
</event>
<event>
 7    1  0.1541705E-008  0.4614232E+02  0.7816164E-02  0.1320468E+00
        -11   -1    0    0    0    0  0.00000000000E+00  0.00000000000E+00  0.45593999997E+02  0.45594000000E+02  0.51100000000E-03 0.  1.
         11   -1    0    0    0    0 -0.00000000000E+00 -0.00000000000E+00 -0.45593999997E+02  0.45594000000E+02  0.51100000000E-03 0. -1.
    9900012    2    1    2    0    0  0.11778396540E+02 -0.26146055425E+02 -0.34738546877E+02  0.46142317871E+02  0.10000001004E+02 0.  0.
        -12    1    1    2    0    0 -0.11778396540E+02  0.26146055425E+02  0.34738546877E+02  0.45045682129E+02  0.00000000000E+00 0.  1.
         11    1    3    3    0    0  0.58972739860E+01 -0.17250959282E+02 -0.14683529912E+02  0.23408961694E+02  0.51100000000E-03 0. -1.
        -11    1    3    3    0    0  0.21988126205E+01 -0.26812023679E+01 -0.70722457866E+01  0.78765654828E+01  0.51100000000E-03 0.  1.
         12    1    3    3    0    0  0.36823099332E+01 -0.62138937745E+01 -0.12982771178E+02  0.14856790695E+02  0.00000000000E+00 0. -1.
</event>
<event>
 7    1  0.1541705E-008  0.4614232E+02  0.7816164E-02  0.1320468E+00
        -11   -1    0    0    0    0  0.00000000000E+00  0.00000000000E+00  0.45593999997E+02  0.45594000000E+02  0.51100000000E-03 0. -1.
         11   -1    0    0    0    0 -0.00000000000E+00 -0.00000000000E+00 -0.45593999997E+02  0.45594000000E+02  0.51100000000E-03 0.  1.
    9900012    2    1    2    0    0  0.42643556703E+02  0.11962320720E+02 -0.82184783038E+01  0.46142318398E+02  0.10000005811E+02 0.  0.
        -12    1    1    2    0    0 -0.42643556703E+02 -0.11962320720E+02  0.82184783038E+01  0.45045681602E+02  0.00000000000E+00 0.  1.
         11    1    3    3    0    0  0.26043236142E+02  0.30112609375E+01 -0.61204659929E+01  0.26921700270E+02  0.51100000000E-03 0. -1.
        -11    1    3    3    0    0  0.41076292529E+01  0.15678772667E+01 -0.16694224892E+01  0.47029595906E+01  0.51100000000E-03 0.  1.
         12    1    3    3    0    0  0.12492691308E+02  0.73831825157E+01 -0.42858982171E+00  0.14517658538E+02  0.00000000000E+00 0. -1.
</event>
<event>
 7    1  0.1541705E-008  0.4614232E+02  0.7816164E-02  0.1320468E+00
        -11   -1    0    0    0    0  0.00000000000E+00  0.00000000000E+00  0.45593999997E+02  0.45594000000E+02  0.51100000000E-03 0. -1.
         11   -1    0    0    0    0 -0.00000000000E+00 -0.00000000000E+00 -0.45593999997E+02  0.45594000000E+02  0.51100000000E-03 0.  1.
    9900012    2    1    2    0    0 -0.21969778564E+02 -0.39124916074E+02  0.39602216969E+01  0.46142316701E+02  0.99999903356E+01 0.  0.
        -12    1    1    2    0    0  0.21969778564E+02  0.39124916074E+02 -0.39602216969E+01  0.45045683299E+02  0.00000000000E+00 0.  1.
         11    1    3    3    0    0 -0.51231878399E+01 -0.78522862674E+01  0.30618651760E+01  0.98630863265E+01  0.51100000000E-03 0. -1.
        -11    1    3    3    0    0 -0.57358804317E+01 -0.46958137606E+01 -0.57964762093E+00  0.74355216916E+01  0.51100000000E-03 0.  1.
        -12    1    3    3    0    0 -0.11110710293E+02 -0.26576816046E+02  0.14780041419E+01  0.28843708683E+02  0.00000000000E+00 0.  1.
</event>
<event>
 7    1  0.1541705E-008  0.4614231E+02  0.7816164E-02  0.1320468E+00
        -11   -1    0    0    0    0  0.00000000000E+00  0.00000000000E+00  0.45593999997E+02  0.45594000000E+02  0.51100000000E-03 0.  1.
         11   -1    0    0    0    0 -0.00000000000E+00 -0.00000000000E+00 -0.45593999997E+02  0.45594000000E+02  0.51100000000E-03 0. -1.
    9900012    2    1    2    0    0  0.24160583427E+02  0.30241295791E+02 -0.23040051666E+02  0.46142314930E+02  0.99999741805E+01 0.  0.
        -12    1    1    2    0    0 -0.24160583427E+02 -0.30241295791E+02  0.23040051666E+02  0.45045685070E+02  0.00000000000E+00 0.  1.
         11    1    3    3    0    0  0.20775705876E+02  0.25141170018E+02 -0.17939340084E+02  0.37222685387E+02  0.51100000000E-03 0. -1.
        -11    1    3    3    0    0  0.16791594189E-01  0.43317798385E+00  0.65149170273E+00  0.78253870395E+00  0.51100000000E-03 0.  1.
        -12    1    3    3    0    0  0.33680859576E+01  0.46669477890E+01 -0.57522032854E+01  0.81370908389E+01  0.00000000000E+00 0.  1.
</event>
<event>
 7    1  0.1541705E-008  0.4614232E+02  0.7816164E-02  0.1320468E+00
        -11   -1    0    0    0    0  0.00000000000E+00  0.00000000000E+00  0.45593999997E+02  0.45594000000E+02  0.51100000000E-03 0. -1.
         11   -1    0    0    0    0 -0.00000000000E+00 -0.00000000000E+00 -0.45593999997E+02  0.45594000000E+02  0.51100000000E-03 0.  1.
    9900012    2    1    2    0    0 -0.13476726493E+02  0.49918558375E+01  0.42691600037E+02  0.46142317683E+02  0.99999992916E+01 0.  0.
        -12    1    1    2    0    0  0.13476726493E+02 -0.49918558375E+01 -0.42691600037E+02  0.45045682317E+02  0.00000000000E+00 0.  1.
         11    1    3    3    0    0 -0.67228619094E+01  0.55100121937E+01  0.21544636444E+02  0.23232056870E+02  0.51100000000E-03 0. -1.
        -11    1    3    3    0    0 -0.99950729082E+00 -0.24374729198E+01  0.81978742416E+01  0.86107741464E+01  0.51100000000E-03 0.  1.
         12    1    3    3    0    0 -0.57543572932E+01  0.19193165636E+01  0.12949089351E+02  0.14299486667E+02  0.00000000000E+00 0. -1.
</event>
<event>
 7    1  0.1541705E-008  0.4614231E+02  0.7816164E-02  0.1320468E+00
        -11   -1    0    0    0    0  0.00000000000E+00  0.00000000000E+00  0.45593999997E+02  0.45594000000E+02  0.51100000000E-03 0.  1.
         11   -1    0    0    0    0 -0.00000000000E+00 -0.00000000000E+00 -0.45593999997E+02  0.45594000000E+02  0.51100000000E-03 0. -1.
    9900012    2    1    2    0    0  0.35133894666E+02  0.20535518374E+02 -0.19313613556E+02  0.46142314992E+02  0.99999747480E+01 0.  0.
        -12    1    1    2    0    0 -0.35133894666E+02 -0.20535518374E+02  0.19313613556E+02  0.45045685008E+02  0.00000000000E+00 0.  1.
         11    1    3    3    0    0  0.94350499750E+01  0.21437177612E+01 -0.36907841023E+01  0.10355557997E+02  0.51100000000E-03 0.  1.
        -11    1    3    3    0    0  0.11055131375E+02  0.62274946972E+01 -0.33039591703E+01  0.13111589011E+02  0.51100000000E-03 0. -1.
         12    1    3    3    0    0  0.14643713316E+02  0.12164305915E+02 -0.12318870283E+02  0.22675167985E+02  0.00000000000E+00 0. -1.
</event>
<event>
 7    1  0.1541705E-008  0.4614232E+02  0.7816164E-02  0.1320468E+00
        -11   -1    0    0    0    0  0.00000000000E+00  0.00000000000E+00  0.45593999997E+02  0.45594000000E+02  0.51100000000E-03 0.  1.
         11   -1    0    0    0    0 -0.00000000000E+00 -0.00000000000E+00 -0.45593999997E+02  0.45594000000E+02  0.51100000000E-03 0. -1.
    9900012    2    1    2    0    0  0.35524127642E+02  0.12591204213E+02 -0.24670051438E+02  0.46142317563E+02  0.99999981906E+01 0.  0.
        -12    1    1    2    0    0 -0.35524127642E+02 -0.12591204213E+02  0.24670051438E+02  0.45045682437E+02  0.00000000000E+00 0.  1.
         11    1    3    3    0    0  0.48103580934E+01  0.47336460638E+00 -0.16680531150E+00  0.48364701292E+01  0.51100000000E-03 0.  1.
        -11    1    3    3    0    0  0.21992313209E+02  0.10428761207E+02 -0.18715380300E+02  0.30703197890E+02  0.51100000000E-03 0. -1.
        -12    1    3    3    0    0  0.87214563395E+01  0.16890783995E+01 -0.57878658263E+01  0.10602649544E+02  0.00000000000E+00 0.  1.
</event>
<event>
 7    1  0.1541705E-008  0.4614232E+02  0.7816164E-02  0.1320468E+00
        -11   -1    0    0    0    0  0.00000000000E+00  0.00000000000E+00  0.45593999997E+02  0.45594000000E+02  0.51100000000E-03 0.  1.
         11   -1    0    0    0    0 -0.00000000000E+00 -0.00000000000E+00 -0.45593999997E+02  0.45594000000E+02  0.51100000000E-03 0. -1.
    9900012    2    1    2    0    0  0.28711388718E+02 -0.53377519806E+01 -0.34296911589E+02  0.46142316712E+02  0.99999904319E+01 0.  0.
        -12    1    1    2    0    0 -0.28711388718E+02  0.53377519806E+01  0.34296911589E+02  0.45045683288E+02  0.00000000000E+00 0.  1.
         11    1    3    3    0    0  0.17838131687E+02 -0.45996861019E+01 -0.19999502622E+02  0.27190736652E+02  0.51100000000E-03 0. -1.
        -11    1    3    3    0    0 -0.20582507569E+00  0.11779437382E+01 -0.13308195973E+01  0.17891328832E+01  0.51100000000E-03 0.  1.
        -12    1    3    3    0    0  0.11079082107E+02 -0.19160096168E+01 -0.12966589370E+02  0.17162447176E+02  0.00000000000E+00 0.  1.
</event>
<event>
 7    1  0.1541705E-008  0.4614231E+02  0.7816164E-02  0.1320468E+00
        -11   -1    0    0    0    0  0.00000000000E+00  0.00000000000E+00  0.45593999997E+02  0.45594000000E+02  0.51100000000E-03 0.  1.
         11   -1    0    0    0    0 -0.00000000000E+00 -0.00000000000E+00 -0.45593999997E+02  0.45594000000E+02  0.51100000000E-03 0. -1.
    9900012    2    1    2    0    0  0.19526856508E+02 -0.38669360837E+02 -0.12348935077E+02  0.46142314411E+02  0.99999694548E+01 0.  0.
        -12    1    1    2    0    0 -0.19526856508E+02  0.38669360837E+02  0.12348935077E+02  0.45045685589E+02  0.00000000000E+00 0.  1.
         11    1    3    3    0    0  0.11277356676E+02 -0.23497329515E+02 -0.43525225712E+01  0.26424377399E+02  0.51100000000E-03 0. -1.
        -11    1    3    3    0    0  0.42347922741E+01 -0.40334837625E+01 -0.90822485888E+00  0.59183890987E+01  0.51100000000E-03 0.  1.
        -12    1    3    3    0    0  0.40147075574E+01 -0.11138547559E+02 -0.70881876466E+01  0.13799547913E+02  0.00000000000E+00 0.  1.
</event>
<event>
 7    1  0.1541705E-008  0.4614232E+02  0.7816164E-02  0.1320468E+00
        -11   -1    0    0    0    0  0.00000000000E+00  0.00000000000E+00  0.45593999997E+02  0.45594000000E+02  0.51100000000E-03 0. -1.
         11   -1    0    0    0    0 -0.00000000000E+00 -0.00000000000E+00 -0.45593999997E+02  0.45594000000E+02  0.51100000000E-03 0.  1.
    9900012    2    1    2    0    0  0.38760982585E+02  0.18844815111E+02 -0.13098572483E+02  0.46142318425E+02  0.10000006052E+02 0.  0.
        -12    1    1    2    0    0 -0.38760982585E+02 -0.18844815111E+02  0.13098572483E+02  0.45045681575E+02  0.00000000000E+00 0.  1.
         11    1    3    3    0    0  0.18168517370E+02  0.10405049909E+02 -0.52215747451E+01  0.21578344008E+02  0.51100000000E-03 0. -1.
        -11    1    3    3    0    0  0.12998977944E+01  0.16981344837E+01  0.90276799580E+00  0.23212895804E+01  0.51100000000E-03 0.  1.
         12    1    3    3    0    0  0.19292567420E+02  0.67416307177E+01 -0.87797657337E+01  0.22242684837E+02  0.00000000000E+00 0. -1.
</event>
<event>
 7    1  0.1541705E-008  0.4614232E+02  0.7816164E-02  0.1320468E+00
        -11   -1    0    0    0    0  0.00000000000E+00  0.00000000000E+00  0.45593999997E+02  0.45594000000E+02  0.51100000000E-03 0.  1.
         11   -1    0    0    0    0 -0.00000000000E+00 -0.00000000000E+00 -0.45593999997E+02  0.45594000000E+02  0.51100000000E-03 0. -1.
    9900012    2    1    2    0    0 -0.40746692123E+02  0.83937928803E+01 -0.17273240600E+02  0.46142317424E+02  0.99999969245E+01 0.  0.
        -12    1    1    2    0    0  0.40746692123E+02 -0.83937928803E+01  0.17273240600E+02  0.45045682576E+02  0.00000000000E+00 0.  1.
         11    1    3    3    0    0 -0.30854259633E+02  0.67888194394E+01 -0.10748213258E+02  0.33370608256E+02  0.51100000000E-03 0. -1.
        -11    1    3    3    0    0 -0.26365873170E+01 -0.43707947023E+00  0.18646667871E+00  0.26790672308E+01  0.51100000000E-03 0.  1.
        -12    1    3    3    0    0 -0.72558451731E+01  0.20420529111E+01 -0.67114940212E+01  0.10092641937E+02  0.00000000000E+00 0.  1.
</event>
<event>
 7    1  0.1541705E-008  0.4614232E+02  0.7816164E-02  0.1320468E+00
        -11   -1    0    0    0    0  0.00000000000E+00  0.00000000000E+00  0.45593999997E+02  0.45594000000E+02  0.51100000000E-03 0.  1.
         11   -1    0    0    0    0 -0.00000000000E+00 -0.00000000000E+00 -0.45593999997E+02  0.45594000000E+02  0.51100000000E-03 0. -1.
    9900012    2    1    2    0    0 -0.21030967114E+02 -0.18697651421E+02 -0.35173992532E+02  0.46142317664E+02  0.99999991171E+01 0.  0.
        -12    1    1    2    0    0  0.21030967114E+02  0.18697651421E+02  0.35173992532E+02  0.45045682336E+02  0.00000000000E+00 0.  1.
         11    1    3    3    0    0 -0.77412088714E+01 -0.42580953988E+01 -0.11736497643E+02  0.14690237180E+02  0.51100000000E-03 0. -1.
        -11    1    3    3    0    0 -0.63774253755E+00 -0.39943409613E+00  0.53652616544E+00  0.92418814571E+00  0.51100000000E-03 0.  1.
        -12    1    3    3    0    0 -0.12652015706E+02 -0.14040121926E+02 -0.23974021054E+02  0.30527892338E+02  0.00000000000E+00 0.  1.
</event>
<event>
 7    1  0.1541705E-008  0.4614232E+02  0.7816164E-02  0.1320468E+00
        -11   -1    0    0    0    0  0.00000000000E+00  0.00000000000E+00  0.45593999997E+02  0.45594000000E+02  0.51100000000E-03 0.  1.
         11   -1    0    0    0    0 -0.00000000000E+00 -0.00000000000E+00 -0.45593999997E+02  0.45594000000E+02  0.51100000000E-03 0. -1.
    9900012    2    1    2    0    0  0.93931733546E+01  0.42845937683E+02  0.10252186314E+02  0.46142318677E+02  0.10000008352E+02 0.  0.
        -12    1    1    2    0    0 -0.93931733546E+01 -0.42845937683E+02 -0.10252186314E+02  0.45045681323E+02  0.00000000000E+00 0.  1.
         11    1    3    3    0    0  0.66660005418E+01  0.32471322369E+02  0.99056727934E+01  0.34596888493E+02  0.51100000000E-03 0. -1.
        -11    1    3    3    0    0 -0.87672776167E+00  0.61277501691E+00  0.39277640449E+00  0.11394816166E+01  0.51100000000E-03 0.  1.
         12    1    3    3    0    0  0.36039005745E+01  0.97618402971E+01 -0.46262883654E-01  0.10405948568E+02  0.00000000000E+00 0. -1.
</event>
<event>
 7    1  0.1541705E-008  0.4614232E+02  0.7816164E-02  0.1320468E+00
        -11   -1    0    0    0    0  0.00000000000E+00  0.00000000000E+00  0.45593999997E+02  0.45594000000E+02  0.51100000000E-03 0.  1.
         11   -1    0    0    0    0 -0.00000000000E+00 -0.00000000000E+00 -0.45593999997E+02  0.45594000000E+02  0.51100000000E-03 0. -1.
    9900012    2    1    2    0    0 -0.41464255805E+02  0.69149894270E+00 -0.17588374879E+02  0.46142316399E+02  0.99999875772E+01 0.  0.
        -12    1    1    2    0    0  0.41464255805E+02 -0.69149894270E+00  0.17588374879E+02  0.45045683601E+02  0.00000000000E+00 0.  1.
         11    1    3    3    0    0 -0.24712947917E+01 -0.38816882057E+00  0.12350374478E+01  0.27898549674E+01  0.51100000000E-03 0.  1.
        -11    1    3    3    0    0 -0.37913596938E+02  0.12195792287E+01 -0.17997442791E+02  0.41986142398E+02  0.51100000000E-03 0. -1.
         12    1    3    3    0    0 -0.10793640755E+01 -0.13991146541E+00 -0.82596953581E+00  0.13663190329E+01  0.00000000000E+00 0. -1.
</event>
<event>
 7    1  0.1541705E-008  0.4614232E+02  0.7816164E-02  0.1320468E+00
        -11   -1    0    0    0    0  0.00000000000E+00  0.00000000000E+00  0.45593999997E+02  0.45594000000E+02  0.51100000000E-03 0.  1.
         11   -1    0    0    0    0 -0.00000000000E+00 -0.00000000000E+00 -0.45593999997E+02  0.45594000000E+02  0.51100000000E-03 0. -1.
    9900012    2    1    2    0    0  0.31845221874E+02 -0.30760327921E+02  0.82944272471E+01  0.46142318149E+02  0.10000003541E+02 0.  0.
        -12    1    1    2    0    0 -0.31845221874E+02  0.30760327921E+02 -0.82944272471E+01  0.45045681851E+02  0.00000000000E+00 0.  1.
         11    1    3    3    0    0  0.55736580522E+00 -0.70521854144E+00  0.19902100585E+01  0.21837871165E+01  0.51100000000E-03 0. -1.
        -11    1    3    3    0    0  0.88499091640E+01 -0.10082870584E+02  0.98424870318E+00  0.13451911284E+02  0.51100000000E-03 0.  1.
         12    1    3    3    0    0  0.22437946905E+02 -0.19972238795E+02  0.53199684854E+01  0.30506619749E+02  0.00000000000E+00 0. -1.
</event>
<event>
 7    1  0.1541705E-008  0.4614232E+02  0.7816164E-02  0.1320468E+00
        -11   -1    0    0    0    0  0.00000000000E+00  0.00000000000E+00  0.45593999997E+02  0.45594000000E+02  0.51100000000E-03 0.  1.
         11   -1    0    0    0    0 -0.00000000000E+00 -0.00000000000E+00 -0.45593999997E+02  0.45594000000E+02  0.51100000000E-03 0. -1.
    9900012    2    1    2    0    0 -0.28720677346E+01 -0.29908178888E+02 -0.33561371171E+02  0.46142316829E+02  0.99999915026E+01 0.  0.
        -12    1    1    2    0    0  0.28720677346E+01  0.29908178888E+02  0.33561371171E+02  0.45045683171E+02  0.00000000000E+00 0.  1.
         11    1    3    3    0    0  0.11701393043E+00 -0.19871685383E+02 -0.21340484713E+02  0.29160141637E+02  0.51100000000E-03 0. -1.
        -11    1    3    3    0    0  0.74538824345E+00 -0.53346940439E+01 -0.36092779912E+01  0.64839380051E+01  0.51100000000E-03 0.  1.
         12    1    3    3    0    0 -0.37344699085E+01 -0.47017994616E+01 -0.86116084660E+01  0.10498237188E+02  0.00000000000E+00 0. -1.
</event>
<event>
 7    1  0.1541705E-008  0.4614232E+02  0.7816164E-02  0.1320468E+00
        -11   -1    0    0    0    0  0.00000000000E+00  0.00000000000E+00  0.45593999997E+02  0.45594000000E+02  0.51100000000E-03 0. -1.
         11   -1    0    0    0    0 -0.00000000000E+00 -0.00000000000E+00 -0.45593999997E+02  0.45594000000E+02  0.51100000000E-03 0.  1.
    9900012    2    1    2    0    0  0.36061614534E+02  0.21502512281E+02  0.16319172101E+02  0.46142318129E+02  0.10000003355E+02 0.  0.
        -12    1    1    2    0    0 -0.36061614534E+02 -0.21502512281E+02 -0.16319172101E+02  0.45045681871E+02  0.00000000000E+00 0.  1.
         11    1    3    3    0    0  0.18902398345E+02  0.96418405119E+01  0.86427996048E+01  0.22912087136E+02  0.51100000000E-03 0. -1.
        -11    1    3    3    0    0  0.38775443337E+01  0.28035072195E+01 -0.11070818467E+01  0.49112761342E+01  0.51100000000E-03 0.  1.
        -12    1    3    3    0    0  0.13281671855E+02  0.90571645496E+01  0.87834543423E+01  0.18318954859E+02  0.00000000000E+00 0.  1.
</event>
<event>
 7    1  0.1541705E-008  0.4614232E+02  0.7816164E-02  0.1320468E+00
        -11   -1    0    0    0    0  0.00000000000E+00  0.00000000000E+00  0.45593999997E+02  0.45594000000E+02  0.51100000000E-03 0. -1.
         11   -1    0    0    0    0 -0.00000000000E+00 -0.00000000000E+00 -0.45593999997E+02  0.45594000000E+02  0.51100000000E-03 0.  1.
    9900012    2    1    2    0    0  0.25984987675E+02 -0.34255848974E+02 -0.13432451921E+02  0.46142317210E+02  0.99999949780E+01 0.  0.
        -12    1    1    2    0    0 -0.25984987675E+02  0.34255848974E+02  0.13432451921E+02  0.45045682790E+02  0.00000000000E+00 0.  1.
         11    1    3    3    0    0  0.66646401360E+01 -0.12962710542E+02 -0.29100356236E+01  0.14863297088E+02  0.51100000000E-03 0. -1.
        -11    1    3    3    0    0  0.18564808706E+01 -0.18989652074E+00  0.17000612655E+00  0.18738954762E+01  0.51100000000E-03 0.  1.
         12    1    3    3    0    0  0.17463866668E+02 -0.21103241911E+02 -0.10692422424E+02  0.29405124646E+02  0.00000000000E+00 0. -1.
</event>
<event>
 7    1  0.1541705E-008  0.4614232E+02  0.7816164E-02  0.1320468E+00
        -11   -1    0    0    0    0  0.00000000000E+00  0.00000000000E+00  0.45593999997E+02  0.45594000000E+02  0.51100000000E-03 0.  1.
         11   -1    0    0    0    0 -0.00000000000E+00 -0.00000000000E+00 -0.45593999997E+02  0.45594000000E+02  0.51100000000E-03 0. -1.
    9900012    2    1    2    0    0 -0.14603120201E+02 -0.10709856408E+02 -0.41245137396E+02  0.46142317602E+02  0.99999985495E+01 0.  0.
        -12    1    1    2    0    0  0.14603120201E+02  0.10709856408E+02  0.41245137396E+02  0.45045682398E+02  0.00000000000E+00 0.  1.
         11    1    3    3    0    0 -0.86489484426E+00  0.13820299195E+01 -0.21277712757E+01  0.26805709565E+01  0.51100000000E-03 0.  1.
        -11    1    3    3    0    0 -0.98267178737E+01 -0.97432423540E+01 -0.24371118202E+02  0.28025819496E+02  0.51100000000E-03 0. -1.
        -12    1    3    3    0    0 -0.39115074827E+01 -0.23486439738E+01 -0.14746247918E+02  0.15435927149E+02  0.00000000000E+00 0.  1.
</event>
<event>
 7    1  0.1541705E-008  0.4614232E+02  0.7816164E-02  0.1320468E+00
        -11   -1    0    0    0    0  0.00000000000E+00  0.00000000000E+00  0.45593999997E+02  0.45594000000E+02  0.51100000000E-03 0.  1.
         11   -1    0    0    0    0 -0.00000000000E+00 -0.00000000000E+00 -0.45593999997E+02  0.45594000000E+02  0.51100000000E-03 0. -1.
    9900012    2    1    2    0    0 -0.27799474875E+02 -0.32465891371E+01 -0.35295358290E+02  0.46142318062E+02  0.10000002748E+02 0.  0.
        -12    1    1    2    0    0  0.27799474875E+02  0.32465891371E+01  0.35295358290E+02  0.45045681938E+02  0.00000000000E+00 0.  1.
         11    1    3    3    0    0 -0.23016934810E+02 -0.30464835444E+01 -0.27086310413E+02  0.35675321472E+02  0.51100000000E-03 0. -1.
        -11    1    3    3    0    0 -0.19753061957E+01 -0.16096277999E+01 -0.62886118264E+01  0.67852321393E+01  0.51100000000E-03 0.  1.
         12    1    3    3    0    0 -0.28072338695E+01  0.14095222073E+01 -0.19204360507E+01  0.36817644514E+01  0.00000000000E+00 0. -1.
</event>
<event>
 7    1  0.1541705E-008  0.4614232E+02  0.7816164E-02  0.1320468E+00
        -11   -1    0    0    0    0  0.00000000000E+00  0.00000000000E+00  0.45593999997E+02  0.45594000000E+02  0.51100000000E-03 0.  1.
         11   -1    0    0    0    0 -0.00000000000E+00 -0.00000000000E+00 -0.45593999997E+02  0.45594000000E+02  0.51100000000E-03 0. -1.
    9900012    2    1    2    0    0  0.45042089360E+02 -0.43534900460E+00 -0.36613181384E+00  0.46142318795E+02  0.10000009432E+02 0.  0.
        -12    1    1    2    0    0 -0.45042089360E+02  0.43534900460E+00  0.36613181384E+00  0.45045681205E+02  0.00000000000E+00 0.  1.
         11    1    3    3    0    0  0.43065206015E+02 -0.15756145069E+01 -0.14124158008E+01  0.43117159564E+02  0.51100000000E-03 0. -1.
        -11    1    3    3    0    0  0.14866287056E+01 -0.81342378316E-01  0.78515563683E+00  0.16831966985E+01  0.51100000000E-03 0.  1.
         12    1    3    3    0    0  0.49025463967E+00  0.12216078807E+01  0.26112835011E+00  0.13419625334E+01  0.00000000000E+00 0. -1.
</event>
<event>
 7    1  0.1541705E-008  0.4614232E+02  0.7816164E-02  0.1320468E+00
        -11   -1    0    0    0    0  0.00000000000E+00  0.00000000000E+00  0.45593999997E+02  0.45594000000E+02  0.51100000000E-03 0. -1.
         11   -1    0    0    0    0 -0.00000000000E+00 -0.00000000000E+00 -0.45593999997E+02  0.45594000000E+02  0.51100000000E-03 0.  1.
    9900012    2    1    2    0    0 -0.20573048385E+01 -0.43081135764E+02  0.12996002845E+02  0.46142324826E+02  0.10000064426E+02 0.  0.
        -12    1    1    2    0    0  0.20573048385E+01  0.43081135764E+02 -0.12996002845E+02  0.45045675174E+02  0.00000000000E+00 0.  1.
         11    1    3    3    0    0 -0.58637063984E+00 -0.13009807393E+02  0.42314547640E+01  0.13693214693E+02  0.51100000000E-03 0. -1.
        -11    1    3    3    0    0 -0.39742257180E+01 -0.26191556240E+02  0.63637712971E+01  0.27244993553E+02  0.51100000000E-03 0.  1.
        -12    1    3    3    0    0  0.25032915194E+01 -0.38797721303E+01  0.24007767837E+01  0.52041165801E+01  0.00000000000E+00 0.  1.
</event>
<event>
 7    1  0.1541705E-008  0.4614232E+02  0.7816164E-02  0.1320468E+00
        -11   -1    0    0    0    0  0.00000000000E+00  0.00000000000E+00  0.45593999997E+02  0.45594000000E+02  0.51100000000E-03 0. -1.
         11   -1    0    0    0    0 -0.00000000000E+00 -0.00000000000E+00 -0.45593999997E+02  0.45594000000E+02  0.51100000000E-03 0.  1.
    9900012    2    1    2    0    0 -0.25277386001E+02 -0.37284836093E+02 -0.90292141902E-01  0.46142318762E+02  0.10000009129E+02 0.  0.
        -12    1    1    2    0    0  0.25277386001E+02  0.37284836093E+02  0.90292141902E-01  0.45045681238E+02  0.00000000000E+00 0.  1.
         11    1    3    3    0    0 -0.93129801987E+01 -0.12415152151E+02 -0.32456122441E+00  0.15523303236E+02  0.51100000000E-03 0. -1.
        -11    1    3    3    0    0 -0.10958412630E+02 -0.18766373616E+02  0.36178409395E+01  0.22030714001E+02  0.51100000000E-03 0.  1.
        -12    1    3    3    0    0 -0.50059931725E+01 -0.61033103253E+01 -0.33835718569E+01  0.85883015249E+01  0.00000000000E+00 0.  1.
</event>
<event>
 7    1  0.1541705E-008  0.4614232E+02  0.7816164E-02  0.1320468E+00
        -11   -1    0    0    0    0  0.00000000000E+00  0.00000000000E+00  0.45593999997E+02  0.45594000000E+02  0.51100000000E-03 0.  1.
         11   -1    0    0    0    0 -0.00000000000E+00 -0.00000000000E+00 -0.45593999997E+02  0.45594000000E+02  0.51100000000E-03 0. -1.
    9900012    2    1    2    0    0  0.13346108772E+02  0.27739117768E+02 -0.32886717535E+02  0.46142318030E+02  0.10000002456E+02 0.  0.
        -12    1    1    2    0    0 -0.13346108772E+02 -0.27739117768E+02  0.32886717535E+02  0.45045681970E+02  0.00000000000E+00 0.  1.
         11    1    3    3    0    0  0.28048626425E+01  0.14201445374E+02 -0.18606069522E+02  0.23574013839E+02  0.51100000000E-03 0. -1.
        -11    1    3    3    0    0  0.73787770757E+01  0.74134305073E+01 -0.98968346238E+01  0.14399744402E+02  0.51100000000E-03 0.  1.
         12    1    3    3    0    0  0.31624690538E+01  0.61242418866E+01 -0.43838133884E+01  0.81685597890E+01  0.00000000000E+00 0. -1.
</event>
<event>
 7    1  0.1541705E-008  0.4614232E+02  0.7816164E-02  0.1320468E+00
        -11   -1    0    0    0    0  0.00000000000E+00  0.00000000000E+00  0.45593999997E+02  0.45594000000E+02  0.51100000000E-03 0.  1.
         11   -1    0    0    0    0 -0.00000000000E+00 -0.00000000000E+00 -0.45593999997E+02  0.45594000000E+02  0.51100000000E-03 0. -1.
    9900012    2    1    2    0    0  0.15805359576E+02 -0.13827454545E+02 -0.39851044667E+02  0.46142315950E+02  0.99999834833E+01 0.  0.
        -12    1    1    2    0    0 -0.15805359576E+02  0.13827454545E+02  0.39851044667E+02  0.45045684050E+02  0.00000000000E+00 0.  1.
         11    1    3    3    0    0  0.12685467654E+02 -0.53050852251E+01 -0.20952417787E+02  0.25061301447E+02  0.51100000000E-03 0. -1.
        -11    1    3    3    0    0  0.30733165344E+01 -0.64860734797E+01 -0.16023345909E+02  0.17557392690E+02  0.51100000000E-03 0.  1.
         12    1    3    3    0    0  0.46575387809E-01 -0.20362958402E+01 -0.28752809709E+01  0.35236218125E+01  0.00000000000E+00 0. -1.
</event>
<event>
 7    1  0.1541705E-008  0.4614232E+02  0.7816164E-02  0.1320468E+00
        -11   -1    0    0    0    0  0.00000000000E+00  0.00000000000E+00  0.45593999997E+02  0.45594000000E+02  0.51100000000E-03 0.  1.
         11   -1    0    0    0    0 -0.00000000000E+00 -0.00000000000E+00 -0.45593999997E+02  0.45594000000E+02  0.51100000000E-03 0. -1.
    9900012    2    1    2    0    0  0.25586145227E+02 -0.17470616983E+01 -0.37032560014E+02  0.46142317040E+02  0.99999934226E+01 0.  0.
        -12    1    1    2    0    0 -0.25586145227E+02  0.17470616983E+01  0.37032560014E+02  0.45045682960E+02  0.00000000000E+00 0.  1.
         11    1    3    3    0    0  0.95557068504E+01 -0.54154398188E+01 -0.15316194804E+02  0.18847396249E+02  0.51100000000E-03 0. -1.
        -11    1    3    3    0    0  0.13325637548E+02  0.36725197372E+01 -0.18468151273E+02  0.23068000108E+02  0.51100000000E-03 0.  1.
         12    1    3    3    0    0  0.27048008288E+01 -0.41416167084E-02 -0.32482139378E+01  0.42269206832E+01  0.00000000000E+00 0. -1.
</event>
<event>
 7    1  0.1541705E-008  0.4614232E+02  0.7816164E-02  0.1320468E+00
        -11   -1    0    0    0    0  0.00000000000E+00  0.00000000000E+00  0.45593999997E+02  0.45594000000E+02  0.51100000000E-03 0. -1.
         11   -1    0    0    0    0 -0.00000000000E+00 -0.00000000000E+00 -0.45593999997E+02  0.45594000000E+02  0.51100000000E-03 0.  1.
    9900012    2    1    2    0    0  0.12489826091E+02 -0.28833417144E+02  0.32276180056E+02  0.46142317643E+02  0.99999989255E+01 0.  0.
        -12    1    1    2    0    0 -0.12489826091E+02  0.28833417144E+02 -0.32276180056E+02  0.45045682357E+02  0.00000000000E+00 0.  1.
         11    1    3    3    0    0  0.84315966151E+01 -0.10546257697E+02  0.13194480583E+02  0.18878815932E+02  0.51100000000E-03 0. -1.
        -11    1    3    3    0    0  0.21166971787E+01 -0.10271192298E+02  0.69038995902E+01  0.12555541724E+02  0.51100000000E-03 0.  1.
        -12    1    3    3    0    0  0.19415322967E+01 -0.80159671498E+01  0.12177799883E+02  0.14707959988E+02  0.00000000000E+00 0.  1.
</event>
<event>
 7    1  0.1541705E-008  0.4614232E+02  0.7816164E-02  0.1320468E+00
        -11   -1    0    0    0    0  0.00000000000E+00  0.00000000000E+00  0.45593999997E+02  0.45594000000E+02  0.51100000000E-03 0.  1.
         11   -1    0    0    0    0 -0.00000000000E+00 -0.00000000000E+00 -0.45593999997E+02  0.45594000000E+02  0.51100000000E-03 0. -1.
    9900012    2    1    2    0    0 -0.94559178346E+01  0.21934762184E+02 -0.38191167875E+02  0.46142317878E+02  0.10000001069E+02 0.  0.
        -12    1    1    2    0    0  0.94559178346E+01 -0.21934762184E+02  0.38191167875E+02  0.45045682122E+02  0.00000000000E+00 0.  1.
         11    1    3    3    0    0 -0.44827344722E+01  0.15379562754E+02 -0.29163717140E+02  0.33273837418E+02  0.51100000000E-03 0. -1.
        -11    1    3    3    0    0 -0.50856025975E+01  0.55839736134E+01 -0.91705359717E+01  0.11880355439E+02  0.51100000000E-03 0.  1.
        -12    1    3    3    0    0  0.11241923507E+00  0.97122581725E+00  0.14308523681E+00  0.98812502119E+00  0.00000000000E+00 0.  1.
</event>
<event>
 7    1  0.1541705E-008  0.4614232E+02  0.7816164E-02  0.1320468E+00
        -11   -1    0    0    0    0  0.00000000000E+00  0.00000000000E+00  0.45593999997E+02  0.45594000000E+02  0.51100000000E-03 0. -1.
         11   -1    0    0    0    0 -0.00000000000E+00 -0.00000000000E+00 -0.45593999997E+02  0.45594000000E+02  0.51100000000E-03 0.  1.
    9900012    2    1    2    0    0  0.24985848258E+02 -0.34067167311E+02  0.15628467585E+02  0.46142317623E+02  0.99999987398E+01 0.  0.
        -12    1    1    2    0    0 -0.24985848258E+02  0.34067167311E+02 -0.15628467585E+02  0.45045682377E+02  0.00000000000E+00 0.  1.
         11    1    3    3    0    0  0.78024466054E+01 -0.10694112685E+02  0.85899336159E+01  0.15780658381E+02  0.51100000000E-03 0. -1.
        -11    1    3    3    0    0  0.10050401063E+02 -0.14212930903E+02  0.14241257909E+01  0.17465569012E+02  0.51100000000E-03 0.  1.
         12    1    3    3    0    0  0.71330005896E+01 -0.91601237232E+01  0.56144081778E+01  0.12896090230E+02  0.00000000000E+00 0. -1.
</event>
<event>
 7    1  0.1541705E-008  0.4614232E+02  0.7816164E-02  0.1320468E+00
        -11   -1    0    0    0    0  0.00000000000E+00  0.00000000000E+00  0.45593999997E+02  0.45594000000E+02  0.51100000000E-03 0. -1.
         11   -1    0    0    0    0 -0.00000000000E+00 -0.00000000000E+00 -0.45593999997E+02  0.45594000000E+02  0.51100000000E-03 0.  1.
    9900012    2    1    2    0    0  0.37722941243E+02 -0.34679600570E+01 -0.24373481592E+02  0.46142315990E+02  0.99999838533E+01 0.  0.
        -12    1    1    2    0    0 -0.37722941243E+02  0.34679600570E+01  0.24373481592E+02  0.45045684010E+02  0.00000000000E+00 0.  1.
         11    1    3    3    0    0  0.15296852016E+01  0.17316662553E+01 -0.58294960607E+00  0.23829467766E+01  0.51100000000E-03 0.  1.
        -11    1    3    3    0    0  0.16716947768E+02 -0.73746702827E+00 -0.10260732396E+02  0.19628622720E+02  0.51100000000E-03 0. -1.
         12    1    3    3    0    0  0.19476308273E+02 -0.44621592840E+01 -0.13529799590E+02  0.24130746494E+02  0.00000000000E+00 0. -1.
</event>
<event>
 7    1  0.1541705E-008  0.4614231E+02  0.7816164E-02  0.1320468E+00
        -11   -1    0    0    0    0  0.00000000000E+00  0.00000000000E+00  0.45593999997E+02  0.45594000000E+02  0.51100000000E-03 0.  1.
         11   -1    0    0    0    0 -0.00000000000E+00 -0.00000000000E+00 -0.45593999997E+02  0.45594000000E+02  0.51100000000E-03 0. -1.
    9900012    2    1    2    0    0  0.31629041343E+02 -0.91286604155E+01 -0.30747118372E+02  0.46142312244E+02  0.99999496895E+01 0.  0.
        -12    1    1    2    0    0 -0.31629041343E+02  0.91286604155E+01  0.30747118372E+02  0.45045687756E+02  0.00000000000E+00 0.  1.
         11    1    3    3    0    0  0.76406308750E+01 -0.34476300292E+01 -0.11675325807E+02  0.14372843350E+02  0.51100000000E-03 0. -1.
        -11    1    3    3    0    0  0.10053442629E+02 -0.42458574979E+01 -0.11465544642E+02  0.15829015408E+02  0.51100000000E-03 0.  1.
         12    1    3    3    0    0  0.13934967839E+02 -0.14351728884E+01 -0.76062479224E+01  0.15940453486E+02  0.00000000000E+00 0. -1.
</event>
<event>
 7    1  0.1541705E-008  0.4614232E+02  0.7816164E-02  0.1320468E+00
        -11   -1    0    0    0    0  0.00000000000E+00  0.00000000000E+00  0.45593999997E+02  0.45594000000E+02  0.51100000000E-03 0. -1.
         11   -1    0    0    0    0 -0.00000000000E+00 -0.00000000000E+00 -0.45593999997E+02  0.45594000000E+02  0.51100000000E-03 0.  1.
    9900012    2    1    2    0    0 -0.35285028654E+02  0.17264433583E+02 -0.22045852701E+02  0.46142317239E+02  0.99999952389E+01 0.  0.
        -12    1    1    2    0    0  0.35285028654E+02 -0.17264433583E+02  0.22045852701E+02  0.45045682761E+02  0.00000000000E+00 0.  1.
         11    1    3    3    0    0 -0.11312486727E+02  0.74834578051E+01 -0.64576562260E+01  0.15022510471E+02  0.51100000000E-03 0. -1.
        -11    1    3    3    0    0 -0.35468810880E+01 -0.11847222388E+01 -0.18537652231E+01  0.41737726338E+01  0.51100000000E-03 0.  1.
        -12    1    3    3    0    0 -0.20425660840E+02  0.10965698017E+02 -0.13734431252E+02  0.26946034134E+02  0.00000000000E+00 0.  1.
</event>
<event>
 7    1  0.1541705E-008  0.4614232E+02  0.7816164E-02  0.1320468E+00
        -11   -1    0    0    0    0  0.00000000000E+00  0.00000000000E+00  0.45593999997E+02  0.45594000000E+02  0.51100000000E-03 0.  1.
         11   -1    0    0    0    0 -0.00000000000E+00 -0.00000000000E+00 -0.45593999997E+02  0.45594000000E+02  0.51100000000E-03 0. -1.
    9900012    2    1    2    0    0 -0.40587586251E+02  0.17864590862E+02 -0.79131354438E+01  0.46142317889E+02  0.10000001166E+02 0.  0.
        -12    1    1    2    0    0  0.40587586251E+02 -0.17864590862E+02  0.79131354438E+01  0.45045682111E+02  0.00000000000E+00 0.  1.
         11    1    3    3    0    0 -0.12555224202E+02  0.49874856658E+01 -0.26357948250E+01  0.13764304656E+02  0.51100000000E-03 0. -1.
        -11    1    3    3    0    0 -0.15438163912E+02  0.90909113624E+01  0.70596725342E+00  0.17929862364E+02  0.51100000000E-03 0.  1.
        -12    1    3    3    0    0 -0.12594198136E+02  0.37861938332E+01 -0.59833078723E+01  0.14448150869E+02  0.00000000000E+00 0.  1.
</event>
<event>
 7    1  0.1541705E-008  0.4614231E+02  0.7816164E-02  0.1320468E+00
        -11   -1    0    0    0    0  0.00000000000E+00  0.00000000000E+00  0.45593999997E+02  0.45594000000E+02  0.51100000000E-03 0. -1.
         11   -1    0    0    0    0 -0.00000000000E+00 -0.00000000000E+00 -0.45593999997E+02  0.45594000000E+02  0.51100000000E-03 0.  1.
    9900012    2    1    2    0    0  0.32958386698E+02 -0.24106663762E+02  0.19019131257E+02  0.46142313800E+02  0.99999638781E+01 0.  0.
        -12    1    1    2    0    0 -0.32958386698E+02  0.24106663762E+02 -0.19019131257E+02  0.45045686200E+02  0.00000000000E+00 0.  1.
         11    1    3    3    0    0  0.61108795468E+01 -0.62409600962E+01  0.46284019197E+01  0.98850663301E+01  0.51100000000E-03 0. -1.
        -11    1    3    3    0    0  0.25488878912E+02 -0.13789174219E+02  0.12676311194E+02  0.31630889010E+02  0.51100000000E-03 0.  1.
        -12    1    3    3    0    0  0.13586282389E+01 -0.40765294472E+01  0.17144181429E+01  0.46263584593E+01  0.00000000000E+00 0.  1.
</event>
<event>
 7    1  0.1541705E-008  0.4614232E+02  0.7816164E-02  0.1320468E+00
        -11   -1    0    0    0    0  0.00000000000E+00  0.00000000000E+00  0.45593999997E+02  0.45594000000E+02  0.51100000000E-03 0.  1.
         11   -1    0    0    0    0 -0.00000000000E+00 -0.00000000000E+00 -0.45593999997E+02  0.45594000000E+02  0.51100000000E-03 0. -1.
    9900012    2    1    2    0    0  0.65631022627E+01  0.44420655581E+02  0.35839241625E+01  0.46142318009E+02  0.10000002264E+02 0.  0.
        -12    1    1    2    0    0 -0.65631022627E+01 -0.44420655581E+02 -0.35839241625E+01  0.45045681991E+02  0.00000000000E+00 0.  1.
         11    1    3    3    0    0  0.46969756442E+01  0.10694275129E+02  0.17853160857E+01  0.11815940695E+02  0.51100000000E-03 0. -1.
        -11    1    3    3    0    0  0.12129459449E+01  0.31819156047E+02  0.29938756252E+01  0.31982701901E+02  0.51100000000E-03 0.  1.
        -12    1    3    3    0    0  0.65318067357E+00  0.19072244061E+01 -0.11952675484E+01  0.23436754126E+01  0.00000000000E+00 0.  1.
</event>
<event>
 7    1  0.1541705E-008  0.4614232E+02  0.7816164E-02  0.1320468E+00
        -11   -1    0    0    0    0  0.00000000000E+00  0.00000000000E+00  0.45593999997E+02  0.45594000000E+02  0.51100000000E-03 0. -1.
         11   -1    0    0    0    0 -0.00000000000E+00 -0.00000000000E+00 -0.45593999997E+02  0.45594000000E+02  0.51100000000E-03 0.  1.
    9900012    2    1    2    0    0  0.40197751913E+01 -0.44142621133E+02  0.80239576626E+01  0.46142317747E+02  0.99999998744E+01 0.  0.
        -12    1    1    2    0    0 -0.40197751913E+01  0.44142621133E+02 -0.80239576626E+01  0.45045682253E+02  0.00000000000E+00 0.  1.
         11    1    3    3    0    0  0.42560062028E+01 -0.21722289052E+02  0.11447727268E+01  0.22164880674E+02  0.51100000000E-03 0. -1.
        -11    1    3    3    0    0 -0.62872819681E-01 -0.95777907407E+01  0.55382493733E+01  0.11063915891E+02  0.51100000000E-03 0.  1.
         12    1    3    3    0    0 -0.17335819190E+00 -0.12842541340E+02  0.13409355625E+01  0.12913521182E+02  0.00000000000E+00 0. -1.
</event>
<event>
 7    1  0.1541705E-008  0.4614232E+02  0.7816164E-02  0.1320468E+00
        -11   -1    0    0    0    0  0.00000000000E+00  0.00000000000E+00  0.45593999997E+02  0.45594000000E+02  0.51100000000E-03 0. -1.
         11   -1    0    0    0    0 -0.00000000000E+00 -0.00000000000E+00 -0.45593999997E+02  0.45594000000E+02  0.51100000000E-03 0.  1.
    9900012    2    1    2    0    0  0.39175761934E+01 -0.39396692794E+02 -0.21486430970E+02  0.46142317387E+02  0.99999965842E+01 0.  0.
        -12    1    1    2    0    0 -0.39175761934E+01  0.39396692794E+02  0.21486430970E+02  0.45045682613E+02  0.00000000000E+00 0.  1.
         11    1    3    3    0    0  0.31891433193E+01 -0.14445240103E+02 -0.10125680269E+02  0.17926656072E+02  0.51100000000E-03 0. -1.
        -11    1    3    3    0    0 -0.29603708117E+01 -0.10120571792E+02 -0.46129056173E+01  0.11509503344E+02  0.51100000000E-03 0.  1.
        -12    1    3    3    0    0  0.36888036859E+01 -0.14830880899E+02 -0.67478450829E+01  0.16706157970E+02  0.00000000000E+00 0.  1.
</event>
<event>
 7    1  0.1541705E-008  0.4614232E+02  0.7816164E-02  0.1320468E+00
        -11   -1    0    0    0    0  0.00000000000E+00  0.00000000000E+00  0.45593999997E+02  0.45594000000E+02  0.51100000000E-03 0. -1.
         11   -1    0    0    0    0 -0.00000000000E+00 -0.00000000000E+00 -0.45593999997E+02  0.45594000000E+02  0.51100000000E-03 0.  1.
    9900012    2    1    2    0    0 -0.99820282443E+01 -0.43237903981E+02  0.77431445741E+01  0.46142317450E+02  0.99999971588E+01 0.  0.
        -12    1    1    2    0    0  0.99820282443E+01  0.43237903981E+02 -0.77431445741E+01  0.45045682550E+02  0.00000000000E+00 0.  1.
         11    1    3    3    0    0 -0.37772646200E+00 -0.10529115375E+01 -0.14847320913E+01  0.18589592868E+01  0.51100000000E-03 0. -1.
        -11    1    3    3    0    0 -0.72112219068E+00 -0.61200616947E+01  0.10567258226E+01  0.62523469262E+01  0.51100000000E-03 0.  1.
         12    1    3    3    0    0 -0.88831795916E+01 -0.36064930749E+02  0.81711508428E+01  0.38031011237E+02  0.00000000000E+00 0. -1.
</event>
<event>
 7    1  0.1541705E-008  0.4614232E+02  0.7816164E-02  0.1320468E+00
        -11   -1    0    0    0    0  0.00000000000E+00  0.00000000000E+00  0.45593999997E+02  0.45594000000E+02  0.51100000000E-03 0.  1.
         11   -1    0    0    0    0 -0.00000000000E+00 -0.00000000000E+00 -0.45593999997E+02  0.45594000000E+02  0.51100000000E-03 0. -1.
    9900012    2    1    2    0    0 -0.19332884050E+02  0.36130976091E+02 -0.18705763634E+02  0.46142318386E+02  0.10000005696E+02 0.  0.
        -12    1    1    2    0    0  0.19332884050E+02 -0.36130976091E+02  0.18705763634E+02  0.45045681614E+02  0.00000000000E+00 0.  1.
         11    1    3    3    0    0 -0.25636092134E+01  0.79543267395E+00 -0.53183151090E+00  0.27363571322E+01  0.51100000000E-03 0.  1.
        -11    1    3    3    0    0 -0.72267860374E+00  0.36770281405E+01 -0.58150519110E+00  0.37922221532E+01  0.51100000000E-03 0. -1.
         12    1    3    3    0    0 -0.16046596233E+02  0.31658515276E+02 -0.17592426932E+02  0.39613739100E+02  0.00000000000E+00 0. -1.
</event>
<event>
 7    1  0.1541705E-008  0.4614232E+02  0.7816164E-02  0.1320468E+00
        -11   -1    0    0    0    0  0.00000000000E+00  0.00000000000E+00  0.45593999997E+02  0.45594000000E+02  0.51100000000E-03 0.  1.
         11   -1    0    0    0    0 -0.00000000000E+00 -0.00000000000E+00 -0.45593999997E+02  0.45594000000E+02  0.51100000000E-03 0. -1.
    9900012    2    1    2    0    0 -0.40949910881E+01  0.69931516343E+01 -0.44310724931E+02  0.46142318013E+02  0.10000002298E+02 0.  0.
        -12    1    1    2    0    0  0.40949910881E+01 -0.69931516343E+01  0.44310724931E+02  0.45045681987E+02  0.00000000000E+00 0.  1.
         11    1    3    3    0    0 -0.19963384573E+01  0.19530498262E+01 -0.29973394638E+02  0.30103225031E+02  0.51100000000E-03 0. -1.
        -11    1    3    3    0    0 -0.86589164562E+00  0.14263873162E+01 -0.58761531797E+00  0.17690791788E+01  0.51100000000E-03 0.  1.
        -12    1    3    3    0    0 -0.12327609852E+01  0.36137144918E+01 -0.13749714975E+02  0.14270013804E+02  0.00000000000E+00 0.  1.
</event>
<event>
 7    1  0.1541705E-008  0.4614232E+02  0.7816164E-02  0.1320468E+00
        -11   -1    0    0    0    0  0.00000000000E+00  0.00000000000E+00  0.45593999997E+02  0.45594000000E+02  0.51100000000E-03 0.  1.
         11   -1    0    0    0    0 -0.00000000000E+00 -0.00000000000E+00 -0.45593999997E+02  0.45594000000E+02  0.51100000000E-03 0. -1.
    9900012    2    1    2    0    0  0.21139060993E+01  0.41437282844E+01 -0.44804847158E+02  0.46142318609E+02  0.10000007732E+02 0.  0.
        -12    1    1    2    0    0 -0.21139060993E+01 -0.41437282844E+01  0.44804847158E+02  0.45045681391E+02  0.00000000000E+00 0.  1.
         11    1    3    3    0    0  0.41827425540E+01  0.35110755134E+01 -0.19284144489E+02  0.20042485262E+02  0.51100000000E-03 0. -1.
        -11    1    3    3    0    0 -0.16597764277E+01 -0.18939663642E+01 -0.17509950226E+02  0.17690119377E+02  0.51100000000E-03 0.  1.
        -12    1    3    3    0    0 -0.40906002700E+00  0.25266191352E+01 -0.80107524432E+01  0.84097139706E+01  0.00000000000E+00 0.  1.
</event>
<event>
 7    1  0.1541705E-008  0.4614232E+02  0.7816164E-02  0.1320468E+00
        -11   -1    0    0    0    0  0.00000000000E+00  0.00000000000E+00  0.45593999997E+02  0.45594000000E+02  0.51100000000E-03 0. -1.
         11   -1    0    0    0    0 -0.00000000000E+00 -0.00000000000E+00 -0.45593999997E+02  0.45594000000E+02  0.51100000000E-03 0.  1.
    9900012    2    1    2    0    0 -0.20824379761E+01  0.43517463985E+02  0.11445841132E+02  0.46142317645E+02  0.99999989375E+01 0.  0.
        -12    1    1    2    0    0  0.20824379761E+01 -0.43517463985E+02 -0.11445841132E+02  0.45045682355E+02  0.00000000000E+00 0.  1.
         11    1    3    3    0    0 -0.41803120675E+00  0.52597976442E+01  0.38253822909E+01  0.65171904438E+01  0.51100000000E-03 0. -1.
        -11    1    3    3    0    0 -0.10580350783E+00 -0.80544337665E-01 -0.40383668103E+00  0.42516596602E+00  0.51100000000E-03 0.  1.
         12    1    3    3    0    0 -0.15586032615E+01  0.38338210679E+02  0.80242955222E+01  0.39199961235E+02  0.00000000000E+00 0. -1.
</event>
<event>
 7    1  0.1541705E-008  0.4614232E+02  0.7816164E-02  0.1320468E+00
        -11   -1    0    0    0    0  0.00000000000E+00  0.00000000000E+00  0.45593999997E+02  0.45594000000E+02  0.51100000000E-03 0. -1.
         11   -1    0    0    0    0 -0.00000000000E+00 -0.00000000000E+00 -0.45593999997E+02  0.45594000000E+02  0.51100000000E-03 0.  1.
    9900012    2    1    2    0    0 -0.17290925385E+01  0.44403022634E+02  0.73820958712E+01  0.46142317416E+02  0.99999968499E+01 0.  0.
        -12    1    1    2    0    0  0.17290925385E+01 -0.44403022634E+02 -0.73820958712E+01  0.45045682584E+02  0.00000000000E+00 0.  1.
         11    1    3    3    0    0 -0.23373363060E+01  0.10454166462E+02  0.45998796593E+01  0.11658114366E+02  0.51100000000E-03 0. -1.
        -11    1    3    3    0    0 -0.17574723096E+01  0.51781831031E+01  0.10206475120E+01  0.55627341095E+01  0.51100000000E-03 0.  1.
         12    1    3    3    0    0  0.23657160770E+01  0.28770673069E+02  0.17615686999E+01  0.28921468940E+02  0.00000000000E+00 0. -1.
</event>
<event>
 7    1  0.1541705E-008  0.4614232E+02  0.7816164E-02  0.1320468E+00
        -11   -1    0    0    0    0  0.00000000000E+00  0.00000000000E+00  0.45593999997E+02  0.45594000000E+02  0.51100000000E-03 0. -1.
         11   -1    0    0    0    0 -0.00000000000E+00 -0.00000000000E+00 -0.45593999997E+02  0.45594000000E+02  0.51100000000E-03 0.  1.
    9900012    2    1    2    0    0 -0.40067037003E+02 -0.13159166695E+02  0.15829791571E+02  0.46142318482E+02  0.10000006571E+02 0.  0.
        -12    1    1    2    0    0  0.40067037003E+02  0.13159166695E+02 -0.15829791571E+02  0.45045681518E+02  0.00000000000E+00 0.  1.
         11    1    3    3    0    0 -0.12986871091E+02 -0.34672710848E+01  0.76615948599E+01  0.15471936711E+02  0.51100000000E-03 0. -1.
        -11    1    3    3    0    0 -0.78792292496E+01 -0.11179862929E+01 -0.38902394816E+00  0.79676525283E+01  0.51100000000E-03 0.  1.
        -12    1    3    3    0    0 -0.19200936662E+02 -0.85739093176E+01  0.85572206588E+01  0.22702729243E+02  0.00000000000E+00 0.  1.
</event>
<event>
 7    1  0.1541705E-008  0.4614232E+02  0.7816164E-02  0.1320468E+00
        -11   -1    0    0    0    0  0.00000000000E+00  0.00000000000E+00  0.45593999997E+02  0.45594000000E+02  0.51100000000E-03 0.  1.
         11   -1    0    0    0    0 -0.00000000000E+00 -0.00000000000E+00 -0.45593999997E+02  0.45594000000E+02  0.51100000000E-03 0. -1.
    9900012    2    1    2    0    0  0.32965670259E+02  0.19392812135E+02 -0.23796993576E+02  0.46142317839E+02  0.10000000713E+02 0.  0.
        -12    1    1    2    0    0 -0.32965670259E+02 -0.19392812135E+02  0.23796993576E+02  0.45045682161E+02  0.00000000000E+00 0.  1.
         11    1    3    3    0    0  0.94916957565E+01  0.61786357885E+01 -0.90055252774E+01  0.14469530550E+02  0.51100000000E-03 0. -1.
        -11    1    3    3    0    0  0.90776165009E+01  0.76559446313E+01 -0.29907984404E+01  0.12245876249E+02  0.51100000000E-03 0.  1.
        -12    1    3    3    0    0  0.14396358001E+02  0.55582317148E+01 -0.11800669858E+02  0.19426911041E+02  0.00000000000E+00 0.  1.
</event>
<event>
 7    1  0.1541705E-008  0.4614232E+02  0.7816164E-02  0.1320468E+00
        -11   -1    0    0    0    0  0.00000000000E+00  0.00000000000E+00  0.45593999997E+02  0.45594000000E+02  0.51100000000E-03 0.  1.
         11   -1    0    0    0    0 -0.00000000000E+00 -0.00000000000E+00 -0.45593999997E+02  0.45594000000E+02  0.51100000000E-03 0. -1.
    9900012    2    1    2    0    0  0.21303343796E+02 -0.44431601091E+01 -0.39440324809E+02  0.46142319301E+02  0.10000014039E+02 0.  0.
        -12    1    1    2    0    0 -0.21303343796E+02  0.44431601091E+01  0.39440324809E+02  0.45045680699E+02  0.00000000000E+00 0.  1.
         11    1    3    3    0    0  0.90924966093E+01 -0.30121668401E+01 -0.17726553481E+02  0.20148879429E+02  0.51100000000E-03 0. -1.
        -11    1    3    3    0    0  0.85555483631E+00  0.21305231604E+01 -0.25145127889E+01  0.34049783908E+01  0.51100000000E-03 0.  1.
        -12    1    3    3    0    0  0.11355292350E+02 -0.35615164294E+01 -0.19199258539E+02  0.22588461481E+02  0.00000000000E+00 0.  1.
</event>
<event>
 7    1  0.1541705E-008  0.4614232E+02  0.7816164E-02  0.1320468E+00
        -11   -1    0    0    0    0  0.00000000000E+00  0.00000000000E+00  0.45593999997E+02  0.45594000000E+02  0.51100000000E-03 0.  1.
         11   -1    0    0    0    0 -0.00000000000E+00 -0.00000000000E+00 -0.45593999997E+02  0.45594000000E+02  0.51100000000E-03 0. -1.
    9900012    2    1    2    0    0 -0.63564409306E+01 -0.17191231723E+02 -0.41148155863E+02  0.46142317406E+02  0.99999967584E+01 0.  0.
        -12    1    1    2    0    0  0.63564409306E+01  0.17191231723E+02  0.41148155863E+02  0.45045682594E+02  0.00000000000E+00 0.  1.
         11    1    3    3    0    0 -0.51852275172E+01 -0.10703503834E+02 -0.26010629917E+02  0.28600777047E+02  0.51100000000E-03 0. -1.
        -11    1    3    3    0    0 -0.15467615106E+01 -0.24714128745E+01 -0.14195158908E+01  0.32427424184E+01  0.51100000000E-03 0.  1.
         12    1    3    3    0    0  0.37554809713E+00 -0.40163150145E+01 -0.13718010055E+02  0.14298797941E+02  0.00000000000E+00 0. -1.
</event>
<event>
 7    1  0.1541705E-008  0.4614232E+02  0.7816164E-02  0.1320468E+00
        -11   -1    0    0    0    0  0.00000000000E+00  0.00000000000E+00  0.45593999997E+02  0.45594000000E+02  0.51100000000E-03 0.  1.
         11   -1    0    0    0    0 -0.00000000000E+00 -0.00000000000E+00 -0.45593999997E+02  0.45594000000E+02  0.51100000000E-03 0. -1.
    9900012    2    1    2    0    0  0.12876261062E+01  0.24287162985E+02 -0.37915556063E+02  0.46142315873E+02  0.99999827871E+01 0.  0.
        -12    1    1    2    0    0 -0.12876261062E+01 -0.24287162985E+02  0.37915556063E+02  0.45045684127E+02  0.00000000000E+00 0.  1.
         11    1    3    3    0    0 -0.30328572465E+01  0.16797736783E+02 -0.23432121124E+02  0.28990110119E+02  0.51100000000E-03 0. -1.
        -11    1    3    3    0    0  0.19636000850E+01  0.85031274391E+00 -0.35811842203E+01  0.41717667405E+01  0.51100000000E-03 0.  1.
         12    1    3    3    0    0  0.23568832677E+01  0.66391134584E+01 -0.10902250719E+02  0.12980439014E+02  0.00000000000E+00 0. -1.
</event>
<event>
 7    1  0.1541705E-008  0.4614232E+02  0.7816164E-02  0.1320468E+00
        -11   -1    0    0    0    0  0.00000000000E+00  0.00000000000E+00  0.45593999997E+02  0.45594000000E+02  0.51100000000E-03 0.  1.
         11   -1    0    0    0    0 -0.00000000000E+00 -0.00000000000E+00 -0.45593999997E+02  0.45594000000E+02  0.51100000000E-03 0. -1.
    9900012    2    1    2    0    0  0.27695612685E+02  0.22686662343E+02 -0.27338287450E+02  0.46142316845E+02  0.99999916434E+01 0.  0.
        -12    1    1    2    0    0 -0.27695612685E+02 -0.22686662343E+02  0.27338287450E+02  0.45045683155E+02  0.00000000000E+00 0.  1.
         11    1    3    3    0    0  0.26251416848E+02  0.18947104679E+02 -0.22749419865E+02  0.39568494623E+02  0.51100000000E-03 0. -1.
        -11    1    3    3    0    0  0.88284345260E+00  0.39425193560E+01 -0.35624654008E+01  0.53864674349E+01  0.51100000000E-03 0.  1.
         12    1    3    3    0    0  0.56135238433E+00 -0.20296169213E+00 -0.10264021838E+01  0.11873547873E+01  0.00000000000E+00 0. -1.
</event>
<event>
 7    1  0.1541705E-008  0.4614232E+02  0.7816164E-02  0.1320468E+00
        -11   -1    0    0    0    0  0.00000000000E+00  0.00000000000E+00  0.45593999997E+02  0.45594000000E+02  0.51100000000E-03 0.  1.
         11   -1    0    0    0    0 -0.00000000000E+00 -0.00000000000E+00 -0.45593999997E+02  0.45594000000E+02  0.51100000000E-03 0. -1.
    9900012    2    1    2    0    0  0.23167997378E+02  0.20893501301E+02 -0.32493367914E+02  0.46142318104E+02  0.10000003124E+02 0.  0.
        -12    1    1    2    0    0 -0.23167997378E+02 -0.20893501301E+02  0.32493367914E+02  0.45045681896E+02  0.00000000000E+00 0.  1.
         11    1    3    3    0    0  0.16111758655E+02  0.10612708530E+02 -0.21052804167E+02  0.28555891036E+02  0.51100000000E-03 0. -1.
        -11    1    3    3    0    0  0.15444275568E+01  0.46876144559E+01 -0.70006965639E+01  0.85655553472E+01  0.51100000000E-03 0.  1.
        -12    1    3    3    0    0  0.55118111663E+01  0.55931783156E+01 -0.44398671828E+01  0.90208717209E+01  0.00000000000E+00 0.  1.
</event>
<event>
 7    1  0.1541705E-008  0.4614232E+02  0.7816164E-02  0.1320468E+00
        -11   -1    0    0    0    0  0.00000000000E+00  0.00000000000E+00  0.45593999997E+02  0.45594000000E+02  0.51100000000E-03 0.  1.
         11   -1    0    0    0    0 -0.00000000000E+00 -0.00000000000E+00 -0.45593999997E+02  0.45594000000E+02  0.51100000000E-03 0. -1.
    9900012    2    1    2    0    0 -0.24459236976E+02  0.18645942219E+02 -0.32911822150E+02  0.46142317944E+02  0.10000001664E+02 0.  0.
        -12    1    1    2    0    0  0.24459236976E+02 -0.18645942219E+02  0.32911822150E+02  0.45045682056E+02  0.00000000000E+00 0.  1.
         11    1    3    3    0    0 -0.14266287189E+02  0.74300907166E+01 -0.16365110822E+02  0.22946678424E+02  0.51100000000E-03 0. -1.
        -11    1    3    3    0    0 -0.27312953461E+01  0.95658086015E+00 -0.85531888775E+00  0.30177130199E+01  0.51100000000E-03 0.  1.
         12    1    3    3    0    0 -0.74616544409E+01  0.10259270642E+02 -0.15691392440E+02  0.20177926499E+02  0.00000000000E+00 0. -1.
</event>
