<event>
 7    1  0.6624035E-013  0.5052885E+02  0.7816164E-02  0.1300439E+00
        -11   -1    0    0    0    0  0.00000000000E+00  0.00000000000E+00  0.45593999997E+02  0.45594000000E+02  0.51100000000E-03 0.  1.
         11   -1    0    0    0    0 -0.00000000000E+00 -0.00000000000E+00 -0.45593999997E+02  0.45594000000E+02  0.51100000000E-03 0. -1.
    9900012    2    1    2    0    0  0.27288016807E+02 -0.21573552332E+02  0.21050233534E+02  0.50528851542E+02  0.29999974748E+02 0.  0.
         12    1    1    2    0    0 -0.27288016807E+02  0.21573552332E+02 -0.21050233534E+02  0.40659148458E+02  0.00000000000E+00 0. -1.
         11    1    3    3    0    0  0.16426918555E+01 -0.84335516380E+01 -0.18818379664E+01  0.87957116913E+01  0.51100000000E-03 0. -1.
        -11    1    3    3    0    0 -0.30138041470E+00  0.96950302929E+00 -0.25374736107E+01  0.27330457121E+01  0.51100000000E-03 0.  1.
        -12    1    3    3    0    0  0.25946705366E+02 -0.14109503723E+02  0.25469545111E+02  0.39000094139E+02  0.00000000000E+00 0.  1.
</event>
<event>
 7    1  0.6624035E-013  0.5052889E+02  0.7816164E-02  0.1300439E+00
        -11   -1    0    0    0    0  0.00000000000E+00  0.00000000000E+00  0.45593999997E+02  0.45594000000E+02  0.51100000000E-03 0.  1.
         11   -1    0    0    0    0 -0.00000000000E+00 -0.00000000000E+00 -0.45593999997E+02  0.45594000000E+02  0.51100000000E-03 0. -1.
    9900012    2    1    2    0    0 -0.36777937660E+02  0.75558112685E+01  0.15603078923E+02  0.50528892111E+02  0.30000098061E+02 0.  0.
         12    1    1    2    0    0  0.36777937660E+02 -0.75558112685E+01 -0.15603078923E+02  0.40659107889E+02  0.00000000000E+00 0. -1.
         11    1    3    3    0    0 -0.11313212935E+02  0.16199588063E+01 -0.47531498236E+01  0.12377620407E+02  0.51100000000E-03 0. -1.
        -11    1    3    3    0    0 -0.92139892933E+01  0.39739262038E+01 -0.22086216602E+01  0.10274614254E+02  0.51100000000E-03 0.  1.
        -12    1    3    3    0    0 -0.16250735432E+02  0.19619262585E+01  0.22564850406E+02  0.27876657450E+02  0.00000000000E+00 0.  1.
</event>
<event>
 7    1  0.6624035E-013  0.5052889E+02  0.7816164E-02  0.1300439E+00
        -11   -1    0    0    0    0  0.00000000000E+00  0.00000000000E+00  0.45593999997E+02  0.45594000000E+02  0.51100000000E-03 0.  1.
         11   -1    0    0    0    0 -0.00000000000E+00 -0.00000000000E+00 -0.45593999997E+02  0.45594000000E+02  0.51100000000E-03 0. -1.
    9900012    2    1    2    0    0 -0.22257897328E+02 -0.32856571208E+02  0.88427794125E+01  0.50528892623E+02  0.30000099616E+02 0.  0.
         12    1    1    2    0    0  0.22257897328E+02  0.32856571208E+02 -0.88427794125E+01  0.40659107377E+02  0.00000000000E+00 0. -1.
         11    1    3    3    0    0 -0.80850116168E+01 -0.16238716445E+02  0.14458742266E+02  0.23197382455E+02  0.51100000000E-03 0.  1.
        -11    1    3    3    0    0 -0.14714198200E+02 -0.19143696036E+02 -0.53821969126E+01  0.24737760013E+02  0.51100000000E-03 0. -1.
         12    1    3    3    0    0  0.54131248828E+00  0.25258412734E+01 -0.23376594061E+00  0.25937501544E+01  0.00000000000E+00 0. -1.
</event>
<event>
 7    1  0.6624035E-013  0.5052886E+02  0.7816164E-02  0.1300439E+00
        -11   -1    0    0    0    0  0.00000000000E+00  0.00000000000E+00  0.45593999997E+02  0.45594000000E+02  0.51100000000E-03 0.  1.
         11   -1    0    0    0    0 -0.00000000000E+00 -0.00000000000E+00 -0.45593999997E+02  0.45594000000E+02  0.51100000000E-03 0. -1.
    9900012    2    1    2    0    0  0.58418603345E+01 -0.37729327232E+02 -0.13983440403E+02  0.50528855013E+02  0.29999985298E+02 0.  0.
         12    1    1    2    0    0 -0.58418603345E+01  0.37729327232E+02  0.13983440403E+02  0.40659144987E+02  0.00000000000E+00 0. -1.
         11    1    3    3    0    0  0.26593716801E+01 -0.50370729242E+01 -0.46660133754E+01  0.73631543823E+01  0.51100000000E-03 0. -1.
        -11    1    3    3    0    0  0.56378101865E+01 -0.44282236899E+01 -0.12710704835E+02  0.14593014987E+02  0.51100000000E-03 0.  1.
        -12    1    3    3    0    0 -0.24553215321E+01 -0.28264030618E+02  0.33932778074E+01  0.28572685643E+02  0.00000000000E+00 0.  1.
</event>
<event>
 7    1  0.6624035E-013  0.5052885E+02  0.7816164E-02  0.1300439E+00
        -11   -1    0    0    0    0  0.00000000000E+00  0.00000000000E+00  0.45593999997E+02  0.45594000000E+02  0.51100000000E-03 0.  1.
         11   -1    0    0    0    0 -0.00000000000E+00 -0.00000000000E+00 -0.45593999997E+02  0.45594000000E+02  0.51100000000E-03 0. -1.
    9900012    2    1    2    0    0  0.29763015705E+02 -0.41216851583E+01  0.27392356068E+02  0.50528848959E+02  0.29999966896E+02 0.  0.
         12    1    1    2    0    0 -0.29763015705E+02  0.41216851583E+01 -0.27392356068E+02  0.40659151041E+02  0.00000000000E+00 0. -1.
         11    1    3    3    0    0  0.10099158181E+02 -0.86689674653E+01  0.45689907566E+01  0.14071946193E+02  0.51100000000E-03 0. -1.
        -11    1    3    3    0    0  0.14970413527E+02 -0.29641502765E+01  0.22994621284E+02  0.27598044791E+02  0.51100000000E-03 0.  1.
         12    1    3    3    0    0  0.46934439974E+01  0.75114325835E+01 -0.17125597244E+00  0.88588579750E+01  0.00000000000E+00 0. -1.
</event>
<event>
 7    1  0.6624035E-013  0.5052888E+02  0.7816164E-02  0.1300439E+00
        -11   -1    0    0    0    0  0.00000000000E+00  0.00000000000E+00  0.45593999997E+02  0.45594000000E+02  0.51100000000E-03 0. -1.
         11   -1    0    0    0    0 -0.00000000000E+00 -0.00000000000E+00 -0.45593999997E+02  0.45594000000E+02  0.51100000000E-03 0.  1.
    9900012    2    1    2    0    0 -0.27833726257E+02  0.69395771714E+00 -0.29630498915E+02  0.50528876048E+02  0.30000049234E+02 0.  0.
         12    1    1    2    0    0  0.27833726257E+02 -0.69395771714E+00  0.29630498915E+02  0.40659123952E+02  0.00000000000E+00 0. -1.
         11    1    3    3    0    0 -0.15534819600E+01 -0.17270740580E+01  0.12527534728E+01  0.26392200603E+01  0.51100000000E-03 0. -1.
        -11    1    3    3    0    0 -0.15512989393E+02 -0.11221211180E+02 -0.17723206028E+02  0.26089853438E+02  0.51100000000E-03 0.  1.
        -12    1    3    3    0    0 -0.10767254903E+02  0.13642242955E+02 -0.13160046359E+02  0.21799802549E+02  0.00000000000E+00 0.  1.
</event>
<event>
 7    1  0.6624035E-013  0.5052886E+02  0.7816164E-02  0.1300439E+00
        -11   -1    0    0    0    0  0.00000000000E+00  0.00000000000E+00  0.45593999997E+02  0.45594000000E+02  0.51100000000E-03 0.  1.
         11   -1    0    0    0    0 -0.00000000000E+00 -0.00000000000E+00 -0.45593999997E+02  0.45594000000E+02  0.51100000000E-03 0. -1.
    9900012    2    1    2    0    0 -0.16166926562E+02  0.71669579471E+01  0.36611895929E+02  0.50528859279E+02  0.29999998263E+02 0.  0.
         12    1    1    2    0    0  0.16166926562E+02 -0.71669579471E+01 -0.36611895929E+02  0.40659140721E+02  0.00000000000E+00 0. -1.
         11    1    3    3    0    0 -0.99463668048E+01  0.97166465072E+01  0.16239869657E+02  0.21379354497E+02  0.51100000000E-03 0. -1.
        -11    1    3    3    0    0  0.62864851345E+01 -0.11676147337E+00  0.12970765577E+02  0.14414377840E+02  0.51100000000E-03 0.  1.
         12    1    3    3    0    0 -0.12507044891E+02 -0.24329270867E+01  0.74012606949E+01  0.14735126942E+02  0.00000000000E+00 0. -1.
</event>
<event>
 7    1  0.6624035E-013  0.5052886E+02  0.7816164E-02  0.1300439E+00
        -11   -1    0    0    0    0  0.00000000000E+00  0.00000000000E+00  0.45593999997E+02  0.45594000000E+02  0.51100000000E-03 0. -1.
         11   -1    0    0    0    0 -0.00000000000E+00 -0.00000000000E+00 -0.45593999997E+02  0.45594000000E+02  0.51100000000E-03 0.  1.
    9900012    2    1    2    0    0  0.11987630110E+01  0.25264893122E+02 -0.31834165557E+02  0.50528856454E+02  0.29999989677E+02 0.  0.
         12    1    1    2    0    0 -0.11987630110E+01 -0.25264893122E+02  0.31834165557E+02  0.40659143546E+02  0.00000000000E+00 0. -1.
         11    1    3    3    0    0  0.57235206948E+00  0.10039576627E+02  0.60611374230E+00  0.10074128244E+02  0.51100000000E-03 0. -1.
        -11    1    3    3    0    0 -0.20763076164E+01  0.91932740464E+01 -0.24408765989E+01  0.97357701207E+01  0.51100000000E-03 0.  1.
         12    1    3    3    0    0  0.27027185579E+01  0.60320424480E+01 -0.29999402701E+02  0.30718958089E+02  0.00000000000E+00 0. -1.
</event>
<event>
 7    1  0.6624035E-013  0.5052886E+02  0.7816164E-02  0.1300439E+00
        -11   -1    0    0    0    0  0.00000000000E+00  0.00000000000E+00  0.45593999997E+02  0.45594000000E+02  0.51100000000E-03 0. -1.
         11   -1    0    0    0    0 -0.00000000000E+00 -0.00000000000E+00 -0.45593999997E+02  0.45594000000E+02  0.51100000000E-03 0.  1.
    9900012    2    1    2    0    0 -0.23778734883E+02 -0.10555346617E+02 -0.31246152878E+02  0.50528860259E+02  0.30000001242E+02 0.  0.
         12    1    1    2    0    0  0.23778734883E+02  0.10555346617E+02  0.31246152878E+02  0.40659139741E+02  0.00000000000E+00 0. -1.
         11    1    3    3    0    0  0.30871293513E+00 -0.25313929610E+01 -0.20686056917E+01  0.32836540269E+01  0.51100000000E-03 0. -1.
        -11    1    3    3    0    0 -0.19836148720E+02 -0.70295533438E+01 -0.34468636276E+02  0.40385322869E+02  0.51100000000E-03 0.  1.
        -12    1    3    3    0    0 -0.42512990977E+01 -0.99440031177E+00  0.52910890895E+01  0.68598833628E+01  0.00000000000E+00 0.  1.
</event>
<event>
 7    1  0.6624035E-013  0.5052885E+02  0.7816164E-02  0.1300439E+00
        -11   -1    0    0    0    0  0.00000000000E+00  0.00000000000E+00  0.45593999997E+02  0.45594000000E+02  0.51100000000E-03 0.  1.
         11   -1    0    0    0    0 -0.00000000000E+00 -0.00000000000E+00 -0.45593999997E+02  0.45594000000E+02  0.51100000000E-03 0. -1.
    9900012    2    1    2    0    0 -0.29894767351E+02  0.25265392382E+02  0.11005858923E+02  0.50528854684E+02  0.29999984297E+02 0.  0.
         12    1    1    2    0    0  0.29894767351E+02 -0.25265392382E+02 -0.11005858923E+02  0.40659145316E+02  0.00000000000E+00 0. -1.
         11    1    3    3    0    0 -0.10150805998E+02 -0.50727577399E+01  0.32869476360E+01  0.11814218489E+02  0.51100000000E-03 0. -1.
        -11    1    3    3    0    0 -0.59917444214E+01  0.96844641146E+01 -0.28577626071E+01  0.11741237319E+02  0.51100000000E-03 0.  1.
        -12    1    3    3    0    0 -0.13752216932E+02  0.20653686007E+02  0.10576673894E+02  0.26973398876E+02  0.00000000000E+00 0.  1.
</event>
<event>
 7    1  0.6624035E-013  0.5052886E+02  0.7816164E-02  0.1300439E+00
        -11   -1    0    0    0    0  0.00000000000E+00  0.00000000000E+00  0.45593999997E+02  0.45594000000E+02  0.51100000000E-03 0.  1.
         11   -1    0    0    0    0 -0.00000000000E+00 -0.00000000000E+00 -0.45593999997E+02  0.45594000000E+02  0.51100000000E-03 0. -1.
    9900012    2    1    2    0    0  0.13435022834E+02  0.66252319458E+01  0.37799100286E+02  0.50528861798E+02  0.30000005921E+02 0.  0.
         12    1    1    2    0    0 -0.13435022834E+02 -0.66252319458E+01 -0.37799100286E+02  0.40659138202E+02  0.00000000000E+00 0. -1.
         11    1    3    3    0    0  0.38287486518E+01 -0.59409565079E+00 -0.22546466524E+01  0.44828225114E+01  0.51100000000E-03 0. -1.
        -11    1    3    3    0    0  0.31216631804E+01 -0.62209607546E+01  0.74839493547E+01  0.10220304884E+02  0.51100000000E-03 0.  1.
        -12    1    3    3    0    0  0.64846110023E+01  0.13440288351E+02  0.32569797584E+02  0.35825734402E+02  0.00000000000E+00 0.  1.
</event>
<event>
 7    1  0.6624035E-013  0.5052886E+02  0.7816164E-02  0.1300439E+00
        -11   -1    0    0    0    0  0.00000000000E+00  0.00000000000E+00  0.45593999997E+02  0.45594000000E+02  0.51100000000E-03 0.  1.
         11   -1    0    0    0    0 -0.00000000000E+00 -0.00000000000E+00 -0.45593999997E+02  0.45594000000E+02  0.51100000000E-03 0. -1.
    9900012    2    1    2    0    0 -0.16477761478E+02  0.58175732470E-01  0.37170493619E+02  0.50528860761E+02  0.30000002770E+02 0.  0.
         12    1    1    2    0    0  0.16477761478E+02 -0.58175732470E-01 -0.37170493619E+02  0.40659139239E+02  0.00000000000E+00 0. -1.
         11    1    3    3    0    0 -0.83066829047E+01  0.62386261401E+01  0.43182960063E+01  0.11250294114E+02  0.51100000000E-03 0. -1.
        -11    1    3    3    0    0  0.51148247038E+01 -0.32629699449E+01  0.36926644250E+01  0.71024063126E+01  0.51100000000E-03 0.  1.
        -12    1    3    3    0    0 -0.13285903277E+02 -0.29174804627E+01  0.29159533188E+02  0.32176160335E+02  0.00000000000E+00 0.  1.
</event>
<event>
 7    1  0.6624035E-013  0.5052887E+02  0.7816164E-02  0.1300439E+00
        -11   -1    0    0    0    0  0.00000000000E+00  0.00000000000E+00  0.45593999997E+02  0.45594000000E+02  0.51100000000E-03 0.  1.
         11   -1    0    0    0    0 -0.00000000000E+00 -0.00000000000E+00 -0.45593999997E+02  0.45594000000E+02  0.51100000000E-03 0. -1.
    9900012    2    1    2    0    0 -0.49982712429E+01 -0.33441171009E+02  0.22580314909E+02  0.50528865045E+02  0.30000015792E+02 0.  0.
         12    1    1    2    0    0  0.49982712429E+01  0.33441171009E+02 -0.22580314909E+02  0.40659134955E+02  0.00000000000E+00 0. -1.
         11    1    3    3    0    0  0.58792055403E+01 -0.12228500624E+02  0.47409786711E+01  0.14372827290E+02  0.51100000000E-03 0. -1.
        -11    1    3    3    0    0  0.45660213696E+01 -0.51963292190E+01  0.10789783460E+02  0.12816778686E+02  0.51100000000E-03 0.  1.
        -12    1    3    3    0    0 -0.15443498153E+02 -0.16016341166E+02  0.70495527780E+01  0.23339259069E+02  0.00000000000E+00 0.  1.
</event>
<event>
 7    1  0.6624035E-013  0.5052886E+02  0.7816164E-02  0.1300439E+00
        -11   -1    0    0    0    0  0.00000000000E+00  0.00000000000E+00  0.45593999997E+02  0.45594000000E+02  0.51100000000E-03 0.  1.
         11   -1    0    0    0    0 -0.00000000000E+00 -0.00000000000E+00 -0.45593999997E+02  0.45594000000E+02  0.51100000000E-03 0. -1.
    9900012    2    1    2    0    0 -0.26809565242E+02 -0.29231785012E+02 -0.89395426399E+01  0.50528862453E+02  0.30000007913E+02 0.  0.
         12    1    1    2    0    0  0.26809565242E+02  0.29231785012E+02  0.89395426399E+01  0.40659137547E+02  0.00000000000E+00 0. -1.
         11    1    3    3    0    0  0.33407937462E+01 -0.15579953558E+01  0.34353821129E+01  0.50388592862E+01  0.51100000000E-03 0.  1.
        -11    1    3    3    0    0 -0.15463495013E+02 -0.40975249089E+01 -0.44090081723E+01  0.16593635579E+02  0.51100000000E-03 0. -1.
        -12    1    3    3    0    0 -0.14686863975E+02 -0.23576264747E+02 -0.79659165804E+01  0.28896367589E+02  0.00000000000E+00 0.  1.
</event>
<event>
 7    1  0.6624035E-013  0.5052885E+02  0.7816164E-02  0.1300439E+00
        -11   -1    0    0    0    0  0.00000000000E+00  0.00000000000E+00  0.45593999997E+02  0.45594000000E+02  0.51100000000E-03 0.  1.
         11   -1    0    0    0    0 -0.00000000000E+00 -0.00000000000E+00 -0.45593999997E+02  0.45594000000E+02  0.51100000000E-03 0. -1.
    9900012    2    1    2    0    0 -0.18078566545E+02 -0.35249647717E+02  0.91539179625E+01  0.50528850395E+02  0.29999971261E+02 0.  0.
         12    1    1    2    0    0  0.18078566545E+02  0.35249647717E+02 -0.91539179625E+01  0.40659149605E+02  0.00000000000E+00 0. -1.
         11    1    3    3    0    0  0.13863836821E+00 -0.55568785448E+01  0.12511459276E+02  0.13690680525E+02  0.51100000000E-03 0. -1.
        -11    1    3    3    0    0 -0.15867843282E+02 -0.15326359813E+02 -0.93521995851E+00  0.22080769737E+02  0.51100000000E-03 0.  1.
        -12    1    3    3    0    0 -0.23493616317E+01 -0.14366409359E+02 -0.24223213547E+01  0.14757400133E+02  0.00000000000E+00 0.  1.
</event>
<event>
 7    1  0.6624035E-013  0.5052886E+02  0.7816164E-02  0.1300439E+00
        -11   -1    0    0    0    0  0.00000000000E+00  0.00000000000E+00  0.45593999997E+02  0.45594000000E+02  0.51100000000E-03 0.  1.
         11   -1    0    0    0    0 -0.00000000000E+00 -0.00000000000E+00 -0.45593999997E+02  0.45594000000E+02  0.51100000000E-03 0. -1.
    9900012    2    1    2    0    0  0.11461435252E+02  0.18706701279E+02  0.34232450438E+02  0.50528857931E+02  0.29999994168E+02 0.  0.
         12    1    1    2    0    0 -0.11461435252E+02 -0.18706701279E+02 -0.34232450438E+02  0.40659142069E+02  0.00000000000E+00 0. -1.
         11    1    3    3    0    0 -0.47418959558E+01  0.15249983645E+01  0.21024108327E+01  0.54066004881E+01  0.51100000000E-03 0. -1.
        -11    1    3    3    0    0  0.49303456979E+01  0.76959127704E+01  0.28526617078E+02  0.29955020685E+02  0.51100000000E-03 0.  1.
        -12    1    3    3    0    0  0.11272985510E+02  0.94857901442E+01  0.36034225270E+01  0.15167236758E+02  0.00000000000E+00 0.  1.
</event>
<event>
 7    1  0.6624035E-013  0.5052886E+02  0.7816164E-02  0.1300439E+00
        -11   -1    0    0    0    0  0.00000000000E+00  0.00000000000E+00  0.45593999997E+02  0.45594000000E+02  0.51100000000E-03 0.  1.
         11   -1    0    0    0    0 -0.00000000000E+00 -0.00000000000E+00 -0.45593999997E+02  0.45594000000E+02  0.51100000000E-03 0. -1.
    9900012    2    1    2    0    0  0.23715983143E+02 -0.12897236414E+02  0.30403599859E+02  0.50528862675E+02  0.30000008588E+02 0.  0.
         12    1    1    2    0    0 -0.23715983143E+02  0.12897236414E+02 -0.30403599859E+02  0.40659137325E+02  0.00000000000E+00 0. -1.
         11    1    3    3    0    0  0.16949320206E+02 -0.88732090227E+01  0.12820085039E+02  0.23029717203E+02  0.51100000000E-03 0.  1.
        -11    1    3    3    0    0 -0.25117573493E+01 -0.16897676585E+01 -0.33304177398E+01  0.45006579857E+01  0.51100000000E-03 0. -1.
         12    1    3    3    0    0  0.92784202865E+01 -0.23342597331E+01  0.20913932560E+02  0.22998487486E+02  0.00000000000E+00 0. -1.
</event>
<event>
 7    1  0.6624035E-013  0.5052889E+02  0.7816164E-02  0.1300439E+00
        -11   -1    0    0    0    0  0.00000000000E+00  0.00000000000E+00  0.45593999997E+02  0.45594000000E+02  0.51100000000E-03 0.  1.
         11   -1    0    0    0    0 -0.00000000000E+00 -0.00000000000E+00 -0.45593999997E+02  0.45594000000E+02  0.51100000000E-03 0. -1.
    9900012    2    1    2    0    0  0.27287818301E+02  0.12056659886E+02  0.27625631420E+02  0.50528885565E+02  0.30000078165E+02 0.  0.
         12    1    1    2    0    0 -0.27287818301E+02 -0.12056659886E+02 -0.27625631420E+02  0.40659114435E+02  0.00000000000E+00 0. -1.
         11    1    3    3    0    0  0.11550742482E+02  0.55601659127E+01  0.16350406622E+02  0.20776691118E+02  0.51100000000E-03 0. -1.
        -11    1    3    3    0    0  0.14696413020E+02  0.33739184292E+00  0.16142788533E+02  0.21833185997E+02  0.51100000000E-03 0.  1.
         12    1    3    3    0    0  0.10406627990E+01  0.61591021309E+01 -0.48675637348E+01  0.79190084500E+01  0.00000000000E+00 0. -1.
</event>
<event>
 7    1  0.6624035E-013  0.5052885E+02  0.7816164E-02  0.1300439E+00
        -11   -1    0    0    0    0  0.00000000000E+00  0.00000000000E+00  0.45593999997E+02  0.45594000000E+02  0.51100000000E-03 0.  1.
         11   -1    0    0    0    0 -0.00000000000E+00 -0.00000000000E+00 -0.45593999997E+02  0.45594000000E+02  0.51100000000E-03 0. -1.
    9900012    2    1    2    0    0 -0.26409356656E+02  0.30248056796E+02 -0.63849292890E+01  0.50528851202E+02  0.29999973714E+02 0.  0.
         12    1    1    2    0    0  0.26409356656E+02 -0.30248056796E+02  0.63849292890E+01  0.40659148798E+02  0.00000000000E+00 0. -1.
         11    1    3    3    0    0 -0.10415428036E+02 -0.20656400265E+01  0.26595028866E+01  0.10946276342E+02  0.51100000000E-03 0. -1.
        -11    1    3    3    0    0 -0.69802428084E+01  0.70574316648E+01  0.27302006574E+01  0.10294907831E+02  0.51100000000E-03 0.  1.
         12    1    3    3    0    0 -0.90136858120E+01  0.25256265158E+02 -0.11774632833E+02  0.29287667029E+02  0.00000000000E+00 0. -1.
</event>
<event>
 7    1  0.6624035E-013  0.5052885E+02  0.7816164E-02  0.1300439E+00
        -11   -1    0    0    0    0  0.00000000000E+00  0.00000000000E+00  0.45593999997E+02  0.45594000000E+02  0.51100000000E-03 0.  1.
         11   -1    0    0    0    0 -0.00000000000E+00 -0.00000000000E+00 -0.45593999997E+02  0.45594000000E+02  0.51100000000E-03 0. -1.
    9900012    2    1    2    0    0  0.32783415044E+02 -0.10135338138E+02  0.21810302567E+02  0.50528847535E+02  0.29999962567E+02 0.  0.
         12    1    1    2    0    0 -0.32783415044E+02  0.10135338138E+02 -0.21810302567E+02  0.40659152465E+02  0.00000000000E+00 0. -1.
         11    1    3    3    0    0 -0.25417952538E+01 -0.18932325496E+00  0.10154303787E+02  0.10469310009E+02  0.51100000000E-03 0.  1.
        -11    1    3    3    0    0  0.42532681704E+00 -0.25573843249E+01  0.23819994880E+00  0.26034317666E+01  0.51100000000E-03 0. -1.
        -12    1    3    3    0    0  0.34899883481E+02 -0.73886305582E+01  0.11417798832E+02  0.37456105759E+02  0.00000000000E+00 0.  1.
</event>
<event>
 7    1  0.6624035E-013  0.5052886E+02  0.7816164E-02  0.1300439E+00
        -11   -1    0    0    0    0  0.00000000000E+00  0.00000000000E+00  0.45593999997E+02  0.45594000000E+02  0.51100000000E-03 0.  1.
         11   -1    0    0    0    0 -0.00000000000E+00 -0.00000000000E+00 -0.45593999997E+02  0.45594000000E+02  0.51100000000E-03 0. -1.
    9900012    2    1    2    0    0  0.54307484884E+01 -0.32425849851E+02  0.23921478843E+02  0.50528856898E+02  0.29999991029E+02 0.  0.
         12    1    1    2    0    0 -0.54307484884E+01  0.32425849851E+02 -0.23921478843E+02  0.40659143102E+02  0.00000000000E+00 0. -1.
         11    1    3    3    0    0  0.81595518739E+01 -0.36745241147E+01 -0.13788846467E+01  0.90543766976E+01  0.51100000000E-03 0. -1.
        -11    1    3    3    0    0 -0.45154896676E+01 -0.15753496536E+02  0.46958056124E+01  0.17047371958E+02  0.51100000000E-03 0.  1.
        -12    1    3    3    0    0  0.17866862821E+01 -0.12997829200E+02  0.20604557878E+02  0.24427108243E+02  0.00000000000E+00 0.  1.
</event>
<event>
 7    1  0.6624035E-013  0.5052886E+02  0.7816164E-02  0.1300439E+00
        -11   -1    0    0    0    0  0.00000000000E+00  0.00000000000E+00  0.45593999997E+02  0.45594000000E+02  0.51100000000E-03 0.  1.
         11   -1    0    0    0    0 -0.00000000000E+00 -0.00000000000E+00 -0.45593999997E+02  0.45594000000E+02  0.51100000000E-03 0. -1.
    9900012    2    1    2    0    0 -0.24360606362E+02  0.28231813230E+02  0.16207748020E+02  0.50528861833E+02  0.30000006028E+02 0.  0.
         12    1    1    2    0    0  0.24360606362E+02 -0.28231813230E+02 -0.16207748020E+02  0.40659138167E+02  0.00000000000E+00 0. -1.
         11    1    3    3    0    0 -0.92504593905E+00  0.72861526344E+01  0.15626165902E+02  0.17266174772E+02  0.51100000000E-03 0. -1.
        -11    1    3    3    0    0  0.11858041542E+01  0.12916606873E+01  0.64363745991E-01  0.17546115741E+01  0.51100000000E-03 0.  1.
        -12    1    3    3    0    0 -0.24621364577E+02  0.19653999908E+02  0.51721837198E+00  0.31508075487E+02  0.00000000000E+00 0.  1.
</event>
<event>
 7    1  0.6624035E-013  0.5052886E+02  0.7816164E-02  0.1300439E+00
        -11   -1    0    0    0    0  0.00000000000E+00  0.00000000000E+00  0.45593999997E+02  0.45594000000E+02  0.51100000000E-03 0.  1.
         11   -1    0    0    0    0 -0.00000000000E+00 -0.00000000000E+00 -0.45593999997E+02  0.45594000000E+02  0.51100000000E-03 0. -1.
    9900012    2    1    2    0    0 -0.18733748572E+02 -0.16097018637E+02  0.32297036166E+02  0.50528857244E+02  0.29999992078E+02 0.  0.
         12    1    1    2    0    0  0.18733748572E+02  0.16097018637E+02 -0.32297036166E+02  0.40659142756E+02  0.00000000000E+00 0. -1.
         11    1    3    3    0    0 -0.72887017019E+01 -0.12747734918E+01  0.16245120539E+02  0.17850886856E+02  0.51100000000E-03 0. -1.
        -11    1    3    3    0    0 -0.89125650001E+01 -0.10264887446E+02  0.21307675261E+02  0.25274864084E+02  0.51100000000E-03 0.  1.
        -12    1    3    3    0    0 -0.25324818699E+01 -0.45573576993E+01 -0.52557596339E+01  0.74031063041E+01  0.00000000000E+00 0.  1.
</event>
<event>
 7    1  0.6624035E-013  0.5052885E+02  0.7816164E-02  0.1300439E+00
        -11   -1    0    0    0    0  0.00000000000E+00  0.00000000000E+00  0.45593999997E+02  0.45594000000E+02  0.51100000000E-03 0. -1.
         11   -1    0    0    0    0 -0.00000000000E+00 -0.00000000000E+00 -0.45593999997E+02  0.45594000000E+02  0.51100000000E-03 0.  1.
    9900012    2    1    2    0    0 -0.18633803662E+02  0.19559205899E+02 -0.30387249009E+02  0.50528854945E+02  0.29999985090E+02 0.  0.
         12    1    1    2    0    0  0.18633803662E+02 -0.19559205899E+02  0.30387249009E+02  0.40659145055E+02  0.00000000000E+00 0. -1.
         11    1    3    3    0    0 -0.35729146415E+01  0.55736796167E+01 -0.75467435385E+01  0.10039171370E+02  0.51100000000E-03 0. -1.
        -11    1    3    3    0    0 -0.14349512569E+02  0.21485566039E+02 -0.18691692471E+02  0.31889142771E+02  0.51100000000E-03 0.  1.
        -12    1    3    3    0    0 -0.71137645209E+00 -0.75000397567E+01 -0.41488129988E+01  0.86005408032E+01  0.00000000000E+00 0.  1.
</event>
<event>
 7    1  0.6624035E-013  0.5052886E+02  0.7816164E-02  0.1300439E+00
        -11   -1    0    0    0    0  0.00000000000E+00  0.00000000000E+00  0.45593999997E+02  0.45594000000E+02  0.51100000000E-03 0.  1.
         11   -1    0    0    0    0 -0.00000000000E+00 -0.00000000000E+00 -0.45593999997E+02  0.45594000000E+02  0.51100000000E-03 0. -1.
    9900012    2    1    2    0    0  0.86179345486E+01 -0.29427710281E+02  0.26700313573E+02  0.50528859906E+02  0.30000000172E+02 0.  0.
         12    1    1    2    0    0 -0.86179345486E+01  0.29427710281E+02 -0.26700313573E+02  0.40659140094E+02  0.00000000000E+00 0. -1.
         11    1    3    3    0    0  0.42811611222E+01 -0.11426378461E+02  0.17835142314E+01  0.12331722854E+02  0.51100000000E-03 0. -1.
        -11    1    3    3    0    0  0.13008089320E+02 -0.11168317099E+02  0.10748391063E+02  0.20235355329E+02  0.51100000000E-03 0.  1.
         12    1    3    3    0    0 -0.86713158940E+01 -0.68330147207E+01  0.14168408278E+02  0.17961781723E+02  0.00000000000E+00 0. -1.
</event>
<event>
 7    1  0.6624035E-013  0.5052886E+02  0.7816164E-02  0.1300439E+00
        -11   -1    0    0    0    0  0.00000000000E+00  0.00000000000E+00  0.45593999997E+02  0.45594000000E+02  0.51100000000E-03 0. -1.
         11   -1    0    0    0    0 -0.00000000000E+00 -0.00000000000E+00 -0.45593999997E+02  0.45594000000E+02  0.51100000000E-03 0.  1.
    9900012    2    1    2    0    0  0.15927266381E+02 -0.20629011333E+02  0.31207879403E+02  0.50528860071E+02  0.30000000673E+02 0.  0.
         12    1    1    2    0    0 -0.15927266381E+02  0.20629011333E+02 -0.31207879403E+02  0.40659139929E+02  0.00000000000E+00 0. -1.
         11    1    3    3    0    0  0.47450185264E+01 -0.51059087187E+01  0.42787458657E+01  0.81788245551E+01  0.51100000000E-03 0. -1.
        -11    1    3    3    0    0  0.50664951033E+01 -0.21124351375E+02  0.26185885256E+02  0.34023641495E+02  0.51100000000E-03 0.  1.
         12    1    3    3    0    0  0.61157527511E+01  0.56012487610E+01  0.74324828071E+00  0.83263940216E+01  0.00000000000E+00 0. -1.
</event>
<event>
 7    1  0.6624035E-013  0.5052886E+02  0.7816164E-02  0.1300439E+00
        -11   -1    0    0    0    0  0.00000000000E+00  0.00000000000E+00  0.45593999997E+02  0.45594000000E+02  0.51100000000E-03 0. -1.
         11   -1    0    0    0    0 -0.00000000000E+00 -0.00000000000E+00 -0.45593999997E+02  0.45594000000E+02  0.51100000000E-03 0.  1.
    9900012    2    1    2    0    0  0.10181686008E+02 -0.36265202783E+02  0.15307964383E+02  0.50528862817E+02  0.30000009020E+02 0.  0.
         12    1    1    2    0    0 -0.10181686008E+02  0.36265202783E+02 -0.15307964383E+02  0.40659137183E+02  0.00000000000E+00 0. -1.
         11    1    3    3    0    0 -0.37132940412E+01 -0.16543746455E+02  0.31163121115E+01  0.17239359061E+02  0.51100000000E-03 0. -1.
        -11    1    3    3    0    0 -0.57109470171E+00 -0.79658091732E+01 -0.36932074616E+01  0.87988662086E+01  0.51100000000E-03 0.  1.
         12    1    3    3    0    0  0.14466074751E+02 -0.11755647155E+02  0.15884859733E+02  0.24490637547E+02  0.00000000000E+00 0. -1.
</event>
<event>
 7    1  0.6624035E-013  0.5052883E+02  0.7816164E-02  0.1300439E+00
        -11   -1    0    0    0    0  0.00000000000E+00  0.00000000000E+00  0.45593999997E+02  0.45594000000E+02  0.51100000000E-03 0. -1.
         11   -1    0    0    0    0 -0.00000000000E+00 -0.00000000000E+00 -0.45593999997E+02  0.45594000000E+02  0.51100000000E-03 0.  1.
    9900012    2    1    2    0    0 -0.25873292564E+02 -0.22957120973E+02  0.21370800065E+02  0.50528834159E+02  0.29999921909E+02 0.  0.
         12    1    1    2    0    0  0.25873292564E+02  0.22957120973E+02 -0.21370800065E+02  0.40659165841E+02  0.00000000000E+00 0. -1.
         11    1    3    3    0    0 -0.62391776517E+01  0.41187285031E+01  0.78300582584E+01  0.10825944524E+02  0.51100000000E-03 0. -1.
        -11    1    3    3    0    0  0.24389842600E+01 -0.72622377708E+01  0.28302434467E+01  0.81669467911E+01  0.51100000000E-03 0.  1.
         12    1    3    3    0    0 -0.22073099173E+02 -0.19813611705E+02  0.10710498360E+02  0.31535942843E+02  0.00000000000E+00 0. -1.
</event>
<event>
 7    1  0.6624035E-013  0.5052883E+02  0.7816164E-02  0.1300439E+00
        -11   -1    0    0    0    0  0.00000000000E+00  0.00000000000E+00  0.45593999997E+02  0.45594000000E+02  0.51100000000E-03 0. -1.
         11   -1    0    0    0    0 -0.00000000000E+00 -0.00000000000E+00 -0.45593999997E+02  0.45594000000E+02  0.51100000000E-03 0.  1.
    9900012    2    1    2    0    0  0.78696630287E+01  0.19723938003E+00 -0.39889813228E+02  0.50528834995E+02  0.29999924450E+02 0.  0.
         12    1    1    2    0    0 -0.78696630287E+01 -0.19723938003E+00  0.39889813228E+02  0.40659165005E+02  0.00000000000E+00 0. -1.
         11    1    3    3    0    0  0.87043608124E+01  0.10426429218E+02 -0.66869540655E+01  0.15139077856E+02  0.51100000000E-03 0.  1.
        -11    1    3    3    0    0 -0.23659270621E+01 -0.11596384922E+01 -0.41509985972E+01  0.49166209851E+01  0.51100000000E-03 0. -1.
        -12    1    3    3    0    0  0.15312292784E+01 -0.90695513462E+01 -0.29051860565E+02  0.30473136153E+02  0.00000000000E+00 0.  1.
</event>
<event>
 7    1  0.6624035E-013  0.5052886E+02  0.7816164E-02  0.1300439E+00
        -11   -1    0    0    0    0  0.00000000000E+00  0.00000000000E+00  0.45593999997E+02  0.45594000000E+02  0.51100000000E-03 0.  1.
         11   -1    0    0    0    0 -0.00000000000E+00 -0.00000000000E+00 -0.45593999997E+02  0.45594000000E+02  0.51100000000E-03 0. -1.
    9900012    2    1    2    0    0  0.11881625946E-01  0.34985877205E+02  0.20716024993E+02  0.50528862817E+02  0.30000009019E+02 0.  0.
         12    1    1    2    0    0 -0.11881625946E-01 -0.34985877205E+02 -0.20716024993E+02  0.40659137183E+02  0.00000000000E+00 0. -1.
         11    1    3    3    0    0 -0.46017114093E+01  0.90944756906E+01 -0.57615813418E+01  0.11708161931E+02  0.51100000000E-03 0. -1.
        -11    1    3    3    0    0  0.35000562284E+01  0.20419190086E+02  0.13593837286E+02  0.24778743507E+02  0.51100000000E-03 0.  1.
        -12    1    3    3    0    0  0.11135368069E+01  0.54722114277E+01  0.12883769049E+02  0.14041957379E+02  0.00000000000E+00 0.  1.
</event>
<event>
 7    1  0.6624035E-013  0.5052886E+02  0.7816164E-02  0.1300439E+00
        -11   -1    0    0    0    0  0.00000000000E+00  0.00000000000E+00  0.45593999997E+02  0.45594000000E+02  0.51100000000E-03 0.  1.
         11   -1    0    0    0    0 -0.00000000000E+00 -0.00000000000E+00 -0.45593999997E+02  0.45594000000E+02  0.51100000000E-03 0. -1.
    9900012    2    1    2    0    0 -0.16324747081E+01  0.21826642846E+02  0.34265119507E+02  0.50528859251E+02  0.29999998180E+02 0.  0.
         12    1    1    2    0    0  0.16324747081E+01 -0.21826642846E+02 -0.34265119507E+02  0.40659140749E+02  0.00000000000E+00 0. -1.
         11    1    3    3    0    0 -0.37563230414E+01  0.15068643120E+00  0.49878716272E+01  0.62459212949E+01  0.51100000000E-03 0. -1.
        -11    1    3    3    0    0 -0.91586375908E+01  0.92594509628E+00  0.11448498401E+02  0.14690341478E+02  0.51100000000E-03 0.  1.
         12    1    3    3    0    0  0.11282485924E+02  0.20750011318E+02  0.17828749480E+02  0.29592596479E+02  0.00000000000E+00 0. -1.
</event>
<event>
 7    1  0.6624035E-013  0.5052890E+02  0.7816164E-02  0.1300439E+00
        -11   -1    0    0    0    0  0.00000000000E+00  0.00000000000E+00  0.45593999997E+02  0.45594000000E+02  0.51100000000E-03 0. -1.
         11   -1    0    0    0    0 -0.00000000000E+00 -0.00000000000E+00 -0.45593999997E+02  0.45594000000E+02  0.51100000000E-03 0.  1.
    9900012    2    1    2    0    0  0.25754060606E+02 -0.16759406577E+02 -0.26627292053E+02  0.50528904725E+02  0.30000136401E+02 0.  0.
         12    1    1    2    0    0 -0.25754060606E+02  0.16759406577E+02  0.26627292053E+02  0.40659095275E+02  0.00000000000E+00 0. -1.
         11    1    3    3    0    0  0.16051279725E+02 -0.78941339061E+01 -0.16250576146E+02  0.24166964151E+02  0.51100000000E-03 0. -1.
        -11    1    3    3    0    0  0.21219374364E+01 -0.13938819095E+02 -0.25198311066E+01  0.14322808569E+02  0.51100000000E-03 0.  1.
         12    1    3    3    0    0  0.75808434453E+01  0.50735464241E+01 -0.78568848002E+01  0.12039132005E+02  0.00000000000E+00 0. -1.
</event>
<event>
 7    1  0.8148843E-013  0.5052886E+02  0.7816164E-02  0.1300439E+00
        -11   -1    0    0    0    0  0.00000000000E+00  0.00000000000E+00  0.45593999997E+02  0.45594000000E+02  0.51100000000E-03 0. -1.
         11   -1    0    0    0    0 -0.00000000000E+00 -0.00000000000E+00 -0.45593999997E+02  0.45594000000E+02  0.51100000000E-03 0.  1.
    9900012    2    1    2    0    0 -0.30263035814E+02  0.24905929695E+02 -0.10817072460E+02  0.50528859241E+02  0.29999998148E+02 0.  0.
         12    1    1    2    0    0  0.30263035814E+02 -0.24905929695E+02  0.10817072460E+02  0.40659140759E+02  0.00000000000E+00 0. -1.
         11    1    3    3    0    0 -0.80650120602E+01  0.18306996415E+02 -0.30219823233E+01  0.20231730393E+02  0.51100000000E-03 0. -1.
        -11    1    3    3    0    0 -0.13443837126E+02  0.12629609579E+02 -0.32226760164E+01  0.18725101756E+02  0.51100000000E-03 0.  1.
         12    1    3    3    0    0 -0.87541866277E+01 -0.60306762988E+01 -0.45724141201E+01  0.11572027092E+02  0.00000000000E+00 0. -1.
</event>
<event>
 7    1  0.6624035E-013  0.5052885E+02  0.7816164E-02  0.1300439E+00
        -11   -1    0    0    0    0  0.00000000000E+00  0.00000000000E+00  0.45593999997E+02  0.45594000000E+02  0.51100000000E-03 0.  1.
         11   -1    0    0    0    0 -0.00000000000E+00 -0.00000000000E+00 -0.45593999997E+02  0.45594000000E+02  0.51100000000E-03 0. -1.
    9900012    2    1    2    0    0 -0.82690657674E+01 -0.50776661040E+01  0.39484254615E+02  0.50528849686E+02  0.29999969107E+02 0.  0.
         12    1    1    2    0    0  0.82690657674E+01  0.50776661040E+01 -0.39484254615E+02  0.40659150314E+02  0.00000000000E+00 0. -1.
         11    1    3    3    0    0  0.45795226323E+01  0.25904975119E+01  0.96546418549E+01  0.10995217802E+02  0.51100000000E-03 0. -1.
        -11    1    3    3    0    0 -0.33883715966E+01  0.20575961903E+01  0.24719554101E+02  0.25035397328E+02  0.51100000000E-03 0.  1.
         12    1    3    3    0    0 -0.94602168031E+01 -0.97257598062E+01  0.51100586593E+01  0.14498234557E+02  0.00000000000E+00 0. -1.
</event>
<event>
 7    1  0.6624035E-013  0.5052885E+02  0.7816164E-02  0.1300439E+00
        -11   -1    0    0    0    0  0.00000000000E+00  0.00000000000E+00  0.45593999997E+02  0.45594000000E+02  0.51100000000E-03 0. -1.
         11   -1    0    0    0    0 -0.00000000000E+00 -0.00000000000E+00 -0.45593999997E+02  0.45594000000E+02  0.51100000000E-03 0.  1.
    9900012    2    1    2    0    0  0.36489097632E+02 -0.17768691922E+02 -0.24465219567E+01  0.50528854309E+02  0.29999983158E+02 0.  0.
         12    1    1    2    0    0 -0.36489097632E+02  0.17768691922E+02  0.24465219567E+01  0.40659145691E+02  0.00000000000E+00 0. -1.
         11    1    3    3    0    0  0.25232825032E+01 -0.10110485631E+02  0.29675553428E+00  0.10424823183E+02  0.51100000000E-03 0. -1.
        -11    1    3    3    0    0  0.34910552394E+02 -0.31814794950E+01 -0.62166194889E+00  0.35060732224E+02  0.51100000000E-03 0.  1.
         12    1    3    3    0    0 -0.94473726549E+00 -0.44767267962E+01 -0.21216155421E+01  0.50432989022E+01  0.00000000000E+00 0. -1.
</event>
<event>
 7    1  0.6624035E-013  0.5052884E+02  0.7816164E-02  0.1300439E+00
        -11   -1    0    0    0    0  0.00000000000E+00  0.00000000000E+00  0.45593999997E+02  0.45594000000E+02  0.51100000000E-03 0.  1.
         11   -1    0    0    0    0 -0.00000000000E+00 -0.00000000000E+00 -0.45593999997E+02  0.45594000000E+02  0.51100000000E-03 0. -1.
    9900012    2    1    2    0    0  0.66208568139E+01 -0.36967438026E+02  0.15580127255E+02  0.50528836403E+02  0.29999928730E+02 0.  0.
         12    1    1    2    0    0 -0.66208568139E+01  0.36967438026E+02 -0.15580127255E+02  0.40659163597E+02  0.00000000000E+00 0. -1.
         11    1    3    3    0    0  0.35443719755E+01 -0.74281728215E+01  0.19261188289E+01  0.84528254549E+01  0.51100000000E-03 0. -1.
        -11    1    3    3    0    0  0.72664405774E+01 -0.11562816349E+02 -0.61730595080E+01  0.14986879079E+02  0.51100000000E-03 0.  1.
        -12    1    3    3    0    0 -0.41899557391E+01 -0.17976448856E+02  0.19827067934E+02  0.27089131869E+02  0.00000000000E+00 0.  1.
</event>
<event>
 7    1  0.6624035E-013  0.5052885E+02  0.7816164E-02  0.1300439E+00
        -11   -1    0    0    0    0  0.00000000000E+00  0.00000000000E+00  0.45593999997E+02  0.45594000000E+02  0.51100000000E-03 0.  1.
         11   -1    0    0    0    0 -0.00000000000E+00 -0.00000000000E+00 -0.45593999997E+02  0.45594000000E+02  0.51100000000E-03 0. -1.
    9900012    2    1    2    0    0 -0.32234026536E+02 -0.27560388275E+01  0.24628000098E+02  0.50528848440E+02  0.29999965319E+02 0.  0.
         12    1    1    2    0    0  0.32234026536E+02  0.27560388275E+01 -0.24628000098E+02  0.40659151560E+02  0.00000000000E+00 0. -1.
         11    1    3    3    0    0 -0.41381862171E+01 -0.56320216840E+01  0.19469961039E+01  0.72550015510E+01  0.51100000000E-03 0. -1.
        -11    1    3    3    0    0 -0.16592370206E+01 -0.35415412399E+01 -0.36963530365E+01  0.53813202725E+01  0.51100000000E-03 0.  1.
        -12    1    3    3    0    0 -0.26436603298E+02  0.64175240963E+01  0.26377357031E+02  0.37892526617E+02  0.00000000000E+00 0.  1.
</event>
<event>
 7    1  0.6624035E-013  0.5052884E+02  0.7816164E-02  0.1300439E+00
        -11   -1    0    0    0    0  0.00000000000E+00  0.00000000000E+00  0.45593999997E+02  0.45594000000E+02  0.51100000000E-03 0.  1.
         11   -1    0    0    0    0 -0.00000000000E+00 -0.00000000000E+00 -0.45593999997E+02  0.45594000000E+02  0.51100000000E-03 0. -1.
    9900012    2    1    2    0    0 -0.95900048770E+01 -0.22805968004E+02  0.32265876445E+02  0.50528841710E+02  0.29999944860E+02 0.  0.
         12    1    1    2    0    0  0.95900048770E+01  0.22805968004E+02 -0.32265876445E+02  0.40659158290E+02  0.00000000000E+00 0. -1.
         11    1    3    3    0    0 -0.23503881412E+01 -0.16614312598E+02  0.51772417960E+01  0.17560283039E+02  0.51100000000E-03 0. -1.
        -11    1    3    3    0    0 -0.69267547705E+01 -0.59675336052E+01  0.41737657528E+01  0.10050458189E+02  0.51100000000E-03 0.  1.
         12    1    3    3    0    0 -0.31286196529E+00 -0.22412180037E+00  0.22914868896E+02  0.22918100482E+02  0.00000000000E+00 0. -1.
</event>
<event>
 7    1  0.6624035E-013  0.5052886E+02  0.7816164E-02  0.1300439E+00
        -11   -1    0    0    0    0  0.00000000000E+00  0.00000000000E+00  0.45593999997E+02  0.45594000000E+02  0.51100000000E-03 0. -1.
         11   -1    0    0    0    0 -0.00000000000E+00 -0.00000000000E+00 -0.45593999997E+02  0.45594000000E+02  0.51100000000E-03 0.  1.
    9900012    2    1    2    0    0  0.39033426880E+02  0.10764959489E+02  0.36976572322E+01  0.50528862825E+02  0.30000009043E+02 0.  0.
         12    1    1    2    0    0 -0.39033426880E+02 -0.10764959489E+02 -0.36976572322E+01  0.40659137175E+02  0.00000000000E+00 0. -1.
         11    1    3    3    0    0  0.10007579687E+02 -0.69297385346E+01  0.28767532978E+01  0.12507942962E+02  0.51100000000E-03 0. -1.
        -11    1    3    3    0    0  0.21039876654E+01  0.96993637917E+01  0.10108105369E-02  0.99249394630E+01  0.51100000000E-03 0.  1.
        -12    1    3    3    0    0  0.26921859527E+02  0.79953342322E+01  0.81989312383E+00  0.28095980400E+02  0.00000000000E+00 0.  1.
</event>
<event>
 7    1  0.6624035E-013  0.5052886E+02  0.7816164E-02  0.1300439E+00
        -11   -1    0    0    0    0  0.00000000000E+00  0.00000000000E+00  0.45593999997E+02  0.45594000000E+02  0.51100000000E-03 0. -1.
         11   -1    0    0    0    0 -0.00000000000E+00 -0.00000000000E+00 -0.45593999997E+02  0.45594000000E+02  0.51100000000E-03 0.  1.
    9900012    2    1    2    0    0 -0.73886648734E+01  0.39936433288E+02 -0.19117731949E+01  0.50528856512E+02  0.29999989855E+02 0.  0.
         12    1    1    2    0    0  0.73886648734E+01 -0.39936433288E+02  0.19117731949E+01  0.40659143488E+02  0.00000000000E+00 0. -1.
         11    1    3    3    0    0 -0.42119886183E+01  0.31193480853E+02  0.37196879408E+01  0.31695586041E+02  0.51100000000E-03 0. -1.
        -11    1    3    3    0    0 -0.63891082012E+01  0.92503915202E+01 -0.88119926193E+01  0.14284315212E+02  0.51100000000E-03 0.  1.
         12    1    3    3    0    0  0.32124319460E+01 -0.50743908543E+00  0.31805314836E+01  0.45489552593E+01  0.00000000000E+00 0. -1.
</event>
<event>
 7    1  0.6624035E-013  0.5052886E+02  0.7816164E-02  0.1300439E+00
        -11   -1    0    0    0    0  0.00000000000E+00  0.00000000000E+00  0.45593999997E+02  0.45594000000E+02  0.51100000000E-03 0. -1.
         11   -1    0    0    0    0 -0.00000000000E+00 -0.00000000000E+00 -0.45593999997E+02  0.45594000000E+02  0.51100000000E-03 0.  1.
    9900012    2    1    2    0    0  0.89704090596E+01 -0.24349291812E+02 -0.31301908139E+02  0.50528859533E+02  0.29999999035E+02 0.  0.
         12    1    1    2    0    0 -0.89704090596E+01  0.24349291812E+02  0.31301908139E+02  0.40659140467E+02  0.00000000000E+00 0. -1.
         11    1    3    3    0    0 -0.36325050913E+01 -0.13661554578E+02 -0.38679460635E+01  0.14655858000E+02  0.51100000000E-03 0. -1.
        -11    1    3    3    0    0 -0.25411432866E+01  0.11573641097E+01 -0.58972767875E+00  0.28538885545E+01  0.51100000000E-03 0.  1.
        -12    1    3    3    0    0  0.15144057438E+02 -0.11845101344E+02 -0.26844234396E+02  0.33019112978E+02  0.00000000000E+00 0.  1.
</event>
<event>
 7    1  0.6624035E-013  0.5052886E+02  0.7816164E-02  0.1300439E+00
        -11   -1    0    0    0    0  0.00000000000E+00  0.00000000000E+00  0.45593999997E+02  0.45594000000E+02  0.51100000000E-03 0. -1.
         11   -1    0    0    0    0 -0.00000000000E+00 -0.00000000000E+00 -0.45593999997E+02  0.45594000000E+02  0.51100000000E-03 0.  1.
    9900012    2    1    2    0    0 -0.16694229279E+02  0.28945600264E+02 -0.23165076193E+02  0.50528858089E+02  0.29999994648E+02 0.  0.
         12    1    1    2    0    0  0.16694229279E+02 -0.28945600264E+02  0.23165076193E+02  0.40659141911E+02  0.00000000000E+00 0. -1.
         11    1    3    3    0    0 -0.42473478659E+01  0.61599634540E+01  0.37855848701E+00  0.74918903114E+01  0.51100000000E-03 0. -1.
        -11    1    3    3    0    0 -0.11490244363E+02  0.22860242738E+02 -0.70821843447E+01  0.26547575198E+02  0.51100000000E-03 0.  1.
         12    1    3    3    0    0 -0.95663705056E+00 -0.74605928124E-01 -0.16461450336E+02  0.16489392579E+02  0.00000000000E+00 0. -1.
</event>
<event>
 7    1  0.6624035E-013  0.5052885E+02  0.7816164E-02  0.1300439E+00
        -11   -1    0    0    0    0  0.00000000000E+00  0.00000000000E+00  0.45593999997E+02  0.45594000000E+02  0.51100000000E-03 0.  1.
         11   -1    0    0    0    0 -0.00000000000E+00 -0.00000000000E+00 -0.45593999997E+02  0.45594000000E+02  0.51100000000E-03 0. -1.
    9900012    2    1    2    0    0  0.26635033681E+02  0.28093258587E+02  0.12430228302E+02  0.50528846383E+02  0.29999959065E+02 0.  0.
         12    1    1    2    0    0 -0.26635033681E+02 -0.28093258587E+02 -0.12430228302E+02  0.40659153617E+02  0.00000000000E+00 0. -1.
         11    1    3    3    0    0 -0.23594469859E+00  0.66680368657E+01 -0.21672179264E+01  0.70153559670E+01  0.51100000000E-03 0. -1.
        -11    1    3    3    0    0  0.68521427662E+01  0.17316540364E+02  0.39552041613E+00  0.18627154032E+02  0.51100000000E-03 0.  1.
        -12    1    3    3    0    0  0.20018835614E+02  0.41086813570E+01  0.14201925812E+02  0.24886336384E+02  0.00000000000E+00 0.  1.
</event>
<event>
 7    1  0.6624035E-013  0.5052887E+02  0.7816164E-02  0.1300439E+00
        -11   -1    0    0    0    0  0.00000000000E+00  0.00000000000E+00  0.45593999997E+02  0.45594000000E+02  0.51100000000E-03 0. -1.
         11   -1    0    0    0    0 -0.00000000000E+00 -0.00000000000E+00 -0.45593999997E+02  0.45594000000E+02  0.51100000000E-03 0.  1.
    9900012    2    1    2    0    0  0.10533129646E+02 -0.37357976272E+02 -0.12107833828E+02  0.50528870013E+02  0.30000030891E+02 0.  0.
         12    1    1    2    0    0 -0.10533129646E+02  0.37357976272E+02  0.12107833828E+02  0.40659129987E+02  0.00000000000E+00 0. -1.
         11    1    3    3    0    0 -0.68355190657E+01 -0.42041826486E+01 -0.26872087409E+01  0.84628933420E+01  0.51100000000E-03 0. -1.
        -11    1    3    3    0    0  0.15052142905E+01 -0.11006059105E+01  0.35603967935E+01  0.40191328690E+01  0.51100000000E-03 0.  1.
        -12    1    3    3    0    0  0.15863434421E+02 -0.32053187713E+02 -0.12981021881E+02  0.38046843802E+02  0.00000000000E+00 0.  1.
</event>
<event>
 7    1  0.6624035E-013  0.5052887E+02  0.7816164E-02  0.1300439E+00
        -11   -1    0    0    0    0  0.00000000000E+00  0.00000000000E+00  0.45593999997E+02  0.45594000000E+02  0.51100000000E-03 0.  1.
         11   -1    0    0    0    0 -0.00000000000E+00 -0.00000000000E+00 -0.45593999997E+02  0.45594000000E+02  0.51100000000E-03 0. -1.
    9900012    2    1    2    0    0 -0.23100774737E+02 -0.15974619728E+02  0.29399504021E+02  0.50528866886E+02  0.30000021388E+02 0.  0.
         12    1    1    2    0    0  0.23100774737E+02  0.15974619728E+02 -0.29399504021E+02  0.40659133114E+02  0.00000000000E+00 0. -1.
         11    1    3    3    0    0 -0.59568934860E+01 -0.16680680056E+02  0.37332856546E+01  0.18101576980E+02  0.51100000000E-03 0. -1.
        -11    1    3    3    0    0 -0.18161978326E+00  0.35880345375E+00  0.77220386388E+01  0.77325032599E+01  0.51100000000E-03 0.  1.
        -12    1    3    3    0    0 -0.16962261467E+02  0.34725687414E+00  0.17944179727E+02  0.24694786646E+02  0.00000000000E+00 0.  1.
</event>
<event>
 7    1  0.6624035E-013  0.5052884E+02  0.7816164E-02  0.1300439E+00
        -11   -1    0    0    0    0  0.00000000000E+00  0.00000000000E+00  0.45593999997E+02  0.45594000000E+02  0.51100000000E-03 0.  1.
         11   -1    0    0    0    0 -0.00000000000E+00 -0.00000000000E+00 -0.45593999997E+02  0.45594000000E+02  0.51100000000E-03 0. -1.
    9900012    2    1    2    0    0 -0.21603408991E+02  0.34021990114E+02  0.53818155665E+01  0.50528843219E+02  0.29999949448E+02 0.  0.
         12    1    1    2    0    0  0.21603408991E+02 -0.34021990114E+02 -0.53818155665E+01  0.40659156781E+02  0.00000000000E+00 0. -1.
         11    1    3    3    0    0 -0.19416365530E+02  0.11255129792E+02  0.93498149062E+01  0.24312388530E+02  0.51100000000E-03 0. -1.
        -11    1    3    3    0    0 -0.64433693742E+01  0.67090605076E+01 -0.14447591166E+01  0.94135981937E+01  0.51100000000E-03 0.  1.
        -12    1    3    3    0    0  0.42563259128E+01  0.16057799815E+02 -0.25232402231E+01  0.16802856495E+02  0.00000000000E+00 0.  1.
</event>
<event>
 7    1  0.6624035E-013  0.5052885E+02  0.7816164E-02  0.1300439E+00
        -11   -1    0    0    0    0  0.00000000000E+00  0.00000000000E+00  0.45593999997E+02  0.45594000000E+02  0.51100000000E-03 0.  1.
         11   -1    0    0    0    0 -0.00000000000E+00 -0.00000000000E+00 -0.45593999997E+02  0.45594000000E+02  0.51100000000E-03 0. -1.
    9900012    2    1    2    0    0 -0.30833053763E+01  0.28828504534E+01  0.40439448796E+02  0.50528848291E+02  0.29999964864E+02 0.  0.
         12    1    1    2    0    0  0.30833053763E+01 -0.28828504534E+01 -0.40439448796E+02  0.40659151709E+02  0.00000000000E+00 0. -1.
         11    1    3    3    0    0 -0.34306342516E+01 -0.62130758364E+01  0.79480520361E+01  0.10655660193E+02  0.51100000000E-03 0. -1.
        -11    1    3    3    0    0 -0.29344428476E+01 -0.47147046803E+01  0.20661602961E+02  0.21394887993E+02  0.51100000000E-03 0.  1.
         12    1    3    3    0    0  0.32817717228E+01  0.13810630970E+02  0.11829793800E+02  0.18478300105E+02  0.00000000000E+00 0. -1.
</event>
<event>
 7    1  0.6624035E-013  0.5052885E+02  0.7816164E-02  0.1300439E+00
        -11   -1    0    0    0    0  0.00000000000E+00  0.00000000000E+00  0.45593999997E+02  0.45594000000E+02  0.51100000000E-03 0. -1.
         11   -1    0    0    0    0 -0.00000000000E+00 -0.00000000000E+00 -0.45593999997E+02  0.45594000000E+02  0.51100000000E-03 0.  1.
    9900012    2    1    2    0    0 -0.38796720801E+01  0.39868925345E+02  0.69701789525E+01  0.50528850251E+02  0.29999970824E+02 0.  0.
         12    1    1    2    0    0  0.38796720801E+01 -0.39868925345E+02 -0.69701789525E+01  0.40659149749E+02  0.00000000000E+00 0. -1.
         11    1    3    3    0    0  0.97758093564E+00  0.98441113129E+00 -0.22070545445E+01  0.26068793192E+01  0.51100000000E-03 0. -1.
        -11    1    3    3    0    0  0.18594783765E+00  0.15301892861E+02 -0.89724632888E+01  0.17739436278E+02  0.51100000000E-03 0.  1.
         12    1    3    3    0    0 -0.50432008534E+01  0.23582621354E+02  0.18149696786E+02  0.30182534655E+02  0.00000000000E+00 0. -1.
</event>
<event>
 7    1  0.6971085E-013  0.5052887E+02  0.7816164E-02  0.1300439E+00
        -11   -1    0    0    0    0  0.00000000000E+00  0.00000000000E+00  0.45593999997E+02  0.45594000000E+02  0.51100000000E-03 0. -1.
         11   -1    0    0    0    0 -0.00000000000E+00 -0.00000000000E+00 -0.45593999997E+02  0.45594000000E+02  0.51100000000E-03 0.  1.
    9900012    2    1    2    0    0  0.12382575415E+02 -0.34709077967E+02 -0.17178958133E+02  0.50528869786E+02  0.30000030201E+02 0.  0.
         12    1    1    2    0    0 -0.12382575415E+02  0.34709077967E+02  0.17178958133E+02  0.40659130214E+02  0.00000000000E+00 0. -1.
         11    1    3    3    0    0  0.62654128909E+01 -0.19290962602E+02 -0.69909200060E+01  0.21453894742E+02  0.51100000000E-03 0. -1.
        -11    1    3    3    0    0  0.33153442878E+01 -0.19745005768E+02 -0.12307179905E+02  0.23501562458E+02  0.51100000000E-03 0.  1.
         12    1    3    3    0    0  0.28018182359E+01  0.43268904022E+01  0.21191417772E+01  0.55734125858E+01  0.00000000000E+00 0. -1.
</event>
<event>
 7    1  0.6624035E-013  0.5052885E+02  0.7816164E-02  0.1300439E+00
        -11   -1    0    0    0    0  0.00000000000E+00  0.00000000000E+00  0.45593999997E+02  0.45594000000E+02  0.51100000000E-03 0.  1.
         11   -1    0    0    0    0 -0.00000000000E+00 -0.00000000000E+00 -0.45593999997E+02  0.45594000000E+02  0.51100000000E-03 0. -1.
    9900012    2    1    2    0    0 -0.22505999247E+02  0.27217578843E+02  0.20145709627E+02  0.50528853224E+02  0.29999979861E+02 0.  0.
         12    1    1    2    0    0  0.22505999247E+02 -0.27217578843E+02 -0.20145709627E+02  0.40659146776E+02  0.00000000000E+00 0. -1.
         11    1    3    3    0    0 -0.45976899000E+01  0.92463020820E+01 -0.34632497425E+00  0.10332124460E+02  0.51100000000E-03 0. -1.
        -11    1    3    3    0    0 -0.54283179367E+01  0.11717722494E+02 -0.26381838797E+01  0.13180731031E+02  0.51100000000E-03 0.  1.
         12    1    3    3    0    0 -0.12479991410E+02  0.62535542668E+01  0.23130218481E+02  0.27015997733E+02  0.00000000000E+00 0. -1.
</event>
<event>
 7    1  0.6624035E-013  0.5052886E+02  0.7816164E-02  0.1300439E+00
        -11   -1    0    0    0    0  0.00000000000E+00  0.00000000000E+00  0.45593999997E+02  0.45594000000E+02  0.51100000000E-03 0. -1.
         11   -1    0    0    0    0 -0.00000000000E+00 -0.00000000000E+00 -0.45593999997E+02  0.45594000000E+02  0.51100000000E-03 0.  1.
    9900012    2    1    2    0    0 -0.28876739080E+02 -0.22887381628E+02 -0.17189157732E+02  0.50528862759E+02  0.30000008843E+02 0.  0.
         12    1    1    2    0    0  0.28876739080E+02  0.22887381628E+02  0.17189157732E+02  0.40659137241E+02  0.00000000000E+00 0. -1.
         11    1    3    3    0    0  0.78815431455E+00 -0.28649308232E+01  0.20354249893E+01  0.36016622542E+01  0.51100000000E-03 0.  1.
        -11    1    3    3    0    0  0.25933584284E+01 -0.69144651047E+01 -0.65541260750E+01  0.98737988885E+01  0.51100000000E-03 0. -1.
        -12    1    3    3    0    0 -0.32258251822E+02 -0.13107985700E+02 -0.12670456646E+02  0.37053401617E+02  0.00000000000E+00 0.  1.
</event>
<event>
 7    1  0.6624035E-013  0.5052889E+02  0.7816164E-02  0.1300439E+00
        -11   -1    0    0    0    0  0.00000000000E+00  0.00000000000E+00  0.45593999997E+02  0.45594000000E+02  0.51100000000E-03 0. -1.
         11   -1    0    0    0    0 -0.00000000000E+00 -0.00000000000E+00 -0.45593999997E+02  0.45594000000E+02  0.51100000000E-03 0.  1.
    9900012    2    1    2    0    0  0.17433095620E+02 -0.10535444376E+02 -0.35188847954E+02  0.50528887474E+02  0.30000083965E+02 0.  0.
         12    1    1    2    0    0 -0.17433095620E+02  0.10535444376E+02  0.35188847954E+02  0.40659112526E+02  0.00000000000E+00 0. -1.
         11    1    3    3    0    0  0.36198593833E+01  0.39115449917E+00 -0.47847597489E+01  0.60125127786E+01  0.51100000000E-03 0. -1.
        -11    1    3    3    0    0  0.84626616866E+00 -0.93073360222E+01 -0.30022100537E+02  0.31443110393E+02  0.51100000000E-03 0.  1.
        -12    1    3    3    0    0  0.12966970068E+02 -0.16192628533E+01 -0.38198766769E+00  0.13073264302E+02  0.00000000000E+00 0.  1.
</event>
<event>
 7    1  0.6624035E-013  0.5052885E+02  0.7816164E-02  0.1300439E+00
        -11   -1    0    0    0    0  0.00000000000E+00  0.00000000000E+00  0.45593999997E+02  0.45594000000E+02  0.51100000000E-03 0. -1.
         11   -1    0    0    0    0 -0.00000000000E+00 -0.00000000000E+00 -0.45593999997E+02  0.45594000000E+02  0.51100000000E-03 0.  1.
    9900012    2    1    2    0    0  0.40282048511E+02  0.18950924301E+01 -0.51895781117E+01  0.50528849388E+02  0.29999968198E+02 0.  0.
         12    1    1    2    0    0 -0.40282048511E+02 -0.18950924301E+01  0.51895781117E+01  0.40659150612E+02  0.00000000000E+00 0. -1.
         11    1    3    3    0    0  0.24266060512E+02  0.25347959139E+01 -0.12407973680E+02  0.27371969133E+02  0.51100000000E-03 0. -1.
        -11    1    3    3    0    0  0.54547894859E+01  0.54147544144E+01 -0.19352086233E+01  0.79258643933E+01  0.51100000000E-03 0.  1.
         12    1    3    3    0    0  0.10561198513E+02 -0.60544578982E+01  0.91536041919E+01  0.15231015862E+02  0.00000000000E+00 0. -1.
</event>
<event>
 7    1  0.6624035E-013  0.5052886E+02  0.7816164E-02  0.1300439E+00
        -11   -1    0    0    0    0  0.00000000000E+00  0.00000000000E+00  0.45593999997E+02  0.45594000000E+02  0.51100000000E-03 0. -1.
         11   -1    0    0    0    0 -0.00000000000E+00 -0.00000000000E+00 -0.45593999997E+02  0.45594000000E+02  0.51100000000E-03 0.  1.
    9900012    2    1    2    0    0  0.81014970238E+01 -0.37449097657E+02 -0.13605005877E+02  0.50528863827E+02  0.30000012090E+02 0.  0.
         12    1    1    2    0    0 -0.81014970238E+01  0.37449097657E+02  0.13605005877E+02  0.40659136173E+02  0.00000000000E+00 0. -1.
         11    1    3    3    0    0 -0.59202398736E+01 -0.67999845100E+01  0.40419334009E+01  0.98805999502E+01  0.51100000000E-03 0. -1.
        -11    1    3    3    0    0  0.40245717327E+01 -0.67901472270E+01  0.20255866649E+01  0.81490047610E+01  0.51100000000E-03 0.  1.
        -12    1    3    3    0    0  0.99971651647E+01 -0.23858965920E+02 -0.19672525943E+02  0.32499259116E+02  0.00000000000E+00 0.  1.
</event>
<event>
 7    1  0.6624035E-013  0.5052886E+02  0.7816164E-02  0.1300439E+00
        -11   -1    0    0    0    0  0.00000000000E+00  0.00000000000E+00  0.45593999997E+02  0.45594000000E+02  0.51100000000E-03 0. -1.
         11   -1    0    0    0    0 -0.00000000000E+00 -0.00000000000E+00 -0.45593999997E+02  0.45594000000E+02  0.51100000000E-03 0.  1.
    9900012    2    1    2    0    0  0.13881763343E+02 -0.26793899369E+02 -0.27249754791E+02  0.50528861629E+02  0.30000005407E+02 0.  0.
         12    1    1    2    0    0 -0.13881763343E+02  0.26793899369E+02  0.27249754791E+02  0.40659138371E+02  0.00000000000E+00 0. -1.
         11    1    3    3    0    0  0.27261045731E+01 -0.12313944221E+02 -0.96895939725E+01  0.15904499364E+02  0.51100000000E-03 0.  1.
        -11    1    3    3    0    0 -0.15720138815E+01 -0.12915859376E+02 -0.16345194980E+00  0.13012200731E+02  0.51100000000E-03 0. -1.
        -12    1    3    3    0    0  0.12727672651E+02 -0.15640957728E+01 -0.17396708869E+02  0.21612161534E+02  0.00000000000E+00 0.  1.
</event>
<event>
 7    1  0.6624035E-013  0.5052887E+02  0.7816164E-02  0.1300439E+00
        -11   -1    0    0    0    0  0.00000000000E+00  0.00000000000E+00  0.45593999997E+02  0.45594000000E+02  0.51100000000E-03 0.  1.
         11   -1    0    0    0    0 -0.00000000000E+00 -0.00000000000E+00 -0.45593999997E+02  0.45594000000E+02  0.51100000000E-03 0. -1.
    9900012    2    1    2    0    0  0.23088676801E+02 -0.33383241648E+02  0.23742962768E+01  0.50528866928E+02  0.30000021514E+02 0.  0.
         12    1    1    2    0    0 -0.23088676801E+02  0.33383241648E+02 -0.23742962768E+01  0.40659133072E+02  0.00000000000E+00 0. -1.
         11    1    3    3    0    0  0.16340520809E+02 -0.24342989068E+02 -0.28884461641E+01  0.29460768126E+02  0.51100000000E-03 0. -1.
        -11    1    3    3    0    0  0.44365685334E+01 -0.61531441555E+01 -0.57062285507E+01  0.94923847311E+01  0.51100000000E-03 0.  1.
        -12    1    3    3    0    0  0.23115874582E+01 -0.28871084252E+01  0.10968970992E+02  0.11575714071E+02  0.00000000000E+00 0.  1.
</event>
<event>
 7    1  0.6624035E-013  0.5052886E+02  0.7816164E-02  0.1300439E+00
        -11   -1    0    0    0    0  0.00000000000E+00  0.00000000000E+00  0.45593999997E+02  0.45594000000E+02  0.51100000000E-03 0.  1.
         11   -1    0    0    0    0 -0.00000000000E+00 -0.00000000000E+00 -0.45593999997E+02  0.45594000000E+02  0.51100000000E-03 0. -1.
    9900012    2    1    2    0    0 -0.11471392701E+02 -0.36408580526E+02 -0.13999562397E+02  0.50528864080E+02  0.30000012858E+02 0.  0.
         12    1    1    2    0    0  0.11471392701E+02  0.36408580526E+02  0.13999562397E+02  0.40659135920E+02  0.00000000000E+00 0. -1.
         11    1    3    3    0    0 -0.97378478079E+00  0.87211774801E+00 -0.47195108801E+01  0.48972062826E+01  0.51100000000E-03 0. -1.
        -11    1    3    3    0    0 -0.84557789852E+01 -0.22709631890E+02 -0.16425449016E+02  0.29274954389E+02  0.51100000000E-03 0.  1.
        -12    1    3    3    0    0 -0.20418289355E+01 -0.14571066385E+02  0.71453974993E+01  0.16356703409E+02  0.00000000000E+00 0.  1.
</event>
<event>
 7    1  0.6624035E-013  0.5052886E+02  0.7816164E-02  0.1300439E+00
        -11   -1    0    0    0    0  0.00000000000E+00  0.00000000000E+00  0.45593999997E+02  0.45594000000E+02  0.51100000000E-03 0. -1.
         11   -1    0    0    0    0 -0.00000000000E+00 -0.00000000000E+00 -0.45593999997E+02  0.45594000000E+02  0.51100000000E-03 0.  1.
    9900012    2    1    2    0    0  0.16253583634E+02  0.35496109238E+02 -0.11358394347E+02  0.50528857435E+02  0.29999992658E+02 0.  0.
         12    1    1    2    0    0 -0.16253583634E+02 -0.35496109238E+02  0.11358394347E+02  0.40659142565E+02  0.00000000000E+00 0. -1.
         11    1    3    3    0    0  0.51498121521E+01  0.28614054543E+02 -0.16134759678E+02  0.33250791761E+02  0.51100000000E-03 0. -1.
        -11    1    3    3    0    0  0.25043793942E+01 -0.27246888053E+01  0.13238312369E+01  0.39304420413E+01  0.51100000000E-03 0.  1.
        -12    1    3    3    0    0  0.85993920879E+01  0.96067435002E+01  0.34525340939E+01  0.13347623632E+02  0.00000000000E+00 0.  1.
</event>
<event>
 7    1  0.6624035E-013  0.5052885E+02  0.7816164E-02  0.1300439E+00
        -11   -1    0    0    0    0  0.00000000000E+00  0.00000000000E+00  0.45593999997E+02  0.45594000000E+02  0.51100000000E-03 0. -1.
         11   -1    0    0    0    0 -0.00000000000E+00 -0.00000000000E+00 -0.45593999997E+02  0.45594000000E+02  0.51100000000E-03 0.  1.
    9900012    2    1    2    0    0  0.30867880708E+02 -0.21974884208E+02  0.14746012453E+02  0.50528850001E+02  0.29999970062E+02 0.  0.
         12    1    1    2    0    0 -0.30867880708E+02  0.21974884208E+02 -0.14746012453E+02  0.40659149999E+02  0.00000000000E+00 0. -1.
         11    1    3    3    0    0  0.16627189804E+02 -0.14882232967E+01  0.10880796982E+02  0.19926615181E+02  0.51100000000E-03 0. -1.
        -11    1    3    3    0    0  0.13668336036E+02 -0.86236968849E+01 -0.36221566801E+01  0.16562354218E+02  0.51100000000E-03 0.  1.
        -12    1    3    3    0    0  0.57235486884E+00 -0.11862964027E+02  0.74873721507E+01  0.14039880602E+02  0.00000000000E+00 0.  1.
</event>
<event>
 7    1  0.6624035E-013  0.5052885E+02  0.7816164E-02  0.1300439E+00
        -11   -1    0    0    0    0  0.00000000000E+00  0.00000000000E+00  0.45593999997E+02  0.45594000000E+02  0.51100000000E-03 0.  1.
         11   -1    0    0    0    0 -0.00000000000E+00 -0.00000000000E+00 -0.45593999997E+02  0.45594000000E+02  0.51100000000E-03 0. -1.
    9900012    2    1    2    0    0  0.27419641922E+02  0.29992250134E+02  0.13397097324E+01  0.50528847851E+02  0.29999963529E+02 0.  0.
         12    1    1    2    0    0 -0.27419641922E+02 -0.29992250134E+02 -0.13397097324E+01  0.40659152149E+02  0.00000000000E+00 0. -1.
         11    1    3    3    0    0  0.20729483569E+02  0.26878868655E+02  0.11319578637E+02  0.35781530571E+02  0.51100000000E-03 0.  1.
        -11    1    3    3    0    0  0.82025338420E+01  0.11913306951E+01 -0.67111897968E+01  0.10664937834E+02  0.51100000000E-03 0. -1.
        -12    1    3    3    0    0 -0.15123754883E+01  0.19220507842E+01 -0.32686791081E+01  0.40823794467E+01  0.00000000000E+00 0.  1.
</event>
<event>
 7    1  0.6624035E-013  0.5052886E+02  0.7816164E-02  0.1300439E+00
        -11   -1    0    0    0    0  0.00000000000E+00  0.00000000000E+00  0.45593999997E+02  0.45594000000E+02  0.51100000000E-03 0.  1.
         11   -1    0    0    0    0 -0.00000000000E+00 -0.00000000000E+00 -0.45593999997E+02  0.45594000000E+02  0.51100000000E-03 0. -1.
    9900012    2    1    2    0    0  0.18287619961E+01  0.29750341766E+02  0.27653904907E+02  0.50528860040E+02  0.30000000578E+02 0.  0.
         12    1    1    2    0    0 -0.18287619961E+01 -0.29750341766E+02 -0.27653904907E+02  0.40659139960E+02  0.00000000000E+00 0. -1.
         11    1    3    3    0    0  0.38473416563E+01 -0.26164298488E+01  0.27821903653E+01  0.54211001157E+01  0.51100000000E-03 0. -1.
        -11    1    3    3    0    0  0.28888618881E-01 -0.20398601749E+01 -0.73591827685E+00  0.21687415836E+01  0.51100000000E-03 0.  1.
        -12    1    3    3    0    0 -0.20474682791E+01  0.34406631790E+02  0.25607632819E+02  0.42939018341E+02  0.00000000000E+00 0.  1.
</event>
<event>
 7    1  0.6624035E-013  0.5052887E+02  0.7816164E-02  0.1300439E+00
        -11   -1    0    0    0    0  0.00000000000E+00  0.00000000000E+00  0.45593999997E+02  0.45594000000E+02  0.51100000000E-03 0.  1.
         11   -1    0    0    0    0 -0.00000000000E+00 -0.00000000000E+00 -0.45593999997E+02  0.45594000000E+02  0.51100000000E-03 0. -1.
    9900012    2    1    2    0    0 -0.41150472171E+01 -0.27422197604E+02  0.29736419404E+02  0.50528866045E+02  0.30000018829E+02 0.  0.
         12    1    1    2    0    0  0.41150472171E+01  0.27422197604E+02 -0.29736419404E+02  0.40659133955E+02  0.00000000000E+00 0. -1.
         11    1    3    3    0    0 -0.51652722176E+01 -0.59015087538E+01  0.29068333359E+01  0.83640613912E+01  0.51100000000E-03 0. -1.
        -11    1    3    3    0    0 -0.68532998265E+01 -0.18442567091E+02  0.74992652175E+01  0.21055521330E+02  0.51100000000E-03 0.  1.
        -12    1    3    3    0    0  0.79035248269E+01 -0.30781217596E+01  0.19330320851E+02  0.21109283324E+02  0.00000000000E+00 0.  1.
</event>
<event>
 7    1  0.6624035E-013  0.5052881E+02  0.7816164E-02  0.1300439E+00
        -11   -1    0    0    0    0  0.00000000000E+00  0.00000000000E+00  0.45593999997E+02  0.45594000000E+02  0.51100000000E-03 0. -1.
         11   -1    0    0    0    0 -0.00000000000E+00 -0.00000000000E+00 -0.45593999997E+02  0.45594000000E+02  0.51100000000E-03 0.  1.
    9900012    2    1    2    0    0  0.31935699307E+02 -0.94202411245E+01 -0.23335370802E+02  0.50528814524E+02  0.29999862228E+02 0.  0.
         12    1    1    2    0    0 -0.31935699307E+02  0.94202411245E+01  0.23335370802E+02  0.40659185476E+02  0.00000000000E+00 0. -1.
         11    1    3    3    0    0  0.11719168416E+02 -0.12954442665E+01 -0.74931025485E+00  0.11814336643E+02  0.51100000000E-03 0. -1.
        -11    1    3    3    0    0  0.15288970909E+02 -0.11533824885E+02 -0.45158463323E+01  0.19676753195E+02  0.51100000000E-03 0.  1.
        -12    1    3    3    0    0  0.49275599823E+01  0.34090280266E+01 -0.18070214215E+02  0.19037724686E+02  0.00000000000E+00 0.  1.
</event>
<event>
 7    1  0.6624035E-013  0.5052885E+02  0.7816164E-02  0.1300439E+00
        -11   -1    0    0    0    0  0.00000000000E+00  0.00000000000E+00  0.45593999997E+02  0.45594000000E+02  0.51100000000E-03 0.  1.
         11   -1    0    0    0    0 -0.00000000000E+00 -0.00000000000E+00 -0.45593999997E+02  0.45594000000E+02  0.51100000000E-03 0. -1.
    9900012    2    1    2    0    0 -0.55577139155E+01 -0.28468524810E+02  0.28492474227E+02  0.50528853718E+02  0.29999981362E+02 0.  0.
         12    1    1    2    0    0  0.55577139155E+01  0.28468524810E+02 -0.28492474227E+02  0.40659146282E+02  0.00000000000E+00 0. -1.
         11    1    3    3    0    0 -0.10145701748E+01 -0.56753311382E+01 -0.14645948992E+01  0.59484262328E+01  0.51100000000E-03 0. -1.
        -11    1    3    3    0    0  0.19374773991E+01 -0.18230047419E+02  0.59115013544E+01  0.19262250546E+02  0.51100000000E-03 0.  1.
         12    1    3    3    0    0 -0.64806211398E+01 -0.45631462523E+01  0.24045567772E+02  0.25318176939E+02  0.00000000000E+00 0. -1.
</event>
<event>
 7    1  0.6624035E-013  0.5052886E+02  0.7816164E-02  0.1300439E+00
        -11   -1    0    0    0    0  0.00000000000E+00  0.00000000000E+00  0.45593999997E+02  0.45594000000E+02  0.51100000000E-03 0. -1.
         11   -1    0    0    0    0 -0.00000000000E+00 -0.00000000000E+00 -0.45593999997E+02  0.45594000000E+02  0.51100000000E-03 0.  1.
    9900012    2    1    2    0    0 -0.50221446263E+01 -0.39393596453E+02 -0.87228823865E+01  0.50528855208E+02  0.29999985889E+02 0.  0.
         12    1    1    2    0    0  0.50221446263E+01  0.39393596453E+02  0.87228823865E+01  0.40659144792E+02  0.00000000000E+00 0. -1.
         11    1    3    3    0    0 -0.53381648737E+00 -0.34635953022E+01  0.55498061201E+01  0.65636728051E+01  0.51100000000E-03 0. -1.
        -11    1    3    3    0    0 -0.77807517458E+01 -0.10885086140E+02  0.25430537411E+01  0.13619556549E+02  0.51100000000E-03 0.  1.
        -12    1    3    3    0    0  0.32924236069E+01 -0.25044915010E+02 -0.16815742248E+02  0.30345625853E+02  0.00000000000E+00 0.  1.
</event>
<event>
 7    1  0.6624035E-013  0.5052887E+02  0.7816164E-02  0.1300439E+00
        -11   -1    0    0    0    0  0.00000000000E+00  0.00000000000E+00  0.45593999997E+02  0.45594000000E+02  0.51100000000E-03 0. -1.
         11   -1    0    0    0    0 -0.00000000000E+00 -0.00000000000E+00 -0.45593999997E+02  0.45594000000E+02  0.51100000000E-03 0.  1.
    9900012    2    1    2    0    0  0.38748720363E+02 -0.10497262428E+02 -0.64427765928E+01  0.50528865498E+02  0.30000017168E+02 0.  0.
         12    1    1    2    0    0 -0.38748720363E+02  0.10497262428E+02  0.64427765928E+01  0.40659134502E+02  0.00000000000E+00 0. -1.
         11    1    3    3    0    0  0.10587965731E+02 -0.20095478786E+01  0.20573595814E+01  0.10971601055E+02  0.51100000000E-03 0. -1.
        -11    1    3    3    0    0  0.43327892508E+01 -0.12403458343E+02 -0.80440812719E+01  0.15405391437E+02  0.51100000000E-03 0.  1.
         12    1    3    3    0    0  0.23827965380E+02  0.39157437939E+01 -0.45605490226E+00  0.24151873006E+02  0.00000000000E+00 0. -1.
</event>
<event>
 7    1  0.6624035E-013  0.5052887E+02  0.7816164E-02  0.1300439E+00
        -11   -1    0    0    0    0  0.00000000000E+00  0.00000000000E+00  0.45593999997E+02  0.45594000000E+02  0.51100000000E-03 0.  1.
         11   -1    0    0    0    0 -0.00000000000E+00 -0.00000000000E+00 -0.45593999997E+02  0.45594000000E+02  0.51100000000E-03 0. -1.
    9900012    2    1    2    0    0 -0.26985088241E+01 -0.21739726193E+02  0.34252993110E+02  0.50528865948E+02  0.30000018537E+02 0.  0.
         12    1    1    2    0    0  0.26985088241E+01  0.21739726193E+02 -0.34252993110E+02  0.40659134052E+02  0.00000000000E+00 0. -1.
         11    1    3    3    0    0  0.94613159690E+00 -0.38679397027E+01  0.13214037142E+02  0.13800974617E+02  0.51100000000E-03 0. -1.
        -11    1    3    3    0    0  0.57087468940E+01 -0.18855676931E+02  0.95893881147E+01  0.21910789769E+02  0.51100000000E-03 0.  1.
        -12    1    3    3    0    0 -0.93533873151E+01  0.98389044060E+00  0.11449567854E+02  0.14817101562E+02  0.00000000000E+00 0.  1.
</event>
<event>
 7    1  0.6624035E-013  0.5052886E+02  0.7816164E-02  0.1300439E+00
        -11   -1    0    0    0    0  0.00000000000E+00  0.00000000000E+00  0.45593999997E+02  0.45594000000E+02  0.51100000000E-03 0.  1.
         11   -1    0    0    0    0 -0.00000000000E+00 -0.00000000000E+00 -0.45593999997E+02  0.45594000000E+02  0.51100000000E-03 0. -1.
    9900012    2    1    2    0    0  0.16233532017E+02 -0.36800425680E+02  0.59469686463E+01  0.50528864150E+02  0.30000013070E+02 0.  0.
         12    1    1    2    0    0 -0.16233532017E+02  0.36800425680E+02 -0.59469686463E+01  0.40659135850E+02  0.00000000000E+00 0. -1.
         11    1    3    3    0    0  0.15318052141E+02 -0.22073345067E+02  0.59041005502E+01  0.27508792910E+02  0.51100000000E-03 0. -1.
        -11    1    3    3    0    0  0.37677850867E+01 -0.12883977117E+02 -0.70454856009E+01  0.15160209050E+02  0.51100000000E-03 0.  1.
        -12    1    3    3    0    0 -0.28523052102E+01 -0.18431034959E+01  0.70883536970E+01  0.78598621898E+01  0.00000000000E+00 0.  1.
</event>
<event>
 7    1  0.6624035E-013  0.5052886E+02  0.7816164E-02  0.1300439E+00
        -11   -1    0    0    0    0  0.00000000000E+00  0.00000000000E+00  0.45593999997E+02  0.45594000000E+02  0.51100000000E-03 0.  1.
         11   -1    0    0    0    0 -0.00000000000E+00 -0.00000000000E+00 -0.45593999997E+02  0.45594000000E+02  0.51100000000E-03 0. -1.
    9900012    2    1    2    0    0  0.11244049030E+02 -0.12208168525E+02  0.37117347223E+02  0.50528862254E+02  0.30000007308E+02 0.  0.
         12    1    1    2    0    0 -0.11244049030E+02  0.12208168525E+02 -0.37117347223E+02  0.40659137746E+02  0.00000000000E+00 0. -1.
         11    1    3    3    0    0  0.63382968581E+01  0.10202264245E+01  0.71146886368E+01  0.95829882437E+01  0.51100000000E-03 0. -1.
        -11    1    3    3    0    0  0.78599476867E-01  0.53941034885E+01  0.16717887192E+02  0.17566737965E+02  0.51100000000E-03 0.  1.
         12    1    3    3    0    0  0.48271526955E+01 -0.18622498438E+02  0.13284771395E+02  0.23379136045E+02  0.00000000000E+00 0. -1.
</event>
<event>
 7    1  0.6624035E-013  0.5052891E+02  0.7816164E-02  0.1300439E+00
        -11   -1    0    0    0    0  0.00000000000E+00  0.00000000000E+00  0.45593999997E+02  0.45594000000E+02  0.51100000000E-03 0.  1.
         11   -1    0    0    0    0 -0.00000000000E+00 -0.00000000000E+00 -0.45593999997E+02  0.45594000000E+02  0.51100000000E-03 0. -1.
    9900012    2    1    2    0    0 -0.18020171590E+02  0.91531617274E+01  0.35279664371E+02  0.50528909112E+02  0.30000149737E+02 0.  0.
         12    1    1    2    0    0  0.18020171590E+02 -0.91531617274E+01 -0.35279664371E+02  0.40659090888E+02  0.00000000000E+00 0. -1.
         11    1    3    3    0    0 -0.55133196289E+01  0.91122195452E+01  0.17103617850E+02  0.20148523077E+02  0.51100000000E-03 0. -1.
        -11    1    3    3    0    0 -0.12996752001E+02  0.86886216349E+01  0.12601768401E+02  0.20080146304E+02  0.51100000000E-03 0.  1.
         12    1    3    3    0    0  0.48990003975E+00 -0.86476794527E+01  0.55742781190E+01  0.10300239731E+02  0.00000000000E+00 0. -1.
</event>
<event>
 7    1  0.6624035E-013  0.5052886E+02  0.7816164E-02  0.1300439E+00
        -11   -1    0    0    0    0  0.00000000000E+00  0.00000000000E+00  0.45593999997E+02  0.45594000000E+02  0.51100000000E-03 0.  1.
         11   -1    0    0    0    0 -0.00000000000E+00 -0.00000000000E+00 -0.45593999997E+02  0.45594000000E+02  0.51100000000E-03 0. -1.
    9900012    2    1    2    0    0  0.11561256190E+02 -0.39738981927E+01  0.38777714666E+02  0.50528859991E+02  0.30000000428E+02 0.  0.
         12    1    1    2    0    0 -0.11561256190E+02  0.39738981927E+01 -0.38777714666E+02  0.40659140009E+02  0.00000000000E+00 0. -1.
         11    1    3    3    0    0  0.10353178265E+01 -0.85948596855E+01  0.15836668102E+02  0.18048367041E+02  0.51100000000E-03 0. -1.
        -11    1    3    3    0    0  0.86128237384E+01 -0.32083973700E+01  0.22618238111E+02  0.24414324524E+02  0.51100000000E-03 0.  1.
         12    1    3    3    0    0  0.19131146254E+01  0.78293588629E+01  0.32280845295E+00  0.80661684256E+01  0.00000000000E+00 0. -1.
</event>
<event>
 7    1  0.6624035E-013  0.5052886E+02  0.7816164E-02  0.1300439E+00
        -11   -1    0    0    0    0  0.00000000000E+00  0.00000000000E+00  0.45593999997E+02  0.45594000000E+02  0.51100000000E-03 0.  1.
         11   -1    0    0    0    0 -0.00000000000E+00 -0.00000000000E+00 -0.45593999997E+02  0.45594000000E+02  0.51100000000E-03 0. -1.
    9900012    2    1    2    0    0  0.23894647249E+02  0.14040328878E+02  0.29750303186E+02  0.50528861521E+02  0.30000005081E+02 0.  0.
         12    1    1    2    0    0 -0.23894647249E+02 -0.14040328878E+02 -0.29750303186E+02  0.40659138479E+02  0.00000000000E+00 0. -1.
         11    1    3    3    0    0  0.10406273640E+02 -0.11443308194E+01  0.14452528499E+02  0.17845884802E+02  0.51100000000E-03 0. -1.
        -11    1    3    3    0    0  0.65638662140E+01 -0.45319216401E+01  0.38802565053E+01  0.88701208692E+01  0.51100000000E-03 0.  1.
         12    1    3    3    0    0  0.69245073945E+01  0.19716581337E+02  0.11417518182E+02  0.23812855850E+02  0.00000000000E+00 0. -1.
</event>
<event>
 7    1  0.6624035E-013  0.5052886E+02  0.7816164E-02  0.1300439E+00
        -11   -1    0    0    0    0  0.00000000000E+00  0.00000000000E+00  0.45593999997E+02  0.45594000000E+02  0.51100000000E-03 0.  1.
         11   -1    0    0    0    0 -0.00000000000E+00 -0.00000000000E+00 -0.45593999997E+02  0.45594000000E+02  0.51100000000E-03 0. -1.
    9900012    2    1    2    0    0  0.37208883542E+02 -0.27784951007E+01  0.16153777853E+02  0.50528860948E+02  0.30000003338E+02 0.  0.
         12    1    1    2    0    0 -0.37208883542E+02  0.27784951007E+01 -0.16153777853E+02  0.40659139052E+02  0.00000000000E+00 0. -1.
         11    1    3    3    0    0  0.10860217726E+02 -0.82747929269E+01  0.72263044969E+01  0.15447847876E+02  0.51100000000E-03 0. -1.
        -11    1    3    3    0    0  0.12947429389E+02 -0.26435975204E+01 -0.49804743778E+01  0.14121956696E+02  0.51100000000E-03 0.  1.
         12    1    3    3    0    0  0.13401236427E+02  0.81398953465E+01  0.13907947734E+02  0.20959056376E+02  0.00000000000E+00 0. -1.
</event>
<event>
 7    1  0.6624035E-013  0.5052887E+02  0.7816164E-02  0.1300439E+00
        -11   -1    0    0    0    0  0.00000000000E+00  0.00000000000E+00  0.45593999997E+02  0.45594000000E+02  0.51100000000E-03 0.  1.
         11   -1    0    0    0    0 -0.00000000000E+00 -0.00000000000E+00 -0.45593999997E+02  0.45594000000E+02  0.51100000000E-03 0. -1.
    9900012    2    1    2    0    0 -0.87555021203E+01  0.30058367464E+02  0.25942257297E+02  0.50528868361E+02  0.30000025869E+02 0.  0.
         12    1    1    2    0    0  0.87555021203E+01 -0.30058367464E+02 -0.25942257297E+02  0.40659131639E+02  0.00000000000E+00 0. -1.
         11    1    3    3    0    0 -0.60152934127E+01 -0.14704834807E+01  0.28817290391E+01  0.68301126655E+01  0.51100000000E-03 0. -1.
        -11    1    3    3    0    0  0.65889156711E+01  0.90565150825E+01  0.17135569978E+01  0.11330072948E+02  0.51100000000E-03 0.  1.
         12    1    3    3    0    0 -0.93291243787E+01  0.22472335862E+02  0.21346971261E+02  0.32368682747E+02  0.00000000000E+00 0. -1.
</event>
<event>
 7    1  0.6624035E-013  0.5052885E+02  0.7816164E-02  0.1300439E+00
        -11   -1    0    0    0    0  0.00000000000E+00  0.00000000000E+00  0.45593999997E+02  0.45594000000E+02  0.51100000000E-03 0.  1.
         11   -1    0    0    0    0 -0.00000000000E+00 -0.00000000000E+00 -0.45593999997E+02  0.45594000000E+02  0.51100000000E-03 0. -1.
    9900012    2    1    2    0    0  0.31252927004E+02  0.19127772289E+02  0.17622422215E+02  0.50528845019E+02  0.29999954921E+02 0.  0.
         12    1    1    2    0    0 -0.31252927004E+02 -0.19127772289E+02 -0.17622422215E+02  0.40659154981E+02  0.00000000000E+00 0. -1.
         11    1    3    3    0    0 -0.74530685682E+00  0.42338244864E+01 -0.18093956845E+01  0.46641896505E+01  0.51100000000E-03 0. -1.
        -11    1    3    3    0    0  0.14355880938E+01  0.94423315015E+01  0.89743406913E+01  0.13105622017E+02  0.51100000000E-03 0.  1.
        -12    1    3    3    0    0  0.30562645767E+02  0.54516163008E+01  0.10457477208E+02  0.32759033351E+02  0.00000000000E+00 0.  1.
</event>
<event>
 7    1  0.6624035E-013  0.5052885E+02  0.7816164E-02  0.1300439E+00
        -11   -1    0    0    0    0  0.00000000000E+00  0.00000000000E+00  0.45593999997E+02  0.45594000000E+02  0.51100000000E-03 0.  1.
         11   -1    0    0    0    0 -0.00000000000E+00 -0.00000000000E+00 -0.45593999997E+02  0.45594000000E+02  0.51100000000E-03 0. -1.
    9900012    2    1    2    0    0  0.22071390464E+02  0.14361334474E+02  0.30980196054E+02  0.50528846634E+02  0.29999959827E+02 0.  0.
         12    1    1    2    0    0 -0.22071390464E+02 -0.14361334474E+02 -0.30980196054E+02  0.40659153366E+02  0.00000000000E+00 0. -1.
         11    1    3    3    0    0  0.17152597485E+02  0.13064369016E+02  0.42906646701E+01  0.21984065635E+02  0.51100000000E-03 0. -1.
        -11    1    3    3    0    0  0.35504951567E+01  0.50149190819E+01  0.15419104386E+02  0.16598319481E+02  0.51100000000E-03 0.  1.
        -12    1    3    3    0    0  0.13682978227E+01 -0.37179536235E+01  0.11270426998E+02  0.11946461518E+02  0.00000000000E+00 0.  1.
</event>
<event>
 7    1  0.6624035E-013  0.5052886E+02  0.7816164E-02  0.1300439E+00
        -11   -1    0    0    0    0  0.00000000000E+00  0.00000000000E+00  0.45593999997E+02  0.45594000000E+02  0.51100000000E-03 0.  1.
         11   -1    0    0    0    0 -0.00000000000E+00 -0.00000000000E+00 -0.45593999997E+02  0.45594000000E+02  0.51100000000E-03 0. -1.
    9900012    2    1    2    0    0  0.40684688059E+01 -0.32062883442E+02  0.24669512079E+02  0.50528858848E+02  0.29999996954E+02 0.  0.
         12    1    1    2    0    0 -0.40684688059E+01  0.32062883442E+02 -0.24669512079E+02  0.40659141152E+02  0.00000000000E+00 0. -1.
         11    1    3    3    0    0 -0.45772949989E+01  0.30627116682E+00  0.85197496874E+01  0.96763405547E+01  0.51100000000E-03 0. -1.
        -11    1    3    3    0    0 -0.45149452516E+01 -0.70920811514E+01  0.69450775591E+01  0.10904881854E+02  0.51100000000E-03 0.  1.
        -12    1    3    3    0    0  0.13160709056E+02 -0.25277073457E+02  0.92046848323E+01  0.29947636439E+02  0.00000000000E+00 0.  1.
</event>
<event>
 7    1  0.6624035E-013  0.5052887E+02  0.7816164E-02  0.1300439E+00
        -11   -1    0    0    0    0  0.00000000000E+00  0.00000000000E+00  0.45593999997E+02  0.45594000000E+02  0.51100000000E-03 0. -1.
         11   -1    0    0    0    0 -0.00000000000E+00 -0.00000000000E+00 -0.45593999997E+02  0.45594000000E+02  0.51100000000E-03 0.  1.
    9900012    2    1    2    0    0  0.14956914563E+02  0.41928941940E+01 -0.37574931684E+02  0.50528866389E+02  0.30000019875E+02 0.  0.
         12    1    1    2    0    0 -0.14956914563E+02 -0.41928941940E+01  0.37574931684E+02  0.40659133611E+02  0.00000000000E+00 0. -1.
         11    1    3    3    0    0  0.21517704023E+02  0.78446182376E+01 -0.30126547116E+02  0.37843869558E+02  0.51100000000E-03 0. -1.
        -11    1    3    3    0    0  0.15030316944E+01 -0.28742154465E+00 -0.10827897816E+01  0.18746064629E+01  0.51100000000E-03 0.  1.
         12    1    3    3    0    0 -0.80638211547E+01 -0.33643024989E+01 -0.63655947870E+01  0.10810390368E+02  0.00000000000E+00 0. -1.
</event>
<event>
 7    1  0.6624035E-013  0.5052885E+02  0.7816164E-02  0.1300439E+00
        -11   -1    0    0    0    0  0.00000000000E+00  0.00000000000E+00  0.45593999997E+02  0.45594000000E+02  0.51100000000E-03 0. -1.
         11   -1    0    0    0    0 -0.00000000000E+00 -0.00000000000E+00 -0.45593999997E+02  0.45594000000E+02  0.51100000000E-03 0.  1.
    9900012    2    1    2    0    0 -0.13190680509E+02  0.22526070899E+02 -0.31172881085E+02  0.50528850506E+02  0.29999971599E+02 0.  0.
         12    1    1    2    0    0  0.13190680509E+02 -0.22526070899E+02  0.31172881085E+02  0.40659149494E+02  0.00000000000E+00 0. -1.
         11    1    3    3    0    0 -0.14917414787E+00  0.17676090481E+02 -0.13150604692E+02  0.22031904857E+02  0.51100000000E-03 0. -1.
        -11    1    3    3    0    0  0.36199471333E+01  0.27248888296E+01 -0.11179308205E+01  0.46667768279E+01  0.51100000000E-03 0.  1.
        -12    1    3    3    0    0 -0.16661453494E+02  0.21250915882E+01 -0.16904345573E+02  0.23830168821E+02  0.00000000000E+00 0.  1.
</event>
<event>
 7    1  0.6624035E-013  0.5052882E+02  0.7816164E-02  0.1300439E+00
        -11   -1    0    0    0    0  0.00000000000E+00  0.00000000000E+00  0.45593999997E+02  0.45594000000E+02  0.51100000000E-03 0.  1.
         11   -1    0    0    0    0 -0.00000000000E+00 -0.00000000000E+00 -0.45593999997E+02  0.45594000000E+02  0.51100000000E-03 0. -1.
    9900012    2    1    2    0    0  0.23770481022E+02  0.19575296098E+02  0.26550720457E+02  0.50528822166E+02  0.29999885455E+02 0.  0.
         12    1    1    2    0    0 -0.23770481022E+02 -0.19575296098E+02 -0.26550720457E+02  0.40659177834E+02  0.00000000000E+00 0. -1.
         11    1    3    3    0    0  0.17188366149E+02  0.20971378974E+02  0.89251634873E+01  0.28546404510E+02  0.51100000000E-03 0. -1.
        -11    1    3    3    0    0  0.44169171603E+01  0.48255745634E+01  0.84234695979E+01  0.10665372351E+02  0.51100000000E-03 0.  1.
        -12    1    3    3    0    0  0.21651977130E+01 -0.62216574387E+01  0.92020873718E+01  0.11317045304E+02  0.00000000000E+00 0.  1.
</event>
<event>
 7    1  0.6624035E-013  0.5052886E+02  0.7816164E-02  0.1300439E+00
        -11   -1    0    0    0    0  0.00000000000E+00  0.00000000000E+00  0.45593999997E+02  0.45594000000E+02  0.51100000000E-03 0. -1.
         11   -1    0    0    0    0 -0.00000000000E+00 -0.00000000000E+00 -0.45593999997E+02  0.45594000000E+02  0.51100000000E-03 0.  1.
    9900012    2    1    2    0    0  0.24710210470E+02  0.10616478071E+02 -0.30493636935E+02  0.50528855867E+02  0.29999987893E+02 0.  0.
         12    1    1    2    0    0 -0.24710210470E+02 -0.10616478071E+02  0.30493636935E+02  0.40659144133E+02  0.00000000000E+00 0. -1.
         11    1    3    3    0    0  0.16824134146E+01  0.36185793424E+01 -0.12888354315E+02  0.13492009063E+02  0.51100000000E-03 0. -1.
        -11    1    3    3    0    0 -0.16551323156E+01 -0.17532095593E+01 -0.92332408706E+01  0.95428477918E+01  0.51100000000E-03 0.  1.
        -12    1    3    3    0    0  0.24682929371E+02  0.87511082879E+01 -0.83720417495E+01  0.27493999012E+02  0.00000000000E+00 0.  1.
</event>
<event>
 7    1  0.6624035E-013  0.5052886E+02  0.7816164E-02  0.1300439E+00
        -11   -1    0    0    0    0  0.00000000000E+00  0.00000000000E+00  0.45593999997E+02  0.45594000000E+02  0.51100000000E-03 0. -1.
         11   -1    0    0    0    0 -0.00000000000E+00 -0.00000000000E+00 -0.45593999997E+02  0.45594000000E+02  0.51100000000E-03 0.  1.
    9900012    2    1    2    0    0  0.37082963768E+02  0.16661973206E+02 -0.63106291445E+00  0.50528858429E+02  0.29999995680E+02 0.  0.
         12    1    1    2    0    0 -0.37082963768E+02 -0.16661973206E+02  0.63106291445E+00  0.40659141571E+02  0.00000000000E+00 0. -1.
         11    1    3    3    0    0  0.13813024889E+00 -0.23244054514E+01  0.27393605354E+01  0.35952798322E+01  0.51100000000E-03 0. -1.
        -11    1    3    3    0    0  0.15673688165E+02 -0.27932028563E+01  0.19122473001E+01  0.16035060738E+02  0.51100000000E-03 0.  1.
         12    1    3    3    0    0  0.21271145354E+02  0.21779581514E+02 -0.52826707500E+01  0.30898517858E+02  0.00000000000E+00 0. -1.
</event>
<event>
 7    1  0.6624035E-013  0.5052886E+02  0.7816164E-02  0.1300439E+00
        -11   -1    0    0    0    0  0.00000000000E+00  0.00000000000E+00  0.45593999997E+02  0.45594000000E+02  0.51100000000E-03 0.  1.
         11   -1    0    0    0    0 -0.00000000000E+00 -0.00000000000E+00 -0.45593999997E+02  0.45594000000E+02  0.51100000000E-03 0. -1.
    9900012    2    1    2    0    0 -0.40501811355E+02 -0.22242940015E+01  0.27966714048E+01  0.50528861079E+02  0.30000003737E+02 0.  0.
         12    1    1    2    0    0  0.40501811355E+02  0.22242940015E+01 -0.27966714048E+01  0.40659138921E+02  0.00000000000E+00 0. -1.
         11    1    3    3    0    0 -0.15393968819E+02  0.39039907109E+01  0.46769242866E+01  0.16555634706E+02  0.51100000000E-03 0. -1.
        -11    1    3    3    0    0 -0.28249628548E+02 -0.16206551659E+01 -0.26720717195E+01  0.28421963405E+02  0.51100000000E-03 0.  1.
        -12    1    3    3    0    0  0.31417860120E+01 -0.45076295465E+01  0.79181883773E+00  0.55512629685E+01  0.00000000000E+00 0.  1.
</event>
<event>
 7    1  0.6624035E-013  0.5052886E+02  0.7816164E-02  0.1300439E+00
        -11   -1    0    0    0    0  0.00000000000E+00  0.00000000000E+00  0.45593999997E+02  0.45594000000E+02  0.51100000000E-03 0.  1.
         11   -1    0    0    0    0 -0.00000000000E+00 -0.00000000000E+00 -0.45593999997E+02  0.45594000000E+02  0.51100000000E-03 0. -1.
    9900012    2    1    2    0    0  0.15678495098E+01  0.28129009794E+02  0.29316655166E+02  0.50528860632E+02  0.30000002376E+02 0.  0.
         12    1    1    2    0    0 -0.15678495098E+01 -0.28129009794E+02 -0.29316655166E+02  0.40659139368E+02  0.00000000000E+00 0. -1.
         11    1    3    3    0    0  0.10305596686E+01 -0.20949272235E+00  0.11395984443E+01  0.15506854312E+01  0.51100000000E-03 0. -1.
        -11    1    3    3    0    0  0.64049474714E+01  0.27748219864E+02  0.10514147695E+02  0.30356784411E+02  0.51100000000E-03 0.  1.
        -12    1    3    3    0    0 -0.58676576302E+01  0.59028265235E+00  0.17662909026E+02  0.18621390790E+02  0.00000000000E+00 0.  1.
</event>
<event>
 7    1  0.6624035E-013  0.5052885E+02  0.7816164E-02  0.1300439E+00
        -11   -1    0    0    0    0  0.00000000000E+00  0.00000000000E+00  0.45593999997E+02  0.45594000000E+02  0.51100000000E-03 0.  1.
         11   -1    0    0    0    0 -0.00000000000E+00 -0.00000000000E+00 -0.45593999997E+02  0.45594000000E+02  0.51100000000E-03 0. -1.
    9900012    2    1    2    0    0 -0.23640243716E+02  0.20092259706E+02  0.26279386185E+02  0.50528853904E+02  0.29999981926E+02 0.  0.
         12    1    1    2    0    0  0.23640243716E+02 -0.20092259706E+02 -0.26279386185E+02  0.40659146096E+02  0.00000000000E+00 0. -1.
         11    1    3    3    0    0  0.11765987617E+01 -0.23666675944E+01  0.72811963949E+01  0.77460519847E+01  0.51100000000E-03 0. -1.
        -11    1    3    3    0    0  0.10445963572E+01  0.39658092866E+01  0.82653074342E+01  0.92268159237E+01  0.51100000000E-03 0.  1.
        -12    1    3    3    0    0 -0.25861438835E+02  0.18493118014E+02  0.10732882356E+02  0.33555985995E+02  0.00000000000E+00 0.  1.
</event>
<event>
 7    1  0.6624035E-013  0.5052886E+02  0.7816164E-02  0.1300439E+00
        -11   -1    0    0    0    0  0.00000000000E+00  0.00000000000E+00  0.45593999997E+02  0.45594000000E+02  0.51100000000E-03 0.  1.
         11   -1    0    0    0    0 -0.00000000000E+00 -0.00000000000E+00 -0.45593999997E+02  0.45594000000E+02  0.51100000000E-03 0. -1.
    9900012    2    1    2    0    0 -0.10827958542E+02 -0.36923350872E+02  0.13137241121E+02  0.50528860436E+02  0.30000001781E+02 0.  0.
         12    1    1    2    0    0  0.10827958542E+02  0.36923350872E+02 -0.13137241121E+02  0.40659139564E+02  0.00000000000E+00 0. -1.
         11    1    3    3    0    0 -0.15729556796E+02 -0.14420917569E+02  0.64898672104E+01  0.22304712443E+02  0.51100000000E-03 0.  1.
        -11    1    3    3    0    0  0.54160094684E+00 -0.10913259342E+02  0.10602964214E+02  0.15225485589E+02  0.51100000000E-03 0. -1.
         12    1    3    3    0    0  0.43599973066E+01 -0.11589173961E+02 -0.39555903034E+01  0.12998662403E+02  0.00000000000E+00 0. -1.
</event>
<event>
 7    1  0.6624035E-013  0.5052888E+02  0.7816164E-02  0.1300439E+00
        -11   -1    0    0    0    0  0.00000000000E+00  0.00000000000E+00  0.45593999997E+02  0.45594000000E+02  0.51100000000E-03 0.  1.
         11   -1    0    0    0    0 -0.00000000000E+00 -0.00000000000E+00 -0.45593999997E+02  0.45594000000E+02  0.51100000000E-03 0. -1.
    9900012    2    1    2    0    0 -0.11206929447E+02  0.19499205551E+02  0.33872556543E+02  0.50528875914E+02  0.30000048827E+02 0.  0.
         12    1    1    2    0    0  0.11206929447E+02 -0.19499205551E+02 -0.33872556543E+02  0.40659124086E+02  0.00000000000E+00 0. -1.
         11    1    3    3    0    0  0.28478307702E+01 -0.20401456047E+01  0.37717660315E+01  0.51476745664E+01  0.51100000000E-03 0. -1.
        -11    1    3    3    0    0 -0.65149823042E+01 -0.76602472949E+00  0.17472203563E+02  0.18663056714E+02  0.51100000000E-03 0.  1.
         12    1    3    3    0    0 -0.75397779126E+01  0.22305375885E+02  0.12628586949E+02  0.26718144633E+02  0.00000000000E+00 0. -1.
</event>
<event>
 7    1  0.6624035E-013  0.5052886E+02  0.7816164E-02  0.1300439E+00
        -11   -1    0    0    0    0  0.00000000000E+00  0.00000000000E+00  0.45593999997E+02  0.45594000000E+02  0.51100000000E-03 0.  1.
         11   -1    0    0    0    0 -0.00000000000E+00 -0.00000000000E+00 -0.45593999997E+02  0.45594000000E+02  0.51100000000E-03 0. -1.
    9900012    2    1    2    0    0 -0.29713590818E+02  0.27237658806E+02 -0.53270755712E+01  0.50528864856E+02  0.30000015217E+02 0.  0.
         12    1    1    2    0    0  0.29713590818E+02 -0.27237658806E+02  0.53270755712E+01  0.40659135144E+02  0.00000000000E+00 0. -1.
         11    1    3    3    0    0 -0.16263579561E+01  0.10864933990E+02  0.74900964309E+00  0.11011487025E+02  0.51100000000E-03 0.  1.
        -11    1    3    3    0    0 -0.18725308503E+01  0.10125549021E+02  0.35635174131E+01  0.10896410940E+02  0.51100000000E-03 0. -1.
         12    1    3    3    0    0 -0.26214702011E+02  0.62471757952E+01 -0.96396026274E+01  0.28620966891E+02  0.00000000000E+00 0. -1.
</event>
<event>
 7    1  0.6624035E-013  0.5052886E+02  0.7816164E-02  0.1300439E+00
        -11   -1    0    0    0    0  0.00000000000E+00  0.00000000000E+00  0.45593999997E+02  0.45594000000E+02  0.51100000000E-03 0.  1.
         11   -1    0    0    0    0 -0.00000000000E+00 -0.00000000000E+00 -0.45593999997E+02  0.45594000000E+02  0.51100000000E-03 0. -1.
    9900012    2    1    2    0    0  0.35960016416E+02 -0.11390516795E+02  0.15175613069E+02  0.50528857295E+02  0.29999992234E+02 0.  0.
         12    1    1    2    0    0 -0.35960016416E+02  0.11390516795E+02 -0.15175613069E+02  0.40659142705E+02  0.00000000000E+00 0. -1.
         11    1    3    3    0    0  0.17173413338E+01  0.12066159231E+00  0.38638017254E+01  0.42299863488E+01  0.51100000000E-03 0. -1.
        -11    1    3    3    0    0  0.14779139647E+02 -0.15335319577E+01  0.18081397441E+02  0.23403239576E+02  0.51100000000E-03 0.  1.
        -12    1    3    3    0    0  0.19463535435E+02 -0.99776464293E+01 -0.67695860974E+01  0.22895631370E+02  0.00000000000E+00 0.  1.
</event>
<event>
 7    1  0.6624035E-013  0.5052886E+02  0.7816164E-02  0.1300439E+00
        -11   -1    0    0    0    0  0.00000000000E+00  0.00000000000E+00  0.45593999997E+02  0.45594000000E+02  0.51100000000E-03 0.  1.
         11   -1    0    0    0    0 -0.00000000000E+00 -0.00000000000E+00 -0.45593999997E+02  0.45594000000E+02  0.51100000000E-03 0. -1.
    9900012    2    1    2    0    0 -0.25867581464E+02  0.12868332913E+02  0.28608384423E+02  0.50528862994E+02  0.30000009558E+02 0.  0.
         12    1    1    2    0    0  0.25867581464E+02 -0.12868332913E+02 -0.28608384423E+02  0.40659137006E+02  0.00000000000E+00 0. -1.
         11    1    3    3    0    0 -0.22344861955E+02  0.71016249149E+01  0.17182998095E+02  0.29068563020E+02  0.51100000000E-03 0. -1.
        -11    1    3    3    0    0 -0.38105702500E+01  0.71268713145E+00  0.14850552705E+02  0.15348201343E+02  0.51100000000E-03 0.  1.
         12    1    3    3    0    0  0.28785074070E+00  0.50540208662E+01 -0.34251663776E+01  0.61120986314E+01  0.00000000000E+00 0. -1.
</event>
<event>
 7    1  0.6624035E-013  0.5052886E+02  0.7816164E-02  0.1300439E+00
        -11   -1    0    0    0    0  0.00000000000E+00  0.00000000000E+00  0.45593999997E+02  0.45594000000E+02  0.51100000000E-03 0. -1.
         11   -1    0    0    0    0 -0.00000000000E+00 -0.00000000000E+00 -0.45593999997E+02  0.45594000000E+02  0.51100000000E-03 0.  1.
    9900012    2    1    2    0    0 -0.17200975391E+02  0.28787255053E+01 -0.36728801678E+02  0.50528862188E+02  0.30000007106E+02 0.  0.
         12    1    1    2    0    0  0.17200975391E+02 -0.28787255053E+01  0.36728801678E+02  0.40659137812E+02  0.00000000000E+00 0. -1.
         11    1    3    3    0    0 -0.16798478843E+02  0.45426023591E+01 -0.29936563309E+02  0.34626896348E+02  0.51100000000E-03 0. -1.
        -11    1    3    3    0    0 -0.42942187702E+01  0.20738807287E+01 -0.89095176399E+01  0.10105483707E+02  0.51100000000E-03 0.  1.
         12    1    3    3    0    0  0.38917222228E+01 -0.37377575826E+01  0.21172792710E+01  0.57964821329E+01  0.00000000000E+00 0. -1.
</event>
<event>
 7    1  0.6624035E-013  0.5052885E+02  0.7816164E-02  0.1300439E+00
        -11   -1    0    0    0    0  0.00000000000E+00  0.00000000000E+00  0.45593999997E+02  0.45594000000E+02  0.51100000000E-03 0.  1.
         11   -1    0    0    0    0 -0.00000000000E+00 -0.00000000000E+00 -0.45593999997E+02  0.45594000000E+02  0.51100000000E-03 0. -1.
    9900012    2    1    2    0    0 -0.11351082501E+02  0.27077542507E+02  0.28126957364E+02  0.50528854501E+02  0.29999983740E+02 0.  0.
         12    1    1    2    0    0  0.11351082501E+02 -0.27077542507E+02 -0.28126957364E+02  0.40659145499E+02  0.00000000000E+00 0. -1.
         11    1    3    3    0    0  0.16524014248E+01 -0.38281971288E+01  0.22339758177E+01  0.47303458585E+01  0.51100000000E-03 0. -1.
        -11    1    3    3    0    0  0.26883814318E+01  0.14428678134E+02  0.71841440183E+01  0.16340932438E+02  0.51100000000E-03 0.  1.
        -12    1    3    3    0    0 -0.15691865358E+02  0.16477061502E+02  0.18708837528E+02  0.29457576204E+02  0.00000000000E+00 0.  1.
</event>
<event>
 7    1  0.6624035E-013  0.5052886E+02  0.7816164E-02  0.1300439E+00
        -11   -1    0    0    0    0  0.00000000000E+00  0.00000000000E+00  0.45593999997E+02  0.45594000000E+02  0.51100000000E-03 0. -1.
         11   -1    0    0    0    0 -0.00000000000E+00 -0.00000000000E+00 -0.45593999997E+02  0.45594000000E+02  0.51100000000E-03 0.  1.
    9900012    2    1    2    0    0 -0.40495948423E+02  0.36388976991E+01 -0.45119334302E-01  0.50528862640E+02  0.30000008480E+02 0.  0.
         12    1    1    2    0    0  0.40495948423E+02 -0.36388976991E+01  0.45119334302E-01  0.40659137360E+02  0.00000000000E+00 0. -1.
         11    1    3    3    0    0 -0.23871796940E+02  0.10450199915E+01  0.43269121469E+01  0.24283264297E+02  0.51100000000E-03 0. -1.
        -11    1    3    3    0    0 -0.67782365921E+01  0.10968221199E+02 -0.12931430956E+01  0.12958340438E+02  0.51100000000E-03 0.  1.
         12    1    3    3    0    0 -0.98459148909E+01 -0.83743434916E+01 -0.30788883856E+01  0.13287257905E+02  0.00000000000E+00 0. -1.
</event>
<event>
 7    1  0.6624035E-013  0.5052886E+02  0.7816164E-02  0.1300439E+00
        -11   -1    0    0    0    0  0.00000000000E+00  0.00000000000E+00  0.45593999997E+02  0.45594000000E+02  0.51100000000E-03 0. -1.
         11   -1    0    0    0    0 -0.00000000000E+00 -0.00000000000E+00 -0.45593999997E+02  0.45594000000E+02  0.51100000000E-03 0.  1.
    9900012    2    1    2    0    0 -0.24366174582E+01  0.69701116673E+01 -0.39983073486E+02  0.50528859248E+02  0.29999998171E+02 0.  0.
         12    1    1    2    0    0  0.24366174582E+01 -0.69701116673E+01  0.39983073486E+02  0.40659140752E+02  0.00000000000E+00 0. -1.
         11    1    3    3    0    0 -0.44227124767E+01  0.12569722242E+02 -0.19465934812E+02  0.23589847843E+02  0.51100000000E-03 0. -1.
        -11    1    3    3    0    0  0.20280549843E+01  0.39950644101E+01 -0.15453844133E+02  0.16090209613E+02  0.51100000000E-03 0.  1.
        -12    1    3    3    0    0 -0.41959965845E-01 -0.95946749850E+01 -0.50632945406E+01  0.10848801792E+02  0.00000000000E+00 0.  1.
</event>
<event>
 7    1  0.6624035E-013  0.5052885E+02  0.7816164E-02  0.1300439E+00
        -11   -1    0    0    0    0  0.00000000000E+00  0.00000000000E+00  0.45593999997E+02  0.45594000000E+02  0.51100000000E-03 0.  1.
         11   -1    0    0    0    0 -0.00000000000E+00 -0.00000000000E+00 -0.45593999997E+02  0.45594000000E+02  0.51100000000E-03 0. -1.
    9900012    2    1    2    0    0  0.11909614317E+02  0.44581651477E+01  0.38619320934E+02  0.50528854669E+02  0.29999984252E+02 0.  0.
         12    1    1    2    0    0 -0.11909614317E+02 -0.44581651477E+01 -0.38619320934E+02  0.40659145331E+02  0.00000000000E+00 0. -1.
         11    1    3    3    0    0  0.19834060967E+01  0.52810502539E+01  0.47985246822E+01  0.74060266618E+01  0.51100000000E-03 0. -1.
        -11    1    3    3    0    0 -0.70870517498E+01  0.30586111917E+01  0.43153956939E+01  0.88433051051E+01  0.51100000000E-03 0.  1.
        -12    1    3    3    0    0  0.17013259970E+02 -0.38814962978E+01  0.29505400558E+02  0.34279522902E+02  0.00000000000E+00 0.  1.
</event>
<event>
 7    1  0.6624035E-013  0.5052886E+02  0.7816164E-02  0.1300439E+00
        -11   -1    0    0    0    0  0.00000000000E+00  0.00000000000E+00  0.45593999997E+02  0.45594000000E+02  0.51100000000E-03 0.  1.
         11   -1    0    0    0    0 -0.00000000000E+00 -0.00000000000E+00 -0.45593999997E+02  0.45594000000E+02  0.51100000000E-03 0. -1.
    9900012    2    1    2    0    0  0.14015803403E+02  0.92806197661E+01  0.37021519621E+02  0.50528861257E+02  0.30000004276E+02 0.  0.
         12    1    1    2    0    0 -0.14015803403E+02 -0.92806197661E+01 -0.37021519621E+02  0.40659138743E+02  0.00000000000E+00 0. -1.
         11    1    3    3    0    0  0.31768537534E+01  0.26282175445E+01  0.46340485447E+01  0.62027682052E+01  0.51100000000E-03 0. -1.
        -11    1    3    3    0    0  0.12042598887E+02  0.11285282939E+02  0.35126980636E+02  0.38810907846E+02  0.51100000000E-03 0.  1.
         12    1    3    3    0    0 -0.12036492381E+01 -0.46328807171E+01 -0.27395095592E+01  0.55151852056E+01  0.00000000000E+00 0. -1.
</event>
<event>
 7    1  0.6624035E-013  0.5052885E+02  0.7816164E-02  0.1300439E+00
        -11   -1    0    0    0    0  0.00000000000E+00  0.00000000000E+00  0.45593999997E+02  0.45594000000E+02  0.51100000000E-03 0.  1.
         11   -1    0    0    0    0 -0.00000000000E+00 -0.00000000000E+00 -0.45593999997E+02  0.45594000000E+02  0.51100000000E-03 0. -1.
    9900012    2    1    2    0    0 -0.10088284923E+02 -0.38274843090E+02  0.92967185655E+01  0.50528854874E+02  0.29999984876E+02 0.  0.
         12    1    1    2    0    0  0.10088284923E+02  0.38274843090E+02 -0.92967185655E+01  0.40659145126E+02  0.00000000000E+00 0. -1.
         11    1    3    3    0    0 -0.67653638078E-01  0.14288613767E+01 -0.74715305479E+00  0.16138338815E+01  0.51100000000E-03 0. -1.
        -11    1    3    3    0    0 -0.15119443198E+02 -0.10968828262E+02  0.34375423705E+01  0.18992879031E+02  0.51100000000E-03 0.  1.
        -12    1    3    3    0    0  0.50988119136E+01 -0.28734876205E+02  0.66063292498E+01  0.29922141962E+02  0.00000000000E+00 0.  1.
</event>
<event>
 7    1  0.6624035E-013  0.5052884E+02  0.7816164E-02  0.1300439E+00
        -11   -1    0    0    0    0  0.00000000000E+00  0.00000000000E+00  0.45593999997E+02  0.45594000000E+02  0.51100000000E-03 0.  1.
         11   -1    0    0    0    0 -0.00000000000E+00 -0.00000000000E+00 -0.45593999997E+02  0.45594000000E+02  0.51100000000E-03 0. -1.
    9900012    2    1    2    0    0  0.36648499279E+02  0.17591566904E+02  0.76892025686E+00  0.50528844033E+02  0.29999951924E+02 0.  0.
         12    1    1    2    0    0 -0.36648499279E+02 -0.17591566904E+02 -0.76892025686E+00  0.40659155967E+02  0.00000000000E+00 0. -1.
         11    1    3    3    0    0  0.75779595886E+01  0.16052064326E+02 -0.11541322826E+01  0.17788374357E+02  0.51100000000E-03 0. -1.
        -11    1    3    3    0    0 -0.13580374253E+01  0.54329632852E+00  0.17687563880E+01  0.22951984598E+01  0.51100000000E-03 0.  1.
         12    1    3    3    0    0  0.30428577116E+02  0.99620624937E+00  0.15429615145E+00  0.30445271217E+02  0.00000000000E+00 0. -1.
</event>
<event>
 7    1  0.6624035E-013  0.5052885E+02  0.7816164E-02  0.1300439E+00
        -11   -1    0    0    0    0  0.00000000000E+00  0.00000000000E+00  0.45593999997E+02  0.45594000000E+02  0.51100000000E-03 0. -1.
         11   -1    0    0    0    0 -0.00000000000E+00 -0.00000000000E+00 -0.45593999997E+02  0.45594000000E+02  0.51100000000E-03 0.  1.
    9900012    2    1    2    0    0 -0.31864103290E+02  0.11650811413E+02 -0.22407673334E+02  0.50528852083E+02  0.29999976392E+02 0.  0.
         12    1    1    2    0    0  0.31864103290E+02 -0.11650811413E+02  0.22407673334E+02  0.40659147917E+02  0.00000000000E+00 0. -1.
         11    1    3    3    0    0  0.34901562786E+01  0.17446740068E+01 -0.51018462371E+01  0.64229209498E+01  0.51100000000E-03 0. -1.
        -11    1    3    3    0    0 -0.19384919740E+01  0.47455776123E+00 -0.78788148419E+01  0.81276490929E+01  0.51100000000E-03 0.  1.
        -12    1    3    3    0    0 -0.33415767595E+02  0.94315796453E+01 -0.94270122552E+01  0.35978282041E+02  0.00000000000E+00 0.  1.
</event>
<event>
 7    1  0.6624035E-013  0.5052897E+02  0.7816164E-02  0.1300438E+00
        -11   -1    0    0    0    0  0.00000000000E+00  0.00000000000E+00  0.45593999997E+02  0.45594000000E+02  0.51100000000E-03 0.  1.
         11   -1    0    0    0    0 -0.00000000000E+00 -0.00000000000E+00 -0.45593999997E+02  0.45594000000E+02  0.51100000000E-03 0. -1.
    9900012    2    1    2    0    0 -0.34298434542E+02  0.17876984417E+02  0.12537441092E+02  0.50528971323E+02  0.30000338830E+02 0.  0.
         12    1    1    2    0    0  0.34298434542E+02 -0.17876984417E+02 -0.12537441092E+02  0.40659028677E+02  0.00000000000E+00 0. -1.
         11    1    3    3    0    0 -0.99312484936E+00  0.25301303357E+01 -0.42042939872E+00  0.27503849954E+01  0.51100000000E-03 0. -1.
        -11    1    3    3    0    0 -0.87469101841E+01 -0.65361050085E+01  0.99073820528E+01  0.14743992873E+02  0.51100000000E-03 0.  1.
        -12    1    3    3    0    0 -0.24558399508E+02  0.21882959090E+02  0.30504884376E+01  0.33034593454E+02  0.00000000000E+00 0.  1.
</event>
<event>
 7    1  0.6624035E-013  0.5052886E+02  0.7816164E-02  0.1300439E+00
        -11   -1    0    0    0    0  0.00000000000E+00  0.00000000000E+00  0.45593999997E+02  0.45594000000E+02  0.51100000000E-03 0.  1.
         11   -1    0    0    0    0 -0.00000000000E+00 -0.00000000000E+00 -0.45593999997E+02  0.45594000000E+02  0.51100000000E-03 0. -1.
    9900012    2    1    2    0    0  0.32244532171E+02 -0.22995596279E+02  0.92010132358E+01  0.50528856529E+02  0.29999989907E+02 0.  0.
         12    1    1    2    0    0 -0.32244532171E+02  0.22995596279E+02 -0.92010132358E+01  0.40659143471E+02  0.00000000000E+00 0. -1.
         11    1    3    3    0    0  0.96528571459E+01  0.28780498661E+01 -0.53596576354E+01  0.11409940944E+02  0.51100000000E-03 0. -1.
        -11    1    3    3    0    0  0.16384696821E+02 -0.12163267176E+02  0.12495771672E+02  0.23927968327E+02  0.51100000000E-03 0.  1.
        -12    1    3    3    0    0  0.62069782043E+01 -0.13710378970E+02  0.20648991996E+01  0.15190947259E+02  0.00000000000E+00 0.  1.
</event>
<event>
 7    1  0.6624035E-013  0.5052886E+02  0.7816164E-02  0.1300439E+00
        -11   -1    0    0    0    0  0.00000000000E+00  0.00000000000E+00  0.45593999997E+02  0.45594000000E+02  0.51100000000E-03 0.  1.
         11   -1    0    0    0    0 -0.00000000000E+00 -0.00000000000E+00 -0.45593999997E+02  0.45594000000E+02  0.51100000000E-03 0. -1.
    9900012    2    1    2    0    0  0.22970373323E+02 -0.28702828680E+02 -0.17368809490E+02  0.50528856281E+02  0.29999989152E+02 0.  0.
         12    1    1    2    0    0 -0.22970373323E+02  0.28702828680E+02  0.17368809490E+02  0.40659143719E+02  0.00000000000E+00 0. -1.
         11    1    3    3    0    0 -0.31271344161E+01  0.17272810031E+01 -0.22103780141E+01  0.42009809029E+01  0.51100000000E-03 0. -1.
        -11    1    3    3    0    0  0.10030894525E+02 -0.77184370124E+01 -0.13429929577E+02  0.18454162772E+02  0.51100000000E-03 0.  1.
        -12    1    3    3    0    0  0.16066613214E+02 -0.22711672671E+02 -0.17285018988E+01  0.27873712607E+02  0.00000000000E+00 0.  1.
</event>
<event>
 7    1  0.6624035E-013  0.5052886E+02  0.7816164E-02  0.1300439E+00
        -11   -1    0    0    0    0  0.00000000000E+00  0.00000000000E+00  0.45593999997E+02  0.45594000000E+02  0.51100000000E-03 0.  1.
         11   -1    0    0    0    0 -0.00000000000E+00 -0.00000000000E+00 -0.45593999997E+02  0.45594000000E+02  0.51100000000E-03 0. -1.
    9900012    2    1    2    0    0 -0.22465809381E+02 -0.19558786049E+02  0.27675027185E+02  0.50528857946E+02  0.29999994214E+02 0.  0.
         12    1    1    2    0    0  0.22465809381E+02  0.19558786049E+02 -0.27675027185E+02  0.40659142054E+02  0.00000000000E+00 0. -1.
         11    1    3    3    0    0 -0.41843140776E+01  0.53901843268E+01  0.11105482413E+02  0.13034351203E+02  0.51100000000E-03 0. -1.
        -11    1    3    3    0    0 -0.77349287660E+01 -0.16137839324E+01  0.53142838186E+01  0.95223439531E+01  0.51100000000E-03 0.  1.
        -12    1    3    3    0    0 -0.10546566538E+02 -0.23335186443E+02  0.11255260953E+02  0.27972162791E+02  0.00000000000E+00 0.  1.
</event>
<event>
 7    1  0.6624035E-013  0.5052887E+02  0.7816164E-02  0.1300439E+00
        -11   -1    0    0    0    0  0.00000000000E+00  0.00000000000E+00  0.45593999997E+02  0.45594000000E+02  0.51100000000E-03 0.  1.
         11   -1    0    0    0    0 -0.00000000000E+00 -0.00000000000E+00 -0.45593999997E+02  0.45594000000E+02  0.51100000000E-03 0. -1.
    9900012    2    1    2    0    0  0.38356987778E+02  0.13117818165E+02 -0.31351247648E+01  0.50528872217E+02  0.30000037589E+02 0.  0.
         12    1    1    2    0    0 -0.38356987778E+02 -0.13117818165E+02  0.31351247648E+01  0.40659127783E+02  0.00000000000E+00 0. -1.
         11    1    3    3    0    0  0.64589732323E+01  0.14798547940E+02  0.43478727131E+01  0.16721822680E+02  0.51100000000E-03 0. -1.
        -11    1    3    3    0    0  0.20604943598E+02 -0.50876562429E+00 -0.78778163126E+00  0.20626273131E+02  0.51100000000E-03 0.  1.
        -12    1    3    3    0    0  0.11293070948E+02 -0.11719641507E+01 -0.66952158467E+01  0.13180776405E+02  0.00000000000E+00 0.  1.
</event>
<event>
 7    1  0.6624035E-013  0.5052884E+02  0.7816164E-02  0.1300439E+00
        -11   -1    0    0    0    0  0.00000000000E+00  0.00000000000E+00  0.45593999997E+02  0.45594000000E+02  0.51100000000E-03 0. -1.
         11   -1    0    0    0    0 -0.00000000000E+00 -0.00000000000E+00 -0.45593999997E+02  0.45594000000E+02  0.51100000000E-03 0.  1.
    9900012    2    1    2    0    0  0.26324855651E+02  0.69917639247E+01 -0.30187495449E+02  0.50528835359E+02  0.29999925556E+02 0.  0.
         12    1    1    2    0    0 -0.26324855651E+02 -0.69917639247E+01  0.30187495449E+02  0.40659164641E+02  0.00000000000E+00 0. -1.
         11    1    3    3    0    0  0.47375665408E+01  0.44607191154E+01 -0.17120156290E+02  0.18315084041E+02  0.51100000000E-03 0. -1.
        -11    1    3    3    0    0  0.16189409973E+01  0.40284743167E+01 -0.11307261795E+02  0.12112132134E+02  0.51100000000E-03 0.  1.
         12    1    3    3    0    0  0.19968348113E+02 -0.14974295075E+01 -0.17600773640E+01  0.20101619184E+02  0.00000000000E+00 0. -1.
</event>
<event>
 7    1  0.6624035E-013  0.5052886E+02  0.7816164E-02  0.1300439E+00
        -11   -1    0    0    0    0  0.00000000000E+00  0.00000000000E+00  0.45593999997E+02  0.45594000000E+02  0.51100000000E-03 0.  1.
         11   -1    0    0    0    0 -0.00000000000E+00 -0.00000000000E+00 -0.45593999997E+02  0.45594000000E+02  0.51100000000E-03 0. -1.
    9900012    2    1    2    0    0  0.30701555590E+02 -0.11347810876E+02  0.24120678969E+02  0.50528862266E+02  0.30000007344E+02 0.  0.
         12    1    1    2    0    0 -0.30701555590E+02  0.11347810876E+02 -0.24120678969E+02  0.40659137734E+02  0.00000000000E+00 0. -1.
         11    1    3    3    0    0  0.18883577456E+02 -0.86303776792E+00  0.71465503673E+01  0.20209094837E+02  0.51100000000E-03 0. -1.
        -11    1    3    3    0    0  0.20266900688E+01  0.18391488257E+01  0.14045449197E+02  0.14309597634E+02  0.51100000000E-03 0.  1.
        -12    1    3    3    0    0  0.97912880657E+01 -0.12323921934E+02  0.29286794046E+01  0.16010169795E+02  0.00000000000E+00 0.  1.
</event>
<event>
 7    1  0.6624035E-013  0.5052886E+02  0.7816164E-02  0.1300439E+00
        -11   -1    0    0    0    0  0.00000000000E+00  0.00000000000E+00  0.45593999997E+02  0.45594000000E+02  0.51100000000E-03 0.  1.
         11   -1    0    0    0    0 -0.00000000000E+00 -0.00000000000E+00 -0.45593999997E+02  0.45594000000E+02  0.51100000000E-03 0. -1.
    9900012    2    1    2    0    0 -0.36194665270E+01  0.97348627573E+00  0.40486011938E+02  0.50528863559E+02  0.30000011274E+02 0.  0.
         12    1    1    2    0    0  0.36194665270E+01 -0.97348627573E+00 -0.40486011938E+02  0.40659136441E+02  0.00000000000E+00 0. -1.
         11    1    3    3    0    0  0.66283285181E+01  0.94403924010E+01  0.18586566644E+02  0.21875013315E+02  0.51100000000E-03 0. -1.
        -11    1    3    3    0    0  0.43817123866E+00  0.20290996675E+01  0.78416230655E+01  0.81117379185E+01  0.51100000000E-03 0.  1.
        -12    1    3    3    0    0 -0.10685966284E+02 -0.10496005793E+02  0.14057822228E+02  0.20542112326E+02  0.00000000000E+00 0.  1.
</event>
<event>
 7    1  0.6624035E-013  0.5052888E+02  0.7816164E-02  0.1300439E+00
        -11   -1    0    0    0    0  0.00000000000E+00  0.00000000000E+00  0.45593999997E+02  0.45594000000E+02  0.51100000000E-03 0.  1.
         11   -1    0    0    0    0 -0.00000000000E+00 -0.00000000000E+00 -0.45593999997E+02  0.45594000000E+02  0.51100000000E-03 0. -1.
    9900012    2    1    2    0    0 -0.19999162367E+00  0.38571187959E+02  0.12860321282E+02  0.50528875554E+02  0.30000047734E+02 0.  0.
         12    1    1    2    0    0  0.19999162367E+00 -0.38571187959E+02 -0.12860321282E+02  0.40659124446E+02  0.00000000000E+00 0. -1.
         11    1    3    3    0    0 -0.38924202180E+01  0.15152916244E+02  0.74837733630E+01  0.17342683468E+02  0.51100000000E-03 0. -1.
        -11    1    3    3    0    0  0.35100449067E+01  0.20201961087E+02  0.13430682830E+02  0.24511688814E+02  0.51100000000E-03 0.  1.
        -12    1    3    3    0    0  0.18238368763E+00  0.32163106285E+01 -0.80541349104E+01  0.86745032724E+01  0.00000000000E+00 0.  1.
</event>
<event>
 7    1  0.8117562E-013  0.5052885E+02  0.7816164E-02  0.1300439E+00
        -11   -1    0    0    0    0  0.00000000000E+00  0.00000000000E+00  0.45593999997E+02  0.45594000000E+02  0.51100000000E-03 0.  1.
         11   -1    0    0    0    0 -0.00000000000E+00 -0.00000000000E+00 -0.45593999997E+02  0.45594000000E+02  0.51100000000E-03 0. -1.
    9900012    2    1    2    0    0 -0.35405407767E+02 -0.14554225030E+02 -0.13703949443E+02  0.50528848561E+02  0.29999965686E+02 0.  0.
         12    1    1    2    0    0  0.35405407767E+02  0.14554225030E+02  0.13703949443E+02  0.40659151439E+02  0.00000000000E+00 0. -1.
         11    1    3    3    0    0 -0.16742791290E+02  0.20252269502E+01 -0.10750668059E+02  0.19999986709E+02  0.51100000000E-03 0. -1.
        -11    1    3    3    0    0 -0.15760671983E+02 -0.28547826923E+01 -0.38458887571E+01  0.16472383742E+02  0.51100000000E-03 0.  1.
         12    1    3    3    0    0 -0.29019444947E+01 -0.13724669288E+02  0.89260737343E+00  0.14056478109E+02  0.00000000000E+00 0. -1.
</event>
<event>
 7    1  0.6624035E-013  0.5052886E+02  0.7816164E-02  0.1300439E+00
        -11   -1    0    0    0    0  0.00000000000E+00  0.00000000000E+00  0.45593999997E+02  0.45594000000E+02  0.51100000000E-03 0. -1.
         11   -1    0    0    0    0 -0.00000000000E+00 -0.00000000000E+00 -0.45593999997E+02  0.45594000000E+02  0.51100000000E-03 0.  1.
    9900012    2    1    2    0    0 -0.73410045476E+00 -0.38421160647E+01 -0.40470543136E+02  0.50528860547E+02  0.30000002120E+02 0.  0.
         12    1    1    2    0    0  0.73410045476E+00  0.38421160647E+01  0.40470543136E+02  0.40659139453E+02  0.00000000000E+00 0. -1.
         11    1    3    3    0    0  0.47996063081E+01 -0.26931866682E+01 -0.56887997277E+00  0.55329106108E+01  0.51100000000E-03 0. -1.
        -11    1    3    3    0    0  0.64968449136E+01 -0.17248720174E+01 -0.59707560630E+01  0.89907789169E+01  0.51100000000E-03 0.  1.
         12    1    3    3    0    0 -0.12030551676E+02  0.57594262094E+00 -0.33930907100E+02  0.36005171020E+02  0.00000000000E+00 0. -1.
</event>
<event>
 7    1  0.6624035E-013  0.5052885E+02  0.7816164E-02  0.1300439E+00
        -11   -1    0    0    0    0  0.00000000000E+00  0.00000000000E+00  0.45593999997E+02  0.45594000000E+02  0.51100000000E-03 0.  1.
         11   -1    0    0    0    0 -0.00000000000E+00 -0.00000000000E+00 -0.45593999997E+02  0.45594000000E+02  0.51100000000E-03 0. -1.
    9900012    2    1    2    0    0  0.27726619868E+02  0.67751059568E+00  0.29731158958E+02  0.50528852408E+02  0.29999977381E+02 0.  0.
         12    1    1    2    0    0 -0.27726619868E+02 -0.67751059568E+00 -0.29731158958E+02  0.40659147592E+02  0.00000000000E+00 0. -1.
         11    1    3    3    0    0 -0.26502912984E+01 -0.61975160662E+00  0.11276956164E+02  0.11600770518E+02  0.51100000000E-03 0. -1.
        -11    1    3    3    0    0  0.20761722843E+02 -0.41323632384E+01  0.18145234367E+02  0.27881447090E+02  0.51100000000E-03 0.  1.
         12    1    3    3    0    0  0.96151883236E+01  0.54296254406E+01  0.30896842624E+00  0.11046634800E+02  0.00000000000E+00 0. -1.
</event>
<event>
 7    1  0.6624035E-013  0.5052886E+02  0.7816164E-02  0.1300439E+00
        -11   -1    0    0    0    0  0.00000000000E+00  0.00000000000E+00  0.45593999997E+02  0.45594000000E+02  0.51100000000E-03 0.  1.
         11   -1    0    0    0    0 -0.00000000000E+00 -0.00000000000E+00 -0.45593999997E+02  0.45594000000E+02  0.51100000000E-03 0. -1.
    9900012    2    1    2    0    0 -0.31017976323E+02 -0.25385871841E+02  0.68270229632E+01  0.50528860968E+02  0.30000003399E+02 0.  0.
         12    1    1    2    0    0  0.31017976323E+02  0.25385871841E+02 -0.68270229632E+01  0.40659139032E+02  0.00000000000E+00 0. -1.
         11    1    3    3    0    0 -0.23282665679E+02 -0.12433969471E+02  0.14263172846E+02  0.30002070226E+02  0.51100000000E-03 0. -1.
        -11    1    3    3    0    0 -0.74209012679E+01 -0.35534149327E+01  0.46988560437E+00  0.82411968823E+01  0.51100000000E-03 0.  1.
         12    1    3    3    0    0 -0.31440937534E+00 -0.93984874376E+01 -0.79060354873E+01  0.12285593860E+02  0.00000000000E+00 0. -1.
</event>
<event>
 7    1  0.6624035E-013  0.5052886E+02  0.7816164E-02  0.1300439E+00
        -11   -1    0    0    0    0  0.00000000000E+00  0.00000000000E+00  0.45593999997E+02  0.45594000000E+02  0.51100000000E-03 0. -1.
         11   -1    0    0    0    0 -0.00000000000E+00 -0.00000000000E+00 -0.45593999997E+02  0.45594000000E+02  0.51100000000E-03 0.  1.
    9900012    2    1    2    0    0  0.36763362081E+02 -0.46880286050E+00 -0.17360897424E+02  0.50528864163E+02  0.30000013111E+02 0.  0.
         12    1    1    2    0    0 -0.36763362081E+02  0.46880286050E+00  0.17360897424E+02  0.40659135837E+02  0.00000000000E+00 0. -1.
         11    1    3    3    0    0  0.19479430396E+02 -0.24124798048E+01 -0.62332679700E+01  0.20594219995E+02  0.51100000000E-03 0. -1.
        -11    1    3    3    0    0  0.19697956650E+02 -0.36185573439E+01 -0.37340550025E+01  0.20372693009E+02  0.51100000000E-03 0.  1.
         12    1    3    3    0    0 -0.24140249644E+01  0.55622342882E+01 -0.73935744515E+01  0.95619511594E+01  0.00000000000E+00 0. -1.
</event>
<event>
 7    1  0.6624035E-013  0.5052887E+02  0.7816164E-02  0.1300439E+00
        -11   -1    0    0    0    0  0.00000000000E+00  0.00000000000E+00  0.45593999997E+02  0.45594000000E+02  0.51100000000E-03 0.  1.
         11   -1    0    0    0    0 -0.00000000000E+00 -0.00000000000E+00 -0.45593999997E+02  0.45594000000E+02  0.51100000000E-03 0. -1.
    9900012    2    1    2    0    0  0.10965802862E+02 -0.34668565993E+02  0.18193590921E+02  0.50528867557E+02  0.30000023428E+02 0.  0.
         12    1    1    2    0    0 -0.10965802862E+02  0.34668565993E+02 -0.18193590921E+02  0.40659132443E+02  0.00000000000E+00 0. -1.
         11    1    3    3    0    0  0.15793716713E+01 -0.80461201043E+01  0.88262113402E+01  0.12047259875E+02  0.51100000000E-03 0. -1.
        -11    1    3    3    0    0 -0.20339075989E+01 -0.21871832157E+02  0.13082280271E+02  0.25566772955E+02  0.51100000000E-03 0.  1.
         12    1    3    3    0    0  0.11420338789E+02 -0.47506137318E+01 -0.37149006904E+01  0.12914834727E+02  0.00000000000E+00 0. -1.
</event>
<event>
 7    1  0.6624035E-013  0.5052888E+02  0.7816164E-02  0.1300439E+00
        -11   -1    0    0    0    0  0.00000000000E+00  0.00000000000E+00  0.45593999997E+02  0.45594000000E+02  0.51100000000E-03 0. -1.
         11   -1    0    0    0    0 -0.00000000000E+00 -0.00000000000E+00 -0.45593999997E+02  0.45594000000E+02  0.51100000000E-03 0.  1.
    9900012    2    1    2    0    0  0.21619557077E+02  0.34077470315E+02  0.49482181877E+01  0.50528879319E+02  0.30000059179E+02 0.  0.
         12    1    1    2    0    0 -0.21619557077E+02 -0.34077470315E+02 -0.49482181877E+01  0.40659120681E+02  0.00000000000E+00 0. -1.
         11    1    3    3    0    0  0.33492879602E+00  0.13821461213E+01  0.32939931670E+01  0.35878818883E+01  0.51100000000E-03 0. -1.
        -11    1    3    3    0    0 -0.56450846745E+01  0.52482997205E+01  0.34553084121E+01  0.84469395299E+01  0.51100000000E-03 0.  1.
         12    1    3    3    0    0  0.26929712956E+02  0.27447024473E+02 -0.18010833914E+01  0.38494057901E+02  0.00000000000E+00 0. -1.
</event>
<event>
 7    1  0.6624035E-013  0.5052886E+02  0.7816164E-02  0.1300439E+00
        -11   -1    0    0    0    0  0.00000000000E+00  0.00000000000E+00  0.45593999997E+02  0.45594000000E+02  0.51100000000E-03 0.  1.
         11   -1    0    0    0    0 -0.00000000000E+00 -0.00000000000E+00 -0.45593999997E+02  0.45594000000E+02  0.51100000000E-03 0. -1.
    9900012    2    1    2    0    0 -0.18797037817E+02  0.18364602153E+02  0.31025453047E+02  0.50528856137E+02  0.29999988714E+02 0.  0.
         12    1    1    2    0    0  0.18797037817E+02 -0.18364602153E+02 -0.31025453047E+02  0.40659143863E+02  0.00000000000E+00 0. -1.
         11    1    3    3    0    0 -0.79829238390E+01  0.11651157935E+02  0.17251963090E+02  0.22295891661E+02  0.51100000000E-03 0. -1.
        -11    1    3    3    0    0 -0.16721866145E+02  0.75579751587E+01  0.12282407475E+02  0.22081696708E+02  0.51100000000E-03 0.  1.
         12    1    3    3    0    0  0.59077521672E+01 -0.84453094099E+00  0.14910824825E+01  0.61512677676E+01  0.00000000000E+00 0. -1.
</event>
<event>
 7    1  0.6624035E-013  0.5052886E+02  0.7816164E-02  0.1300439E+00
        -11   -1    0    0    0    0  0.00000000000E+00  0.00000000000E+00  0.45593999997E+02  0.45594000000E+02  0.51100000000E-03 0. -1.
         11   -1    0    0    0    0 -0.00000000000E+00 -0.00000000000E+00 -0.45593999997E+02  0.45594000000E+02  0.51100000000E-03 0.  1.
    9900012    2    1    2    0    0  0.20228716666E+01 -0.46209157926E+01 -0.40345019226E+02  0.50528862664E+02  0.30000008555E+02 0.  0.
         12    1    1    2    0    0 -0.20228716666E+01  0.46209157926E+01  0.40345019226E+02  0.40659137336E+02  0.00000000000E+00 0. -1.
         11    1    3    3    0    0  0.19280615261E+00  0.35687920558E+00  0.92621991816E+00  0.10111481483E+01  0.51100000000E-03 0. -1.
        -11    1    3    3    0    0 -0.82624939896E+01  0.72527716787E+01 -0.21723244011E+02  0.24346885521E+02  0.51100000000E-03 0.  1.
         12    1    3    3    0    0  0.10092559504E+02 -0.12230566677E+02 -0.19547995133E+02  0.25170828995E+02  0.00000000000E+00 0. -1.
</event>
<event>
 7    1  0.6624035E-013  0.5052887E+02  0.7816164E-02  0.1300439E+00
        -11   -1    0    0    0    0  0.00000000000E+00  0.00000000000E+00  0.45593999997E+02  0.45594000000E+02  0.51100000000E-03 0.  1.
         11   -1    0    0    0    0 -0.00000000000E+00 -0.00000000000E+00 -0.45593999997E+02  0.45594000000E+02  0.51100000000E-03 0. -1.
    9900012    2    1    2    0    0  0.14688830523E+02 -0.23178221691E+02  0.30002887731E+02  0.50528868491E+02  0.30000026265E+02 0.  0.
         12    1    1    2    0    0 -0.14688830523E+02  0.23178221691E+02 -0.30002887731E+02  0.40659131509E+02  0.00000000000E+00 0. -1.
         11    1    3    3    0    0  0.15314584524E+02 -0.15581473260E+01  0.99716103870E+01  0.18341137811E+02  0.51100000000E-03 0. -1.
        -11    1    3    3    0    0  0.43880071541E+01 -0.13512012432E+02  0.17063518218E+02  0.22203439846E+02  0.51100000000E-03 0.  1.
        -12    1    3    3    0    0 -0.50137611551E+01 -0.81080619331E+01  0.29677591258E+01  0.99842908341E+01  0.00000000000E+00 0.  1.
</event>
<event>
 7    1  0.6624035E-013  0.5052886E+02  0.7816164E-02  0.1300439E+00
        -11   -1    0    0    0    0  0.00000000000E+00  0.00000000000E+00  0.45593999997E+02  0.45594000000E+02  0.51100000000E-03 0.  1.
         11   -1    0    0    0    0 -0.00000000000E+00 -0.00000000000E+00 -0.45593999997E+02  0.45594000000E+02  0.51100000000E-03 0. -1.
    9900012    2    1    2    0    0 -0.31745802033E+02 -0.97547128571E+00  0.25385385586E+02  0.50528864590E+02  0.30000014408E+02 0.  0.
         12    1    1    2    0    0  0.31745802033E+02  0.97547128571E+00 -0.25385385586E+02  0.40659135410E+02  0.00000000000E+00 0. -1.
         11    1    3    3    0    0  0.14783032003E+01 -0.52926832786E+01  0.45461111838E+01  0.71319705409E+01  0.51100000000E-03 0. -1.
        -11    1    3    3    0    0 -0.11301335283E+02 -0.50721650087E+01  0.10952248531E+01  0.12435696796E+02  0.51100000000E-03 0.  1.
        -12    1    3    3    0    0 -0.21922769950E+02  0.93893770016E+01  0.19744049549E+02  0.30961197253E+02  0.00000000000E+00 0.  1.
</event>
<event>
 7    1  0.6624035E-013  0.5052886E+02  0.7816164E-02  0.1300439E+00
        -11   -1    0    0    0    0  0.00000000000E+00  0.00000000000E+00  0.45593999997E+02  0.45594000000E+02  0.51100000000E-03 0. -1.
         11   -1    0    0    0    0 -0.00000000000E+00 -0.00000000000E+00 -0.45593999997E+02  0.45594000000E+02  0.51100000000E-03 0.  1.
    9900012    2    1    2    0    0  0.33587404279E+02 -0.59433277331E+01 -0.22129809612E+02  0.50528863952E+02  0.30000012469E+02 0.  0.
         12    1    1    2    0    0 -0.33587404279E+02  0.59433277331E+01  0.22129809612E+02  0.40659136048E+02  0.00000000000E+00 0. -1.
         11    1    3    3    0    0  0.27597497014E+01 -0.76674792995E+01 -0.96834719557E+01  0.12656069161E+02  0.51100000000E-03 0. -1.
        -11    1    3    3    0    0 -0.51861527001E+00 -0.37073568221E+01 -0.91344877639E-01  0.37445694749E+01  0.51100000000E-03 0.  1.
         12    1    3    3    0    0  0.31346269847E+02  0.54315083886E+01 -0.12354992778E+02  0.34128225317E+02  0.00000000000E+00 0. -1.
</event>
<event>
 7    1  0.6624035E-013  0.5052886E+02  0.7816164E-02  0.1300439E+00
        -11   -1    0    0    0    0  0.00000000000E+00  0.00000000000E+00  0.45593999997E+02  0.45594000000E+02  0.51100000000E-03 0.  1.
         11   -1    0    0    0    0 -0.00000000000E+00 -0.00000000000E+00 -0.45593999997E+02  0.45594000000E+02  0.51100000000E-03 0. -1.
    9900012    2    1    2    0    0  0.19074376888E+02 -0.29427918650E+01  0.35786497745E+02  0.50528864514E+02  0.30000014177E+02 0.  0.
         12    1    1    2    0    0 -0.19074376888E+02  0.29427918650E+01 -0.35786497745E+02  0.40659135486E+02  0.00000000000E+00 0. -1.
         11    1    3    3    0    0  0.19952365789E+02 -0.41670658518E+01  0.18207500284E+02  0.27330832502E+02  0.51100000000E-03 0. -1.
        -11    1    3    3    0    0  0.60373829882E+01 -0.13146172537E+01  0.13333340653E+02  0.14695447768E+02  0.51100000000E-03 0.  1.
         12    1    3    3    0    0 -0.69153718893E+01  0.25388912405E+01  0.42456568074E+01  0.85025842439E+01  0.00000000000E+00 0. -1.
</event>
<event>
 7    1  0.6624035E-013  0.5052884E+02  0.7816164E-02  0.1300439E+00
        -11   -1    0    0    0    0  0.00000000000E+00  0.00000000000E+00  0.45593999997E+02  0.45594000000E+02  0.51100000000E-03 0. -1.
         11   -1    0    0    0    0 -0.00000000000E+00 -0.00000000000E+00 -0.45593999997E+02  0.45594000000E+02  0.51100000000E-03 0.  1.
    9900012    2    1    2    0    0 -0.25185136669E+02  0.15232994396E+02 -0.28050529447E+02  0.50528838307E+02  0.29999934518E+02 0.  0.
         12    1    1    2    0    0  0.25185136669E+02 -0.15232994396E+02  0.28050529447E+02  0.40659161693E+02  0.00000000000E+00 0. -1.
         11    1    3    3    0    0 -0.10083354609E+02 -0.56607386102E+01 -0.18325361761E+02  0.21668799821E+02  0.51100000000E-03 0. -1.
        -11    1    3    3    0    0 -0.12154570202E+00  0.25266544487E+01 -0.35648252362E+01  0.43711251740E+01  0.51100000000E-03 0.  1.
         12    1    3    3    0    0 -0.14980236358E+02  0.18367078557E+02 -0.61603424505E+01  0.24488913312E+02  0.00000000000E+00 0. -1.
</event>
<event>
 7    1  0.6624035E-013  0.5052886E+02  0.7816164E-02  0.1300439E+00
        -11   -1    0    0    0    0  0.00000000000E+00  0.00000000000E+00  0.45593999997E+02  0.45594000000E+02  0.51100000000E-03 0.  1.
         11   -1    0    0    0    0 -0.00000000000E+00 -0.00000000000E+00 -0.45593999997E+02  0.45594000000E+02  0.51100000000E-03 0. -1.
    9900012    2    1    2    0    0 -0.38511727429E+00  0.29618218051E+02  0.27852805387E+02  0.50528856824E+02  0.29999990803E+02 0.  0.
         12    1    1    2    0    0  0.38511727429E+00 -0.29618218051E+02 -0.27852805387E+02  0.40659143176E+02  0.00000000000E+00 0. -1.
         11    1    3    3    0    0 -0.70173779394E+01  0.42446999108E+00  0.89585125518E+00  0.70870528184E+01  0.51100000000E-03 0. -1.
        -11    1    3    3    0    0  0.10528896854E+01  0.10625467450E+02  0.20309903311E+02  0.22945616313E+02  0.51100000000E-03 0.  1.
        -12    1    3    3    0    0  0.55793709797E+01  0.18568280610E+02  0.66470508215E+01  0.20496187693E+02  0.00000000000E+00 0.  1.
</event>
<event>
 7    1  0.6624035E-013  0.5052888E+02  0.7816164E-02  0.1300439E+00
        -11   -1    0    0    0    0  0.00000000000E+00  0.00000000000E+00  0.45593999997E+02  0.45594000000E+02  0.51100000000E-03 0.  1.
         11   -1    0    0    0    0 -0.00000000000E+00 -0.00000000000E+00 -0.45593999997E+02  0.45594000000E+02  0.51100000000E-03 0. -1.
    9900012    2    1    2    0    0 -0.31795428291E+01  0.45891858731E+01  0.40273990428E+02  0.50528875261E+02  0.30000046843E+02 0.  0.
         12    1    1    2    0    0  0.31795428291E+01 -0.45891858731E+01 -0.40273990428E+02  0.40659124739E+02  0.00000000000E+00 0. -1.
         11    1    3    3    0    0  0.27579386835E+01 -0.30618605529E+01  0.20277827128E+02  0.20692305070E+02  0.51100000000E-03 0. -1.
        -11    1    3    3    0    0 -0.34805106691E+01 -0.15538236707E+00  0.21270553767E+02  0.21553991649E+02  0.51100000000E-03 0.  1.
         12    1    3    3    0    0 -0.24569708435E+01  0.78064287931E+01 -0.12743904674E+01  0.82825785411E+01  0.00000000000E+00 0. -1.
</event>
<event>
 7    1  0.6624035E-013  0.5052887E+02  0.7816164E-02  0.1300439E+00
        -11   -1    0    0    0    0  0.00000000000E+00  0.00000000000E+00  0.45593999997E+02  0.45594000000E+02  0.51100000000E-03 0. -1.
         11   -1    0    0    0    0 -0.00000000000E+00 -0.00000000000E+00 -0.45593999997E+02  0.45594000000E+02  0.51100000000E-03 0.  1.
    9900012    2    1    2    0    0 -0.10165061362E+02 -0.25437339970E+02 -0.30046271987E+02  0.50528865755E+02  0.30000017948E+02 0.  0.
         12    1    1    2    0    0  0.10165061362E+02  0.25437339970E+02  0.30046271987E+02  0.40659134245E+02  0.00000000000E+00 0. -1.
         11    1    3    3    0    0 -0.17452601790E+01 -0.29054914008E+01  0.12487222093E+01  0.36120798427E+01  0.51100000000E-03 0. -1.
        -11    1    3    3    0    0 -0.10234583202E+02 -0.21691128885E+02 -0.10764807099E+02  0.26289405428E+02  0.51100000000E-03 0.  1.
        -12    1    3    3    0    0  0.18147820196E+01 -0.84071968485E+00 -0.20530187098E+02  0.20627380484E+02  0.00000000000E+00 0.  1.
</event>
<event>
 7    1  0.6624035E-013  0.5052887E+02  0.7816164E-02  0.1300439E+00
        -11   -1    0    0    0    0  0.00000000000E+00  0.00000000000E+00  0.45593999997E+02  0.45594000000E+02  0.51100000000E-03 0.  1.
         11   -1    0    0    0    0 -0.00000000000E+00 -0.00000000000E+00 -0.45593999997E+02  0.45594000000E+02  0.51100000000E-03 0. -1.
    9900012    2    1    2    0    0  0.82185006737E+01  0.14564714389E+02  0.37060631595E+02  0.50528867290E+02  0.30000022613E+02 0.  0.
         12    1    1    2    0    0 -0.82185006737E+01 -0.14564714389E+02 -0.37060631595E+02  0.40659132710E+02  0.00000000000E+00 0. -1.
         11    1    3    3    0    0  0.58618239373E+01 -0.19946184199E+01 -0.19695884308E+01  0.64975965834E+01  0.51100000000E-03 0. -1.
        -11    1    3    3    0    0 -0.30265661422E+01  0.67818373934E+01  0.73766479771E+01  0.10467490467E+02  0.51100000000E-03 0.  1.
        -12    1    3    3    0    0  0.53832428787E+01  0.97774954150E+01  0.31653572049E+02  0.33563780239E+02  0.00000000000E+00 0.  1.
</event>
<event>
 7    1  0.6624035E-013  0.5052886E+02  0.7816164E-02  0.1300439E+00
        -11   -1    0    0    0    0  0.00000000000E+00  0.00000000000E+00  0.45593999997E+02  0.45594000000E+02  0.51100000000E-03 0.  1.
         11   -1    0    0    0    0 -0.00000000000E+00 -0.00000000000E+00 -0.45593999997E+02  0.45594000000E+02  0.51100000000E-03 0. -1.
    9900012    2    1    2    0    0  0.36048596776E+02  0.18449739894E+02  0.36430503977E+01  0.50528855298E+02  0.29999986163E+02 0.  0.
         12    1    1    2    0    0 -0.36048596776E+02 -0.18449739894E+02 -0.36430503977E+01  0.40659144702E+02  0.00000000000E+00 0. -1.
         11    1    3    3    0    0  0.11150351943E+02 -0.35369241282E-01  0.66345842796E+01  0.12974949259E+02  0.51100000000E-03 0. -1.
        -11    1    3    3    0    0  0.60484016077E+01  0.69763169063E+01  0.85942333761E+01  0.12614000443E+02  0.51100000000E-03 0.  1.
        -12    1    3    3    0    0  0.18849843225E+02  0.11508792229E+02 -0.11585767258E+02  0.24939905596E+02  0.00000000000E+00 0.  1.
</event>
<event>
 7    1  0.6624035E-013  0.5052885E+02  0.7816164E-02  0.1300439E+00
        -11   -1    0    0    0    0  0.00000000000E+00  0.00000000000E+00  0.45593999997E+02  0.45594000000E+02  0.51100000000E-03 0.  1.
         11   -1    0    0    0    0 -0.00000000000E+00 -0.00000000000E+00 -0.45593999997E+02  0.45594000000E+02  0.51100000000E-03 0. -1.
    9900012    2    1    2    0    0  0.26450581516E+02  0.10103513692E+02  0.29179653294E+02  0.50528850749E+02  0.29999972336E+02 0.  0.
         12    1    1    2    0    0 -0.26450581516E+02 -0.10103513692E+02 -0.29179653294E+02  0.40659149251E+02  0.00000000000E+00 0. -1.
         11    1    3    3    0    0  0.68859169851E+01 -0.46147866950E+01  0.13117394630E+02  0.15517027779E+02  0.51100000000E-03 0. -1.
        -11    1    3    3    0    0  0.15565677503E+02  0.10690262413E+02  0.20452111564E+02  0.27836323290E+02  0.51100000000E-03 0.  1.
         12    1    3    3    0    0  0.39989870283E+01  0.40280379742E+01 -0.43898529002E+01  0.71754996801E+01  0.00000000000E+00 0. -1.
</event>
<event>
 7    1  0.6624035E-013  0.5052889E+02  0.7816164E-02  0.1300439E+00
        -11   -1    0    0    0    0  0.00000000000E+00  0.00000000000E+00  0.45593999997E+02  0.45594000000E+02  0.51100000000E-03 0. -1.
         11   -1    0    0    0    0 -0.00000000000E+00 -0.00000000000E+00 -0.45593999997E+02  0.45594000000E+02  0.51100000000E-03 0.  1.
    9900012    2    1    2    0    0 -0.24717485841E+02 -0.10239889775E+02 -0.30616231538E+02  0.50528891765E+02  0.30000097009E+02 0.  0.
         12    1    1    2    0    0  0.24717485841E+02  0.10239889775E+02  0.30616231538E+02  0.40659108235E+02  0.00000000000E+00 0. -1.
         11    1    3    3    0    0 -0.52256438653E+01 -0.14751540487E+01  0.40344572204E+01  0.67646344025E+01  0.51100000000E-03 0. -1.
        -11    1    3    3    0    0  0.25040604495E+01  0.55175418077E+00 -0.17423828710E+01  0.31001047952E+01  0.51100000000E-03 0.  1.
        -12    1    3    3    0    0 -0.21995902425E+02 -0.93164899075E+01 -0.32908305887E+02  0.40664152568E+02  0.00000000000E+00 0.  1.
</event>
<event>
 7    1  0.6624035E-013  0.5052885E+02  0.7816164E-02  0.1300439E+00
        -11   -1    0    0    0    0  0.00000000000E+00  0.00000000000E+00  0.45593999997E+02  0.45594000000E+02  0.51100000000E-03 0.  1.
         11   -1    0    0    0    0 -0.00000000000E+00 -0.00000000000E+00 -0.45593999997E+02  0.45594000000E+02  0.51100000000E-03 0. -1.
    9900012    2    1    2    0    0 -0.20973163648E+02 -0.29032704101E-01  0.34832339936E+02  0.50528851685E+02  0.29999975181E+02 0.  0.
         12    1    1    2    0    0  0.20973163648E+02  0.29032704101E-01 -0.34832339936E+02  0.40659148315E+02  0.00000000000E+00 0. -1.
         11    1    3    3    0    0 -0.13961792553E+01 -0.43493651182E+01  0.36856792647E+01  0.58694569892E+01  0.51100000000E-03 0. -1.
        -11    1    3    3    0    0 -0.19870815963E+02 -0.58123254292E+01  0.14892440072E+02  0.25503278721E+02  0.51100000000E-03 0.  1.
        -12    1    3    3    0    0  0.29383157022E+00  0.10132657843E+02  0.16254220599E+02  0.19156115975E+02  0.00000000000E+00 0.  1.
</event>
<event>
 7    1  0.6624035E-013  0.5052886E+02  0.7816164E-02  0.1300439E+00
        -11   -1    0    0    0    0  0.00000000000E+00  0.00000000000E+00  0.45593999997E+02  0.45594000000E+02  0.51100000000E-03 0. -1.
         11   -1    0    0    0    0 -0.00000000000E+00 -0.00000000000E+00 -0.45593999997E+02  0.45594000000E+02  0.51100000000E-03 0.  1.
    9900012    2    1    2    0    0  0.11839701849E+02 -0.34416240838E+02 -0.18124828510E+02  0.50528861029E+02  0.30000003585E+02 0.  0.
         12    1    1    2    0    0 -0.11839701849E+02  0.34416240838E+02  0.18124828510E+02  0.40659138971E+02  0.00000000000E+00 0. -1.
         11    1    3    3    0    0 -0.34693928192E+01  0.54249780198E+00 -0.84797668449E-01  0.35125747401E+01  0.51100000000E-03 0. -1.
        -11    1    3    3    0    0 -0.13918399947E+00 -0.21736192103E+02 -0.34959355829E+01  0.22015971139E+02  0.51100000000E-03 0.  1.
        -12    1    3    3    0    0  0.15448278668E+02 -0.13222546537E+02 -0.14544095259E+02  0.25000315150E+02  0.00000000000E+00 0.  1.
</event>
<event>
 7    1  0.6624035E-013  0.5052886E+02  0.7816164E-02  0.1300439E+00
        -11   -1    0    0    0    0  0.00000000000E+00  0.00000000000E+00  0.45593999997E+02  0.45594000000E+02  0.51100000000E-03 0. -1.
         11   -1    0    0    0    0 -0.00000000000E+00 -0.00000000000E+00 -0.45593999997E+02  0.45594000000E+02  0.51100000000E-03 0.  1.
    9900012    2    1    2    0    0 -0.25760917550E+02 -0.12148729664E+02 -0.29016355531E+02  0.50528863342E+02  0.30000010613E+02 0.  0.
         12    1    1    2    0    0  0.25760917550E+02  0.12148729664E+02  0.29016355531E+02  0.40659136658E+02  0.00000000000E+00 0. -1.
         11    1    3    3    0    0  0.18361953112E+01 -0.18882800693E+01  0.35988939977E+01  0.44597368879E+01  0.51100000000E-03 0. -1.
        -11    1    3    3    0    0 -0.49998073480E+01  0.32209485524E+01 -0.85195474963E+01  0.10390152689E+02  0.51100000000E-03 0.  1.
         12    1    3    3    0    0 -0.22597305513E+02 -0.13481398148E+02 -0.24095702033E+02  0.35678973765E+02  0.00000000000E+00 0. -1.
</event>
<event>
 7    1  0.6624035E-013  0.5052888E+02  0.7816164E-02  0.1300439E+00
        -11   -1    0    0    0    0  0.00000000000E+00  0.00000000000E+00  0.45593999997E+02  0.45594000000E+02  0.51100000000E-03 0.  1.
         11   -1    0    0    0    0 -0.00000000000E+00 -0.00000000000E+00 -0.45593999997E+02  0.45594000000E+02  0.51100000000E-03 0. -1.
    9900012    2    1    2    0    0  0.28540640859E+02 -0.25122126624E+00  0.28957428806E+02  0.50528880779E+02  0.30000063617E+02 0.  0.
         12    1    1    2    0    0 -0.28540640859E+02  0.25122126624E+00 -0.28957428806E+02  0.40659119221E+02  0.00000000000E+00 0. -1.
         11    1    3    3    0    0  0.69926950669E+01 -0.46622989170E+01 -0.22301300450E+01  0.86953030867E+01  0.51100000000E-03 0. -1.
        -11    1    3    3    0    0  0.65920922160E+01  0.50280890046E+01  0.12796433257E+01  0.83889716965E+01  0.51100000000E-03 0.  1.
        -12    1    3    3    0    0  0.14955853576E+02 -0.61701135383E+00  0.29907915525E+02  0.33444605996E+02  0.00000000000E+00 0.  1.
</event>
<event>
 7    1  0.6624035E-013  0.5052884E+02  0.7816164E-02  0.1300439E+00
        -11   -1    0    0    0    0  0.00000000000E+00  0.00000000000E+00  0.45593999997E+02  0.45594000000E+02  0.51100000000E-03 0. -1.
         11   -1    0    0    0    0 -0.00000000000E+00 -0.00000000000E+00 -0.45593999997E+02  0.45594000000E+02  0.51100000000E-03 0.  1.
    9900012    2    1    2    0    0 -0.37035714144E+01  0.27877816785E+02 -0.29364570658E+02  0.50528842116E+02  0.29999946096E+02 0.  0.
         12    1    1    2    0    0  0.37035714144E+01 -0.27877816785E+02  0.29364570658E+02  0.40659157884E+02  0.00000000000E+00 0. -1.
         11    1    3    3    0    0  0.36217039861E+01 -0.82963845323E+00 -0.39970189695E+01  0.54572154649E+01  0.51100000000E-03 0. -1.
        -11    1    3    3    0    0  0.30576951109E+01  0.25807122461E+02 -0.21108981114E+02  0.33480533941E+02  0.51100000000E-03 0.  1.
        -12    1    3    3    0    0 -0.10382970511E+02  0.29003327779E+01 -0.42585705745E+01  0.11591092710E+02  0.00000000000E+00 0.  1.
</event>
<event>
 7    1  0.6624035E-013  0.5052882E+02  0.7816164E-02  0.1300439E+00
        -11   -1    0    0    0    0  0.00000000000E+00  0.00000000000E+00  0.45593999997E+02  0.45594000000E+02  0.51100000000E-03 0. -1.
         11   -1    0    0    0    0 -0.00000000000E+00 -0.00000000000E+00 -0.45593999997E+02  0.45594000000E+02  0.51100000000E-03 0.  1.
    9900012    2    1    2    0    0  0.30418000043E+02 -0.23000298203E+02 -0.14103197951E+02  0.50528823465E+02  0.29999889405E+02 0.  0.
         12    1    1    2    0    0 -0.30418000043E+02  0.23000298203E+02  0.14103197951E+02  0.40659176535E+02  0.00000000000E+00 0. -1.
         11    1    3    3    0    0  0.16607492914E+02 -0.24595380646E+01 -0.12712143360E+02  0.21058412510E+02  0.51100000000E-03 0.  1.
        -11    1    3    3    0    0  0.78587114891E+01 -0.10490491971E+02  0.72147961769E+01  0.14962053742E+02  0.51100000000E-03 0. -1.
         12    1    3    3    0    0  0.59517956396E+01 -0.10050268168E+02 -0.86058507679E+01  0.14508357213E+02  0.00000000000E+00 0. -1.
</event>
<event>
 7    1  0.6624035E-013  0.5052885E+02  0.7816164E-02  0.1300439E+00
        -11   -1    0    0    0    0  0.00000000000E+00  0.00000000000E+00  0.45593999997E+02  0.45594000000E+02  0.51100000000E-03 0.  1.
         11   -1    0    0    0    0 -0.00000000000E+00 -0.00000000000E+00 -0.45593999997E+02  0.45594000000E+02  0.51100000000E-03 0. -1.
    9900012    2    1    2    0    0 -0.29591014782E+02 -0.24264671949E+02  0.13739138414E+02  0.50528851153E+02  0.29999973565E+02 0.  0.
         12    1    1    2    0    0  0.29591014782E+02  0.24264671949E+02 -0.13739138414E+02  0.40659148847E+02  0.00000000000E+00 0. -1.
         11    1    3    3    0    0 -0.18915664386E+02 -0.18540882412E+02  0.81011367585E+01  0.27698286894E+02  0.51100000000E-03 0. -1.
        -11    1    3    3    0    0 -0.11247726998E+02 -0.79202762513E+01  0.10604835386E+02  0.17369648020E+02  0.51100000000E-03 0.  1.
         12    1    3    3    0    0  0.57237660192E+00  0.21964867149E+01 -0.49668337308E+01  0.54609162393E+01  0.00000000000E+00 0. -1.
</event>
<event>
 7    1  0.6624035E-013  0.5052885E+02  0.7816164E-02  0.1300439E+00
        -11   -1    0    0    0    0  0.00000000000E+00  0.00000000000E+00  0.45593999997E+02  0.45594000000E+02  0.51100000000E-03 0. -1.
         11   -1    0    0    0    0 -0.00000000000E+00 -0.00000000000E+00 -0.45593999997E+02  0.45594000000E+02  0.51100000000E-03 0.  1.
    9900012    2    1    2    0    0  0.32705506349E+02 -0.18197670339E+01 -0.24087436287E+02  0.50528852389E+02  0.29999977320E+02 0.  0.
         12    1    1    2    0    0 -0.32705506349E+02  0.18197670339E+01  0.24087436287E+02  0.40659147611E+02  0.00000000000E+00 0. -1.
         11    1    3    3    0    0  0.66013494263E+01 -0.32169859954E+01 -0.67959465648E+01  0.10005583597E+02  0.51100000000E-03 0. -1.
        -11    1    3    3    0    0  0.25150974122E+02 -0.85935493890E+01 -0.13325055687E+02  0.29731762472E+02  0.51100000000E-03 0.  1.
        -12    1    3    3    0    0  0.95318280089E+00  0.99907683505E+01 -0.39664340357E+01  0.10791506320E+02  0.00000000000E+00 0.  1.
</event>
<event>
 7    1  0.6624035E-013  0.5052884E+02  0.7816164E-02  0.1300439E+00
        -11   -1    0    0    0    0  0.00000000000E+00  0.00000000000E+00  0.45593999997E+02  0.45594000000E+02  0.51100000000E-03 0. -1.
         11   -1    0    0    0    0 -0.00000000000E+00 -0.00000000000E+00 -0.45593999997E+02  0.45594000000E+02  0.51100000000E-03 0.  1.
    9900012    2    1    2    0    0 -0.15614531549E+01 -0.25633334775E+02 -0.31522398481E+02  0.50528836289E+02  0.29999928384E+02 0.  0.
         12    1    1    2    0    0  0.15614531549E+01  0.25633334775E+02  0.31522398481E+02  0.40659163711E+02  0.00000000000E+00 0. -1.
         11    1    3    3    0    0 -0.17058542995E+01 -0.57556466797E+01 -0.46162527640E+01  0.75727932386E+01  0.51100000000E-03 0.  1.
        -11    1    3    3    0    0 -0.51942927731E+00 -0.26021120338E+02 -0.25859204949E+02  0.36688785634E+02  0.51100000000E-03 0. -1.
         12    1    3    3    0    0  0.66383042192E+00  0.61434322432E+01 -0.10469407688E+01  0.62672574168E+01  0.00000000000E+00 0. -1.
</event>
<event>
 7    1  0.6624035E-013  0.5052887E+02  0.7816164E-02  0.1300439E+00
        -11   -1    0    0    0    0  0.00000000000E+00  0.00000000000E+00  0.45593999997E+02  0.45594000000E+02  0.51100000000E-03 0.  1.
         11   -1    0    0    0    0 -0.00000000000E+00 -0.00000000000E+00 -0.45593999997E+02  0.45594000000E+02  0.51100000000E-03 0. -1.
    9900012    2    1    2    0    0  0.10881491826E+02  0.29730538050E+02  0.25511830152E+02  0.50528865297E+02  0.30000016557E+02 0.  0.
         12    1    1    2    0    0 -0.10881491826E+02 -0.29730538050E+02 -0.25511830152E+02  0.40659134703E+02  0.00000000000E+00 0. -1.
         11    1    3    3    0    0 -0.20948622040E+01  0.71595408750E+01 -0.10782583831E+01  0.75372484765E+01  0.51100000000E-03 0. -1.
        -11    1    3    3    0    0  0.11608119053E+02  0.45262625628E+00  0.94885031882E+01  0.14999499708E+02  0.51100000000E-03 0.  1.
        -12    1    3    3    0    0  0.13682349765E+01  0.22118370919E+02  0.17101585347E+02  0.27992117112E+02  0.00000000000E+00 0.  1.
</event>
<event>
 7    1  0.6624035E-013  0.5052886E+02  0.7816164E-02  0.1300439E+00
        -11   -1    0    0    0    0  0.00000000000E+00  0.00000000000E+00  0.45593999997E+02  0.45594000000E+02  0.51100000000E-03 0.  1.
         11   -1    0    0    0    0 -0.00000000000E+00 -0.00000000000E+00 -0.45593999997E+02  0.45594000000E+02  0.51100000000E-03 0. -1.
    9900012    2    1    2    0    0  0.23527099190E+02 -0.13347095270E+02  0.30356158973E+02  0.50528859133E+02  0.29999997820E+02 0.  0.
         12    1    1    2    0    0 -0.23527099190E+02  0.13347095270E+02 -0.30356158973E+02  0.40659140867E+02  0.00000000000E+00 0. -1.
         11    1    3    3    0    0  0.79240057750E+01  0.58261723717E+00  0.20256272646E+02  0.21758811827E+02  0.51100000000E-03 0.  1.
        -11    1    3    3    0    0  0.44658735203E+01 -0.76206115590E+00  0.10588636936E+02  0.11517117518E+02  0.51100000000E-03 0. -1.
         12    1    3    3    0    0  0.11137219894E+02 -0.13167651352E+02 -0.48875060863E+00  0.17252929787E+02  0.00000000000E+00 0. -1.
</event>
<event>
 7    1  0.6624035E-013  0.5052888E+02  0.7816164E-02  0.1300439E+00
        -11   -1    0    0    0    0  0.00000000000E+00  0.00000000000E+00  0.45593999997E+02  0.45594000000E+02  0.51100000000E-03 0.  1.
         11   -1    0    0    0    0 -0.00000000000E+00 -0.00000000000E+00 -0.45593999997E+02  0.45594000000E+02  0.51100000000E-03 0. -1.
    9900012    2    1    2    0    0  0.20314544649E+02 -0.47079125213E+01  0.34904420623E+02  0.50528883634E+02  0.30000072295E+02 0.  0.
         12    1    1    2    0    0 -0.20314544649E+02  0.47079125213E+01 -0.34904420623E+02  0.40659116366E+02  0.00000000000E+00 0. -1.
         11    1    3    3    0    0  0.12782773132E+02 -0.14926119712E+01  0.66512461910E+01  0.14486761391E+02  0.51100000000E-03 0. -1.
        -11    1    3    3    0    0  0.96059699108E-02 -0.41764147474E+01 -0.21570965658E+01  0.47005955232E+01  0.51100000000E-03 0.  1.
         12    1    3    3    0    0  0.75221655473E+01  0.96111419728E+00  0.30410270997E+02  0.31341526720E+02  0.00000000000E+00 0. -1.
</event>
<event>
 7    1  0.6624035E-013  0.5052888E+02  0.7816164E-02  0.1300439E+00
        -11   -1    0    0    0    0  0.00000000000E+00  0.00000000000E+00  0.45593999997E+02  0.45594000000E+02  0.51100000000E-03 0. -1.
         11   -1    0    0    0    0 -0.00000000000E+00 -0.00000000000E+00 -0.45593999997E+02  0.45594000000E+02  0.51100000000E-03 0.  1.
    9900012    2    1    2    0    0 -0.37016520987E+02  0.99871129054E+01 -0.13535097390E+02  0.50528879111E+02  0.30000058544E+02 0.  0.
         12    1    1    2    0    0  0.37016520987E+02 -0.99871129054E+01  0.13535097390E+02  0.40659120889E+02  0.00000000000E+00 0. -1.
         11    1    3    3    0    0  0.13982745322E+01  0.14382445639E+01  0.19361106217E+01  0.27878744042E+01  0.51100000000E-03 0. -1.
        -11    1    3    3    0    0 -0.20736937407E+02  0.59917253653E+00 -0.18891680780E+02  0.28058424469E+02  0.51100000000E-03 0.  1.
         12    1    3    3    0    0 -0.17677858112E+02  0.79496958049E+01  0.34204727686E+01  0.19682580237E+02  0.00000000000E+00 0. -1.
</event>
<event>
 7    1  0.6624035E-013  0.5052886E+02  0.7816164E-02  0.1300439E+00
        -11   -1    0    0    0    0  0.00000000000E+00  0.00000000000E+00  0.45593999997E+02  0.45594000000E+02  0.51100000000E-03 0. -1.
         11   -1    0    0    0    0 -0.00000000000E+00 -0.00000000000E+00 -0.45593999997E+02  0.45594000000E+02  0.51100000000E-03 0.  1.
    9900012    2    1    2    0    0  0.25231434543E+02  0.12449623282E+01 -0.31858914231E+02  0.50528860359E+02  0.30000001549E+02 0.  0.
         12    1    1    2    0    0 -0.25231434543E+02 -0.12449623282E+01  0.31858914231E+02  0.40659139641E+02  0.00000000000E+00 0. -1.
         11    1    3    3    0    0  0.19890455807E+01  0.26300464324E+01  0.19893050876E+01  0.38510753760E+01  0.51100000000E-03 0. -1.
        -11    1    3    3    0    0  0.62155869561E+01 -0.82925314958E+01 -0.30293809792E+01  0.10797071325E+02  0.51100000000E-03 0.  1.
         12    1    3    3    0    0  0.17026802006E+02  0.69074473916E+01 -0.30818838340E+02  0.35880713659E+02  0.00000000000E+00 0. -1.
</event>
<event>
 7    1  0.6624035E-013  0.5052886E+02  0.7816164E-02  0.1300439E+00
        -11   -1    0    0    0    0  0.00000000000E+00  0.00000000000E+00  0.45593999997E+02  0.45594000000E+02  0.51100000000E-03 0. -1.
         11   -1    0    0    0    0 -0.00000000000E+00 -0.00000000000E+00 -0.45593999997E+02  0.45594000000E+02  0.51100000000E-03 0.  1.
    9900012    2    1    2    0    0  0.21194842242E+02 -0.31522816120E+02  0.14500230976E+02  0.50528856230E+02  0.29999988997E+02 0.  0.
         12    1    1    2    0    0 -0.21194842242E+02  0.31522816120E+02 -0.14500230976E+02  0.40659143770E+02  0.00000000000E+00 0. -1.
         11    1    3    3    0    0  0.10030534087E+02 -0.17701763686E+02 -0.46640827864E+01  0.20873852547E+02  0.51100000000E-03 0. -1.
        -11    1    3    3    0    0  0.57824250990E+01 -0.11436889341E+02  0.40585334351E+01  0.13442863227E+02  0.51100000000E-03 0.  1.
         12    1    3    3    0    0  0.53818830554E+01 -0.23841630920E+01  0.15105780327E+02  0.16212140456E+02  0.00000000000E+00 0. -1.
</event>
<event>
 7    1  0.6624035E-013  0.5052886E+02  0.7816164E-02  0.1300439E+00
        -11   -1    0    0    0    0  0.00000000000E+00  0.00000000000E+00  0.45593999997E+02  0.45594000000E+02  0.51100000000E-03 0. -1.
         11   -1    0    0    0    0 -0.00000000000E+00 -0.00000000000E+00 -0.45593999997E+02  0.45594000000E+02  0.51100000000E-03 0.  1.
    9900012    2    1    2    0    0  0.35983910521E+02 -0.17641872828E+02 -0.68620734605E+01  0.50528861477E+02  0.30000004944E+02 0.  0.
         12    1    1    2    0    0 -0.35983910521E+02  0.17641872828E+02  0.68620734605E+01  0.40659138523E+02  0.00000000000E+00 0. -1.
         11    1    3    3    0    0  0.22569598416E+02 -0.87281346175E+01 -0.36165967632E+01  0.24467261370E+02  0.51100000000E-03 0. -1.
        -11    1    3    3    0    0  0.81421037672E+01 -0.15440607618E+02 -0.18097070786E+01  0.17549394785E+02  0.51100000000E-03 0.  1.
         12    1    3    3    0    0  0.52722083383E+01  0.65268694076E+01 -0.14357696188E+01  0.85122053209E+01  0.00000000000E+00 0. -1.
</event>
<event>
 7    1  0.6624035E-013  0.5052886E+02  0.7816164E-02  0.1300439E+00
        -11   -1    0    0    0    0  0.00000000000E+00  0.00000000000E+00  0.45593999997E+02  0.45594000000E+02  0.51100000000E-03 0.  1.
         11   -1    0    0    0    0 -0.00000000000E+00 -0.00000000000E+00 -0.45593999997E+02  0.45594000000E+02  0.51100000000E-03 0. -1.
    9900012    2    1    2    0    0  0.25658030804E+02  0.97635174609E+01  0.29991739932E+02  0.50528864715E+02  0.30000014788E+02 0.  0.
         12    1    1    2    0    0 -0.25658030804E+02 -0.97635174609E+01 -0.29991739932E+02  0.40659135285E+02  0.00000000000E+00 0. -1.
         11    1    3    3    0    0  0.13011451243E+02  0.52485869798E+01  0.22962811569E+02  0.26909779712E+02  0.51100000000E-03 0. -1.
        -11    1    3    3    0    0  0.73446256864E+01 -0.14929573620E+01  0.12029978153E+02  0.14173666525E+02  0.51100000000E-03 0.  1.
         12    1    3    3    0    0  0.53019538743E+01  0.60078878431E+01 -0.50010497893E+01  0.94454184775E+01  0.00000000000E+00 0. -1.
</event>
<event>
 7    1  0.6624035E-013  0.5052886E+02  0.7816164E-02  0.1300439E+00
        -11   -1    0    0    0    0  0.00000000000E+00  0.00000000000E+00  0.45593999997E+02  0.45594000000E+02  0.51100000000E-03 0.  1.
         11   -1    0    0    0    0 -0.00000000000E+00 -0.00000000000E+00 -0.45593999997E+02  0.45594000000E+02  0.51100000000E-03 0. -1.
    9900012    2    1    2    0    0  0.21563278229E+02 -0.31178866794E+02  0.14699272943E+02  0.50528864156E+02  0.30000013088E+02 0.  0.
         12    1    1    2    0    0 -0.21563278229E+02  0.31178866794E+02 -0.14699272943E+02  0.40659135844E+02  0.00000000000E+00 0. -1.
         11    1    3    3    0    0 -0.12203042529E+01 -0.11018961648E+02  0.67373924118E+01  0.12973014878E+02  0.51100000000E-03 0.  1.
        -11    1    3    3    0    0  0.25189989733E+02 -0.18077262433E+02  0.11246907361E+02  0.32982054595E+02  0.51100000000E-03 0. -1.
         12    1    3    3    0    0 -0.24064072513E+01 -0.20826427134E+01 -0.32850268295E+01  0.45737946829E+01  0.00000000000E+00 0. -1.
</event>
<event>
 7    1  0.6624035E-013  0.5052886E+02  0.7816164E-02  0.1300439E+00
        -11   -1    0    0    0    0  0.00000000000E+00  0.00000000000E+00  0.45593999997E+02  0.45594000000E+02  0.51100000000E-03 0.  1.
         11   -1    0    0    0    0 -0.00000000000E+00 -0.00000000000E+00 -0.45593999997E+02  0.45594000000E+02  0.51100000000E-03 0. -1.
    9900012    2    1    2    0    0 -0.15783492148E+01 -0.28392220564E+02  0.29061253727E+02  0.50528857818E+02  0.29999993822E+02 0.  0.
         12    1    1    2    0    0  0.15783492148E+01  0.28392220564E+02 -0.29061253727E+02  0.40659142182E+02  0.00000000000E+00 0. -1.
         11    1    3    3    0    0 -0.22344662763E+01 -0.12975861557E+01  0.90366111041E+01  0.93987717219E+01  0.51100000000E-03 0. -1.
        -11    1    3    3    0    0 -0.52326166175E+01 -0.15804849469E+02  0.22668391666E+02  0.28125247099E+02  0.51100000000E-03 0.  1.
        -12    1    3    3    0    0  0.58887336790E+01 -0.11289784940E+02 -0.26437490429E+01  0.13004838997E+02  0.00000000000E+00 0.  1.
</event>
<event>
 7    1  0.6624035E-013  0.5052886E+02  0.7816164E-02  0.1300439E+00
        -11   -1    0    0    0    0  0.00000000000E+00  0.00000000000E+00  0.45593999997E+02  0.45594000000E+02  0.51100000000E-03 0. -1.
         11   -1    0    0    0    0 -0.00000000000E+00 -0.00000000000E+00 -0.45593999997E+02  0.45594000000E+02  0.51100000000E-03 0.  1.
    9900012    2    1    2    0    0  0.26643664813E+02 -0.30567005235E+02  0.29897690401E+01  0.50528863233E+02  0.30000010283E+02 0.  0.
         12    1    1    2    0    0 -0.26643664813E+02  0.30567005235E+02 -0.29897690401E+01  0.40659136767E+02  0.00000000000E+00 0. -1.
         11    1    3    3    0    0  0.20978873324E+02 -0.27467628432E+02  0.49741283705E+01  0.34918844352E+02  0.51100000000E-03 0. -1.
        -11    1    3    3    0    0  0.75429854257E+01 -0.32688191019E+00  0.41541701512E+01  0.86174596501E+01  0.51100000000E-03 0.  1.
        -12    1    3    3    0    0 -0.18781939363E+01 -0.27724948932E+01 -0.61385294815E+01  0.69925592304E+01  0.00000000000E+00 0.  1.
</event>
<event>
 7    1  0.6624035E-013  0.5052886E+02  0.7816164E-02  0.1300439E+00
        -11   -1    0    0    0    0  0.00000000000E+00  0.00000000000E+00  0.45593999997E+02  0.45594000000E+02  0.51100000000E-03 0.  1.
         11   -1    0    0    0    0 -0.00000000000E+00 -0.00000000000E+00 -0.45593999997E+02  0.45594000000E+02  0.51100000000E-03 0. -1.
    9900012    2    1    2    0    0  0.29842719323E+02 -0.16884460432E+02  0.21851615070E+02  0.50528856111E+02  0.29999988634E+02 0.  0.
         12    1    1    2    0    0 -0.29842719323E+02  0.16884460432E+02 -0.21851615070E+02  0.40659143889E+02  0.00000000000E+00 0. -1.
         11    1    3    3    0    0  0.13299301854E+01 -0.10535835859E+01 -0.17400994767E+00  0.17055885769E+01  0.51100000000E-03 0. -1.
        -11    1    3    3    0    0  0.70773797431E+00 -0.15751483889E+02  0.80405972745E+01  0.17699190448E+02  0.51100000000E-03 0.  1.
        -12    1    3    3    0    0  0.27805051163E+02 -0.79392956860E-01  0.13985027744E+02  0.31124077085E+02  0.00000000000E+00 0.  1.
</event>
<event>
 7    1  0.6624035E-013  0.5052886E+02  0.7816164E-02  0.1300439E+00
        -11   -1    0    0    0    0  0.00000000000E+00  0.00000000000E+00  0.45593999997E+02  0.45594000000E+02  0.51100000000E-03 0. -1.
         11   -1    0    0    0    0 -0.00000000000E+00 -0.00000000000E+00 -0.45593999997E+02  0.45594000000E+02  0.51100000000E-03 0.  1.
    9900012    2    1    2    0    0  0.40627139692E+02 -0.19541156822E+00 -0.16010430103E+01  0.50528855838E+02  0.29999987805E+02 0.  0.
         12    1    1    2    0    0 -0.40627139692E+02  0.19541156822E+00  0.16010430103E+01  0.40659144162E+02  0.00000000000E+00 0. -1.
         11    1    3    3    0    0  0.18402039721E+02 -0.10913887946E+01  0.11099969451E+01  0.18467763505E+02  0.51100000000E-03 0. -1.
        -11    1    3    3    0    0  0.26488039738E+02 -0.76766020963E-01  0.72805712720E+00  0.26498154834E+02  0.51100000000E-03 0.  1.
         12    1    3    3    0    0 -0.42629397663E+01  0.97274324735E+00 -0.34390970826E+01  0.55629374992E+01  0.00000000000E+00 0. -1.
</event>
<event>
 7    1  0.6624035E-013  0.5052886E+02  0.7816164E-02  0.1300439E+00
        -11   -1    0    0    0    0  0.00000000000E+00  0.00000000000E+00  0.45593999997E+02  0.45594000000E+02  0.51100000000E-03 0.  1.
         11   -1    0    0    0    0 -0.00000000000E+00 -0.00000000000E+00 -0.45593999997E+02  0.45594000000E+02  0.51100000000E-03 0. -1.
    9900012    2    1    2    0    0 -0.32750821108E+02 -0.66156548093E+01  0.23168574523E+02  0.50528855675E+02  0.29999987310E+02 0.  0.
         12    1    1    2    0    0  0.32750821108E+02  0.66156548093E+01 -0.23168574523E+02  0.40659144325E+02  0.00000000000E+00 0. -1.
         11    1    3    3    0    0 -0.41416224350E+01 -0.60622640449E+01 -0.52295405970E+00  0.73605409417E+01  0.51100000000E-03 0. -1.
        -11    1    3    3    0    0 -0.60270568137E+01 -0.55578332898E+01  0.17342513331E+02  0.19182744684E+02  0.51100000000E-03 0.  1.
         12    1    3    3    0    0 -0.22582141859E+02  0.50044425254E+01  0.63490152518E+01  0.23985570050E+02  0.00000000000E+00 0. -1.
</event>
<event>
 7    1  0.6624035E-013  0.5052886E+02  0.7816164E-02  0.1300439E+00
        -11   -1    0    0    0    0  0.00000000000E+00  0.00000000000E+00  0.45593999997E+02  0.45594000000E+02  0.51100000000E-03 0. -1.
         11   -1    0    0    0    0 -0.00000000000E+00 -0.00000000000E+00 -0.45593999997E+02  0.45594000000E+02  0.51100000000E-03 0.  1.
    9900012    2    1    2    0    0  0.73738139947E+01  0.46645078963E+00 -0.39982180271E+02  0.50528862670E+02  0.30000008573E+02 0.  0.
         12    1    1    2    0    0 -0.73738139947E+01 -0.46645078963E+00  0.39982180271E+02  0.40659137330E+02  0.00000000000E+00 0. -1.
         11    1    3    3    0    0 -0.31410719835E+01  0.23628552100E+01 -0.68665415950E+00  0.39901017713E+01  0.51100000000E-03 0. -1.
        -11    1    3    3    0    0 -0.68205869474E+01 -0.31919546633E+01 -0.11035528858E+02  0.13360085266E+02  0.51100000000E-03 0.  1.
        -12    1    3    3    0    0  0.17335472926E+02  0.12955502429E+01 -0.28259997254E+02  0.33178675633E+02  0.00000000000E+00 0.  1.
</event>
<event>
 7    1  0.6624035E-013  0.5052891E+02  0.7816164E-02  0.1300439E+00
        -11   -1    0    0    0    0  0.00000000000E+00  0.00000000000E+00  0.45593999997E+02  0.45594000000E+02  0.51100000000E-03 0.  1.
         11   -1    0    0    0    0 -0.00000000000E+00 -0.00000000000E+00 -0.45593999997E+02  0.45594000000E+02  0.51100000000E-03 0. -1.
    9900012    2    1    2    0    0 -0.91634664291E+01  0.30056845545E+02  0.25802683516E+02  0.50528910515E+02  0.30000154001E+02 0.  0.
         12    1    1    2    0    0  0.91634664291E+01 -0.30056845545E+02 -0.25802683516E+02  0.40659089485E+02  0.00000000000E+00 0. -1.
         11    1    3    3    0    0 -0.93519129840E+01  0.68143674691E+01 -0.15586635674E+01  0.11675757485E+02  0.51100000000E-03 0.  1.
        -11    1    3    3    0    0  0.17689129000E+01  0.32712446583E+00 -0.12290011300E+01  0.21786480447E+01  0.51100000000E-03 0. -1.
        -12    1    3    3    0    0 -0.15804663451E+01  0.22915353610E+02  0.28590348214E+02  0.36674504985E+02  0.00000000000E+00 0.  1.
</event>
<event>
 7    1  0.6624035E-013  0.5052885E+02  0.7816164E-02  0.1300439E+00
        -11   -1    0    0    0    0  0.00000000000E+00  0.00000000000E+00  0.45593999997E+02  0.45594000000E+02  0.51100000000E-03 0.  1.
         11   -1    0    0    0    0 -0.00000000000E+00 -0.00000000000E+00 -0.45593999997E+02  0.45594000000E+02  0.51100000000E-03 0. -1.
    9900012    2    1    2    0    0 -0.13324850224E+02 -0.40475651690E+01  0.38199892660E+02  0.50528853224E+02  0.29999979861E+02 0.  0.
         12    1    1    2    0    0  0.13324850224E+02  0.40475651690E+01 -0.38199892660E+02  0.40659146776E+02  0.00000000000E+00 0. -1.
         11    1    3    3    0    0  0.20063303160E+00 -0.76159219919E+01  0.56901230417E+01  0.95089443100E+01  0.51100000000E-03 0. -1.
        -11    1    3    3    0    0  0.41083253344E+01 -0.26959103813E+01  0.13403711973E+02  0.14276055644E+02  0.51100000000E-03 0.  1.
        -12    1    3    3    0    0 -0.17633808590E+02  0.62642672043E+01  0.19106057645E+02  0.26743853270E+02  0.00000000000E+00 0.  1.
</event>
<event>
 7    1  0.6624035E-013  0.5052884E+02  0.7816164E-02  0.1300439E+00
        -11   -1    0    0    0    0  0.00000000000E+00  0.00000000000E+00  0.45593999997E+02  0.45594000000E+02  0.51100000000E-03 0. -1.
         11   -1    0    0    0    0 -0.00000000000E+00 -0.00000000000E+00 -0.45593999997E+02  0.45594000000E+02  0.51100000000E-03 0.  1.
    9900012    2    1    2    0    0  0.36021821387E+02  0.18601718534E+02 -0.30937724642E+01  0.50528843878E+02  0.29999951453E+02 0.  0.
         12    1    1    2    0    0 -0.36021821387E+02 -0.18601718534E+02  0.30937724642E+01  0.40659156122E+02  0.00000000000E+00 0. -1.
         11    1    3    3    0    0  0.10268385423E+02 -0.37296584559E+01  0.13149659208E+01  0.11003600639E+02  0.51100000000E-03 0. -1.
        -11    1    3    3    0    0  0.96089338228E+01  0.76599838415E+00 -0.77650162369E+01  0.12377957835E+02  0.51100000000E-03 0.  1.
         12    1    3    3    0    0  0.16144502141E+02  0.21565378606E+02  0.33562778519E+01  0.27147285404E+02  0.00000000000E+00 0. -1.
</event>
<event>
 7    1  0.6624035E-013  0.5052887E+02  0.7816164E-02  0.1300439E+00
        -11   -1    0    0    0    0  0.00000000000E+00  0.00000000000E+00  0.45593999997E+02  0.45594000000E+02  0.51100000000E-03 0. -1.
         11   -1    0    0    0    0 -0.00000000000E+00 -0.00000000000E+00 -0.45593999997E+02  0.45594000000E+02  0.51100000000E-03 0.  1.
    9900012    2    1    2    0    0 -0.12326760832E+02  0.14349020236E+02 -0.35990571961E+02  0.50528872065E+02  0.30000037130E+02 0.  0.
         12    1    1    2    0    0  0.12326760832E+02 -0.14349020236E+02  0.35990571961E+02  0.40659127935E+02  0.00000000000E+00 0. -1.
         11    1    3    3    0    0 -0.11800589404E+02  0.18319574408E+02 -0.16748871872E+02  0.27484275977E+02  0.51100000000E-03 0. -1.
        -11    1    3    3    0    0 -0.25521874984E+00  0.25653693985E+01 -0.15063618367E+02  0.15282632474E+02  0.51100000000E-03 0.  1.
        -12    1    3    3    0    0 -0.27095267757E+00 -0.65359235702E+01 -0.41780817219E+01  0.77619636139E+01  0.00000000000E+00 0.  1.
</event>
<event>
 7    1  0.6624035E-013  0.5052886E+02  0.7816164E-02  0.1300439E+00
        -11   -1    0    0    0    0  0.00000000000E+00  0.00000000000E+00  0.45593999997E+02  0.45594000000E+02  0.51100000000E-03 0. -1.
         11   -1    0    0    0    0 -0.00000000000E+00 -0.00000000000E+00 -0.45593999997E+02  0.45594000000E+02  0.51100000000E-03 0.  1.
    9900012    2    1    2    0    0  0.14069848848E+02  0.20881433979E+01 -0.38089958475E+02  0.50528856796E+02  0.29999990718E+02 0.  0.
         12    1    1    2    0    0 -0.14069848848E+02 -0.20881433979E+01  0.38089958475E+02  0.40659143204E+02  0.00000000000E+00 0. -1.
         11    1    3    3    0    0  0.49207327442E+01 -0.11659242914E+02 -0.78540438104E+01  0.14894212316E+02  0.51100000000E-03 0. -1.
        -11    1    3    3    0    0 -0.15982022366E+01  0.38158612604E+01 -0.53197244633E+01  0.67390293199E+01  0.51100000000E-03 0.  1.
        -12    1    3    3    0    0  0.10747318340E+02  0.99315250517E+01 -0.24916190201E+02  0.28895615160E+02  0.00000000000E+00 0.  1.
</event>
<event>
 7    1  0.6624035E-013  0.5052888E+02  0.7816164E-02  0.1300439E+00
        -11   -1    0    0    0    0  0.00000000000E+00  0.00000000000E+00  0.45593999997E+02  0.45594000000E+02  0.51100000000E-03 0. -1.
         11   -1    0    0    0    0 -0.00000000000E+00 -0.00000000000E+00 -0.45593999997E+02  0.45594000000E+02  0.51100000000E-03 0.  1.
    9900012    2    1    2    0    0 -0.31158468237E+02  0.24545228794E+02 -0.89356379999E+01  0.50528880163E+02  0.30000061744E+02 0.  0.
         12    1    1    2    0    0  0.31158468237E+02 -0.24545228794E+02  0.89356379999E+01  0.40659119837E+02  0.00000000000E+00 0. -1.
         11    1    3    3    0    0 -0.12620415756E+02 -0.12822610827E+01  0.24769834993E+01  0.12924957828E+02  0.51100000000E-03 0. -1.
        -11    1    3    3    0    0 -0.80185911655E+01  0.47894234807E+00 -0.43316703784E+00  0.80445524422E+01  0.51100000000E-03 0.  1.
        -12    1    3    3    0    0 -0.10519461315E+02  0.25348547529E+02 -0.10979454461E+02  0.29559369893E+02  0.00000000000E+00 0.  1.
</event>
<event>
 7    1  0.6624035E-013  0.5052884E+02  0.7816164E-02  0.1300439E+00
        -11   -1    0    0    0    0  0.00000000000E+00  0.00000000000E+00  0.45593999997E+02  0.45594000000E+02  0.51100000000E-03 0.  1.
         11   -1    0    0    0    0 -0.00000000000E+00 -0.00000000000E+00 -0.45593999997E+02  0.45594000000E+02  0.51100000000E-03 0. -1.
    9900012    2    1    2    0    0  0.21486598695E+02 -0.28792464659E+02  0.19039091675E+02  0.50528844125E+02  0.29999952203E+02 0.  0.
         12    1    1    2    0    0 -0.21486598695E+02  0.28792464659E+02 -0.19039091675E+02  0.40659155875E+02  0.00000000000E+00 0. -1.
         11    1    3    3    0    0  0.70170422195E+01 -0.50293900625E+01  0.13454547439E+02  0.15986196951E+02  0.51100000000E-03 0. -1.
        -11    1    3    3    0    0  0.15560408625E+02 -0.90132461338E+01  0.77749969036E+01  0.19591209752E+02  0.51100000000E-03 0.  1.
        -12    1    3    3    0    0 -0.10908521494E+01 -0.14749828463E+02 -0.21904526674E+01  0.14951437422E+02  0.00000000000E+00 0.  1.
</event>
<event>
 7    1  0.6624035E-013  0.5052886E+02  0.7816164E-02  0.1300439E+00
        -11   -1    0    0    0    0  0.00000000000E+00  0.00000000000E+00  0.45593999997E+02  0.45594000000E+02  0.51100000000E-03 0.  1.
         11   -1    0    0    0    0 -0.00000000000E+00 -0.00000000000E+00 -0.45593999997E+02  0.45594000000E+02  0.51100000000E-03 0. -1.
    9900012    2    1    2    0    0 -0.23047919018E+02 -0.28148752528E+02  0.18155077850E+02  0.50528859679E+02  0.29999999480E+02 0.  0.
         12    1    1    2    0    0  0.23047919018E+02  0.28148752528E+02 -0.18155077850E+02  0.40659140321E+02  0.00000000000E+00 0. -1.
         11    1    3    3    0    0  0.23963129871E+01  0.30168001120E+00  0.95027529349E+00  0.25954479683E+01  0.51100000000E-03 0. -1.
        -11    1    3    3    0    0 -0.89115626173E+00  0.32915565992E+01  0.48803100178E+01  0.59536484998E+01  0.51100000000E-03 0.  1.
        -12    1    3    3    0    0 -0.24553075743E+02 -0.31741989138E+02  0.12324492539E+02  0.41979763211E+02  0.00000000000E+00 0.  1.
</event>
<event>
 7    1  0.6624035E-013  0.5052886E+02  0.7816164E-02  0.1300439E+00
        -11   -1    0    0    0    0  0.00000000000E+00  0.00000000000E+00  0.45593999997E+02  0.45594000000E+02  0.51100000000E-03 0. -1.
         11   -1    0    0    0    0 -0.00000000000E+00 -0.00000000000E+00 -0.45593999997E+02  0.45594000000E+02  0.51100000000E-03 0.  1.
    9900012    2    1    2    0    0 -0.21358849394E+02 -0.24248848583E+02  0.24677089760E+02  0.50528857559E+02  0.29999993035E+02 0.  0.
         12    1    1    2    0    0  0.21358849394E+02  0.24248848583E+02 -0.24677089760E+02  0.40659142441E+02  0.00000000000E+00 0. -1.
         11    1    3    3    0    0  0.17509634712E+01 -0.10897828807E+01 -0.28991411534E+01  0.35578813208E+01  0.51100000000E-03 0. -1.
        -11    1    3    3    0    0 -0.21762748330E+02 -0.24307978371E+02  0.18060172205E+02  0.37291619001E+02  0.51100000000E-03 0.  1.
         12    1    3    3    0    0 -0.13470645349E+01  0.11489126683E+01  0.95160587085E+01  0.96793572371E+01  0.00000000000E+00 0. -1.
</event>
<event>
 7    1  0.6624035E-013  0.5052886E+02  0.7816164E-02  0.1300439E+00
        -11   -1    0    0    0    0  0.00000000000E+00  0.00000000000E+00  0.45593999997E+02  0.45594000000E+02  0.51100000000E-03 0. -1.
         11   -1    0    0    0    0 -0.00000000000E+00 -0.00000000000E+00 -0.45593999997E+02  0.45594000000E+02  0.51100000000E-03 0.  1.
    9900012    2    1    2    0    0  0.16397563809E+02 -0.14578238613E+02 -0.34230991164E+02  0.50528857166E+02  0.29999991842E+02 0.  0.
         12    1    1    2    0    0 -0.16397563809E+02  0.14578238613E+02  0.34230991164E+02  0.40659142834E+02  0.00000000000E+00 0. -1.
         11    1    3    3    0    0  0.34792787197E+01 -0.81044753124E+00  0.20985895746E+00  0.35785816539E+01  0.51100000000E-03 0. -1.
        -11    1    3    3    0    0  0.19298502626E+02 -0.15255070465E+02 -0.22536446809E+02  0.33362266313E+02  0.51100000000E-03 0.  1.
         12    1    3    3    0    0 -0.63802175370E+01  0.14872793833E+01 -0.11904403312E+02  0.13588009200E+02  0.00000000000E+00 0. -1.
</event>
<event>
 7    1  0.6624035E-013  0.5052886E+02  0.7816164E-02  0.1300439E+00
        -11   -1    0    0    0    0  0.00000000000E+00  0.00000000000E+00  0.45593999997E+02  0.45594000000E+02  0.51100000000E-03 0. -1.
         11   -1    0    0    0    0 -0.00000000000E+00 -0.00000000000E+00 -0.45593999997E+02  0.45594000000E+02  0.51100000000E-03 0.  1.
    9900012    2    1    2    0    0  0.62457535300E+01 -0.27680889498E+02 -0.29119150176E+02  0.50528856040E+02  0.29999988420E+02 0.  0.
         12    1    1    2    0    0 -0.62457535300E+01  0.27680889498E+02  0.29119150176E+02  0.40659143960E+02  0.00000000000E+00 0. -1.
         11    1    3    3    0    0 -0.22534512349E+01 -0.14813730903E+02 -0.99722190639E+01  0.17999161621E+02  0.51100000000E-03 0. -1.
        -11    1    3    3    0    0 -0.49194095247E+01 -0.10874991332E+02 -0.50337359801E+01  0.12953938579E+02  0.51100000000E-03 0.  1.
        -12    1    3    3    0    0  0.13418614290E+02 -0.19921672628E+01 -0.14113195132E+02  0.19575755840E+02  0.00000000000E+00 0.  1.
</event>
<event>
 7    1  0.6624035E-013  0.5052886E+02  0.7816164E-02  0.1300439E+00
        -11   -1    0    0    0    0  0.00000000000E+00  0.00000000000E+00  0.45593999997E+02  0.45594000000E+02  0.51100000000E-03 0.  1.
         11   -1    0    0    0    0 -0.00000000000E+00 -0.00000000000E+00 -0.45593999997E+02  0.45594000000E+02  0.51100000000E-03 0. -1.
    9900012    2    1    2    0    0 -0.15152983264E+02  0.27860908640E+02  0.25442537670E+02  0.50528857668E+02  0.29999993368E+02 0.  0.
         12    1    1    2    0    0  0.15152983264E+02 -0.27860908640E+02 -0.25442537670E+02  0.40659142332E+02  0.00000000000E+00 0. -1.
         11    1    3    3    0    0 -0.43568182369E+01 -0.76059821447E+00  0.67133174796E+01  0.80392167925E+01  0.51100000000E-03 0. -1.
        -11    1    3    3    0    0 -0.10686926844E+02  0.18383182010E+01  0.86544367440E+01  0.13874043923E+02  0.51100000000E-03 0.  1.
        -12    1    3    3    0    0 -0.10923818323E+00  0.26783188654E+02  0.10074783447E+02  0.28615596952E+02  0.00000000000E+00 0.  1.
</event>
<event>
 7    1  0.6624035E-013  0.5052892E+02  0.7816164E-02  0.1300439E+00
        -11   -1    0    0    0    0  0.00000000000E+00  0.00000000000E+00  0.45593999997E+02  0.45594000000E+02  0.51100000000E-03 0. -1.
         11   -1    0    0    0    0 -0.00000000000E+00 -0.00000000000E+00 -0.45593999997E+02  0.45594000000E+02  0.51100000000E-03 0.  1.
    9900012    2    1    2    0    0 -0.11836258687E+02  0.27129590872E+02 -0.27875598420E+02  0.50528920966E+02  0.30000185769E+02 0.  0.
         12    1    1    2    0    0  0.11836258687E+02 -0.27129590872E+02  0.27875598420E+02  0.40659079034E+02  0.00000000000E+00 0. -1.
         11    1    3    3    0    0 -0.56758914659E+01  0.57601459303E+01  0.34032784172E+01  0.87736725103E+01  0.51100000000E-03 0. -1.
        -11    1    3    3    0    0 -0.56645719472E+00  0.20792775770E+02 -0.18675391042E+02  0.27954080719E+02  0.51100000000E-03 0.  1.
         12    1    3    3    0    0 -0.55939100267E+01  0.57666917095E+00 -0.12603485795E+02  0.13801167737E+02  0.00000000000E+00 0. -1.
</event>
<event>
 7    1  0.6624035E-013  0.5052886E+02  0.7816164E-02  0.1300439E+00
        -11   -1    0    0    0    0  0.00000000000E+00  0.00000000000E+00  0.45593999997E+02  0.45594000000E+02  0.51100000000E-03 0.  1.
         11   -1    0    0    0    0 -0.00000000000E+00 -0.00000000000E+00 -0.45593999997E+02  0.45594000000E+02  0.51100000000E-03 0. -1.
    9900012    2    1    2    0    0  0.25246842386E-01  0.90095868146E+01  0.39648359715E+02  0.50528859330E+02  0.29999998418E+02 0.  0.
         12    1    1    2    0    0 -0.25246842386E-01 -0.90095868146E+01 -0.39648359715E+02  0.40659140670E+02  0.00000000000E+00 0. -1.
         11    1    3    3    0    0 -0.45071001965E+01 -0.17777064656E+01  0.39907207168E+01  0.62769454801E+01  0.51100000000E-03 0. -1.
        -11    1    3    3    0    0 -0.91986063880E+01  0.33413261550E+01  0.86934733996E+01  0.13090275015E+02  0.51100000000E-03 0.  1.
         12    1    3    3    0    0  0.13730953427E+02  0.74459671252E+01  0.26964165598E+02  0.31161638835E+02  0.00000000000E+00 0. -1.
</event>
<event>
 7    1  0.6624035E-013  0.5052885E+02  0.7816164E-02  0.1300439E+00
        -11   -1    0    0    0    0  0.00000000000E+00  0.00000000000E+00  0.45593999997E+02  0.45594000000E+02  0.51100000000E-03 0.  1.
         11   -1    0    0    0    0 -0.00000000000E+00 -0.00000000000E+00 -0.45593999997E+02  0.45594000000E+02  0.51100000000E-03 0. -1.
    9900012    2    1    2    0    0 -0.31930179275E+02  0.23379694477E+02  0.93284523512E+01  0.50528849915E+02  0.29999969802E+02 0.  0.
         12    1    1    2    0    0  0.31930179275E+02 -0.23379694477E+02 -0.93284523512E+01  0.40659150085E+02  0.00000000000E+00 0. -1.
         11    1    3    3    0    0 -0.35191088626E+01 -0.77866413863E+00 -0.26683836680E+01  0.44844973730E+01  0.51100000000E-03 0. -1.
        -11    1    3    3    0    0  0.41960434399E+01  0.62858171047E+00  0.12244833934E+01  0.44160225722E+01  0.51100000000E-03 0.  1.
        -12    1    3    3    0    0 -0.32607113852E+02  0.23529776905E+02  0.10772352626E+02  0.41628329970E+02  0.00000000000E+00 0.  1.
</event>
<event>
 7    1  0.6624035E-013  0.5052886E+02  0.7816164E-02  0.1300439E+00
        -11   -1    0    0    0    0  0.00000000000E+00  0.00000000000E+00  0.45593999997E+02  0.45594000000E+02  0.51100000000E-03 0.  1.
         11   -1    0    0    0    0 -0.00000000000E+00 -0.00000000000E+00 -0.45593999997E+02  0.45594000000E+02  0.51100000000E-03 0. -1.
    9900012    2    1    2    0    0  0.34575250872E+02  0.12425748534E+02  0.17416038280E+02  0.50528860943E+02  0.30000003321E+02 0.  0.
         12    1    1    2    0    0 -0.34575250872E+02 -0.12425748534E+02 -0.17416038280E+02  0.40659139057E+02  0.00000000000E+00 0. -1.
         11    1    3    3    0    0  0.35727116589E+01 -0.28533594156E+01  0.11374112275E+01  0.47116486620E+01  0.51100000000E-03 0. -1.
        -11    1    3    3    0    0  0.23706764516E+02  0.69279895903E+01 -0.16313495333E+01  0.24752151930E+02  0.51100000000E-03 0.  1.
         12    1    3    3    0    0  0.72957746974E+01  0.83511183593E+01  0.17909976586E+02  0.21065060351E+02  0.00000000000E+00 0. -1.
</event>
<event>
 7    1  0.6624035E-013  0.5052887E+02  0.7816164E-02  0.1300439E+00
        -11   -1    0    0    0    0  0.00000000000E+00  0.00000000000E+00  0.45593999997E+02  0.45594000000E+02  0.51100000000E-03 0. -1.
         11   -1    0    0    0    0 -0.00000000000E+00 -0.00000000000E+00 -0.45593999997E+02  0.45594000000E+02  0.51100000000E-03 0.  1.
    9900012    2    1    2    0    0 -0.17570140904E+02 -0.36042577297E+02 -0.67370193147E+01  0.50528872379E+02  0.30000038084E+02 0.  0.
         12    1    1    2    0    0  0.17570140904E+02  0.36042577297E+02  0.67370193147E+01  0.40659127621E+02  0.00000000000E+00 0. -1.
         11    1    3    3    0    0 -0.20571394420E+01 -0.60891203930E+01 -0.59169224764E+01  0.87360850326E+01  0.51100000000E-03 0. -1.
        -11    1    3    3    0    0  0.38008686941E+01 -0.11439653929E+02 -0.75259652983E+01  0.14210997107E+02  0.51100000000E-03 0.  1.
         12    1    3    3    0    0 -0.19313870156E+02 -0.18513802976E+02  0.67058684600E+01  0.27581790240E+02  0.00000000000E+00 0. -1.
</event>
<event>
 7    1  0.6624035E-013  0.5052886E+02  0.7816164E-02  0.1300439E+00
        -11   -1    0    0    0    0  0.00000000000E+00  0.00000000000E+00  0.45593999997E+02  0.45594000000E+02  0.51100000000E-03 0.  1.
         11   -1    0    0    0    0 -0.00000000000E+00 -0.00000000000E+00 -0.45593999997E+02  0.45594000000E+02  0.51100000000E-03 0. -1.
    9900012    2    1    2    0    0 -0.33272557309E+02 -0.12483098686E+02  0.19755379193E+02  0.50528857981E+02  0.29999994318E+02 0.  0.
         12    1    1    2    0    0  0.33272557309E+02  0.12483098686E+02 -0.19755379193E+02  0.40659142019E+02  0.00000000000E+00 0. -1.
         11    1    3    3    0    0 -0.31531363797E+01 -0.29958653772E+01 -0.60042924390E+01  0.74141086006E+01  0.51100000000E-03 0. -1.
        -11    1    3    3    0    0 -0.10500867875E+02  0.28021836580E+01  0.11974838101E+02  0.16171493659E+02  0.51100000000E-03 0.  1.
        -12    1    3    3    0    0 -0.19618553055E+02 -0.12289416967E+02  0.13784833531E+02  0.26943255721E+02  0.00000000000E+00 0.  1.
</event>
<event>
 7    1  0.6624035E-013  0.5052887E+02  0.7816164E-02  0.1300439E+00
        -11   -1    0    0    0    0  0.00000000000E+00  0.00000000000E+00  0.45593999997E+02  0.45594000000E+02  0.51100000000E-03 0. -1.
         11   -1    0    0    0    0 -0.00000000000E+00 -0.00000000000E+00 -0.45593999997E+02  0.45594000000E+02  0.51100000000E-03 0.  1.
    9900012    2    1    2    0    0 -0.22991352599E+02  0.33065244296E+02  0.55903807376E+01  0.50528867797E+02  0.30000024157E+02 0.  0.
         12    1    1    2    0    0  0.22991352599E+02 -0.33065244296E+02 -0.55903807376E+01  0.40659132203E+02  0.00000000000E+00 0. -1.
         11    1    3    3    0    0 -0.42886441209E+01  0.92244146303E+01  0.10529283671E+01  0.10226971794E+02  0.51100000000E-03 0. -1.
        -11    1    3    3    0    0 -0.18229142887E+02  0.21825560843E+02  0.13231729689E+02  0.31364556865E+02  0.51100000000E-03 0.  1.
         12    1    3    3    0    0 -0.47356559162E+00  0.20152688219E+01 -0.86942773182E+01  0.89373391387E+01  0.00000000000E+00 0. -1.
</event>
<event>
 7    1  0.6624035E-013  0.5052886E+02  0.7816164E-02  0.1300439E+00
        -11   -1    0    0    0    0  0.00000000000E+00  0.00000000000E+00  0.45593999997E+02  0.45594000000E+02  0.51100000000E-03 0.  1.
         11   -1    0    0    0    0 -0.00000000000E+00 -0.00000000000E+00 -0.45593999997E+02  0.45594000000E+02  0.51100000000E-03 0. -1.
    9900012    2    1    2    0    0  0.17760246145E+01 -0.30599179482E+02  0.26715196694E+02  0.50528858558E+02  0.29999996073E+02 0.  0.
         12    1    1    2    0    0 -0.17760246145E+01  0.30599179482E+02 -0.26715196694E+02  0.40659141442E+02  0.00000000000E+00 0. -1.
         11    1    3    3    0    0  0.21346738462E+01 -0.49660069190E+01 -0.36742387632E-01  0.54054978877E+01  0.51100000000E-03 0. -1.
        -11    1    3    3    0    0  0.57433853872E+01 -0.24864787502E+02  0.10229528519E+02  0.27493406250E+02  0.51100000000E-03 0.  1.
         12    1    3    3    0    0 -0.61020346190E+01 -0.76838506097E+00  0.16522410562E+02  0.17629954421E+02  0.00000000000E+00 0. -1.
</event>
<event>
 7    1  0.6624035E-013  0.5052886E+02  0.7816164E-02  0.1300439E+00
        -11   -1    0    0    0    0  0.00000000000E+00  0.00000000000E+00  0.45593999997E+02  0.45594000000E+02  0.51100000000E-03 0.  1.
         11   -1    0    0    0    0 -0.00000000000E+00 -0.00000000000E+00 -0.45593999997E+02  0.45594000000E+02  0.51100000000E-03 0. -1.
    9900012    2    1    2    0    0  0.16894283475E+02 -0.58531558028E+01  0.36516978014E+02  0.50528856744E+02  0.29999990560E+02 0.  0.
         12    1    1    2    0    0 -0.16894283475E+02  0.58531558028E+01 -0.36516978014E+02  0.40659143256E+02  0.00000000000E+00 0. -1.
         11    1    3    3    0    0  0.14634177285E+01  0.20650406582E+00  0.29210669422E+00  0.15065065414E+01  0.51100000000E-03 0. -1.
        -11    1    3    3    0    0  0.18963210150E+02 -0.88253514617E+01  0.11451218764E+02  0.23845766481E+02  0.51100000000E-03 0.  1.
         12    1    3    3    0    0 -0.35323444034E+01  0.27656915930E+01  0.24773652556E+02  0.25176583722E+02  0.00000000000E+00 0. -1.
</event>
<event>
 7    1  0.6624035E-013  0.5052887E+02  0.7816164E-02  0.1300439E+00
        -11   -1    0    0    0    0  0.00000000000E+00  0.00000000000E+00  0.45593999997E+02  0.45594000000E+02  0.51100000000E-03 0.  1.
         11   -1    0    0    0    0 -0.00000000000E+00 -0.00000000000E+00 -0.45593999997E+02  0.45594000000E+02  0.51100000000E-03 0. -1.
    9900012    2    1    2    0    0  0.21944490672E+00 -0.23516267305E+02  0.33167787785E+02  0.50528866578E+02  0.30000020452E+02 0.  0.
         12    1    1    2    0    0 -0.21944490672E+00  0.23516267305E+02 -0.33167787785E+02  0.40659133422E+02  0.00000000000E+00 0. -1.
         11    1    3    3    0    0  0.78508881509E+01 -0.39927824351E+01  0.88702434500E+01  0.12500399012E+02  0.51100000000E-03 0. -1.
        -11    1    3    3    0    0 -0.88130200480E+01 -0.14374700149E+01  0.15484731048E+02  0.17874913659E+02  0.51100000000E-03 0.  1.
         12    1    3    3    0    0  0.11815768038E+01 -0.18086014855E+02  0.88128132867E+01  0.20153553908E+02  0.00000000000E+00 0. -1.
</event>
<event>
 7    1  0.6624035E-013  0.5052886E+02  0.7816164E-02  0.1300439E+00
        -11   -1    0    0    0    0  0.00000000000E+00  0.00000000000E+00  0.45593999997E+02  0.45594000000E+02  0.51100000000E-03 0. -1.
         11   -1    0    0    0    0 -0.00000000000E+00 -0.00000000000E+00 -0.45593999997E+02  0.45594000000E+02  0.51100000000E-03 0.  1.
    9900012    2    1    2    0    0 -0.19959759141E+02  0.22566642535E+02  0.27304212341E+02  0.50528863858E+02  0.30000012183E+02 0.  0.
         12    1    1    2    0    0  0.19959759141E+02 -0.22566642535E+02 -0.27304212341E+02  0.40659136142E+02  0.00000000000E+00 0. -1.
         11    1    3    3    0    0 -0.31668864898E+01 -0.11391877879E+00 -0.55307662512E+01  0.63742860866E+01  0.51100000000E-03 0. -1.
        -11    1    3    3    0    0 -0.20415160789E+01  0.61397012934E+01  0.12503901279E+02  0.14078752336E+02  0.51100000000E-03 0.  1.
        -12    1    3    3    0    0 -0.14751356573E+02  0.16540860020E+02  0.20331077313E+02  0.30075825436E+02  0.00000000000E+00 0.  1.
</event>
<event>
 7    1  0.6624035E-013  0.5052886E+02  0.7816164E-02  0.1300439E+00
        -11   -1    0    0    0    0  0.00000000000E+00  0.00000000000E+00  0.45593999997E+02  0.45594000000E+02  0.51100000000E-03 0.  1.
         11   -1    0    0    0    0 -0.00000000000E+00 -0.00000000000E+00 -0.45593999997E+02  0.45594000000E+02  0.51100000000E-03 0. -1.
    9900012    2    1    2    0    0 -0.34509148164E+02  0.18307740107E+02  0.11274356488E+02  0.50528858727E+02  0.29999996587E+02 0.  0.
         12    1    1    2    0    0  0.34509148164E+02 -0.18307740107E+02 -0.11274356488E+02  0.40659141273E+02  0.00000000000E+00 0. -1.
         11    1    3    3    0    0 -0.82093725707E+01 -0.63895887603E+01  0.52764618575E+01  0.11664548535E+02  0.51100000000E-03 0. -1.
        -11    1    3    3    0    0 -0.17575870646E+02  0.83196396775E+01  0.58537205764E+01  0.20307478380E+02  0.51100000000E-03 0.  1.
        -12    1    3    3    0    0 -0.87239049476E+01  0.16377689190E+02  0.14417405434E+00  0.18556831812E+02  0.00000000000E+00 0.  1.
</event>
<event>
 7    1  0.6624035E-013  0.5052886E+02  0.7816164E-02  0.1300439E+00
        -11   -1    0    0    0    0  0.00000000000E+00  0.00000000000E+00  0.45593999997E+02  0.45594000000E+02  0.51100000000E-03 0. -1.
         11   -1    0    0    0    0 -0.00000000000E+00 -0.00000000000E+00 -0.45593999997E+02  0.45594000000E+02  0.51100000000E-03 0.  1.
    9900012    2    1    2    0    0  0.26124243828E+02 -0.25378802957E+02  0.18072235147E+02  0.50528862795E+02  0.30000008951E+02 0.  0.
         12    1    1    2    0    0 -0.26124243828E+02  0.25378802957E+02 -0.18072235147E+02  0.40659137205E+02  0.00000000000E+00 0. -1.
         11    1    3    3    0    0  0.44075448026E+01 -0.15532559433E+02  0.68016526815E+01  0.17519969555E+02  0.51100000000E-03 0. -1.
        -11    1    3    3    0    0  0.16392262264E+02 -0.15802967835E+02  0.63992665419E+01  0.23651441120E+02  0.51100000000E-03 0.  1.
        -12    1    3    3    0    0  0.53244367611E+01  0.59567243117E+01  0.48713159231E+01  0.93574521196E+01  0.00000000000E+00 0.  1.
</event>
<event>
 7    1  0.6624035E-013  0.5052886E+02  0.7816164E-02  0.1300439E+00
        -11   -1    0    0    0    0  0.00000000000E+00  0.00000000000E+00  0.45593999997E+02  0.45594000000E+02  0.51100000000E-03 0.  1.
         11   -1    0    0    0    0 -0.00000000000E+00 -0.00000000000E+00 -0.45593999997E+02  0.45594000000E+02  0.51100000000E-03 0. -1.
    9900012    2    1    2    0    0 -0.34095775514E+02  0.36318635923E+01  0.21850705313E+02  0.50528860022E+02  0.30000000523E+02 0.  0.
         12    1    1    2    0    0  0.34095775514E+02 -0.36318635923E+01 -0.21850705313E+02  0.40659139978E+02  0.00000000000E+00 0. -1.
         11    1    3    3    0    0  0.28698890328E+01 -0.12136827332E+01  0.81349052264E+01  0.87112554859E+01  0.51100000000E-03 0. -1.
        -11    1    3    3    0    0  0.60513938608E+00  0.71532431229E+00 -0.89409677639E+00  0.12951030287E+01  0.51100000000E-03 0.  1.
        -12    1    3    3    0    0 -0.37570803933E+02  0.41302220133E+01  0.14609896863E+02  0.40522501507E+02  0.00000000000E+00 0.  1.
</event>
<event>
 7    1  0.6624035E-013  0.5052888E+02  0.7816164E-02  0.1300439E+00
        -11   -1    0    0    0    0  0.00000000000E+00  0.00000000000E+00  0.45593999997E+02  0.45594000000E+02  0.51100000000E-03 0. -1.
         11   -1    0    0    0    0 -0.00000000000E+00 -0.00000000000E+00 -0.45593999997E+02  0.45594000000E+02  0.51100000000E-03 0.  1.
    9900012    2    1    2    0    0  0.14716561946E+02  0.35708658305E+02  0.12707414804E+02  0.50528882149E+02  0.30000067780E+02 0.  0.
         12    1    1    2    0    0 -0.14716561946E+02 -0.35708658305E+02 -0.12707414804E+02  0.40659117851E+02  0.00000000000E+00 0. -1.
         11    1    3    3    0    0  0.10708632923E+02  0.10183045618E+02  0.13168465525E+02  0.19793375702E+02  0.51100000000E-03 0. -1.
        -11    1    3    3    0    0  0.44860848291E+01  0.26167458818E+01  0.49682657220E+01  0.71872095176E+01  0.51100000000E-03 0.  1.
        -12    1    3    3    0    0 -0.47815580640E+00  0.22908866804E+02 -0.54293164429E+01  0.23548296929E+02  0.00000000000E+00 0.  1.
</event>
<event>
 7    1  0.6624035E-013  0.5052886E+02  0.7816164E-02  0.1300439E+00
        -11   -1    0    0    0    0  0.00000000000E+00  0.00000000000E+00  0.45593999997E+02  0.45594000000E+02  0.51100000000E-03 0.  1.
         11   -1    0    0    0    0 -0.00000000000E+00 -0.00000000000E+00 -0.45593999997E+02  0.45594000000E+02  0.51100000000E-03 0. -1.
    9900012    2    1    2    0    0 -0.21120428567E+02 -0.14786716662E+02  0.31439562860E+02  0.50528860741E+02  0.30000002707E+02 0.  0.
         12    1    1    2    0    0  0.21120428567E+02  0.14786716662E+02 -0.31439562860E+02  0.40659139259E+02  0.00000000000E+00 0. -1.
         11    1    3    3    0    0 -0.47389339151E+01 -0.12220778536E+02  0.30720010864E+01  0.13462619121E+02  0.51100000000E-03 0. -1.
        -11    1    3    3    0    0 -0.68283519795E+01 -0.87291922528E+01  0.77553360437E+01  0.13526656111E+02  0.51100000000E-03 0.  1.
         12    1    3    3    0    0 -0.95531426727E+01  0.61632541266E+01  0.20612225730E+02  0.23539585508E+02  0.00000000000E+00 0. -1.
</event>
<event>
 7    1  0.6624035E-013  0.5052886E+02  0.7816164E-02  0.1300439E+00
        -11   -1    0    0    0    0  0.00000000000E+00  0.00000000000E+00  0.45593999997E+02  0.45594000000E+02  0.51100000000E-03 0.  1.
         11   -1    0    0    0    0 -0.00000000000E+00 -0.00000000000E+00 -0.45593999997E+02  0.45594000000E+02  0.51100000000E-03 0. -1.
    9900012    2    1    2    0    0 -0.10850285655E+02  0.37300173487E+02  0.12005598316E+02  0.50528855495E+02  0.29999986763E+02 0.  0.
         12    1    1    2    0    0  0.10850285655E+02 -0.37300173487E+02 -0.12005598316E+02  0.40659144505E+02  0.00000000000E+00 0. -1.
         11    1    3    3    0    0 -0.41639139659E+01  0.19714649395E+02  0.14350328915E+02  0.24737370929E+02  0.51100000000E-03 0.  1.
        -11    1    3    3    0    0  0.30233641025E+01  0.34738661749E+01  0.53105522720E+01  0.70292561763E+01  0.51100000000E-03 0. -1.
         12    1    3    3    0    0 -0.97097357912E+01  0.14111657917E+02 -0.76552828705E+01  0.18762228390E+02  0.00000000000E+00 0. -1.
</event>
<event>
 7    1  0.6624035E-013  0.5052886E+02  0.7816164E-02  0.1300439E+00
        -11   -1    0    0    0    0  0.00000000000E+00  0.00000000000E+00  0.45593999997E+02  0.45594000000E+02  0.51100000000E-03 0.  1.
         11   -1    0    0    0    0 -0.00000000000E+00 -0.00000000000E+00 -0.45593999997E+02  0.45594000000E+02  0.51100000000E-03 0. -1.
    9900012    2    1    2    0    0 -0.11339322593E+02 -0.33576487297E+02  0.19930005917E+02  0.50528857462E+02  0.29999992741E+02 0.  0.
         12    1    1    2    0    0  0.11339322593E+02  0.33576487297E+02 -0.19930005917E+02  0.40659142538E+02  0.00000000000E+00 0. -1.
         11    1    3    3    0    0 -0.82954779594E+00 -0.31020611083E+01  0.28675616763E+01  0.43050949924E+01  0.51100000000E-03 0.  1.
        -11    1    3    3    0    0 -0.13333547523E+02 -0.27967087526E+02  0.23920382165E+01  0.31075123834E+02  0.51100000000E-03 0. -1.
         12    1    3    3    0    0  0.28237727260E+01 -0.25073386629E+01  0.14670406024E+02  0.15148638635E+02  0.00000000000E+00 0. -1.
</event>
<event>
 7    1  0.6624035E-013  0.5052885E+02  0.7816164E-02  0.1300439E+00
        -11   -1    0    0    0    0  0.00000000000E+00  0.00000000000E+00  0.45593999997E+02  0.45594000000E+02  0.51100000000E-03 0. -1.
         11   -1    0    0    0    0 -0.00000000000E+00 -0.00000000000E+00 -0.45593999997E+02  0.45594000000E+02  0.51100000000E-03 0.  1.
    9900012    2    1    2    0    0  0.31091366185E+02 -0.16528840808E+02 -0.20329558407E+02  0.50528848819E+02  0.29999966470E+02 0.  0.
         12    1    1    2    0    0 -0.31091366185E+02  0.16528840808E+02  0.20329558407E+02  0.40659151181E+02  0.00000000000E+00 0. -1.
         11    1    3    3    0    0  0.13084335081E+01 -0.20872136617E+01  0.29531882507E+01  0.38457483302E+01  0.51100000000E-03 0. -1.
        -11    1    3    3    0    0  0.42791214479E+01 -0.71079532713E+01  0.34773102248E+01  0.89958638681E+01  0.51100000000E-03 0.  1.
        -12    1    3    3    0    0  0.25503811229E+02 -0.73336738749E+01 -0.26760056883E+02  0.37687236621E+02  0.00000000000E+00 0.  1.
</event>
<event>
 7    1  0.6624035E-013  0.5052884E+02  0.7816164E-02  0.1300439E+00
        -11   -1    0    0    0    0  0.00000000000E+00  0.00000000000E+00  0.45593999997E+02  0.45594000000E+02  0.51100000000E-03 0.  1.
         11   -1    0    0    0    0 -0.00000000000E+00 -0.00000000000E+00 -0.45593999997E+02  0.45594000000E+02  0.51100000000E-03 0. -1.
    9900012    2    1    2    0    0  0.12911572284E+02 -0.19362540018E+02  0.33339922395E+02  0.50528842605E+02  0.29999947581E+02 0.  0.
         12    1    1    2    0    0 -0.12911572284E+02  0.19362540018E+02 -0.33339922395E+02  0.40659157395E+02  0.00000000000E+00 0. -1.
         11    1    3    3    0    0 -0.32116570110E+01 -0.78684468616E+01  0.16513416876E+02  0.18572025574E+02  0.51100000000E-03 0. -1.
        -11    1    3    3    0    0 -0.13826080035E+01  0.58105974176E-01  0.97104318937E+01  0.98085406162E+01  0.51100000000E-03 0.  1.
         12    1    3    3    0    0  0.17505837298E+02 -0.11552199130E+02  0.71160736262E+01  0.22148276414E+02  0.00000000000E+00 0. -1.
</event>
<event>
 7    1  0.6624035E-013  0.5052885E+02  0.7816164E-02  0.1300439E+00
        -11   -1    0    0    0    0  0.00000000000E+00  0.00000000000E+00  0.45593999997E+02  0.45594000000E+02  0.51100000000E-03 0.  1.
         11   -1    0    0    0    0 -0.00000000000E+00 -0.00000000000E+00 -0.45593999997E+02  0.45594000000E+02  0.51100000000E-03 0. -1.
    9900012    2    1    2    0    0 -0.31980860489E+02  0.21606642323E+02 -0.12788428478E+02  0.50528851791E+02  0.29999975505E+02 0.  0.
         12    1    1    2    0    0  0.31980860489E+02 -0.21606642323E+02  0.12788428478E+02  0.40659148209E+02  0.00000000000E+00 0. -1.
         11    1    3    3    0    0 -0.27678932944E+01  0.45271370952E+01 -0.58537117252E+01  0.79007686203E+01  0.51100000000E-03 0. -1.
        -11    1    3    3    0    0 -0.33745196526E+01 -0.49237062526E+01 -0.63081055236E+01  0.86846106249E+01  0.51100000000E-03 0.  1.
         12    1    3    3    0    0 -0.25838447542E+02  0.22003211481E+02 -0.62661122948E+00  0.33943472546E+02  0.00000000000E+00 0. -1.
</event>
<event>
 7    1  0.6624035E-013  0.5052886E+02  0.7816164E-02  0.1300439E+00
        -11   -1    0    0    0    0  0.00000000000E+00  0.00000000000E+00  0.45593999997E+02  0.45594000000E+02  0.51100000000E-03 0. -1.
         11   -1    0    0    0    0 -0.00000000000E+00 -0.00000000000E+00 -0.45593999997E+02  0.45594000000E+02  0.51100000000E-03 0.  1.
    9900012    2    1    2    0    0  0.10156610018E+02 -0.55213201842E+01 -0.38981071490E+02  0.50528860337E+02  0.30000001480E+02 0.  0.
         12    1    1    2    0    0 -0.10156610018E+02  0.55213201842E+01  0.38981071490E+02  0.40659139663E+02  0.00000000000E+00 0. -1.
         11    1    3    3    0    0  0.80763405611E+01  0.40258923875E+01  0.94401886942E+00  0.90733818536E+01  0.51100000000E-03 0. -1.
        -11    1    3    3    0    0  0.10650514946E+01 -0.98848930450E+00 -0.15238567155E+02  0.15307690060E+02  0.51100000000E-03 0.  1.
        -12    1    3    3    0    0  0.10152179620E+01 -0.85587232672E+01 -0.24686523205E+02  0.26147788423E+02  0.00000000000E+00 0.  1.
</event>
<event>
 7    1  0.6624035E-013  0.5052886E+02  0.7816164E-02  0.1300439E+00
        -11   -1    0    0    0    0  0.00000000000E+00  0.00000000000E+00  0.45593999997E+02  0.45594000000E+02  0.51100000000E-03 0.  1.
         11   -1    0    0    0    0 -0.00000000000E+00 -0.00000000000E+00 -0.45593999997E+02  0.45594000000E+02  0.51100000000E-03 0. -1.
    9900012    2    1    2    0    0  0.36993836645E+00 -0.96112407607E+01  0.39505100059E+02  0.50528859158E+02  0.29999997895E+02 0.  0.
         12    1    1    2    0    0 -0.36993836645E+00  0.96112407607E+01 -0.39505100059E+02  0.40659140842E+02  0.00000000000E+00 0. -1.
         11    1    3    3    0    0  0.28547881519E+01 -0.64032856866E+01  0.17211564036E+02  0.18584666255E+02  0.51100000000E-03 0. -1.
        -11    1    3    3    0    0  0.58531137901E+01 -0.55164483945E+01  0.13166821074E-01  0.80430291281E+01  0.51100000000E-03 0.  1.
         12    1    3    3    0    0 -0.83379635756E+01  0.23084933204E+01  0.22280369202E+02  0.23901163775E+02  0.00000000000E+00 0. -1.
</event>
<event>
 7    1  0.6624035E-013  0.5052886E+02  0.7816164E-02  0.1300439E+00
        -11   -1    0    0    0    0  0.00000000000E+00  0.00000000000E+00  0.45593999997E+02  0.45594000000E+02  0.51100000000E-03 0.  1.
         11   -1    0    0    0    0 -0.00000000000E+00 -0.00000000000E+00 -0.45593999997E+02  0.45594000000E+02  0.51100000000E-03 0. -1.
    9900012    2    1    2    0    0  0.28875737438E+02 -0.16909774435E+02  0.23095829405E+02  0.50528855642E+02  0.29999987209E+02 0.  0.
         12    1    1    2    0    0 -0.28875737438E+02  0.16909774435E+02 -0.23095829405E+02  0.40659144358E+02  0.00000000000E+00 0. -1.
         11    1    3    3    0    0  0.12232045295E+02 -0.46878488822E+01  0.19777918225E+01  0.13248038345E+02  0.51100000000E-03 0. -1.
        -11    1    3    3    0    0  0.17203581802E+02 -0.13726245234E+00  0.67073602194E+01  0.18465393285E+02  0.51100000000E-03 0.  1.
        -12    1    3    3    0    0 -0.55988965896E+00 -0.12084663100E+02  0.14410677363E+02  0.18815424012E+02  0.00000000000E+00 0.  1.
</event>
<event>
 7    1  0.6624035E-013  0.5052887E+02  0.7816164E-02  0.1300439E+00
        -11   -1    0    0    0    0  0.00000000000E+00  0.00000000000E+00  0.45593999997E+02  0.45594000000E+02  0.51100000000E-03 0.  1.
         11   -1    0    0    0    0 -0.00000000000E+00 -0.00000000000E+00 -0.45593999997E+02  0.45594000000E+02  0.51100000000E-03 0. -1.
    9900012    2    1    2    0    0  0.93900541806E+00 -0.81435089607E+01  0.39824193961E+02  0.50528869488E+02  0.30000029296E+02 0.  0.
         12    1    1    2    0    0 -0.93900541806E+00  0.81435089607E+01 -0.39824193961E+02  0.40659130512E+02  0.00000000000E+00 0. -1.
         11    1    3    3    0    0  0.12559393297E+02 -0.45501665344E+01  0.20558145522E+02  0.24516927276E+02  0.51100000000E-03 0. -1.
        -11    1    3    3    0    0 -0.54992499067E+00 -0.31091791991E+01  0.12797075459E+02  0.13180840388E+02  0.51100000000E-03 0.  1.
         12    1    3    3    0    0 -0.11070462889E+02 -0.48416322720E+00  0.64689729795E+01  0.12831101824E+02  0.00000000000E+00 0. -1.
</event>
<event>
 7    1  0.6624035E-013  0.5052886E+02  0.7816164E-02  0.1300439E+00
        -11   -1    0    0    0    0  0.00000000000E+00  0.00000000000E+00  0.45593999997E+02  0.45594000000E+02  0.51100000000E-03 0.  1.
         11   -1    0    0    0    0 -0.00000000000E+00 -0.00000000000E+00 -0.45593999997E+02  0.45594000000E+02  0.51100000000E-03 0. -1.
    9900012    2    1    2    0    0 -0.23747939394E+02 -0.27782187898E+02  0.17814358599E+02  0.50528856353E+02  0.29999989369E+02 0.  0.
         12    1    1    2    0    0  0.23747939394E+02  0.27782187898E+02 -0.17814358599E+02  0.40659143647E+02  0.00000000000E+00 0. -1.
         11    1    3    3    0    0 -0.65198497123E+01 -0.40026098629E+01 -0.16862467916E+01  0.78340764924E+01  0.51100000000E-03 0. -1.
        -11    1    3    3    0    0 -0.20763543968E+02 -0.17438863518E+02  0.66239858709E+01  0.27912647814E+02  0.51100000000E-03 0.  1.
         12    1    3    3    0    0  0.35354542858E+01 -0.63407145172E+01  0.12876619520E+02  0.14782132047E+02  0.00000000000E+00 0. -1.
</event>
<event>
 7    1  0.6624035E-013  0.5052886E+02  0.7816164E-02  0.1300439E+00
        -11   -1    0    0    0    0  0.00000000000E+00  0.00000000000E+00  0.45593999997E+02  0.45594000000E+02  0.51100000000E-03 0.  1.
         11   -1    0    0    0    0 -0.00000000000E+00 -0.00000000000E+00 -0.45593999997E+02  0.45594000000E+02  0.51100000000E-03 0. -1.
    9900012    2    1    2    0    0  0.47432200792E+01  0.39858731716E+02  0.64768366465E+01  0.50528855350E+02  0.29999986321E+02 0.  0.
         12    1    1    2    0    0 -0.47432200792E+01 -0.39858731716E+02 -0.64768366465E+01  0.40659144650E+02  0.00000000000E+00 0. -1.
         11    1    3    3    0    0 -0.49812206357E+00  0.34206683208E+02  0.14433109046E+00  0.34210614338E+02  0.51100000000E-03 0. -1.
        -11    1    3    3    0    0 -0.28881323403E+01  0.62257218504E+01  0.33802621413E+01  0.76503002150E+01  0.51100000000E-03 0.  1.
         12    1    3    3    0    0  0.81294744831E+01 -0.57367334212E+00  0.29522434147E+01  0.86679407966E+01  0.00000000000E+00 0. -1.
</event>
<event>
 7    1  0.6823487E-013  0.5052889E+02  0.7816164E-02  0.1300439E+00
        -11   -1    0    0    0    0  0.00000000000E+00  0.00000000000E+00  0.45593999997E+02  0.45594000000E+02  0.51100000000E-03 0.  1.
         11   -1    0    0    0    0 -0.00000000000E+00 -0.00000000000E+00 -0.45593999997E+02  0.45594000000E+02  0.51100000000E-03 0. -1.
    9900012    2    1    2    0    0 -0.20294475500E+02 -0.30385045104E+02  0.17833865175E+02  0.50528887259E+02  0.30000083313E+02 0.  0.
         12    1    1    2    0    0  0.20294475500E+02  0.30385045104E+02 -0.17833865175E+02  0.40659112741E+02  0.00000000000E+00 0. -1.
         11    1    3    3    0    0 -0.48832972019E+01 -0.13494037497E+01  0.95585841097E+01  0.10818225940E+02  0.51100000000E-03 0. -1.
        -11    1    3    3    0    0 -0.13651841152E+02 -0.15328263385E+02  0.13900164695E+02  0.24789977895E+02  0.51100000000E-03 0.  1.
         12    1    3    3    0    0 -0.17593371467E+01 -0.13707377969E+02 -0.56248836302E+01  0.14920683424E+02  0.00000000000E+00 0. -1.
</event>
<event>
 7    1  0.6624035E-013  0.5052886E+02  0.7816164E-02  0.1300439E+00
        -11   -1    0    0    0    0  0.00000000000E+00  0.00000000000E+00  0.45593999997E+02  0.45594000000E+02  0.51100000000E-03 0. -1.
         11   -1    0    0    0    0 -0.00000000000E+00 -0.00000000000E+00 -0.45593999997E+02  0.45594000000E+02  0.51100000000E-03 0.  1.
    9900012    2    1    2    0    0  0.15517668835E+02 -0.32039098014E+02 -0.19643408613E+02  0.50528863886E+02  0.30000012267E+02 0.  0.
         12    1    1    2    0    0 -0.15517668835E+02  0.32039098014E+02  0.19643408613E+02  0.40659136114E+02  0.00000000000E+00 0. -1.
         11    1    3    3    0    0 -0.42369888597E+01 -0.31720458723E+01  0.49105168391E+01  0.72199117378E+01  0.51100000000E-03 0. -1.
        -11    1    3    3    0    0  0.33467051209E+01 -0.22609973024E+01 -0.97599937848E+00  0.41551316484E+01  0.51100000000E-03 0.  1.
         12    1    3    3    0    0  0.16407952574E+02 -0.26606054839E+02 -0.23577926074E+02  0.39153820500E+02  0.00000000000E+00 0. -1.
</event>
<event>
 7    1  0.6624035E-013  0.5052885E+02  0.7816164E-02  0.1300439E+00
        -11   -1    0    0    0    0  0.00000000000E+00  0.00000000000E+00  0.45593999997E+02  0.45594000000E+02  0.51100000000E-03 0.  1.
         11   -1    0    0    0    0 -0.00000000000E+00 -0.00000000000E+00 -0.45593999997E+02  0.45594000000E+02  0.51100000000E-03 0. -1.
    9900012    2    1    2    0    0 -0.22981618173E+01  0.55747527663E+01  0.40209540296E+02  0.50528849161E+02  0.29999967511E+02 0.  0.
         12    1    1    2    0    0  0.22981618173E+01 -0.55747527663E+01 -0.40209540296E+02  0.40659150839E+02  0.00000000000E+00 0. -1.
         11    1    3    3    0    0  0.12104727290E+01 -0.31569853978E+01 -0.83251608170E+00  0.34820804582E+01  0.51100000000E-03 0. -1.
        -11    1    3    3    0    0  0.17367142547E+01 -0.48969014636E+01  0.24217296114E+02  0.24768392190E+02  0.51100000000E-03 0.  1.
        -12    1    3    3    0    0 -0.52453488009E+01  0.13628639628E+02  0.16824760263E+02  0.22278376513E+02  0.00000000000E+00 0.  1.
</event>
<event>
 7    1  0.6624035E-013  0.5052886E+02  0.7816164E-02  0.1300439E+00
        -11   -1    0    0    0    0  0.00000000000E+00  0.00000000000E+00  0.45593999997E+02  0.45594000000E+02  0.51100000000E-03 0. -1.
         11   -1    0    0    0    0 -0.00000000000E+00 -0.00000000000E+00 -0.45593999997E+02  0.45594000000E+02  0.51100000000E-03 0.  1.
    9900012    2    1    2    0    0 -0.36459874880E+02  0.77902528840E+01 -0.16222057382E+02  0.50528860044E+02  0.30000000589E+02 0.  0.
         12    1    1    2    0    0  0.36459874880E+02 -0.77902528840E+01  0.16222057382E+02  0.40659139956E+02  0.00000000000E+00 0. -1.
         11    1    3    3    0    0 -0.30653122432E+01  0.45363038466E+01  0.36123278366E+01  0.65591999815E+01  0.51100000000E-03 0.  1.
        -11    1    3    3    0    0  0.26802492612E+01  0.95041576759E+00 -0.24406116162E+00  0.28542235976E+01  0.51100000000E-03 0. -1.
        -12    1    3    3    0    0 -0.36074811898E+02  0.23035332697E+01 -0.19590324057E+02  0.41115436465E+02  0.00000000000E+00 0.  1.
</event>
<event>
 7    1  0.6624035E-013  0.5052886E+02  0.7816164E-02  0.1300439E+00
        -11   -1    0    0    0    0  0.00000000000E+00  0.00000000000E+00  0.45593999997E+02  0.45594000000E+02  0.51100000000E-03 0.  1.
         11   -1    0    0    0    0 -0.00000000000E+00 -0.00000000000E+00 -0.45593999997E+02  0.45594000000E+02  0.51100000000E-03 0. -1.
    9900012    2    1    2    0    0 -0.40587536983E+01 -0.58369112221E+01  0.40032772044E+02  0.50528857711E+02  0.29999993497E+02 0.  0.
         12    1    1    2    0    0  0.40587536983E+01  0.58369112221E+01 -0.40032772044E+02  0.40659142289E+02  0.00000000000E+00 0. -1.
         11    1    3    3    0    0 -0.27481515383E+01  0.13278330894E+01  0.83133166211E+01  0.88558856754E+01  0.51100000000E-03 0.  1.
        -11    1    3    3    0    0 -0.86019016258E+01 -0.12850224358E+02  0.27412119449E+02  0.31472929170E+02  0.51100000000E-03 0. -1.
        -12    1    3    3    0    0  0.72912994659E+01  0.56854800462E+01  0.43073359742E+01  0.10200042865E+02  0.00000000000E+00 0.  1.
</event>
<event>
 7    1  0.6624035E-013  0.5052886E+02  0.7816164E-02  0.1300439E+00
        -11   -1    0    0    0    0  0.00000000000E+00  0.00000000000E+00  0.45593999997E+02  0.45594000000E+02  0.51100000000E-03 0. -1.
         11   -1    0    0    0    0 -0.00000000000E+00 -0.00000000000E+00 -0.45593999997E+02  0.45594000000E+02  0.51100000000E-03 0.  1.
    9900012    2    1    2    0    0 -0.29721346843E+02  0.19786396736E+02 -0.19450084327E+02  0.50528859154E+02  0.29999997885E+02 0.  0.
         12    1    1    2    0    0  0.29721346843E+02 -0.19786396736E+02  0.19450084327E+02  0.40659140846E+02  0.00000000000E+00 0. -1.
         11    1    3    3    0    0 -0.94312586397E+01 -0.26615764708E+01 -0.10968743414E+02  0.14708703586E+02  0.51100000000E-03 0. -1.
        -11    1    3    3    0    0  0.22755448992E+01  0.55204104880E+00 -0.31559260280E+01  0.39297230517E+01  0.51100000000E-03 0.  1.
        -12    1    3    3    0    0 -0.22565633102E+02  0.21895932158E+02 -0.53254148855E+01  0.31890432517E+02  0.00000000000E+00 0.  1.
</event>
<event>
 7    1  0.6624035E-013  0.5052886E+02  0.7816164E-02  0.1300439E+00
        -11   -1    0    0    0    0  0.00000000000E+00  0.00000000000E+00  0.45593999997E+02  0.45594000000E+02  0.51100000000E-03 0. -1.
         11   -1    0    0    0    0 -0.00000000000E+00 -0.00000000000E+00 -0.45593999997E+02  0.45594000000E+02  0.51100000000E-03 0.  1.
    9900012    2    1    2    0    0 -0.28803076421E+02 -0.28552784292E+02  0.28786948889E+01  0.50528860974E+02  0.30000003416E+02 0.  0.
         12    1    1    2    0    0  0.28803076421E+02  0.28552784292E+02 -0.28786948889E+01  0.40659139026E+02  0.00000000000E+00 0. -1.
         11    1    3    3    0    0 -0.22788752059E+01  0.65568839943E+00  0.15306344569E+00  0.23762634873E+01  0.51100000000E-03 0. -1.
        -11    1    3    3    0    0 -0.27815744055E+02 -0.15865065534E+02  0.91262474871E+01  0.33297211823E+02  0.51100000000E-03 0.  1.
         12    1    3    3    0    0  0.12915428402E+01 -0.13343407157E+02 -0.64006160438E+01  0.14855385664E+02  0.00000000000E+00 0. -1.
</event>
<event>
 7    1  0.6624035E-013  0.5052886E+02  0.7816164E-02  0.1300439E+00
        -11   -1    0    0    0    0  0.00000000000E+00  0.00000000000E+00  0.45593999997E+02  0.45594000000E+02  0.51100000000E-03 0.  1.
         11   -1    0    0    0    0 -0.00000000000E+00 -0.00000000000E+00 -0.45593999997E+02  0.45594000000E+02  0.51100000000E-03 0. -1.
    9900012    2    1    2    0    0 -0.11970709068E+02 -0.41504699541E+01  0.38634717395E+02  0.50528860012E+02  0.30000000491E+02 0.  0.
         12    1    1    2    0    0  0.11970709068E+02  0.41504699541E+01 -0.38634717395E+02  0.40659139988E+02  0.00000000000E+00 0. -1.
         11    1    3    3    0    0  0.47703503757E+00  0.89188676843E+01  0.71411298879E+01  0.11435449249E+02  0.51100000000E-03 0. -1.
        -11    1    3    3    0    0  0.32401928286E+01 -0.11661267221E+01  0.53603061568E+01  0.63711524432E+01  0.51100000000E-03 0.  1.
         12    1    3    3    0    0 -0.15687936935E+02 -0.11903210916E+02  0.26133281350E+02  0.32722258319E+02  0.00000000000E+00 0. -1.
</event>
<event>
 7    1  0.6624035E-013  0.5052887E+02  0.7816164E-02  0.1300439E+00
        -11   -1    0    0    0    0  0.00000000000E+00  0.00000000000E+00  0.45593999997E+02  0.45594000000E+02  0.51100000000E-03 0.  1.
         11   -1    0    0    0    0 -0.00000000000E+00 -0.00000000000E+00 -0.45593999997E+02  0.45594000000E+02  0.51100000000E-03 0. -1.
    9900012    2    1    2    0    0 -0.11861655503E+02  0.28877433114E+02  0.26049182563E+02  0.50528869085E+02  0.30000028071E+02 0.  0.
         12    1    1    2    0    0  0.11861655503E+02 -0.28877433114E+02 -0.26049182563E+02  0.40659130915E+02  0.00000000000E+00 0. -1.
         11    1    3    3    0    0 -0.34086942105E+01  0.21821061592E+02  0.75145815463E+01  0.23329099024E+02  0.51100000000E-03 0.  1.
        -11    1    3    3    0    0 -0.18708496501E+01  0.97256896113E+01  0.33827972610E+01  0.10465774429E+02  0.51100000000E-03 0. -1.
         12    1    3    3    0    0 -0.65821116428E+01 -0.26693180889E+01  0.15151803756E+02  0.16733995632E+02  0.00000000000E+00 0. -1.
</event>
<event>
 7    1  0.6624035E-013  0.5052887E+02  0.7816164E-02  0.1300439E+00
        -11   -1    0    0    0    0  0.00000000000E+00  0.00000000000E+00  0.45593999997E+02  0.45594000000E+02  0.51100000000E-03 0. -1.
         11   -1    0    0    0    0 -0.00000000000E+00 -0.00000000000E+00 -0.45593999997E+02  0.45594000000E+02  0.51100000000E-03 0.  1.
    9900012    2    1    2    0    0 -0.23872381919E+01  0.40546369909E+02 -0.18595129436E+01  0.50528870553E+02  0.30000032532E+02 0.  0.
         12    1    1    2    0    0  0.23872381919E+01 -0.40546369909E+02  0.18595129436E+01  0.40659129447E+02  0.00000000000E+00 0. -1.
         11    1    3    3    0    0 -0.43018788448E+01  0.47083757152E+01  0.29462745029E+01  0.70253467657E+01  0.51100000000E-03 0.  1.
        -11    1    3    3    0    0  0.23555112931E+00 -0.35685907598E+01 -0.16396559875E+01  0.39343101510E+01  0.51100000000E-03 0. -1.
        -12    1    3    3    0    0  0.16790895236E+01  0.39406584954E+02 -0.31661314590E+01  0.39569213636E+02  0.00000000000E+00 0.  1.
</event>
<event>
 7    1  0.6624035E-013  0.5052886E+02  0.7816164E-02  0.1300439E+00
        -11   -1    0    0    0    0  0.00000000000E+00  0.00000000000E+00  0.45593999997E+02  0.45594000000E+02  0.51100000000E-03 0.  1.
         11   -1    0    0    0    0 -0.00000000000E+00 -0.00000000000E+00 -0.45593999997E+02  0.45594000000E+02  0.51100000000E-03 0. -1.
    9900012    2    1    2    0    0 -0.13566473370E+02  0.14071811652E+02  0.35652498096E+02  0.50528859535E+02  0.29999999043E+02 0.  0.
         12    1    1    2    0    0  0.13566473370E+02 -0.14071811652E+02 -0.35652498096E+02  0.40659140465E+02  0.00000000000E+00 0. -1.
         11    1    3    3    0    0 -0.18629050550E+01 -0.20426112650E+01  0.12486287039E+01  0.30334386306E+01  0.51100000000E-03 0. -1.
        -11    1    3    3    0    0 -0.15444621393E+02  0.27863372886E+01  0.28312674925E+02  0.32371400451E+02  0.51100000000E-03 0.  1.
        -12    1    3    3    0    0  0.37410530788E+01  0.13328085628E+02  0.60911944672E+01  0.15124020454E+02  0.00000000000E+00 0.  1.
</event>
<event>
 7    1  0.6624035E-013  0.5052888E+02  0.7816164E-02  0.1300439E+00
        -11   -1    0    0    0    0  0.00000000000E+00  0.00000000000E+00  0.45593999997E+02  0.45594000000E+02  0.51100000000E-03 0. -1.
         11   -1    0    0    0    0 -0.00000000000E+00 -0.00000000000E+00 -0.45593999997E+02  0.45594000000E+02  0.51100000000E-03 0.  1.
    9900012    2    1    2    0    0  0.20739470590E+02  0.77102853241E+01 -0.34111434140E+02  0.50528879508E+02  0.30000059751E+02 0.  0.
         12    1    1    2    0    0 -0.20739470590E+02 -0.77102853241E+01  0.34111434140E+02  0.40659120492E+02  0.00000000000E+00 0. -1.
         11    1    3    3    0    0  0.53129938289E+01 -0.37621996914E+01 -0.11388640916E+02  0.13118048335E+02  0.51100000000E-03 0. -1.
        -11    1    3    3    0    0  0.18243355006E+01 -0.16547053121E+01 -0.17673940194E+02  0.17844730649E+02  0.51100000000E-03 0.  1.
        -12    1    3    3    0    0  0.13602141260E+02  0.13127190328E+02 -0.50488530293E+01  0.19566100523E+02  0.00000000000E+00 0.  1.
</event>
<event>
 7    1  0.6624035E-013  0.5052887E+02  0.7816164E-02  0.1300439E+00
        -11   -1    0    0    0    0  0.00000000000E+00  0.00000000000E+00  0.45593999997E+02  0.45594000000E+02  0.51100000000E-03 0.  1.
         11   -1    0    0    0    0 -0.00000000000E+00 -0.00000000000E+00 -0.45593999997E+02  0.45594000000E+02  0.51100000000E-03 0. -1.
    9900012    2    1    2    0    0  0.38816494617E+02 -0.11835098562E+02  0.25248441777E+01  0.50528872483E+02  0.30000038399E+02 0.  0.
         12    1    1    2    0    0 -0.38816494617E+02  0.11835098562E+02 -0.25248441777E+01  0.40659127517E+02  0.00000000000E+00 0. -1.
         11    1    3    3    0    0  0.15903538442E+02 -0.65920400897E+01  0.88375862929E+01  0.19351497598E+02  0.51100000000E-03 0. -1.
        -11    1    3    3    0    0  0.14222045603E+02 -0.10234708861E+02  0.26632599288E+01  0.17723114859E+02  0.51100000000E-03 0.  1.
         12    1    3    3    0    0  0.86909105718E+01  0.49916503882E+01 -0.89760020440E+01  0.13454260026E+02  0.00000000000E+00 0. -1.
</event>
<event>
 7    1  0.6624035E-013  0.5052884E+02  0.7816164E-02  0.1300439E+00
        -11   -1    0    0    0    0  0.00000000000E+00  0.00000000000E+00  0.45593999997E+02  0.45594000000E+02  0.51100000000E-03 0. -1.
         11   -1    0    0    0    0 -0.00000000000E+00 -0.00000000000E+00 -0.45593999997E+02  0.45594000000E+02  0.51100000000E-03 0.  1.
    9900012    2    1    2    0    0 -0.29139743446E+02 -0.18258324513E+02 -0.21695081278E+02  0.50528836042E+02  0.29999927633E+02 0.  0.
         12    1    1    2    0    0  0.29139743446E+02  0.18258324513E+02  0.21695081278E+02  0.40659163958E+02  0.00000000000E+00 0. -1.
         11    1    3    3    0    0 -0.18863698509E+02 -0.19171788503E+02 -0.15544291606E+02  0.31064796759E+02  0.51100000000E-03 0. -1.
        -11    1    3    3    0    0 -0.39317890561E+01 -0.71460570077E+01 -0.34611416249E+01  0.88602820242E+01  0.51100000000E-03 0.  1.
         12    1    3    3    0    0 -0.63442558801E+01  0.80595209981E+01 -0.26896480470E+01  0.10603757259E+02  0.00000000000E+00 0. -1.
</event>
<event>
 7    1  0.6624035E-013  0.5052887E+02  0.7816164E-02  0.1300439E+00
        -11   -1    0    0    0    0  0.00000000000E+00  0.00000000000E+00  0.45593999997E+02  0.45594000000E+02  0.51100000000E-03 0.  1.
         11   -1    0    0    0    0 -0.00000000000E+00 -0.00000000000E+00 -0.45593999997E+02  0.45594000000E+02  0.51100000000E-03 0. -1.
    9900012    2    1    2    0    0 -0.36856135829E+02 -0.14114891186E+02  0.97754871097E+01  0.50528867573E+02  0.30000023476E+02 0.  0.
         12    1    1    2    0    0  0.36856135829E+02  0.14114891186E+02 -0.97754871097E+01  0.40659132427E+02  0.00000000000E+00 0. -1.
         11    1    3    3    0    0 -0.27371860952E+02 -0.55932220758E+01  0.13441641095E+02  0.31002913101E+02  0.51100000000E-03 0. -1.
        -11    1    3    3    0    0 -0.20154655394E+00  0.31830212744E+01  0.17471214924E+01  0.36365752044E+01  0.51100000000E-03 0.  1.
        -12    1    3    3    0    0 -0.92827283234E+01 -0.11704690384E+02 -0.54132754779E+01  0.15889379268E+02  0.00000000000E+00 0.  1.
</event>
<event>
 7    1  0.6624035E-013  0.5052887E+02  0.7816164E-02  0.1300439E+00
        -11   -1    0    0    0    0  0.00000000000E+00  0.00000000000E+00  0.45593999997E+02  0.45594000000E+02  0.51100000000E-03 0.  1.
         11   -1    0    0    0    0 -0.00000000000E+00 -0.00000000000E+00 -0.45593999997E+02  0.45594000000E+02  0.51100000000E-03 0. -1.
    9900012    2    1    2    0    0  0.10270959438E+02  0.22785181546E+02  0.32070357521E+02  0.50528868954E+02  0.30000027674E+02 0.  0.
         12    1    1    2    0    0 -0.10270959438E+02 -0.22785181546E+02 -0.32070357521E+02  0.40659131046E+02  0.00000000000E+00 0. -1.
         11    1    3    3    0    0  0.16692499930E+02  0.12463784440E+02  0.16015060686E+02  0.26276751046E+02  0.51100000000E-03 0. -1.
        -11    1    3    3    0    0  0.21385169961E+01  0.39269369353E+00 -0.12762151087E+01  0.25211482591E+01  0.51100000000E-03 0.  1.
        -12    1    3    3    0    0 -0.85600574880E+01  0.99287034117E+01  0.17331511944E+02  0.21730969649E+02  0.00000000000E+00 0.  1.
</event>
<event>
 7    1  0.6624035E-013  0.5052888E+02  0.7816164E-02  0.1300439E+00
        -11   -1    0    0    0    0  0.00000000000E+00  0.00000000000E+00  0.45593999997E+02  0.45594000000E+02  0.51100000000E-03 0.  1.
         11   -1    0    0    0    0 -0.00000000000E+00 -0.00000000000E+00 -0.45593999997E+02  0.45594000000E+02  0.51100000000E-03 0. -1.
    9900012    2    1    2    0    0  0.98247350933E+01  0.85390294441E+01  0.38519133637E+02  0.50528879256E+02  0.30000058987E+02 0.  0.
         12    1    1    2    0    0 -0.98247350933E+01 -0.85390294441E+01 -0.38519133637E+02  0.40659120744E+02  0.00000000000E+00 0. -1.
         11    1    3    3    0    0  0.53973755395E+01 -0.40145838837E+01  0.30256003077E+02  0.30994745828E+02  0.51100000000E-03 0. -1.
        -11    1    3    3    0    0  0.43705034199E+01  0.61628461969E+00  0.58946641315E+01  0.73639780255E+01  0.51100000000E-03 0.  1.
        -12    1    3    3    0    0  0.56856133821E-01  0.11937328708E+02  0.23684664286E+01  0.12170155403E+02  0.00000000000E+00 0.  1.
</event>
<event>
 7    1  0.6624035E-013  0.5052887E+02  0.7816164E-02  0.1300439E+00
        -11   -1    0    0    0    0  0.00000000000E+00  0.00000000000E+00  0.45593999997E+02  0.45594000000E+02  0.51100000000E-03 0.  1.
         11   -1    0    0    0    0 -0.00000000000E+00 -0.00000000000E+00 -0.45593999997E+02  0.45594000000E+02  0.51100000000E-03 0. -1.
    9900012    2    1    2    0    0  0.22170450711E+02  0.15883670208E+01  0.34045751174E+02  0.50528868584E+02  0.30000026547E+02 0.  0.
         12    1    1    2    0    0 -0.22170450711E+02 -0.15883670208E+01 -0.34045751174E+02  0.40659131416E+02  0.00000000000E+00 0. -1.
         11    1    3    3    0    0  0.16935645927E+02 -0.31958808377E+01  0.14557882347E+02  0.22560179432E+02  0.51100000000E-03 0. -1.
        -11    1    3    3    0    0 -0.13544534481E+00 -0.52657302480E+01  0.14688446733E+02  0.15604381698E+02  0.51100000000E-03 0.  1.
        -12    1    3    3    0    0  0.53702501286E+01  0.10049978106E+02  0.47994220941E+01  0.12364307454E+02  0.00000000000E+00 0.  1.
</event>
<event>
 7    1  0.6624035E-013  0.5052886E+02  0.7816164E-02  0.1300439E+00
        -11   -1    0    0    0    0  0.00000000000E+00  0.00000000000E+00  0.45593999997E+02  0.45594000000E+02  0.51100000000E-03 0. -1.
         11   -1    0    0    0    0 -0.00000000000E+00 -0.00000000000E+00 -0.45593999997E+02  0.45594000000E+02  0.51100000000E-03 0.  1.
    9900012    2    1    2    0    0 -0.97942693142E+01  0.39358499384E+02 -0.28542243718E+01  0.50528858569E+02  0.29999996107E+02 0.  0.
         12    1    1    2    0    0  0.97942693142E+01 -0.39358499384E+02  0.28542243718E+01  0.40659141431E+02  0.00000000000E+00 0. -1.
         11    1    3    3    0    0  0.21436870328E+01  0.17945548828E+02  0.32598291205E+01  0.18364765258E+02  0.51100000000E-03 0. -1.
        -11    1    3    3    0    0 -0.46701454410E+01  0.22965535355E+02 -0.16476233314E+01  0.23493418982E+02  0.51100000000E-03 0.  1.
        -12    1    3    3    0    0 -0.72678109060E+01 -0.15525847994E+01 -0.44664301610E+01  0.86706743283E+01  0.00000000000E+00 0.  1.
</event>
<event>
 7    1  0.6624035E-013  0.5052886E+02  0.7816164E-02  0.1300439E+00
        -11   -1    0    0    0    0  0.00000000000E+00  0.00000000000E+00  0.45593999997E+02  0.45594000000E+02  0.51100000000E-03 0.  1.
         11   -1    0    0    0    0 -0.00000000000E+00 -0.00000000000E+00 -0.45593999997E+02  0.45594000000E+02  0.51100000000E-03 0. -1.
    9900012    2    1    2    0    0 -0.23584871375E+02 -0.24837439604E+01  0.33026514704E+02  0.50528858158E+02  0.29999994857E+02 0.  0.
         12    1    1    2    0    0  0.23584871375E+02  0.24837439604E+01 -0.33026514704E+02  0.40659141842E+02  0.00000000000E+00 0. -1.
         11    1    3    3    0    0 -0.14243338211E+01 -0.28289173475E+01  0.64520017979E+00  0.32323031612E+01  0.51100000000E-03 0. -1.
        -11    1    3    3    0    0 -0.15873655012E+02 -0.82981720364E+01  0.60949002236E+01  0.18920369753E+02  0.51100000000E-03 0.  1.
        -12    1    3    3    0    0 -0.62868825414E+01  0.86433454235E+01  0.26286414301E+02  0.28376185244E+02  0.00000000000E+00 0.  1.
</event>
<event>
 7    1  0.6624035E-013  0.5052885E+02  0.7816164E-02  0.1300439E+00
        -11   -1    0    0    0    0  0.00000000000E+00  0.00000000000E+00  0.45593999997E+02  0.45594000000E+02  0.51100000000E-03 0.  1.
         11   -1    0    0    0    0 -0.00000000000E+00 -0.00000000000E+00 -0.45593999997E+02  0.45594000000E+02  0.51100000000E-03 0. -1.
    9900012    2    1    2    0    0  0.67764286772E-01 -0.12841120101E+02  0.38578066963E+02  0.50528853328E+02  0.29999980176E+02 0.  0.
         12    1    1    2    0    0 -0.67764286772E-01  0.12841120101E+02 -0.38578066963E+02  0.40659146672E+02  0.00000000000E+00 0. -1.
         11    1    3    3    0    0  0.13004744015E+01  0.31118778809E+01  0.22108007118E+02  0.22363787617E+02  0.51100000000E-03 0. -1.
        -11    1    3    3    0    0  0.26896311133E+00 -0.16425774318E+01  0.13335030345E+02  0.13438505733E+02  0.51100000000E-03 0.  1.
        -12    1    3    3    0    0 -0.15016732260E+01 -0.14310420551E+02  0.31350295011E+01  0.14726559978E+02  0.00000000000E+00 0.  1.
</event>
<event>
 7    1  0.7433495E-013  0.5052886E+02  0.7816164E-02  0.1300439E+00
        -11   -1    0    0    0    0  0.00000000000E+00  0.00000000000E+00  0.45593999997E+02  0.45594000000E+02  0.51100000000E-03 0. -1.
         11   -1    0    0    0    0 -0.00000000000E+00 -0.00000000000E+00 -0.45593999997E+02  0.45594000000E+02  0.51100000000E-03 0.  1.
    9900012    2    1    2    0    0  0.38797465083E+02  0.69161948924E+00  0.12142667308E+02  0.50528855841E+02  0.29999987815E+02 0.  0.
         12    1    1    2    0    0 -0.38797465083E+02 -0.69161948924E+00 -0.12142667308E+02  0.40659144159E+02  0.00000000000E+00 0. -1.
         11    1    3    3    0    0 -0.19674037195E+01  0.12663233851E+01 -0.21945166281E+01  0.32078272715E+01  0.51100000000E-03 0. -1.
        -11    1    3    3    0    0  0.28785242707E+02  0.10093878727E+01  0.30727647328E+00  0.28804573954E+02  0.51100000000E-03 0.  1.
         12    1    3    3    0    0  0.11979626096E+02 -0.15840917686E+01  0.14029907463E+02  0.18516454616E+02  0.00000000000E+00 0. -1.
</event>
<event>
 7    1  0.6836094E-013  0.5052885E+02  0.7816164E-02  0.1300439E+00
        -11   -1    0    0    0    0  0.00000000000E+00  0.00000000000E+00  0.45593999997E+02  0.45594000000E+02  0.51100000000E-03 0. -1.
         11   -1    0    0    0    0 -0.00000000000E+00 -0.00000000000E+00 -0.45593999997E+02  0.45594000000E+02  0.51100000000E-03 0.  1.
    9900012    2    1    2    0    0 -0.35003847017E+02 -0.17617195585E+02 -0.10841180384E+02  0.50528854923E+02  0.29999985023E+02 0.  0.
         12    1    1    2    0    0  0.35003847017E+02  0.17617195585E+02  0.10841180384E+02  0.40659145077E+02  0.00000000000E+00 0. -1.
         11    1    3    3    0    0 -0.74065331412E+01  0.24955583344E+01 -0.67382420860E+01  0.10319324166E+02  0.51100000000E-03 0. -1.
        -11    1    3    3    0    0 -0.19358743432E+02 -0.64919976250E+01 -0.10612381508E+02  0.23011510641E+02  0.51100000000E-03 0.  1.
         12    1    3    3    0    0 -0.82385704442E+01 -0.13620756295E+02  0.65094432102E+01  0.17198020116E+02  0.00000000000E+00 0. -1.
</event>
<event>
 7    1  0.6624035E-013  0.5052885E+02  0.7816164E-02  0.1300439E+00
        -11   -1    0    0    0    0  0.00000000000E+00  0.00000000000E+00  0.45593999997E+02  0.45594000000E+02  0.51100000000E-03 0.  1.
         11   -1    0    0    0    0 -0.00000000000E+00 -0.00000000000E+00 -0.45593999997E+02  0.45594000000E+02  0.51100000000E-03 0. -1.
    9900012    2    1    2    0    0 -0.20379574496E+02  0.29693302456E+02  0.18871857129E+02  0.50528852703E+02  0.29999978276E+02 0.  0.
         12    1    1    2    0    0  0.20379574496E+02 -0.29693302456E+02 -0.18871857129E+02  0.40659147297E+02  0.00000000000E+00 0. -1.
         11    1    3    3    0    0 -0.10516119278E+02  0.50765839758E+01 -0.47008573089E+01  0.12588031190E+02  0.51100000000E-03 0. -1.
        -11    1    3    3    0    0 -0.38019051092E+01 -0.27333255685E+00  0.14010918919E+01  0.40610653647E+01  0.51100000000E-03 0.  1.
        -12    1    3    3    0    0 -0.60615501090E+01  0.24890051038E+02  0.22171622546E+02  0.33879756148E+02  0.00000000000E+00 0.  1.
</event>
<event>
 7    1  0.6624035E-013  0.5052882E+02  0.7816164E-02  0.1300439E+00
        -11   -1    0    0    0    0  0.00000000000E+00  0.00000000000E+00  0.45593999997E+02  0.45594000000E+02  0.51100000000E-03 0.  1.
         11   -1    0    0    0    0 -0.00000000000E+00 -0.00000000000E+00 -0.45593999997E+02  0.45594000000E+02  0.51100000000E-03 0. -1.
    9900012    2    1    2    0    0 -0.33483031381E+02  0.21052852448E+02  0.94251116363E+01  0.50528822487E+02  0.29999886431E+02 0.  0.
         12    1    1    2    0    0  0.33483031381E+02 -0.21052852448E+02 -0.94251116363E+01  0.40659177513E+02  0.00000000000E+00 0. -1.
         11    1    3    3    0    0 -0.65566375441E+01  0.29760157002E+01 -0.71151875329E+01  0.10122848375E+02  0.51100000000E-03 0. -1.
        -11    1    3    3    0    0  0.24207347665E+01  0.50129230478E+00  0.15574247981E+00  0.24769955118E+01  0.51100000000E-03 0.  1.
        -12    1    3    3    0    0 -0.29347128604E+02  0.17575544443E+02  0.16384556689E+02  0.37928978600E+02  0.00000000000E+00 0.  1.
</event>
<event>
 7    1  0.6624035E-013  0.5052886E+02  0.7816164E-02  0.1300439E+00
        -11   -1    0    0    0    0  0.00000000000E+00  0.00000000000E+00  0.45593999997E+02  0.45594000000E+02  0.51100000000E-03 0.  1.
         11   -1    0    0    0    0 -0.00000000000E+00 -0.00000000000E+00 -0.45593999997E+02  0.45594000000E+02  0.51100000000E-03 0. -1.
    9900012    2    1    2    0    0 -0.34313604334E+01 -0.34866828084E+02  0.20632395668E+02  0.50528859748E+02  0.29999999689E+02 0.  0.
         12    1    1    2    0    0  0.34313604334E+01  0.34866828084E+02 -0.20632395668E+02  0.40659140252E+02  0.00000000000E+00 0. -1.
         11    1    3    3    0    0  0.12354766040E+01 -0.71060453137E+01  0.16071246190E+02  0.17615539640E+02  0.51100000000E-03 0. -1.
        -11    1    3    3    0    0 -0.71873995388E+01 -0.15843700052E+02  0.94376700371E+01  0.19792704703E+02  0.51100000000E-03 0.  1.
         12    1    3    3    0    0  0.25205625014E+01 -0.11917082718E+02 -0.48765205592E+01  0.13120615405E+02  0.00000000000E+00 0. -1.
</event>
<event>
 7    1  0.6624035E-013  0.5052886E+02  0.7816164E-02  0.1300439E+00
        -11   -1    0    0    0    0  0.00000000000E+00  0.00000000000E+00  0.45593999997E+02  0.45594000000E+02  0.51100000000E-03 0.  1.
         11   -1    0    0    0    0 -0.00000000000E+00 -0.00000000000E+00 -0.45593999997E+02  0.45594000000E+02  0.51100000000E-03 0. -1.
    9900012    2    1    2    0    0  0.21627676588E+02  0.33012290879E+02 -0.97774152655E+01  0.50528860893E+02  0.30000003169E+02 0.  0.
         12    1    1    2    0    0 -0.21627676588E+02 -0.33012290879E+02  0.97774152655E+01  0.40659139107E+02  0.00000000000E+00 0. -1.
         11    1    3    3    0    0  0.91953667788E+01  0.11921542686E+02 -0.12040933462E+02  0.19278538044E+02  0.51100000000E-03 0. -1.
        -11    1    3    3    0    0  0.12354234386E+02  0.38538036563E+01  0.48498017957E+01  0.13820256423E+02  0.51100000000E-03 0.  1.
         12    1    3    3    0    0  0.78075423105E-01  0.17236944537E+02 -0.25862835990E+01  0.17430066425E+02  0.00000000000E+00 0. -1.
</event>
<event>
 7    1  0.6624035E-013  0.5052889E+02  0.7816164E-02  0.1300439E+00
        -11   -1    0    0    0    0  0.00000000000E+00  0.00000000000E+00  0.45593999997E+02  0.45594000000E+02  0.51100000000E-03 0.  1.
         11   -1    0    0    0    0 -0.00000000000E+00 -0.00000000000E+00 -0.45593999997E+02  0.45594000000E+02  0.51100000000E-03 0. -1.
    9900012    2    1    2    0    0 -0.33164864552E+02 -0.19611821582E+02  0.12985823148E+02  0.50528887991E+02  0.30000085538E+02 0.  0.
         12    1    1    2    0    0  0.33164864552E+02  0.19611821582E+02 -0.12985823148E+02  0.40659112009E+02  0.00000000000E+00 0. -1.
         11    1    3    3    0    0 -0.59423207972E+00 -0.46169366655E+01  0.61564799881E+01  0.77182551164E+01  0.51100000000E-03 0. -1.
        -11    1    3    3    0    0 -0.12825220690E+02  0.53566162450E+01  0.26245336507E+01  0.14144532530E+02  0.51100000000E-03 0.  1.
        -12    1    3    3    0    0 -0.19745411783E+02 -0.20351501161E+02  0.42048095093E+01  0.28666100345E+02  0.00000000000E+00 0.  1.
</event>
<event>
 7    1  0.6624035E-013  0.5052886E+02  0.7816164E-02  0.1300439E+00
        -11   -1    0    0    0    0  0.00000000000E+00  0.00000000000E+00  0.45593999997E+02  0.45594000000E+02  0.51100000000E-03 0. -1.
         11   -1    0    0    0    0 -0.00000000000E+00 -0.00000000000E+00 -0.45593999997E+02  0.45594000000E+02  0.51100000000E-03 0.  1.
    9900012    2    1    2    0    0  0.16474115178E+02 -0.30461302724E+02  0.21304425122E+02  0.50528856326E+02  0.29999989288E+02 0.  0.
         12    1    1    2    0    0 -0.16474115178E+02  0.30461302724E+02 -0.21304425122E+02  0.40659143674E+02  0.00000000000E+00 0. -1.
         11    1    3    3    0    0  0.10854692788E+02 -0.20633247262E+02  0.19256017969E+02  0.30238212189E+02  0.51100000000E-03 0. -1.
        -11    1    3    3    0    0  0.11564556860E+02 -0.75244876425E+01  0.10469270320E+01  0.13836652273E+02  0.51100000000E-03 0.  1.
        -12    1    3    3    0    0 -0.59451344690E+01 -0.23035678199E+01  0.10014801207E+01  0.64539918645E+01  0.00000000000E+00 0.  1.
</event>
<event>
 7    1  0.6624035E-013  0.5052885E+02  0.7816164E-02  0.1300439E+00
        -11   -1    0    0    0    0  0.00000000000E+00  0.00000000000E+00  0.45593999997E+02  0.45594000000E+02  0.51100000000E-03 0.  1.
         11   -1    0    0    0    0 -0.00000000000E+00 -0.00000000000E+00 -0.45593999997E+02  0.45594000000E+02  0.51100000000E-03 0. -1.
    9900012    2    1    2    0    0  0.22759034563E+02 -0.79352271025E+01  0.32744849526E+02  0.50528847846E+02  0.29999963512E+02 0.  0.
         12    1    1    2    0    0 -0.22759034563E+02  0.79352271025E+01 -0.32744849526E+02  0.40659152154E+02  0.00000000000E+00 0. -1.
         11    1    3    3    0    0  0.12588948062E+02 -0.11594974265E+02  0.22756328486E+02  0.28474120319E+02  0.51100000000E-03 0. -1.
        -11    1    3    3    0    0  0.10211686686E+02  0.25867143011E+01  0.14215645917E+02  0.17693338434E+02  0.51100000000E-03 0.  1.
         12    1    3    3    0    0 -0.41600184972E-01  0.10730328609E+01 -0.42271248767E+01  0.43613890929E+01  0.00000000000E+00 0. -1.
</event>
<event>
 7    1  0.6624035E-013  0.5052886E+02  0.7816164E-02  0.1300439E+00
        -11   -1    0    0    0    0  0.00000000000E+00  0.00000000000E+00  0.45593999997E+02  0.45594000000E+02  0.51100000000E-03 0.  1.
         11   -1    0    0    0    0 -0.00000000000E+00 -0.00000000000E+00 -0.45593999997E+02  0.45594000000E+02  0.51100000000E-03 0. -1.
    9900012    2    1    2    0    0 -0.18405719491E+01 -0.34654866847E+02 -0.21185336984E+02  0.50528855833E+02  0.29999987789E+02 0.  0.
         12    1    1    2    0    0  0.18405719491E+01  0.34654866847E+02  0.21185336984E+02  0.40659144167E+02  0.00000000000E+00 0. -1.
         11    1    3    3    0    0  0.25815517146E+01 -0.10343281619E+02 -0.87723089783E+01  0.13805842567E+02  0.51100000000E-03 0. -1.
        -11    1    3    3    0    0 -0.77909060469E+01 -0.22669220188E+02 -0.18013214238E+02  0.29984456780E+02  0.51100000000E-03 0.  1.
        -12    1    3    3    0    0  0.33687823832E+01 -0.16423650398E+01  0.56001862322E+01  0.67385564852E+01  0.00000000000E+00 0.  1.
</event>
<event>
 7    1  0.6624035E-013  0.5052888E+02  0.7816164E-02  0.1300439E+00
        -11   -1    0    0    0    0  0.00000000000E+00  0.00000000000E+00  0.45593999997E+02  0.45594000000E+02  0.51100000000E-03 0. -1.
         11   -1    0    0    0    0 -0.00000000000E+00 -0.00000000000E+00 -0.45593999997E+02  0.45594000000E+02  0.51100000000E-03 0.  1.
    9900012    2    1    2    0    0 -0.98288080162E+01 -0.17518541434E+01 -0.39414327789E+02  0.50528884232E+02  0.30000074112E+02 0.  0.
         12    1    1    2    0    0  0.98288080162E+01  0.17518541434E+01  0.39414327789E+02  0.40659115768E+02  0.00000000000E+00 0. -1.
         11    1    3    3    0    0  0.21804792720E+00  0.80854362239E+00  0.29998417852E+01  0.31145366727E+01  0.51100000000E-03 0. -1.
        -11    1    3    3    0    0 -0.33429095375E+01  0.75424582672E+01 -0.23894443848E+02  0.25278610879E+02  0.51100000000E-03 0.  1.
        -12    1    3    3    0    0 -0.67039464059E+01 -0.10102856033E+02 -0.18519725726E+02  0.22135736681E+02  0.00000000000E+00 0.  1.
</event>
<event>
 7    1  0.6624035E-013  0.5052885E+02  0.7816164E-02  0.1300439E+00
        -11   -1    0    0    0    0  0.00000000000E+00  0.00000000000E+00  0.45593999997E+02  0.45594000000E+02  0.51100000000E-03 0. -1.
         11   -1    0    0    0    0 -0.00000000000E+00 -0.00000000000E+00 -0.45593999997E+02  0.45594000000E+02  0.51100000000E-03 0.  1.
    9900012    2    1    2    0    0  0.21695507452E+02 -0.14196614477E+02 -0.31319764571E+02  0.50528849013E+02  0.29999967060E+02 0.  0.
         12    1    1    2    0    0 -0.21695507452E+02  0.14196614477E+02  0.31319764571E+02  0.40659150987E+02  0.00000000000E+00 0. -1.
         11    1    3    3    0    0  0.52020456378E+00 -0.33535947836E+01  0.34922908591E+01  0.48696310401E+01  0.51100000000E-03 0. -1.
        -11    1    3    3    0    0  0.68026867520E+01 -0.90861075462E+01 -0.47744088489E+01  0.12313767803E+02  0.51100000000E-03 0.  1.
         12    1    3    3    0    0  0.14372616136E+02 -0.17569121471E+01 -0.30037646581E+02  0.33345450170E+02  0.00000000000E+00 0. -1.
</event>
<event>
 7    1  0.6624035E-013  0.5052888E+02  0.7816164E-02  0.1300439E+00
        -11   -1    0    0    0    0  0.00000000000E+00  0.00000000000E+00  0.45593999997E+02  0.45594000000E+02  0.51100000000E-03 0.  1.
         11   -1    0    0    0    0 -0.00000000000E+00 -0.00000000000E+00 -0.45593999997E+02  0.45594000000E+02  0.51100000000E-03 0. -1.
    9900012    2    1    2    0    0  0.19928975945E+02 -0.22910171834E+02  0.27039311330E+02  0.50528875404E+02  0.30000047279E+02 0.  0.
         12    1    1    2    0    0 -0.19928975945E+02  0.22910171834E+02 -0.27039311330E+02  0.40659124596E+02  0.00000000000E+00 0. -1.
         11    1    3    3    0    0  0.12887225172E+02 -0.45092669976E+01  0.97193320916E+01  0.16759459361E+02  0.51100000000E-03 0. -1.
        -11    1    3    3    0    0  0.13907214449E+02 -0.91818095268E+01  0.14107504355E+02  0.21834328918E+02  0.51100000000E-03 0.  1.
         12    1    3    3    0    0 -0.68654636766E+01 -0.92190953094E+01  0.32124748838E+01  0.11935087126E+02  0.00000000000E+00 0. -1.
</event>
<event>
 7    1  0.6624035E-013  0.5052886E+02  0.7816164E-02  0.1300439E+00
        -11   -1    0    0    0    0  0.00000000000E+00  0.00000000000E+00  0.45593999997E+02  0.45594000000E+02  0.51100000000E-03 0. -1.
         11   -1    0    0    0    0 -0.00000000000E+00 -0.00000000000E+00 -0.45593999997E+02  0.45594000000E+02  0.51100000000E-03 0.  1.
    9900012    2    1    2    0    0 -0.43798349903E+01 -0.13962190140E+02 -0.37934675015E+02  0.50528864784E+02  0.30000014998E+02 0.  0.
         12    1    1    2    0    0  0.43798349903E+01  0.13962190140E+02  0.37934675015E+02  0.40659135216E+02  0.00000000000E+00 0. -1.
         11    1    3    3    0    0 -0.91306636309E+01  0.45463223618E+01 -0.12778362629E+02  0.16350064743E+02  0.51100000000E-03 0. -1.
        -11    1    3    3    0    0 -0.31729041167E+00 -0.95839378803E+01 -0.21037600037E+02  0.23119973055E+02  0.51100000000E-03 0.  1.
         12    1    3    3    0    0  0.50681190523E+01 -0.89245746211E+01 -0.41187123488E+01  0.11058826986E+02  0.00000000000E+00 0. -1.
</event>
<event>
 7    1  0.6624035E-013  0.5052886E+02  0.7816164E-02  0.1300439E+00
        -11   -1    0    0    0    0  0.00000000000E+00  0.00000000000E+00  0.45593999997E+02  0.45594000000E+02  0.51100000000E-03 0.  1.
         11   -1    0    0    0    0 -0.00000000000E+00 -0.00000000000E+00 -0.45593999997E+02  0.45594000000E+02  0.51100000000E-03 0. -1.
    9900012    2    1    2    0    0 -0.26393552045E+01 -0.29760307544E+02  0.27577587624E+02  0.50528862771E+02  0.30000008880E+02 0.  0.
         12    1    1    2    0    0  0.26393552045E+01  0.29760307544E+02 -0.27577587624E+02  0.40659137229E+02  0.00000000000E+00 0. -1.
         11    1    3    3    0    0  0.38414236705E+01 -0.68055627214E+01 -0.22497273546E+01  0.81322501930E+01  0.51100000000E-03 0. -1.
        -11    1    3    3    0    0  0.36770199973E+01  0.95656527883E+00  0.18794376889E+01  0.42388417617E+01  0.51100000000E-03 0.  1.
        -12    1    3    3    0    0 -0.10157798872E+02 -0.23911310102E+02  0.27947877290E+02  0.38157770817E+02  0.00000000000E+00 0.  1.
</event>
<event>
 7    1  0.6624035E-013  0.5052886E+02  0.7816164E-02  0.1300439E+00
        -11   -1    0    0    0    0  0.00000000000E+00  0.00000000000E+00  0.45593999997E+02  0.45594000000E+02  0.51100000000E-03 0.  1.
         11   -1    0    0    0    0 -0.00000000000E+00 -0.00000000000E+00 -0.45593999997E+02  0.45594000000E+02  0.51100000000E-03 0. -1.
    9900012    2    1    2    0    0  0.19820301373E+01 -0.99733963768E+01  0.39367104980E+02  0.50528855478E+02  0.29999986711E+02 0.  0.
         12    1    1    2    0    0 -0.19820301373E+01  0.99733963768E+01 -0.39367104980E+02  0.40659144522E+02  0.00000000000E+00 0. -1.
         11    1    3    3    0    0  0.14566052106E+01  0.21884197105E+01  0.14386060040E+02  0.14624281292E+02  0.51100000000E-03 0. -1.
        -11    1    3    3    0    0 -0.49369728836E+00  0.66947518555E+01  0.85685090749E+01  0.10884979901E+02  0.51100000000E-03 0.  1.
        -12    1    3    3    0    0  0.10191222150E+01 -0.18856567943E+02  0.16412535865E+02  0.25019594285E+02  0.00000000000E+00 0.  1.
</event>
<event>
 7    1  0.6624035E-013  0.5052883E+02  0.7816164E-02  0.1300439E+00
        -11   -1    0    0    0    0  0.00000000000E+00  0.00000000000E+00  0.45593999997E+02  0.45594000000E+02  0.51100000000E-03 0.  1.
         11   -1    0    0    0    0 -0.00000000000E+00 -0.00000000000E+00 -0.45593999997E+02  0.45594000000E+02  0.51100000000E-03 0. -1.
    9900012    2    1    2    0    0  0.33484531052E-01  0.11634311827E+02  0.38959081551E+02  0.50528826765E+02  0.29999899434E+02 0.  0.
         12    1    1    2    0    0 -0.33484531052E-01 -0.11634311827E+02 -0.38959081551E+02  0.40659173235E+02  0.00000000000E+00 0. -1.
         11    1    3    3    0    0 -0.46498506588E+00 -0.65980329308E+01  0.97196997961E+01  0.11756819896E+02  0.51100000000E-03 0. -1.
        -11    1    3    3    0    0 -0.80061690351E+01  0.76298224942E+01  0.18040896517E+02  0.21160975434E+02  0.51100000000E-03 0.  1.
        -12    1    3    3    0    0  0.85046386320E+01  0.10602522263E+02  0.11198485238E+02  0.17611031436E+02  0.00000000000E+00 0.  1.
</event>
<event>
 7    1  0.6624035E-013  0.5052886E+02  0.7816164E-02  0.1300439E+00
        -11   -1    0    0    0    0  0.00000000000E+00  0.00000000000E+00  0.45593999997E+02  0.45594000000E+02  0.51100000000E-03 0.  1.
         11   -1    0    0    0    0 -0.00000000000E+00 -0.00000000000E+00 -0.45593999997E+02  0.45594000000E+02  0.51100000000E-03 0. -1.
    9900012    2    1    2    0    0  0.29771314744E+02 -0.61981405939E+00  0.27684836812E+02  0.50528861540E+02  0.30000005136E+02 0.  0.
         12    1    1    2    0    0 -0.29771314744E+02  0.61981405939E+00 -0.27684836812E+02  0.40659138460E+02  0.00000000000E+00 0. -1.
         11    1    3    3    0    0  0.98538409043E+01 -0.59120797091E+01  0.92969829194E+01  0.14781229946E+02  0.51100000000E-03 0. -1.
        -11    1    3    3    0    0  0.22702339538E+02  0.87083169605E+01  0.19538326607E+02  0.31192582638E+02  0.51100000000E-03 0.  1.
         12    1    3    3    0    0 -0.27848656985E+01 -0.34160513107E+01 -0.11504727145E+01  0.45550489551E+01  0.00000000000E+00 0. -1.
</event>
<event>
 7    1  0.6624035E-013  0.5052887E+02  0.7816164E-02  0.1300439E+00
        -11   -1    0    0    0    0  0.00000000000E+00  0.00000000000E+00  0.45593999997E+02  0.45594000000E+02  0.51100000000E-03 0.  1.
         11   -1    0    0    0    0 -0.00000000000E+00 -0.00000000000E+00 -0.45593999997E+02  0.45594000000E+02  0.51100000000E-03 0. -1.
    9900012    2    1    2    0    0 -0.31216031600E+01  0.28259651909E+02  0.29065663300E+02  0.50528866766E+02  0.30000021021E+02 0.  0.
         12    1    1    2    0    0  0.31216031600E+01 -0.28259651909E+02 -0.29065663300E+02  0.40659133234E+02  0.00000000000E+00 0. -1.
         11    1    3    3    0    0  0.66312411596E+01  0.46781759405E+01 -0.70335916334E+00  0.81457598676E+01  0.51100000000E-03 0. -1.
        -11    1    3    3    0    0 -0.11172383481E+02  0.11931574465E+02  0.93483233105E+01  0.18830182443E+02  0.51100000000E-03 0.  1.
        -12    1    3    3    0    0  0.14195391618E+01  0.11649901504E+02  0.20420699153E+02  0.23552924455E+02  0.00000000000E+00 0.  1.
</event>
<event>
 7    1  0.6624035E-013  0.5052884E+02  0.7816164E-02  0.1300439E+00
        -11   -1    0    0    0    0  0.00000000000E+00  0.00000000000E+00  0.45593999997E+02  0.45594000000E+02  0.51100000000E-03 0.  1.
         11   -1    0    0    0    0 -0.00000000000E+00 -0.00000000000E+00 -0.45593999997E+02  0.45594000000E+02  0.51100000000E-03 0. -1.
    9900012    2    1    2    0    0 -0.20440965360E+02 -0.50068306440E+00  0.35143760167E+02  0.50528835878E+02  0.29999927136E+02 0.  0.
         12    1    1    2    0    0  0.20440965360E+02  0.50068306440E+00 -0.35143760167E+02  0.40659164122E+02  0.00000000000E+00 0. -1.
         11    1    3    3    0    0 -0.44714334482E+01 -0.59893007922E+01  0.73835338328E+01  0.10506284461E+02  0.51100000000E-03 0. -1.
        -11    1    3    3    0    0 -0.85558801642E+01  0.27597506352E+01  0.30393599411E+02  0.31695270852E+02  0.51100000000E-03 0.  1.
        -12    1    3    3    0    0 -0.74136517479E+01  0.27288670927E+01 -0.26333730771E+01  0.83272805652E+01  0.00000000000E+00 0.  1.
</event>
<event>
 7    1  0.6624035E-013  0.5052886E+02  0.7816164E-02  0.1300439E+00
        -11   -1    0    0    0    0  0.00000000000E+00  0.00000000000E+00  0.45593999997E+02  0.45594000000E+02  0.51100000000E-03 0.  1.
         11   -1    0    0    0    0 -0.00000000000E+00 -0.00000000000E+00 -0.45593999997E+02  0.45594000000E+02  0.51100000000E-03 0. -1.
    9900012    2    1    2    0    0 -0.23425116896E+02  0.27557556301E+02  0.18574469198E+02  0.50528856909E+02  0.29999991060E+02 0.  0.
         12    1    1    2    0    0  0.23425116896E+02 -0.27557556301E+02 -0.18574469198E+02  0.40659143091E+02  0.00000000000E+00 0. -1.
         11    1    3    3    0    0 -0.77546929579E+01  0.22848898160E+01 -0.24915162225E+01  0.84595294012E+01  0.51100000000E-03 0. -1.
        -11    1    3    3    0    0  0.11616514251E-01  0.15992778386E+02  0.27398824958E+01  0.16225783549E+02  0.51100000000E-03 0.  1.
        -12    1    3    3    0    0 -0.15682040453E+02  0.92798880996E+01  0.18326102925E+02  0.25843543958E+02  0.00000000000E+00 0.  1.
</event>
<event>
 7    1  0.6624035E-013  0.5052885E+02  0.7816164E-02  0.1300439E+00
        -11   -1    0    0    0    0  0.00000000000E+00  0.00000000000E+00  0.45593999997E+02  0.45594000000E+02  0.51100000000E-03 0.  1.
         11   -1    0    0    0    0 -0.00000000000E+00 -0.00000000000E+00 -0.45593999997E+02  0.45594000000E+02  0.51100000000E-03 0. -1.
    9900012    2    1    2    0    0  0.37254875751E+02  0.60330664812E-01  0.16286092874E+02  0.50528853082E+02  0.29999979429E+02 0.  0.
         12    1    1    2    0    0 -0.37254875751E+02 -0.60330664812E-01 -0.16286092874E+02  0.40659146918E+02  0.00000000000E+00 0. -1.
         11    1    3    3    0    0 -0.13545280443E+01  0.23834580642E+01 -0.31567039310E+01  0.41809566532E+01  0.51100000000E-03 0. -1.
        -11    1    3    3    0    0  0.63384541169E+01 -0.28546204053E+01 -0.24245506104E+01  0.73622893297E+01  0.51100000000E-03 0.  1.
        -12    1    3    3    0    0  0.32270949678E+02  0.53149300595E+00  0.21867347415E+02  0.38985607099E+02  0.00000000000E+00 0.  1.
</event>
<event>
 7    1  0.6624035E-013  0.5052885E+02  0.7816164E-02  0.1300439E+00
        -11   -1    0    0    0    0  0.00000000000E+00  0.00000000000E+00  0.45593999997E+02  0.45594000000E+02  0.51100000000E-03 0. -1.
         11   -1    0    0    0    0 -0.00000000000E+00 -0.00000000000E+00 -0.45593999997E+02  0.45594000000E+02  0.51100000000E-03 0.  1.
    9900012    2    1    2    0    0  0.14317113634E+01 -0.37908059709E+02 -0.14632003416E+02  0.50528852047E+02  0.29999976282E+02 0.  0.
         12    1    1    2    0    0 -0.14317113634E+01  0.37908059709E+02  0.14632003416E+02  0.40659147953E+02  0.00000000000E+00 0. -1.
         11    1    3    3    0    0  0.26699541459E+01 -0.37220315223E+01  0.41234652416E+01  0.61632085519E+01  0.51100000000E-03 0. -1.
        -11    1    3    3    0    0 -0.81000831476E+01 -0.18556812779E+02 -0.18342154487E+01  0.20330543379E+02  0.51100000000E-03 0.  1.
         12    1    3    3    0    0  0.68618403651E+01 -0.15629215408E+02 -0.16921253208E+02  0.24035100116E+02  0.00000000000E+00 0. -1.
</event>
<event>
 7    1  0.6624035E-013  0.5052885E+02  0.7816164E-02  0.1300439E+00
        -11   -1    0    0    0    0  0.00000000000E+00  0.00000000000E+00  0.45593999997E+02  0.45594000000E+02  0.51100000000E-03 0.  1.
         11   -1    0    0    0    0 -0.00000000000E+00 -0.00000000000E+00 -0.45593999997E+02  0.45594000000E+02  0.51100000000E-03 0. -1.
    9900012    2    1    2    0    0 -0.40163615627E+01  0.11962403342E+02  0.38651467089E+02  0.50528853894E+02  0.29999981897E+02 0.  0.
         12    1    1    2    0    0  0.40163615627E+01 -0.11962403342E+02 -0.38651467089E+02  0.40659146106E+02  0.00000000000E+00 0. -1.
         11    1    3    3    0    0 -0.98228263022E-01  0.10647375185E+02  0.37235942402E+01  0.11280133042E+02  0.51100000000E-03 0. -1.
        -11    1    3    3    0    0 -0.38866762478E+01  0.86856366389E+01  0.12966190589E+02  0.16083178626E+02  0.51100000000E-03 0.  1.
        -12    1    3    3    0    0 -0.31457051806E-01 -0.73706084812E+01  0.21961682260E+02  0.23165542226E+02  0.00000000000E+00 0.  1.
</event>
<event>
 7    1  0.6624035E-013  0.5052893E+02  0.7816164E-02  0.1300439E+00
        -11   -1    0    0    0    0  0.00000000000E+00  0.00000000000E+00  0.45593999997E+02  0.45594000000E+02  0.51100000000E-03 0.  1.
         11   -1    0    0    0    0 -0.00000000000E+00 -0.00000000000E+00 -0.45593999997E+02  0.45594000000E+02  0.51100000000E-03 0. -1.
    9900012    2    1    2    0    0  0.22708539020E+02 -0.16928749746E+02  0.29170186591E+02  0.50528928464E+02  0.30000208559E+02 0.  0.
         12    1    1    2    0    0 -0.22708539020E+02  0.16928749746E+02 -0.29170186591E+02  0.40659071536E+02  0.00000000000E+00 0. -1.
         11    1    3    3    0    0 -0.14403468277E+01 -0.59484958669E+01  0.14423295688E+02  0.15668141588E+02  0.51100000000E-03 0. -1.
        -11    1    3    3    0    0  0.12294650286E+01 -0.84389955649E+01  0.40140556685E+01  0.94255436752E+01  0.51100000000E-03 0.  1.
        -12    1    3    3    0    0  0.22919420820E+02 -0.25412583138E+01  0.10732835234E+02  0.25435243201E+02  0.00000000000E+00 0.  1.
</event>
<event>
 7    1  0.6624035E-013  0.5052886E+02  0.7816164E-02  0.1300439E+00
        -11   -1    0    0    0    0  0.00000000000E+00  0.00000000000E+00  0.45593999997E+02  0.45594000000E+02  0.51100000000E-03 0.  1.
         11   -1    0    0    0    0 -0.00000000000E+00 -0.00000000000E+00 -0.45593999997E+02  0.45594000000E+02  0.51100000000E-03 0. -1.
    9900012    2    1    2    0    0  0.31573960533E+02 -0.14240053824E+02  0.21294875317E+02  0.50528857960E+02  0.29999994254E+02 0.  0.
         12    1    1    2    0    0 -0.31573960533E+02  0.14240053824E+02 -0.21294875317E+02  0.40659142040E+02  0.00000000000E+00 0. -1.
         11    1    3    3    0    0  0.88009804067E+01  0.25425502438E+00  0.20199414409E+01  0.90333861548E+01  0.51100000000E-03 0. -1.
        -11    1    3    3    0    0  0.24978168401E+02 -0.15050424355E+02  0.83465656986E+01  0.30332974288E+02  0.51100000000E-03 0.  1.
         12    1    3    3    0    0 -0.22051882742E+01  0.55611550676E+00  0.10928368178E+02  0.11162497517E+02  0.00000000000E+00 0. -1.
</event>
<event>
 7    1  0.6624035E-013  0.5052887E+02  0.7816164E-02  0.1300439E+00
        -11   -1    0    0    0    0  0.00000000000E+00  0.00000000000E+00  0.45593999997E+02  0.45594000000E+02  0.51100000000E-03 0.  1.
         11   -1    0    0    0    0 -0.00000000000E+00 -0.00000000000E+00 -0.45593999997E+02  0.45594000000E+02  0.51100000000E-03 0. -1.
    9900012    2    1    2    0    0  0.33066247127E+02  0.97170753847E+01  0.21572363183E+02  0.50528866876E+02  0.30000021357E+02 0.  0.
         12    1    1    2    0    0 -0.33066247127E+02 -0.97170753847E+01 -0.21572363183E+02  0.40659133124E+02  0.00000000000E+00 0. -1.
         11    1    3    3    0    0  0.30561956306E+01  0.16731955776E+01  0.88873950978E+01  0.95459785804E+01  0.51100000000E-03 0. -1.
        -11    1    3    3    0    0  0.28958173305E+01  0.55218828681E+01  0.12252991138E+02  0.13748190445E+02  0.51100000000E-03 0.  1.
         12    1    3    3    0    0  0.27114234166E+02  0.25219969390E+01  0.43197694753E+00  0.27234697851E+02  0.00000000000E+00 0. -1.
</event>
<event>
 7    1  0.6624035E-013  0.5052886E+02  0.7816164E-02  0.1300439E+00
        -11   -1    0    0    0    0  0.00000000000E+00  0.00000000000E+00  0.45593999997E+02  0.45594000000E+02  0.51100000000E-03 0.  1.
         11   -1    0    0    0    0 -0.00000000000E+00 -0.00000000000E+00 -0.45593999997E+02  0.45594000000E+02  0.51100000000E-03 0. -1.
    9900012    2    1    2    0    0  0.47414355574E+01 -0.18940946701E+02  0.35664061617E+02  0.50528856328E+02  0.29999989296E+02 0.  0.
         12    1    1    2    0    0 -0.47414355574E+01  0.18940946701E+02 -0.35664061617E+02  0.40659143672E+02  0.00000000000E+00 0. -1.
         11    1    3    3    0    0  0.12708790177E+01 -0.14454224130E+02  0.24448836612E+02  0.28430359488E+02  0.51100000000E-03 0.  1.
        -11    1    3    3    0    0  0.57725542778E+01 -0.27892918350E+01 -0.33648781209E+01  0.72405066716E+01  0.51100000000E-03 0. -1.
         12    1    3    3    0    0 -0.23019977382E+01 -0.16974307357E+01  0.14580103126E+02  0.14857990169E+02  0.00000000000E+00 0. -1.
</event>
<event>
 7    1  0.6624035E-013  0.5052886E+02  0.7816164E-02  0.1300439E+00
        -11   -1    0    0    0    0  0.00000000000E+00  0.00000000000E+00  0.45593999997E+02  0.45594000000E+02  0.51100000000E-03 0.  1.
         11   -1    0    0    0    0 -0.00000000000E+00 -0.00000000000E+00 -0.45593999997E+02  0.45594000000E+02  0.51100000000E-03 0. -1.
    9900012    2    1    2    0    0  0.33008671151E+02  0.23388002574E+02  0.40736154882E+01  0.50528863528E+02  0.30000011179E+02 0.  0.
         12    1    1    2    0    0 -0.33008671151E+02 -0.23388002574E+02 -0.40736154882E+01  0.40659136472E+02  0.00000000000E+00 0. -1.
         11    1    3    3    0    0  0.37364530892E+01  0.87795329848E+01 -0.55863446596E+00  0.95578948439E+01  0.51100000000E-03 0. -1.
        -11    1    3    3    0    0 -0.62141618680E+00  0.80246660745E+01  0.64393649838E+01  0.10307611039E+02  0.51100000000E-03 0.  1.
         12    1    3    3    0    0  0.29893634248E+02  0.65838035144E+01 -0.18071150296E+01  0.30663357644E+02  0.00000000000E+00 0. -1.
</event>
<event>
 7    1  0.6624035E-013  0.5052880E+02  0.7816164E-02  0.1300439E+00
        -11   -1    0    0    0    0  0.00000000000E+00  0.00000000000E+00  0.45593999997E+02  0.45594000000E+02  0.51100000000E-03 0.  1.
         11   -1    0    0    0    0 -0.00000000000E+00 -0.00000000000E+00 -0.45593999997E+02  0.45594000000E+02  0.51100000000E-03 0. -1.
    9900012    2    1    2    0    0  0.16193501898E+01 -0.25350861846E+02  0.31747154588E+02  0.50528802814E+02  0.29999826632E+02 0.  0.
         12    1    1    2    0    0 -0.16193501898E+01  0.25350861846E+02 -0.31747154588E+02  0.40659197186E+02  0.00000000000E+00 0. -1.
         11    1    3    3    0    0 -0.29921103103E+01 -0.61429778146E+01  0.10394952286E+02  0.12439611482E+02  0.51100000000E-03 0. -1.
        -11    1    3    3    0    0 -0.82355834178E+01 -0.10553501693E+02  0.17668541936E+02  0.22167061299E+02  0.51100000000E-03 0.  1.
         12    1    3    3    0    0  0.12847043918E+02 -0.86543823385E+01  0.36836603661E+01  0.15922130033E+02  0.00000000000E+00 0. -1.
</event>
<event>
 7    1  0.6624035E-013  0.5052887E+02  0.7816164E-02  0.1300439E+00
        -11   -1    0    0    0    0  0.00000000000E+00  0.00000000000E+00  0.45593999997E+02  0.45594000000E+02  0.51100000000E-03 0.  1.
         11   -1    0    0    0    0 -0.00000000000E+00 -0.00000000000E+00 -0.45593999997E+02  0.45594000000E+02  0.51100000000E-03 0. -1.
    9900012    2    1    2    0    0 -0.13764962398E+02 -0.25694990054E+02  0.28345333430E+02  0.50528872723E+02  0.30000039128E+02 0.  0.
         12    1    1    2    0    0  0.13764962398E+02  0.25694990054E+02 -0.28345333430E+02  0.40659127277E+02  0.00000000000E+00 0. -1.
         11    1    3    3    0    0  0.49991337253E+00 -0.75694248285E+01  0.21611538559E+01  0.78877558192E+01  0.51100000000E-03 0. -1.
        -11    1    3    3    0    0 -0.13751511269E+02 -0.21109132251E+02  0.11581280542E+02  0.27727704302E+02  0.51100000000E-03 0.  1.
        -12    1    3    3    0    0 -0.51336450066E+00  0.29835670250E+01  0.14602899032E+02  0.14913412602E+02  0.00000000000E+00 0.  1.
</event>
<event>
 7    1  0.6624035E-013  0.5052886E+02  0.7816164E-02  0.1300439E+00
        -11   -1    0    0    0    0  0.00000000000E+00  0.00000000000E+00  0.45593999997E+02  0.45594000000E+02  0.51100000000E-03 0.  1.
         11   -1    0    0    0    0 -0.00000000000E+00 -0.00000000000E+00 -0.45593999997E+02  0.45594000000E+02  0.51100000000E-03 0. -1.
    9900012    2    1    2    0    0 -0.29813782396E+02 -0.20023697390E+02  0.19061891015E+02  0.50528858753E+02  0.29999996665E+02 0.  0.
         12    1    1    2    0    0  0.29813782396E+02  0.20023697390E+02 -0.19061891015E+02  0.40659141247E+02  0.00000000000E+00 0. -1.
         11    1    3    3    0    0 -0.12447155861E+02 -0.89561490971E+01  0.13160226838E+02  0.20207322098E+02  0.51100000000E-03 0. -1.
        -11    1    3    3    0    0 -0.67113126940E+01 -0.60607648908E+01  0.13544103740E+02  0.16285494636E+02  0.51100000000E-03 0.  1.
         12    1    3    3    0    0 -0.10655313841E+02 -0.50067834019E+01 -0.76424395637E+01  0.14036042019E+02  0.00000000000E+00 0. -1.
</event>
<event>
 7    1  0.6624035E-013  0.5052887E+02  0.7816164E-02  0.1300439E+00
        -11   -1    0    0    0    0  0.00000000000E+00  0.00000000000E+00  0.45593999997E+02  0.45594000000E+02  0.51100000000E-03 0.  1.
         11   -1    0    0    0    0 -0.00000000000E+00 -0.00000000000E+00 -0.45593999997E+02  0.45594000000E+02  0.51100000000E-03 0. -1.
    9900012    2    1    2    0    0 -0.43049609845E+01 -0.24371065807E+02  0.32259624744E+02  0.50528869091E+02  0.30000028089E+02 0.  0.
         12    1    1    2    0    0  0.43049609845E+01  0.24371065807E+02 -0.32259624744E+02  0.40659130909E+02  0.00000000000E+00 0. -1.
         11    1    3    3    0    0  0.52785452031E+01 -0.45365116526E+01  0.53818520869E+00  0.69808753760E+01  0.51100000000E-03 0. -1.
        -11    1    3    3    0    0 -0.41079058180E+01 -0.52049895902E+01 -0.15346321307E+01  0.68060196063E+01  0.51100000000E-03 0.  1.
        -12    1    3    3    0    0 -0.54756003696E+01 -0.14629564564E+02  0.33256071666E+02  0.36741974109E+02  0.00000000000E+00 0.  1.
</event>
<event>
 7    1  0.7163261E-013  0.5052886E+02  0.7816164E-02  0.1300439E+00
        -11   -1    0    0    0    0  0.00000000000E+00  0.00000000000E+00  0.45593999997E+02  0.45594000000E+02  0.51100000000E-03 0.  1.
         11   -1    0    0    0    0 -0.00000000000E+00 -0.00000000000E+00 -0.45593999997E+02  0.45594000000E+02  0.51100000000E-03 0. -1.
    9900012    2    1    2    0    0 -0.10352035976E+02  0.38763154973E+02  0.65892806883E+01  0.50528862622E+02  0.30000008426E+02 0.  0.
         12    1    1    2    0    0  0.10352035976E+02 -0.38763154973E+02 -0.65892806883E+01  0.40659137378E+02  0.00000000000E+00 0. -1.
         11    1    3    3    0    0 -0.51638997829E+01  0.11366490577E+02  0.10978023818E+02  0.16624679733E+02  0.51100000000E-03 0. -1.
        -11    1    3    3    0    0 -0.96693042762E+01  0.11598569940E+02  0.37755529275E+01  0.15565252006E+02  0.51100000000E-03 0.  1.
         12    1    3    3    0    0  0.44811680830E+01  0.15798094456E+02 -0.81642960571E+01  0.18338930883E+02  0.00000000000E+00 0. -1.
</event>
<event>
 7    1  0.6624035E-013  0.5052886E+02  0.7816164E-02  0.1300439E+00
        -11   -1    0    0    0    0  0.00000000000E+00  0.00000000000E+00  0.45593999997E+02  0.45594000000E+02  0.51100000000E-03 0.  1.
         11   -1    0    0    0    0 -0.00000000000E+00 -0.00000000000E+00 -0.45593999997E+02  0.45594000000E+02  0.51100000000E-03 0. -1.
    9900012    2    1    2    0    0 -0.40608173972E+02 -0.86305797350E+00 -0.18431447859E+01  0.50528857792E+02  0.29999993745E+02 0.  0.
         12    1    1    2    0    0  0.40608173972E+02  0.86305797350E+00  0.18431447859E+01  0.40659142208E+02  0.00000000000E+00 0. -1.
         11    1    3    3    0    0 -0.17424512186E+02  0.11810609580E+01 -0.96256711565E+01  0.19941466230E+02  0.51100000000E-03 0. -1.
        -11    1    3    3    0    0  0.25255355042E+01 -0.13455985580E+01 -0.15172237093E+01  0.32389709952E+01  0.51100000000E-03 0.  1.
        -12    1    3    3    0    0 -0.25709197289E+02 -0.69852037356E+00  0.92997500799E+01  0.27348420567E+02  0.00000000000E+00 0.  1.
</event>
<event>
 7    1  0.6624035E-013  0.5052883E+02  0.7816164E-02  0.1300439E+00
        -11   -1    0    0    0    0  0.00000000000E+00  0.00000000000E+00  0.45593999997E+02  0.45594000000E+02  0.51100000000E-03 0. -1.
         11   -1    0    0    0    0 -0.00000000000E+00 -0.00000000000E+00 -0.45593999997E+02  0.45594000000E+02  0.51100000000E-03 0.  1.
    9900012    2    1    2    0    0 -0.34622314048E+02  0.12895181928E+02 -0.16975799553E+02  0.50528829848E+02  0.29999908804E+02 0.  0.
         12    1    1    2    0    0  0.34622314048E+02 -0.12895181928E+02  0.16975799553E+02  0.40659170152E+02  0.00000000000E+00 0. -1.
         11    1    3    3    0    0 -0.18816736723E+01  0.63395339352E+01  0.11978468272E+01  0.67205076897E+01  0.51100000000E-03 0.  1.
        -11    1    3    3    0    0 -0.14227624644E+02  0.62803313141E+01  0.28316496891E+01  0.15807786203E+02  0.51100000000E-03 0. -1.
        -12    1    3    3    0    0 -0.18513015732E+02  0.27531667869E+00 -0.21005296070E+02  0.28000535954E+02  0.00000000000E+00 0.  1.
</event>
<event>
 7    1  0.6624035E-013  0.5052887E+02  0.7816164E-02  0.1300439E+00
        -11   -1    0    0    0    0  0.00000000000E+00  0.00000000000E+00  0.45593999997E+02  0.45594000000E+02  0.51100000000E-03 0.  1.
         11   -1    0    0    0    0 -0.00000000000E+00 -0.00000000000E+00 -0.45593999997E+02  0.45594000000E+02  0.51100000000E-03 0. -1.
    9900012    2    1    2    0    0 -0.18820532973E+01 -0.37032158785E+02 -0.16680586825E+02  0.50528869589E+02  0.30000029604E+02 0.  0.
         12    1    1    2    0    0  0.18820532973E+01  0.37032158785E+02  0.16680586825E+02  0.40659130411E+02  0.00000000000E+00 0. -1.
         11    1    3    3    0    0  0.39622717706E+01 -0.69978346203E+00  0.12466466056E+01  0.42122942085E+01  0.51100000000E-03 0. -1.
        -11    1    3    3    0    0 -0.91827646268E+00  0.24887349403E+01 -0.39597164540E+01  0.47661712016E+01  0.51100000000E-03 0.  1.
        -12    1    3    3    0    0 -0.49260486052E+01 -0.38821110264E+02 -0.13967516977E+02  0.41550404179E+02  0.00000000000E+00 0.  1.
</event>
<event>
 7    1  0.6624035E-013  0.5052887E+02  0.7816164E-02  0.1300439E+00
        -11   -1    0    0    0    0  0.00000000000E+00  0.00000000000E+00  0.45593999997E+02  0.45594000000E+02  0.51100000000E-03 0. -1.
         11   -1    0    0    0    0 -0.00000000000E+00 -0.00000000000E+00 -0.45593999997E+02  0.45594000000E+02  0.51100000000E-03 0.  1.
    9900012    2    1    2    0    0 -0.16351348943E+02 -0.48396128238E+01 -0.36910381698E+02  0.50528871362E+02  0.30000034993E+02 0.  0.
         12    1    1    2    0    0  0.16351348943E+02  0.48396128238E+01  0.36910381698E+02  0.40659128638E+02  0.00000000000E+00 0. -1.
         11    1    3    3    0    0  0.93093048844E+00 -0.26555961276E+01 -0.15448002822E+00  0.28182772588E+01  0.51100000000E-03 0. -1.
        -11    1    3    3    0    0 -0.52101113731E+01 -0.46339495218E+01  0.18277417462E+01  0.72082861238E+01  0.51100000000E-03 0.  1.
        -12    1    3    3    0    0 -0.12072168058E+02  0.24499328255E+01 -0.38583643415E+02  0.40502307980E+02  0.00000000000E+00 0.  1.
</event>
<event>
 7    1  0.6624035E-013  0.5052886E+02  0.7816164E-02  0.1300439E+00
        -11   -1    0    0    0    0  0.00000000000E+00  0.00000000000E+00  0.45593999997E+02  0.45594000000E+02  0.51100000000E-03 0.  1.
         11   -1    0    0    0    0 -0.00000000000E+00 -0.00000000000E+00 -0.45593999997E+02  0.45594000000E+02  0.51100000000E-03 0. -1.
    9900012    2    1    2    0    0 -0.35717925921E+02 -0.20026041779E+01  0.19323164448E+02  0.50528864004E+02  0.30000012628E+02 0.  0.
         12    1    1    2    0    0  0.35717925921E+02  0.20026041779E+01 -0.19323164448E+02  0.40659135996E+02  0.00000000000E+00 0. -1.
         11    1    3    3    0    0 -0.21020823018E+02 -0.83347286164E+01  0.78075954279E+01  0.23922818565E+02  0.51100000000E-03 0.  1.
        -11    1    3    3    0    0 -0.69467197646E+01  0.35725247847E-01 -0.41031186227E+01  0.80680712983E+01  0.51100000000E-03 0. -1.
        -12    1    3    3    0    0 -0.77503831384E+01  0.62963991907E+01  0.15618687643E+02  0.18537974141E+02  0.00000000000E+00 0.  1.
</event>
<event>
 7    1  0.6624035E-013  0.5052890E+02  0.7816164E-02  0.1300439E+00
        -11   -1    0    0    0    0  0.00000000000E+00  0.00000000000E+00  0.45593999997E+02  0.45594000000E+02  0.51100000000E-03 0. -1.
         11   -1    0    0    0    0 -0.00000000000E+00 -0.00000000000E+00 -0.45593999997E+02  0.45594000000E+02  0.51100000000E-03 0.  1.
    9900012    2    1    2    0    0 -0.25445698357E+01  0.56164539895E+01 -0.40188839264E+02  0.50528902710E+02  0.30000130277E+02 0.  0.
         12    1    1    2    0    0  0.25445698357E+01 -0.56164539895E+01  0.40188839264E+02  0.40659097290E+02  0.00000000000E+00 0. -1.
         11    1    3    3    0    0  0.16611141851E+01  0.57185353853E+00 -0.15604480142E+02  0.15703060770E+02  0.51100000000E-03 0. -1.
        -11    1    3    3    0    0  0.47519864175E+01  0.10333747218E+02 -0.20891781107E+02  0.23787270220E+02  0.51100000000E-03 0.  1.
         12    1    3    3    0    0 -0.89576704383E+01 -0.52891467666E+01 -0.36925780157E+01  0.11038571719E+02  0.00000000000E+00 0. -1.
</event>
<event>
 7    1  0.6624035E-013  0.5052886E+02  0.7816164E-02  0.1300439E+00
        -11   -1    0    0    0    0  0.00000000000E+00  0.00000000000E+00  0.45593999997E+02  0.45594000000E+02  0.51100000000E-03 0.  1.
         11   -1    0    0    0    0 -0.00000000000E+00 -0.00000000000E+00 -0.45593999997E+02  0.45594000000E+02  0.51100000000E-03 0. -1.
    9900012    2    1    2    0    0  0.13900554676E+02  0.22292317014E+02  0.31032124116E+02  0.50528861479E+02  0.30000004951E+02 0.  0.
         12    1    1    2    0    0 -0.13900554676E+02 -0.22292317014E+02 -0.31032124116E+02  0.40659138521E+02  0.00000000000E+00 0. -1.
         11    1    3    3    0    0  0.83470193497E+01 -0.19310892387E+00  0.50430167843E+00  0.83644691120E+01  0.51100000000E-03 0. -1.
        -11    1    3    3    0    0 -0.88305273064E+00 -0.20893155732E+01 -0.22109348827E+00  0.22790138835E+01  0.51100000000E-03 0.  1.
        -12    1    3    3    0    0  0.64365880564E+01  0.24574741511E+02  0.30748915926E+02  0.39885378483E+02  0.00000000000E+00 0.  1.
</event>
<event>
 7    1  0.6624035E-013  0.5052886E+02  0.7816164E-02  0.1300439E+00
        -11   -1    0    0    0    0  0.00000000000E+00  0.00000000000E+00  0.45593999997E+02  0.45594000000E+02  0.51100000000E-03 0.  1.
         11   -1    0    0    0    0 -0.00000000000E+00 -0.00000000000E+00 -0.45593999997E+02  0.45594000000E+02  0.51100000000E-03 0. -1.
    9900012    2    1    2    0    0  0.28895052739E+02  0.12258945211E+01  0.28578636225E+02  0.50528864020E+02  0.30000012676E+02 0.  0.
         12    1    1    2    0    0 -0.28895052739E+02 -0.12258945211E+01 -0.28578636225E+02  0.40659135980E+02  0.00000000000E+00 0. -1.
         11    1    3    3    0    0  0.31454134849E+01 -0.17196044601E+01  0.80139262669E+01  0.87791616890E+01  0.51100000000E-03 0. -1.
        -11    1    3    3    0    0  0.17736757539E+02 -0.12428229718E+01  0.25776257365E+02  0.31313776856E+02  0.51100000000E-03 0.  1.
        -12    1    3    3    0    0  0.80128817146E+01  0.41883219531E+01 -0.52115474070E+01  0.10435925476E+02  0.00000000000E+00 0.  1.
</event>
<event>
 7    1  0.6624035E-013  0.5052885E+02  0.7816164E-02  0.1300439E+00
        -11   -1    0    0    0    0  0.00000000000E+00  0.00000000000E+00  0.45593999997E+02  0.45594000000E+02  0.51100000000E-03 0.  1.
         11   -1    0    0    0    0 -0.00000000000E+00 -0.00000000000E+00 -0.45593999997E+02  0.45594000000E+02  0.51100000000E-03 0. -1.
    9900012    2    1    2    0    0  0.36493869057E+02  0.53718317186E+01  0.17102842173E+02  0.50528852626E+02  0.29999978041E+02 0.  0.
         12    1    1    2    0    0 -0.36493869057E+02 -0.53718317186E+01 -0.17102842173E+02  0.40659147374E+02  0.00000000000E+00 0. -1.
         11    1    3    3    0    0  0.62848865130E+01 -0.66604761820E+00  0.15303457468E+02  0.16557150378E+02  0.51100000000E-03 0. -1.
        -11    1    3    3    0    0  0.15233416691E+01 -0.25107505636E+01 -0.23393341674E+01  0.37545869069E+01  0.51100000000E-03 0.  1.
        -12    1    3    3    0    0  0.28685640875E+02  0.85486299004E+01  0.41387188727E+01  0.30217115341E+02  0.00000000000E+00 0.  1.
</event>
<event>
 7    1  0.6624035E-013  0.5052886E+02  0.7816164E-02  0.1300439E+00
        -11   -1    0    0    0    0  0.00000000000E+00  0.00000000000E+00  0.45593999997E+02  0.45594000000E+02  0.51100000000E-03 0. -1.
         11   -1    0    0    0    0 -0.00000000000E+00 -0.00000000000E+00 -0.45593999997E+02  0.45594000000E+02  0.51100000000E-03 0.  1.
    9900012    2    1    2    0    0 -0.25148037246E+02  0.28923493731E+02  0.13571058648E+02  0.50528857120E+02  0.29999991702E+02 0.  0.
         12    1    1    2    0    0  0.25148037246E+02 -0.28923493731E+02 -0.13571058648E+02  0.40659142880E+02  0.00000000000E+00 0. -1.
         11    1    3    3    0    0 -0.93437581480E+01  0.10807880517E+02  0.15027965716E+02  0.20735376809E+02  0.51100000000E-03 0. -1.
        -11    1    3    3    0    0 -0.83137569061E-01  0.34199299308E+01  0.60927567552E+01  0.69874543094E+01  0.51100000000E-03 0.  1.
        -12    1    3    3    0    0 -0.15721141528E+02  0.14695683283E+02 -0.75496638235E+01  0.22806026001E+02  0.00000000000E+00 0.  1.
</event>
<event>
 7    1  0.6624035E-013  0.5052886E+02  0.7816164E-02  0.1300439E+00
        -11   -1    0    0    0    0  0.00000000000E+00  0.00000000000E+00  0.45593999997E+02  0.45594000000E+02  0.51100000000E-03 0.  1.
         11   -1    0    0    0    0 -0.00000000000E+00 -0.00000000000E+00 -0.45593999997E+02  0.45594000000E+02  0.51100000000E-03 0. -1.
    9900012    2    1    2    0    0  0.22546834311E+02 -0.32005999215E+02 -0.10973707169E+02  0.50528856229E+02  0.29999988993E+02 0.  0.
         12    1    1    2    0    0 -0.22546834311E+02  0.32005999215E+02  0.10973707169E+02  0.40659143771E+02  0.00000000000E+00 0. -1.
         11    1    3    3    0    0  0.26902479645E+02 -0.24035342359E+02 -0.44886342066E+01  0.36353664611E+02  0.51100000000E-03 0. -1.
        -11    1    3    3    0    0 -0.24167323043E+01 -0.46515530802E+01  0.13804568551E+01  0.54206274986E+01  0.51100000000E-03 0.  1.
        -12    1    3    3    0    0 -0.19389130294E+01 -0.33191037753E+01 -0.78655298173E+01  0.87545641190E+01  0.00000000000E+00 0.  1.
</event>
<event>
 7    1  0.6624035E-013  0.5052886E+02  0.7816164E-02  0.1300439E+00
        -11   -1    0    0    0    0  0.00000000000E+00  0.00000000000E+00  0.45593999997E+02  0.45594000000E+02  0.51100000000E-03 0.  1.
         11   -1    0    0    0    0 -0.00000000000E+00 -0.00000000000E+00 -0.45593999997E+02  0.45594000000E+02  0.51100000000E-03 0. -1.
    9900012    2    1    2    0    0 -0.27175804351E+02 -0.78401344115E+01  0.29209134317E+02  0.50528861086E+02  0.30000003756E+02 0.  0.
         12    1    1    2    0    0  0.27175804351E+02  0.78401344115E+01 -0.29209134317E+02  0.40659138914E+02  0.00000000000E+00 0. -1.
         11    1    3    3    0    0 -0.43958149055E+01  0.87794247782E+01  0.50591464932E+01  0.11045200388E+02  0.51100000000E-03 0. -1.
        -11    1    3    3    0    0 -0.36533404257E+01 -0.82989224440E+00 -0.12823280575E+01  0.39597958169E+01  0.51100000000E-03 0.  1.
        -12    1    3    3    0    0 -0.19126649020E+02 -0.15789666945E+02  0.25432315881E+02  0.35523864880E+02  0.00000000000E+00 0.  1.
</event>
<event>
 7    1  0.6624035E-013  0.5052888E+02  0.7816164E-02  0.1300439E+00
        -11   -1    0    0    0    0  0.00000000000E+00  0.00000000000E+00  0.45593999997E+02  0.45594000000E+02  0.51100000000E-03 0. -1.
         11   -1    0    0    0    0 -0.00000000000E+00 -0.00000000000E+00 -0.45593999997E+02  0.45594000000E+02  0.51100000000E-03 0.  1.
    9900012    2    1    2    0    0 -0.40505777911E+02 -0.33547617232E+01 -0.10916156375E+01  0.50528879313E+02  0.30000059159E+02 0.  0.
         12    1    1    2    0    0  0.40505777911E+02  0.33547617232E+01  0.10916156375E+01  0.40659120687E+02  0.00000000000E+00 0. -1.
         11    1    3    3    0    0 -0.14847100509E+02  0.52730374712E+01 -0.52867142787E+01  0.16618985102E+02  0.51100000000E-03 0. -1.
        -11    1    3    3    0    0 -0.10141152426E+02 -0.24027336319E+01 -0.80641058200E+01  0.13177477163E+02  0.51100000000E-03 0.  1.
         12    1    3    3    0    0 -0.15517524976E+02 -0.62250655625E+01  0.12259204461E+02  0.20732417048E+02  0.00000000000E+00 0. -1.
</event>
<event>
 7    1  0.6624035E-013  0.5052886E+02  0.7816164E-02  0.1300439E+00
        -11   -1    0    0    0    0  0.00000000000E+00  0.00000000000E+00  0.45593999997E+02  0.45594000000E+02  0.51100000000E-03 0.  1.
         11   -1    0    0    0    0 -0.00000000000E+00 -0.00000000000E+00 -0.45593999997E+02  0.45594000000E+02  0.51100000000E-03 0. -1.
    9900012    2    1    2    0    0 -0.70049831184E+01  0.40048098280E+02 -0.49561218911E+00  0.50528860858E+02  0.30000003064E+02 0.  0.
         12    1    1    2    0    0  0.70049831184E+01 -0.40048098280E+02  0.49561218911E+00  0.40659139142E+02  0.00000000000E+00 0. -1.
         11    1    3    3    0    0  0.30866146226E+01  0.86164509613E+00  0.13173340213E+01  0.34648219702E+01  0.51100000000E-03 0. -1.
        -11    1    3    3    0    0  0.50751564980E+01  0.14001538096E+01  0.30074038270E+01  0.60631775671E+01  0.51100000000E-03 0.  1.
         12    1    3    3    0    0 -0.15166754239E+02  0.37786299374E+02 -0.48203500374E+01  0.41000861321E+02  0.00000000000E+00 0. -1.
</event>
<event>
 7    1  0.7362391E-013  0.5052886E+02  0.7816164E-02  0.1300439E+00
        -11   -1    0    0    0    0  0.00000000000E+00  0.00000000000E+00  0.45593999997E+02  0.45594000000E+02  0.51100000000E-03 0. -1.
         11   -1    0    0    0    0 -0.00000000000E+00 -0.00000000000E+00 -0.45593999997E+02  0.45594000000E+02  0.51100000000E-03 0.  1.
    9900012    2    1    2    0    0  0.54399764130E+01 -0.40134143274E+02  0.35809336303E+01  0.50528857297E+02  0.29999992239E+02 0.  0.
         12    1    1    2    0    0 -0.54399764130E+01  0.40134143274E+02 -0.35809336303E+01  0.40659142703E+02  0.00000000000E+00 0. -1.
         11    1    3    3    0    0 -0.55698506702E+01 -0.47721669053E+01 -0.33375274661E+01  0.80582816597E+01  0.51100000000E-03 0. -1.
        -11    1    3    3    0    0  0.12322662931E+02 -0.31757290028E+02 -0.55633423584E+00  0.34068798037E+02  0.51100000000E-03 0.  1.
         12    1    3    3    0    0 -0.13128358483E+01 -0.36046863406E+01  0.74747953323E+01  0.84017775999E+01  0.00000000000E+00 0. -1.
</event>
<event>
 7    1  0.6624035E-013  0.5052888E+02  0.7816164E-02  0.1300439E+00
        -11   -1    0    0    0    0  0.00000000000E+00  0.00000000000E+00  0.45593999997E+02  0.45594000000E+02  0.51100000000E-03 0.  1.
         11   -1    0    0    0    0 -0.00000000000E+00 -0.00000000000E+00 -0.45593999997E+02  0.45594000000E+02  0.51100000000E-03 0. -1.
    9900012    2    1    2    0    0  0.20292045007E+01  0.51167228668E+01  0.40284807507E+02  0.50528877534E+02  0.30000053753E+02 0.  0.
         12    1    1    2    0    0 -0.20292045007E+01 -0.51167228668E+01 -0.40284807507E+02  0.40659122466E+02  0.00000000000E+00 0. -1.
         11    1    3    3    0    0 -0.52113285639E+01 -0.14896705950E+01  0.12173227506E+01  0.55550822517E+01  0.51100000000E-03 0. -1.
        -11    1    3    3    0    0 -0.55269434683E+01  0.51691516571E+01  0.65441857648E+01  0.10004678932E+02  0.51100000000E-03 0.  1.
        -12    1    3    3    0    0  0.12767476533E+02  0.14372418047E+01  0.32523298992E+02  0.34969116350E+02  0.00000000000E+00 0.  1.
</event>
<event>
 7    1  0.6624035E-013  0.5052886E+02  0.7816164E-02  0.1300439E+00
        -11   -1    0    0    0    0  0.00000000000E+00  0.00000000000E+00  0.45593999997E+02  0.45594000000E+02  0.51100000000E-03 0.  1.
         11   -1    0    0    0    0 -0.00000000000E+00 -0.00000000000E+00 -0.45593999997E+02  0.45594000000E+02  0.51100000000E-03 0. -1.
    9900012    2    1    2    0    0  0.19900207275E+02 -0.11564202905E+02  0.33517409159E+02  0.50528858899E+02  0.29999997108E+02 0.  0.
         12    1    1    2    0    0 -0.19900207275E+02  0.11564202905E+02 -0.33517409159E+02  0.40659141101E+02  0.00000000000E+00 0. -1.
         11    1    3    3    0    0  0.11301568597E+02 -0.12961875634E+02  0.15759634014E+02  0.23325988451E+02  0.51100000000E-03 0. -1.
        -11    1    3    3    0    0  0.11603925116E+02 -0.34987581825E+01  0.17706822339E+02  0.21457491571E+02  0.51100000000E-03 0.  1.
        -12    1    3    3    0    0 -0.30052864381E+01  0.48964309116E+01  0.50952805689E-01  0.57453788766E+01  0.00000000000E+00 0.  1.
</event>
<event>
 7    1  0.6624035E-013  0.5052886E+02  0.7816164E-02  0.1300439E+00
        -11   -1    0    0    0    0  0.00000000000E+00  0.00000000000E+00  0.45593999997E+02  0.45594000000E+02  0.51100000000E-03 0.  1.
         11   -1    0    0    0    0 -0.00000000000E+00 -0.00000000000E+00 -0.45593999997E+02  0.45594000000E+02  0.51100000000E-03 0. -1.
    9900012    2    1    2    0    0  0.11578854823E+02 -0.86475591929E-01  0.38975478240E+02  0.50528864974E+02  0.30000015575E+02 0.  0.
         12    1    1    2    0    0 -0.11578854823E+02  0.86475591929E-01 -0.38975478240E+02  0.40659135026E+02  0.00000000000E+00 0. -1.
         11    1    3    3    0    0  0.54733871085E+01 -0.29181591186E+01  0.11853332236E+02  0.13378157737E+02  0.51100000000E-03 0. -1.
        -11    1    3    3    0    0  0.14197230857E+02  0.20044704657E+01  0.24876106817E+02  0.28712365916E+02  0.51100000000E-03 0.  1.
        -12    1    3    3    0    0 -0.80917631431E+01  0.82721306092E+00  0.22460391867E+01  0.84383413204E+01  0.00000000000E+00 0.  1.
</event>
<event>
 7    1  0.6624035E-013  0.5052886E+02  0.7816164E-02  0.1300439E+00
        -11   -1    0    0    0    0  0.00000000000E+00  0.00000000000E+00  0.45593999997E+02  0.45594000000E+02  0.51100000000E-03 0. -1.
         11   -1    0    0    0    0 -0.00000000000E+00 -0.00000000000E+00 -0.45593999997E+02  0.45594000000E+02  0.51100000000E-03 0.  1.
    9900012    2    1    2    0    0 -0.30948660535E+02  0.86273221978E+01 -0.24918171835E+02  0.50528861239E+02  0.30000004221E+02 0.  0.
         12    1    1    2    0    0  0.30948660535E+02 -0.86273221978E+01  0.24918171835E+02  0.40659138761E+02  0.00000000000E+00 0. -1.
         11    1    3    3    0    0  0.17493650016E+00  0.11893135893E+01 -0.69887891959E+01  0.70914204698E+01  0.51100000000E-03 0. -1.
        -11    1    3    3    0    0 -0.13599884863E+01  0.65939604246E+01 -0.10950876655E+02  0.12855021686E+02  0.51100000000E-03 0.  1.
         12    1    3    3    0    0 -0.29763608549E+02  0.84404818393E+00 -0.69785059836E+01  0.30582419083E+02  0.00000000000E+00 0. -1.
</event>
<event>
 7    1  0.6624035E-013  0.5052886E+02  0.7816164E-02  0.1300439E+00
        -11   -1    0    0    0    0  0.00000000000E+00  0.00000000000E+00  0.45593999997E+02  0.45594000000E+02  0.51100000000E-03 0.  1.
         11   -1    0    0    0    0 -0.00000000000E+00 -0.00000000000E+00 -0.45593999997E+02  0.45594000000E+02  0.51100000000E-03 0. -1.
    9900012    2    1    2    0    0 -0.23501688868E+02  0.93413950269E+01  0.31836689707E+02  0.50528857705E+02  0.29999993479E+02 0.  0.
         12    1    1    2    0    0  0.23501688868E+02 -0.93413950269E+01 -0.31836689707E+02  0.40659142295E+02  0.00000000000E+00 0. -1.
         11    1    3    3    0    0 -0.27742871512E+01  0.10753569490E+02  0.12353894133E+02  0.16611882087E+02  0.51100000000E-03 0. -1.
        -11    1    3    3    0    0 -0.18449851119E+01  0.18036237330E+01  0.13653714774E+02  0.13895357355E+02  0.51100000000E-03 0.  1.
         12    1    3    3    0    0 -0.18882416605E+02 -0.32157981960E+01  0.58290808006E+01  0.20021618263E+02  0.00000000000E+00 0. -1.
</event>
<event>
 7    1  0.6624035E-013  0.5052889E+02  0.7816164E-02  0.1300439E+00
        -11   -1    0    0    0    0  0.00000000000E+00  0.00000000000E+00  0.45593999997E+02  0.45594000000E+02  0.51100000000E-03 0.  1.
         11   -1    0    0    0    0 -0.00000000000E+00 -0.00000000000E+00 -0.45593999997E+02  0.45594000000E+02  0.51100000000E-03 0. -1.
    9900012    2    1    2    0    0 -0.23452121319E+02  0.24467768250E+02  0.22460842597E+02  0.50528891209E+02  0.30000095320E+02 0.  0.
         12    1    1    2    0    0  0.23452121319E+02 -0.24467768250E+02 -0.22460842597E+02  0.40659108791E+02  0.00000000000E+00 0. -1.
         11    1    3    3    0    0 -0.54748197920E+01 -0.45728160440E+01  0.93071897115E+00  0.71937845666E+01  0.51100000000E-03 0. -1.
        -11    1    3    3    0    0 -0.25254438298E+01 -0.81251296536E-01  0.67477995266E+01  0.72053637676E+01  0.51100000000E-03 0.  1.
        -12    1    3    3    0    0 -0.15451857698E+02  0.29121835590E+02  0.14782324099E+02  0.36129742875E+02  0.00000000000E+00 0.  1.
</event>
<event>
 7    1  0.6624035E-013  0.5052884E+02  0.7816164E-02  0.1300439E+00
        -11   -1    0    0    0    0  0.00000000000E+00  0.00000000000E+00  0.45593999997E+02  0.45594000000E+02  0.51100000000E-03 0.  1.
         11   -1    0    0    0    0 -0.00000000000E+00 -0.00000000000E+00 -0.45593999997E+02  0.45594000000E+02  0.51100000000E-03 0. -1.
    9900012    2    1    2    0    0 -0.22715874604E+02 -0.29855107071E+02  0.15678928458E+02  0.50528841440E+02  0.29999944040E+02 0.  0.
         12    1    1    2    0    0  0.22715874604E+02  0.29855107071E+02 -0.15678928458E+02  0.40659158560E+02  0.00000000000E+00 0. -1.
         11    1    3    3    0    0  0.25859188298E+00 -0.10591196431E+01 -0.15474868428E+01  0.18929659189E+01  0.51100000000E-03 0. -1.
        -11    1    3    3    0    0 -0.23119545901E+02 -0.96472655433E+01  0.40147939875E+01  0.25371277188E+02  0.51100000000E-03 0.  1.
         12    1    3    3    0    0  0.14507941377E+00 -0.19148721885E+02  0.13211621314E+02  0.23264598333E+02  0.00000000000E+00 0. -1.
</event>
<event>
 7    1  0.6624035E-013  0.5052886E+02  0.7816164E-02  0.1300439E+00
        -11   -1    0    0    0    0  0.00000000000E+00  0.00000000000E+00  0.45593999997E+02  0.45594000000E+02  0.51100000000E-03 0.  1.
         11   -1    0    0    0    0 -0.00000000000E+00 -0.00000000000E+00 -0.45593999997E+02  0.45594000000E+02  0.51100000000E-03 0. -1.
    9900012    2    1    2    0    0 -0.31696892617E+02 -0.99923084789E+01  0.23422777222E+02  0.50528859292E+02  0.29999998304E+02 0.  0.
         12    1    1    2    0    0  0.31696892617E+02  0.99923084789E+01 -0.23422777222E+02  0.40659140708E+02  0.00000000000E+00 0. -1.
         11    1    3    3    0    0  0.26069753390E+01  0.26068213941E+00 -0.28640025096E+01  0.38815958357E+01  0.51100000000E-03 0. -1.
        -11    1    3    3    0    0 -0.15597507753E+02 -0.20411438281E+01  0.19641493440E+02  0.25164196411E+02  0.51100000000E-03 0.  1.
        -12    1    3    3    0    0 -0.18706360203E+02 -0.82118467902E+01  0.66452862919E+01  0.21483067045E+02  0.00000000000E+00 0.  1.
</event>
<event>
 7    1  0.6624035E-013  0.5052885E+02  0.7816164E-02  0.1300439E+00
        -11   -1    0    0    0    0  0.00000000000E+00  0.00000000000E+00  0.45593999997E+02  0.45594000000E+02  0.51100000000E-03 0. -1.
         11   -1    0    0    0    0 -0.00000000000E+00 -0.00000000000E+00 -0.45593999997E+02  0.45594000000E+02  0.51100000000E-03 0.  1.
    9900012    2    1    2    0    0 -0.34845019512E+02 -0.96553040061E+01  0.18594780392E+02  0.50528854189E+02  0.29999982793E+02 0.  0.
         12    1    1    2    0    0  0.34845019512E+02  0.96553040061E+01 -0.18594780392E+02  0.40659145811E+02  0.00000000000E+00 0. -1.
         11    1    3    3    0    0 -0.13448389394E+02  0.17675447073E+01  0.52608668485E+01  0.14548543289E+02  0.51100000000E-03 0. -1.
        -11    1    3    3    0    0 -0.89814883125E+01  0.44228397301E+01 -0.25581635464E+01  0.10333094627E+02  0.51100000000E-03 0.  1.
         12    1    3    3    0    0 -0.12415141806E+02 -0.15845688444E+02  0.15892077089E+02  0.25647216273E+02  0.00000000000E+00 0. -1.
</event>
<event>
 7    1  0.6624035E-013  0.5052885E+02  0.7816164E-02  0.1300439E+00
        -11   -1    0    0    0    0  0.00000000000E+00  0.00000000000E+00  0.45593999997E+02  0.45594000000E+02  0.51100000000E-03 0.  1.
         11   -1    0    0    0    0 -0.00000000000E+00 -0.00000000000E+00 -0.45593999997E+02  0.45594000000E+02  0.51100000000E-03 0. -1.
    9900012    2    1    2    0    0  0.67555687703E+01 -0.32397791363E+02 -0.23620151146E+02  0.50528854230E+02  0.29999982916E+02 0.  0.
         12    1    1    2    0    0 -0.67555687703E+01  0.32397791363E+02  0.23620151146E+02  0.40659145770E+02  0.00000000000E+00 0. -1.
         11    1    3    3    0    0  0.48517628924E+00 -0.42790837675E+01 -0.10769084983E+02  0.11598238899E+02  0.51100000000E-03 0. -1.
        -11    1    3    3    0    0  0.16626606678E+01 -0.10619828410E+02 -0.17234504716E+02  0.20311901660E+02  0.51100000000E-03 0.  1.
        -12    1    3    3    0    0  0.46077318133E+01 -0.17498879185E+02  0.43834385535E+01  0.18618713671E+02  0.00000000000E+00 0.  1.
</event>
<event>
 7    1  0.6624035E-013  0.5052885E+02  0.7816164E-02  0.1300439E+00
        -11   -1    0    0    0    0  0.00000000000E+00  0.00000000000E+00  0.45593999997E+02  0.45594000000E+02  0.51100000000E-03 0.  1.
         11   -1    0    0    0    0 -0.00000000000E+00 -0.00000000000E+00 -0.45593999997E+02  0.45594000000E+02  0.51100000000E-03 0. -1.
    9900012    2    1    2    0    0  0.55221259639E+01 -0.37929683245E+02  0.13565090338E+02  0.50528850696E+02  0.29999972176E+02 0.  0.
         12    1    1    2    0    0 -0.55221259639E+01  0.37929683245E+02 -0.13565090338E+02  0.40659149304E+02  0.00000000000E+00 0. -1.
         11    1    3    3    0    0  0.33029242996E+01 -0.23340314427E+01  0.92268188829E+01  0.10074284027E+02  0.51100000000E-03 0. -1.
        -11    1    3    3    0    0 -0.35580986581E+00 -0.95533544709E+00  0.56036576749E+01  0.56956339485E+01  0.51100000000E-03 0.  1.
         12    1    3    3    0    0  0.25750115301E+01 -0.34640316355E+02 -0.12653862194E+01  0.34758932720E+02  0.00000000000E+00 0. -1.
</event>
<event>
 7    1  0.6624035E-013  0.5052886E+02  0.7816164E-02  0.1300439E+00
        -11   -1    0    0    0    0  0.00000000000E+00  0.00000000000E+00  0.45593999997E+02  0.45594000000E+02  0.51100000000E-03 0.  1.
         11   -1    0    0    0    0 -0.00000000000E+00 -0.00000000000E+00 -0.45593999997E+02  0.45594000000E+02  0.51100000000E-03 0. -1.
    9900012    2    1    2    0    0 -0.38327722638E+01 -0.30850378711E+01  0.40360349780E+02  0.50528862819E+02  0.30000009025E+02 0.  0.
         12    1    1    2    0    0  0.38327722638E+01  0.30850378711E+01 -0.40360349780E+02  0.40659137181E+02  0.00000000000E+00 0. -1.
         11    1    3    3    0    0 -0.76023854842E+00 -0.74321869656E+01  0.11688816691E+02  0.13872411530E+02  0.51100000000E-03 0. -1.
        -11    1    3    3    0    0  0.85971653046E+01 -0.25047042789E+01  0.83650625793E+01  0.12253940877E+02  0.51100000000E-03 0.  1.
        -12    1    3    3    0    0 -0.11669699020E+02  0.68518533734E+01  0.20306470510E+02  0.24402510413E+02  0.00000000000E+00 0.  1.
</event>
<event>
 7    1  0.6624035E-013  0.5052886E+02  0.7816164E-02  0.1300439E+00
        -11   -1    0    0    0    0  0.00000000000E+00  0.00000000000E+00  0.45593999997E+02  0.45594000000E+02  0.51100000000E-03 0.  1.
         11   -1    0    0    0    0 -0.00000000000E+00 -0.00000000000E+00 -0.45593999997E+02  0.45594000000E+02  0.51100000000E-03 0. -1.
    9900012    2    1    2    0    0  0.34462347305E+02 -0.26949059412E+01  0.21406767911E+02  0.50528860656E+02  0.30000002449E+02 0.  0.
         12    1    1    2    0    0 -0.34462347305E+02  0.26949059412E+01 -0.21406767911E+02  0.40659139344E+02  0.00000000000E+00 0. -1.
         11    1    3    3    0    0  0.19127367180E+02  0.48995874891E+01  0.99286705325E+01  0.22100693012E+02  0.51100000000E-03 0. -1.
        -11    1    3    3    0    0  0.17253589275E+02 -0.12106395920E+02  0.98189120398E+01  0.23252143964E+02  0.51100000000E-03 0.  1.
         12    1    3    3    0    0 -0.19186091495E+01  0.45119024896E+01  0.16591853391E+01  0.51760236798E+01  0.00000000000E+00 0. -1.
</event>
<event>
 7    1  0.6624035E-013  0.5052885E+02  0.7816164E-02  0.1300439E+00
        -11   -1    0    0    0    0  0.00000000000E+00  0.00000000000E+00  0.45593999997E+02  0.45594000000E+02  0.51100000000E-03 0.  1.
         11   -1    0    0    0    0 -0.00000000000E+00 -0.00000000000E+00 -0.45593999997E+02  0.45594000000E+02  0.51100000000E-03 0. -1.
    9900012    2    1    2    0    0 -0.33883907800E+02 -0.12648755401E+01 -0.22437629199E+02  0.50528851927E+02  0.29999975917E+02 0.  0.
         12    1    1    2    0    0  0.33883907800E+02  0.12648755401E+01  0.22437629199E+02  0.40659148073E+02  0.00000000000E+00 0. -1.
         11    1    3    3    0    0 -0.28910860343E+01  0.57944151766E+01 -0.81892704540E+01  0.10440200023E+02  0.51100000000E-03 0. -1.
        -11    1    3    3    0    0 -0.44037681828E+01  0.26700210527E+01 -0.10281128162E+02  0.11498860081E+02  0.51100000000E-03 0.  1.
        -12    1    3    3    0    0 -0.26589053583E+02 -0.97293117694E+01 -0.39672305837E+01  0.28589791822E+02  0.00000000000E+00 0.  1.
</event>
<event>
 7    1  0.6624035E-013  0.5052885E+02  0.7816164E-02  0.1300439E+00
        -11   -1    0    0    0    0  0.00000000000E+00  0.00000000000E+00  0.45593999997E+02  0.45594000000E+02  0.51100000000E-03 0.  1.
         11   -1    0    0    0    0 -0.00000000000E+00 -0.00000000000E+00 -0.45593999997E+02  0.45594000000E+02  0.51100000000E-03 0. -1.
    9900012    2    1    2    0    0  0.36120102893E+02  0.18245210691E+02 -0.39517939890E+01  0.50528853158E+02  0.29999979660E+02 0.  0.
         12    1    1    2    0    0 -0.36120102893E+02 -0.18245210691E+02  0.39517939890E+01  0.40659146842E+02  0.00000000000E+00 0. -1.
         11    1    3    3    0    0  0.17665691277E+01  0.73697117290E+01  0.60047142220E+00  0.76022354371E+01  0.51100000000E-03 0. -1.
        -11    1    3    3    0    0  0.15174441213E+02  0.10963443545E+02  0.76186554799E+01  0.20211498512E+02  0.51100000000E-03 0.  1.
         12    1    3    3    0    0  0.19179092552E+02 -0.87944583285E-01 -0.12170920891E+02  0.22715119210E+02  0.00000000000E+00 0. -1.
</event>
<event>
 7    1  0.6624035E-013  0.5052879E+02  0.7816164E-02  0.1300439E+00
        -11   -1    0    0    0    0  0.00000000000E+00  0.00000000000E+00  0.45593999997E+02  0.45594000000E+02  0.51100000000E-03 0.  1.
         11   -1    0    0    0    0 -0.00000000000E+00 -0.00000000000E+00 -0.45593999997E+02  0.45594000000E+02  0.51100000000E-03 0. -1.
    9900012    2    1    2    0    0 -0.55484119819E+01  0.28355361370E+02  0.28606986096E+02  0.50528793817E+02  0.29999799284E+02 0.  0.
         12    1    1    2    0    0  0.55484119819E+01 -0.28355361370E+02 -0.28606986096E+02  0.40659206183E+02  0.00000000000E+00 0. -1.
         11    1    3    3    0    0 -0.47660014187E+00  0.40107448014E+01  0.14794347198E+02  0.15335772913E+02  0.51100000000E-03 0. -1.
        -11    1    3    3    0    0 -0.43957956198E+01  0.14039893834E+01  0.11176341094E+02  0.12091517929E+02  0.51100000000E-03 0.  1.
        -12    1    3    3    0    0 -0.67601622025E+00  0.22940627185E+02  0.26362978046E+01  0.23101502975E+02  0.00000000000E+00 0.  1.
</event>
<event>
 7    1  0.6624035E-013  0.5052886E+02  0.7816164E-02  0.1300439E+00
        -11   -1    0    0    0    0  0.00000000000E+00  0.00000000000E+00  0.45593999997E+02  0.45594000000E+02  0.51100000000E-03 0.  1.
         11   -1    0    0    0    0 -0.00000000000E+00 -0.00000000000E+00 -0.45593999997E+02  0.45594000000E+02  0.51100000000E-03 0. -1.
    9900012    2    1    2    0    0  0.83216437946E+01  0.34534522188E+02  0.19780857792E+02  0.50528864333E+02  0.30000013627E+02 0.  0.
         12    1    1    2    0    0 -0.83216437946E+01 -0.34534522188E+02 -0.19780857792E+02  0.40659135667E+02  0.00000000000E+00 0. -1.
         11    1    3    3    0    0  0.43199094886E+01  0.77426985558E+01  0.67390076303E+00  0.88918581531E+01  0.51100000000E-03 0. -1.
        -11    1    3    3    0    0  0.13859635544E+02  0.13735254391E+02  0.15411232527E+02  0.24864689800E+02  0.51100000000E-03 0.  1.
         12    1    3    3    0    0 -0.98579012377E+01  0.13056569241E+02  0.36957245021E+01  0.16772316380E+02  0.00000000000E+00 0. -1.
</event>
<event>
 7    1  0.6624035E-013  0.5052885E+02  0.7816164E-02  0.1300439E+00
        -11   -1    0    0    0    0  0.00000000000E+00  0.00000000000E+00  0.45593999997E+02  0.45594000000E+02  0.51100000000E-03 0.  1.
         11   -1    0    0    0    0 -0.00000000000E+00 -0.00000000000E+00 -0.45593999997E+02  0.45594000000E+02  0.51100000000E-03 0. -1.
    9900012    2    1    2    0    0 -0.11718081838E+02 -0.34339643475E+02  0.18347809996E+02  0.50528847432E+02  0.29999962254E+02 0.  0.
         12    1    1    2    0    0  0.11718081838E+02  0.34339643475E+02 -0.18347809996E+02  0.40659152568E+02  0.00000000000E+00 0. -1.
         11    1    3    3    0    0  0.30247222878E+01 -0.38747024759E+01 -0.52534792550E+00  0.49435063364E+01  0.51100000000E-03 0. -1.
        -11    1    3    3    0    0  0.11872738479E+01 -0.23384030844E+02  0.14745506556E+02  0.27670426118E+02  0.51100000000E-03 0.  1.
        -12    1    3    3    0    0 -0.15930077973E+02 -0.70809101545E+01  0.41276513650E+01  0.17914914977E+02  0.00000000000E+00 0.  1.
</event>
<event>
 7    1  0.6624035E-013  0.5052886E+02  0.7816164E-02  0.1300439E+00
        -11   -1    0    0    0    0  0.00000000000E+00  0.00000000000E+00  0.45593999997E+02  0.45594000000E+02  0.51100000000E-03 0. -1.
         11   -1    0    0    0    0 -0.00000000000E+00 -0.00000000000E+00 -0.45593999997E+02  0.45594000000E+02  0.51100000000E-03 0.  1.
    9900012    2    1    2    0    0 -0.24861188720E+02 -0.32143089580E+02 -0.13814847612E+01  0.50528863112E+02  0.30000009916E+02 0.  0.
         12    1    1    2    0    0  0.24861188720E+02  0.32143089580E+02  0.13814847612E+01  0.40659136888E+02  0.00000000000E+00 0. -1.
         11    1    3    3    0    0  0.24369432034E+01 -0.51881665462E+01 -0.30577077916E+00  0.57401446252E+01  0.51100000000E-03 0. -1.
        -11    1    3    3    0    0 -0.47464088034E+01 -0.55700171750E+01 -0.10057420584E+02  0.12438054386E+02  0.51100000000E-03 0.  1.
        -12    1    3    3    0    0 -0.22551723120E+02 -0.21384905858E+02  0.89817066019E+01  0.32350664101E+02  0.00000000000E+00 0.  1.
</event>
<event>
 7    1  0.6624035E-013  0.5052886E+02  0.7816164E-02  0.1300439E+00
        -11   -1    0    0    0    0  0.00000000000E+00  0.00000000000E+00  0.45593999997E+02  0.45594000000E+02  0.51100000000E-03 0.  1.
         11   -1    0    0    0    0 -0.00000000000E+00 -0.00000000000E+00 -0.45593999997E+02  0.45594000000E+02  0.51100000000E-03 0. -1.
    9900012    2    1    2    0    0  0.10650637093E+02 -0.58816934828E+01  0.38796075547E+02  0.50528857528E+02  0.29999992941E+02 0.  0.
         12    1    1    2    0    0 -0.10650637093E+02  0.58816934828E+01 -0.38796075547E+02  0.40659142472E+02  0.00000000000E+00 0. -1.
         11    1    3    3    0    0  0.75343206344E+01 -0.37636181788E+01  0.36158832531E+02  0.37126701705E+02  0.51100000000E-03 0.  1.
        -11    1    3    3    0    0 -0.22244265100E+01  0.42047450913E+01  0.14732704854E+00  0.47591659040E+01  0.51100000000E-03 0. -1.
        -12    1    3    3    0    0  0.53407429689E+01 -0.63228203953E+01  0.24899159676E+01  0.86429899189E+01  0.00000000000E+00 0.  1.
</event>
<event>
 7    1  0.6624035E-013  0.5052886E+02  0.7816164E-02  0.1300439E+00
        -11   -1    0    0    0    0  0.00000000000E+00  0.00000000000E+00  0.45593999997E+02  0.45594000000E+02  0.51100000000E-03 0.  1.
         11   -1    0    0    0    0 -0.00000000000E+00 -0.00000000000E+00 -0.45593999997E+02  0.45594000000E+02  0.51100000000E-03 0. -1.
    9900012    2    1    2    0    0 -0.22185944771E+02  0.32347077727E+02  0.10705898746E+02  0.50528857722E+02  0.29999993530E+02 0.  0.
         12    1    1    2    0    0  0.22185944771E+02 -0.32347077727E+02 -0.10705898746E+02  0.40659142278E+02  0.00000000000E+00 0. -1.
         11    1    3    3    0    0  0.25247256637E+01  0.77294904163E+01 -0.13900810213E+01  0.82493385964E+01  0.51100000000E-03 0. -1.
        -11    1    3    3    0    0 -0.46892062432E+01  0.18302699592E+02  0.20462191000E+01  0.19004327939E+02  0.51100000000E-03 0.  1.
        -12    1    3    3    0    0 -0.20021464191E+02  0.63148877185E+01  0.10049760667E+02  0.23275191186E+02  0.00000000000E+00 0.  1.
</event>
<event>
 7    1  0.6624035E-013  0.5052886E+02  0.7816164E-02  0.1300439E+00
        -11   -1    0    0    0    0  0.00000000000E+00  0.00000000000E+00  0.45593999997E+02  0.45594000000E+02  0.51100000000E-03 0. -1.
         11   -1    0    0    0    0 -0.00000000000E+00 -0.00000000000E+00 -0.45593999997E+02  0.45594000000E+02  0.51100000000E-03 0.  1.
    9900012    2    1    2    0    0  0.78156108173E+01  0.39798040442E+02  0.28631823327E+01  0.50528860701E+02  0.30000002587E+02 0.  0.
         12    1    1    2    0    0 -0.78156108173E+01 -0.39798040442E+02 -0.28631823327E+01  0.40659139299E+02  0.00000000000E+00 0. -1.
         11    1    3    3    0    0  0.30008733198E+00  0.21713439213E+01 -0.28627959331E+01  0.36056050321E+01  0.51100000000E-03 0. -1.
        -11    1    3    3    0    0  0.57043016701E+01  0.36578396227E+02 -0.37583469586E+01  0.37210795480E+02  0.51100000000E-03 0.  1.
         12    1    3    3    0    0  0.18112218152E+01  0.10483002933E+01  0.94843252245E+01  0.97124601895E+01  0.00000000000E+00 0. -1.
</event>
<event>
 7    1  0.6624035E-013  0.5052882E+02  0.7816164E-02  0.1300439E+00
        -11   -1    0    0    0    0  0.00000000000E+00  0.00000000000E+00  0.45593999997E+02  0.45594000000E+02  0.51100000000E-03 0. -1.
         11   -1    0    0    0    0 -0.00000000000E+00 -0.00000000000E+00 -0.45593999997E+02  0.45594000000E+02  0.51100000000E-03 0.  1.
    9900012    2    1    2    0    0  0.23063548839E+02  0.26290663458E+02  0.20737477222E+02  0.50528816146E+02  0.29999867157E+02 0.  0.
         12    1    1    2    0    0 -0.23063548839E+02 -0.26290663458E+02 -0.20737477222E+02  0.40659183854E+02  0.00000000000E+00 0. -1.
         11    1    3    3    0    0 -0.29694677517E+01  0.10085614075E+02  0.57514618070E+01  0.11984016989E+02  0.51100000000E-03 0. -1.
        -11    1    3    3    0    0  0.18281650183E+01 -0.27212310202E+01  0.54734142401E+01  0.63800900702E+01  0.51100000000E-03 0.  1.
        -12    1    3    3    0    0  0.24204851573E+02  0.18926280403E+02  0.95126011749E+01  0.32164709087E+02  0.00000000000E+00 0.  1.
</event>
<event>
 7    1  0.8109540E-013  0.5052885E+02  0.7816164E-02  0.1300439E+00
        -11   -1    0    0    0    0  0.00000000000E+00  0.00000000000E+00  0.45593999997E+02  0.45594000000E+02  0.51100000000E-03 0. -1.
         11   -1    0    0    0    0 -0.00000000000E+00 -0.00000000000E+00 -0.45593999997E+02  0.45594000000E+02  0.51100000000E-03 0.  1.
    9900012    2    1    2    0    0 -0.32264348961E+02 -0.17677614716E+02 -0.17311265979E+02  0.50528853357E+02  0.29999980264E+02 0.  0.
         12    1    1    2    0    0  0.32264348961E+02  0.17677614716E+02  0.17311265979E+02  0.40659146643E+02  0.00000000000E+00 0. -1.
         11    1    3    3    0    0 -0.14617964724E+02 -0.48035826910E+01 -0.78333963652E+01  0.17266192348E+02  0.51100000000E-03 0. -1.
        -11    1    3    3    0    0 -0.16753446562E+02 -0.12777181226E+02 -0.16139427164E+02  0.26540825934E+02  0.51100000000E-03 0.  1.
         12    1    3    3    0    0 -0.89293767495E+00 -0.96850799118E-01  0.66615575506E+01  0.67218350745E+01  0.00000000000E+00 0. -1.
</event>
<event>
 7    1  0.6624035E-013  0.5052886E+02  0.7816164E-02  0.1300439E+00
        -11   -1    0    0    0    0  0.00000000000E+00  0.00000000000E+00  0.45593999997E+02  0.45594000000E+02  0.51100000000E-03 0.  1.
         11   -1    0    0    0    0 -0.00000000000E+00 -0.00000000000E+00 -0.45593999997E+02  0.45594000000E+02  0.51100000000E-03 0. -1.
    9900012    2    1    2    0    0  0.43383157809E+00 -0.37234451473E+02  0.16327062624E+02  0.50528861295E+02  0.30000004391E+02 0.  0.
         12    1    1    2    0    0 -0.43383157809E+00  0.37234451473E+02 -0.16327062624E+02  0.40659138705E+02  0.00000000000E+00 0. -1.
         11    1    3    3    0    0  0.64733811482E+01 -0.61235332759E+01  0.33107180461E+00  0.89169463424E+01  0.51100000000E-03 0.  1.
        -11    1    3    3    0    0  0.66197135913E-01 -0.72700954900E+01 -0.53559070583E+01  0.90301944150E+01  0.51100000000E-03 0. -1.
         12    1    3    3    0    0 -0.61057467061E+01 -0.23840822707E+02  0.21351897878E+02  0.32581720537E+02  0.00000000000E+00 0. -1.
</event>
<event>
 7    1  0.6624035E-013  0.5052883E+02  0.7816164E-02  0.1300439E+00
        -11   -1    0    0    0    0  0.00000000000E+00  0.00000000000E+00  0.45593999997E+02  0.45594000000E+02  0.51100000000E-03 0.  1.
         11   -1    0    0    0    0 -0.00000000000E+00 -0.00000000000E+00 -0.45593999997E+02  0.45594000000E+02  0.51100000000E-03 0. -1.
    9900012    2    1    2    0    0 -0.19744580918E+02  0.67615154323E+01  0.34894141981E+02  0.50528834845E+02  0.29999923994E+02 0.  0.
         12    1    1    2    0    0  0.19744580918E+02 -0.67615154323E+01 -0.34894141981E+02  0.40659165155E+02  0.00000000000E+00 0. -1.
         11    1    3    3    0    0 -0.54217212832E+00  0.27046163949E+01 -0.10860641551E+01  0.29645296542E+01  0.51100000000E-03 0. -1.
        -11    1    3    3    0    0 -0.35444922390E+01  0.67237858501E+01 -0.66007842841E+00  0.76294446182E+01  0.51100000000E-03 0.  1.
        -12    1    3    3    0    0 -0.15657916550E+02 -0.26668868126E+01  0.36640284564E+02  0.39934860572E+02  0.00000000000E+00 0.  1.
</event>
<event>
 7    1  0.6624035E-013  0.5052888E+02  0.7816164E-02  0.1300439E+00
        -11   -1    0    0    0    0  0.00000000000E+00  0.00000000000E+00  0.45593999997E+02  0.45594000000E+02  0.51100000000E-03 0.  1.
         11   -1    0    0    0    0 -0.00000000000E+00 -0.00000000000E+00 -0.45593999997E+02  0.45594000000E+02  0.51100000000E-03 0. -1.
    9900012    2    1    2    0    0  0.87088429947E+01  0.13952117897E+02  0.37184115544E+02  0.50528880618E+02  0.30000063127E+02 0.  0.
         12    1    1    2    0    0 -0.87088429947E+01 -0.13952117897E+02 -0.37184115544E+02  0.40659119382E+02  0.00000000000E+00 0. -1.
         11    1    3    3    0    0 -0.14954011957E+01  0.12610176098E+01 -0.52925513570E+00  0.20264504455E+01  0.51100000000E-03 0. -1.
        -11    1    3    3    0    0  0.37617059016E+00 -0.75279735840E+01  0.60252211531E+01  0.96496207594E+01  0.51100000000E-03 0.  1.
        -12    1    3    3    0    0  0.98280736003E+01  0.20219073871E+02  0.31688149526E+02  0.38852809413E+02  0.00000000000E+00 0.  1.
</event>
<event>
 7    1  0.6624035E-013  0.5052886E+02  0.7816164E-02  0.1300439E+00
        -11   -1    0    0    0    0  0.00000000000E+00  0.00000000000E+00  0.45593999997E+02  0.45594000000E+02  0.51100000000E-03 0.  1.
         11   -1    0    0    0    0 -0.00000000000E+00 -0.00000000000E+00 -0.45593999997E+02  0.45594000000E+02  0.51100000000E-03 0. -1.
    9900012    2    1    2    0    0 -0.22733274663E+02 -0.23367900380E+02  0.24296193748E+02  0.50528861104E+02  0.30000003812E+02 0.  0.
         12    1    1    2    0    0  0.22733274663E+02  0.23367900380E+02 -0.24296193748E+02  0.40659138896E+02  0.00000000000E+00 0. -1.
         11    1    3    3    0    0 -0.11710400131E+02 -0.17731315673E+02  0.72659770484E+01  0.22457236015E+02  0.51100000000E-03 0. -1.
        -11    1    3    3    0    0  0.44638710763E+01 -0.37603033621E+01  0.84438656301E+01  0.10264740299E+02  0.51100000000E-03 0.  1.
        -12    1    3    3    0    0 -0.15486745608E+02 -0.18762813453E+01  0.85863510698E+01  0.17806884790E+02  0.00000000000E+00 0.  1.
</event>
<event>
 7    1  0.6624035E-013  0.5052886E+02  0.7816164E-02  0.1300439E+00
        -11   -1    0    0    0    0  0.00000000000E+00  0.00000000000E+00  0.45593999997E+02  0.45594000000E+02  0.51100000000E-03 0.  1.
         11   -1    0    0    0    0 -0.00000000000E+00 -0.00000000000E+00 -0.45593999997E+02  0.45594000000E+02  0.51100000000E-03 0. -1.
    9900012    2    1    2    0    0 -0.35897904207E+02  0.82722951823E+01  0.17206833486E+02  0.50528861880E+02  0.30000006172E+02 0.  0.
         12    1    1    2    0    0  0.35897904207E+02 -0.82722951823E+01 -0.17206833486E+02  0.40659138120E+02  0.00000000000E+00 0. -1.
         11    1    3    3    0    0  0.16802973491E+01 -0.22585132220E+01  0.12177979541E+01  0.30671343749E+01  0.51100000000E-03 0. -1.
        -11    1    3    3    0    0 -0.32180329941E+00  0.27089338588E+01  0.81499088819E+01  0.85943525096E+01  0.51100000000E-03 0.  1.
        -12    1    3    3    0    0 -0.37256398256E+02  0.78218745455E+01  0.78391266495E+01  0.38867374996E+02  0.00000000000E+00 0.  1.
</event>
<event>
 7    1  0.6624035E-013  0.5052886E+02  0.7816164E-02  0.1300439E+00
        -11   -1    0    0    0    0  0.00000000000E+00  0.00000000000E+00  0.45593999997E+02  0.45594000000E+02  0.51100000000E-03 0.  1.
         11   -1    0    0    0    0 -0.00000000000E+00 -0.00000000000E+00 -0.45593999997E+02  0.45594000000E+02  0.51100000000E-03 0. -1.
    9900012    2    1    2    0    0  0.34982592865E+02 -0.13975166498E+02  0.15299633222E+02  0.50528857622E+02  0.29999993228E+02 0.  0.
         12    1    1    2    0    0 -0.34982592865E+02  0.13975166498E+02 -0.15299633222E+02  0.40659142378E+02  0.00000000000E+00 0. -1.
         11    1    3    3    0    0  0.13602991800E+01  0.35327872636E+01  0.36153318187E+01  0.52346560660E+01  0.51100000000E-03 0. -1.
        -11    1    3    3    0    0 -0.39230809837E+00 -0.85566259777E+00 -0.41425242630E+01  0.42481256639E+01  0.51100000000E-03 0.  1.
        -12    1    3    3    0    0  0.34014601783E+02 -0.16652291164E+02  0.15826825666E+02  0.41046075892E+02  0.00000000000E+00 0.  1.
</event>
<event>
 7    1  0.6624035E-013  0.5052886E+02  0.7816164E-02  0.1300439E+00
        -11   -1    0    0    0    0  0.00000000000E+00  0.00000000000E+00  0.45593999997E+02  0.45594000000E+02  0.51100000000E-03 0.  1.
         11   -1    0    0    0    0 -0.00000000000E+00 -0.00000000000E+00 -0.45593999997E+02  0.45594000000E+02  0.51100000000E-03 0. -1.
    9900012    2    1    2    0    0 -0.24724710093E+02 -0.30971793290E+02 -0.90885943820E+01  0.50528858142E+02  0.29999994809E+02 0.  0.
         12    1    1    2    0    0  0.24724710093E+02  0.30971793290E+02  0.90885943820E+01  0.40659141858E+02  0.00000000000E+00 0. -1.
         11    1    3    3    0    0  0.54963585177E+01 -0.26251563061E+01 -0.46147577491E+01  0.76418186272E+01  0.51100000000E-03 0.  1.
        -11    1    3    3    0    0 -0.13694562448E+02 -0.10709292454E+02 -0.66629177051E+01  0.18617853209E+02  0.51100000000E-03 0. -1.
        -12    1    3    3    0    0 -0.16526506163E+02 -0.17637344530E+02  0.21890810722E+01  0.24269186306E+02  0.00000000000E+00 0.  1.
</event>
<event>
 7    1  0.6624035E-013  0.5052884E+02  0.7816164E-02  0.1300439E+00
        -11   -1    0    0    0    0  0.00000000000E+00  0.00000000000E+00  0.45593999997E+02  0.45594000000E+02  0.51100000000E-03 0.  1.
         11   -1    0    0    0    0 -0.00000000000E+00 -0.00000000000E+00 -0.45593999997E+02  0.45594000000E+02  0.51100000000E-03 0. -1.
    9900012    2    1    2    0    0  0.95652641314E+01  0.13796064778E+00  0.39517765369E+02  0.50528842473E+02  0.29999947182E+02 0.  0.
         12    1    1    2    0    0 -0.95652641314E+01 -0.13796064778E+00 -0.39517765369E+02  0.40659157527E+02  0.00000000000E+00 0. -1.
         11    1    3    3    0    0 -0.35895890312E+00  0.72969542464E+01  0.14326240940E+02  0.16081528923E+02  0.51100000000E-03 0. -1.
        -11    1    3    3    0    0 -0.22965896888E+01  0.54133793724E+01  0.76124792438E+01  0.96191912823E+01  0.51100000000E-03 0.  1.
         12    1    3    3    0    0  0.12220812723E+02 -0.12572372971E+02  0.17579045185E+02  0.24828122268E+02  0.00000000000E+00 0. -1.
</event>
<event>
 7    1  0.6624035E-013  0.5052887E+02  0.7816164E-02  0.1300439E+00
        -11   -1    0    0    0    0  0.00000000000E+00  0.00000000000E+00  0.45593999997E+02  0.45594000000E+02  0.51100000000E-03 0. -1.
         11   -1    0    0    0    0 -0.00000000000E+00 -0.00000000000E+00 -0.45593999997E+02  0.45594000000E+02  0.51100000000E-03 0.  1.
    9900012    2    1    2    0    0 -0.17102273717E+02  0.95922542641E+00  0.36874887064E+02  0.50528866024E+02  0.30000018765E+02 0.  0.
         12    1    1    2    0    0  0.17102273717E+02 -0.95922542641E+00 -0.36874887064E+02  0.40659133976E+02  0.00000000000E+00 0. -1.
         11    1    3    3    0    0  0.55780624642E+01  0.49768236311E+01  0.11336439288E+02  0.13579337623E+02  0.51100000000E-03 0. -1.
        -11    1    3    3    0    0 -0.36524832314E+01  0.38310095785E+01  0.94243829265E+01  0.10809082383E+02  0.51100000000E-03 0.  1.
         12    1    3    3    0    0 -0.19027852949E+02 -0.78486077832E+01  0.16114064850E+02  0.26140446018E+02  0.00000000000E+00 0. -1.
</event>
<event>
 7    1  0.6624035E-013  0.5052886E+02  0.7816164E-02  0.1300439E+00
        -11   -1    0    0    0    0  0.00000000000E+00  0.00000000000E+00  0.45593999997E+02  0.45594000000E+02  0.51100000000E-03 0.  1.
         11   -1    0    0    0    0 -0.00000000000E+00 -0.00000000000E+00 -0.45593999997E+02  0.45594000000E+02  0.51100000000E-03 0. -1.
    9900012    2    1    2    0    0 -0.38470332584E+02  0.32046562475E+01 -0.12764386958E+02  0.50528857298E+02  0.29999992243E+02 0.  0.
         12    1    1    2    0    0  0.38470332584E+02 -0.32046562475E+01  0.12764386958E+02  0.40659142702E+02  0.00000000000E+00 0. -1.
         11    1    3    3    0    0 -0.13694852666E+01  0.57959530599E+01  0.85090287238E+00  0.60160284014E+01  0.51100000000E-03 0. -1.
        -11    1    3    3    0    0 -0.85185271478E+01  0.81852439307E+01 -0.44026513768E+01  0.12607412993E+02  0.51100000000E-03 0.  1.
        -12    1    3    3    0    0 -0.28582320170E+02 -0.10776540743E+02 -0.92126384541E+01  0.31905415904E+02  0.00000000000E+00 0.  1.
</event>
<event>
 7    1  0.6624035E-013  0.5052889E+02  0.7816164E-02  0.1300439E+00
        -11   -1    0    0    0    0  0.00000000000E+00  0.00000000000E+00  0.45593999997E+02  0.45594000000E+02  0.51100000000E-03 0.  1.
         11   -1    0    0    0    0 -0.00000000000E+00 -0.00000000000E+00 -0.45593999997E+02  0.45594000000E+02  0.51100000000E-03 0. -1.
    9900012    2    1    2    0    0 -0.11149963112E+02  0.38849167234E+02 -0.44253387919E+01  0.50528891604E+02  0.30000096518E+02 0.  0.
         12    1    1    2    0    0  0.11149963112E+02 -0.38849167234E+02  0.44253387919E+01  0.40659108396E+02  0.00000000000E+00 0. -1.
         11    1    3    3    0    0  0.19959231880E+01  0.14941177654E+02 -0.65257756475E+01  0.16425840835E+02  0.51100000000E-03 0. -1.
        -11    1    3    3    0    0  0.55473234170E+00  0.18557332975E+01 -0.64775634872E+01  0.67609395082E+01  0.51100000000E-03 0.  1.
        -12    1    3    3    0    0 -0.13700618642E+02  0.22052256282E+02  0.85780003428E+01  0.27342111261E+02  0.00000000000E+00 0.  1.
</event>
<event>
 7    1  0.6624035E-013  0.5052888E+02  0.7816164E-02  0.1300439E+00
        -11   -1    0    0    0    0  0.00000000000E+00  0.00000000000E+00  0.45593999997E+02  0.45594000000E+02  0.51100000000E-03 0.  1.
         11   -1    0    0    0    0 -0.00000000000E+00 -0.00000000000E+00 -0.45593999997E+02  0.45594000000E+02  0.51100000000E-03 0. -1.
    9900012    2    1    2    0    0  0.84069095613E+01 -0.33966696929E+02  0.20706309398E+02  0.50528881988E+02  0.30000067289E+02 0.  0.
         12    1    1    2    0    0 -0.84069095613E+01  0.33966696929E+02 -0.20706309398E+02  0.40659118012E+02  0.00000000000E+00 0. -1.
         11    1    3    3    0    0 -0.10108402882E+02 -0.77424309029E+01  0.33369070079E+01  0.13162826207E+02  0.51100000000E-03 0. -1.
        -11    1    3    3    0    0  0.17790222900E+01 -0.73851819209E+01  0.61855629328E+01  0.97962758929E+01  0.51100000000E-03 0.  1.
         12    1    3    3    0    0  0.16736290154E+02 -0.18839084105E+02  0.11183839458E+02  0.27569779888E+02  0.00000000000E+00 0. -1.
</event>
<event>
 7    1  0.6624035E-013  0.5052886E+02  0.7816164E-02  0.1300439E+00
        -11   -1    0    0    0    0  0.00000000000E+00  0.00000000000E+00  0.45593999997E+02  0.45594000000E+02  0.51100000000E-03 0.  1.
         11   -1    0    0    0    0 -0.00000000000E+00 -0.00000000000E+00 -0.45593999997E+02  0.45594000000E+02  0.51100000000E-03 0. -1.
    9900012    2    1    2    0    0  0.22073533290E+02  0.33998747646E+02 -0.31638163316E+01  0.50528862686E+02  0.30000008620E+02 0.  0.
         12    1    1    2    0    0 -0.22073533290E+02 -0.33998747646E+02  0.31638163316E+01  0.40659137314E+02  0.00000000000E+00 0. -1.
         11    1    3    3    0    0 -0.29713469292E+00  0.11341011625E+02 -0.85205823101E+01  0.14188275331E+02  0.51100000000E-03 0. -1.
        -11    1    3    3    0    0 -0.24619536898E+01  0.27491544329E+01 -0.11278195204E+01  0.38588914468E+01  0.51100000000E-03 0.  1.
         12    1    3    3    0    0  0.24832621672E+02  0.19908581587E+02  0.64845854990E+01  0.32481695908E+02  0.00000000000E+00 0. -1.
</event>
<event>
 7    1  0.6624035E-013  0.5052885E+02  0.7816164E-02  0.1300439E+00
        -11   -1    0    0    0    0  0.00000000000E+00  0.00000000000E+00  0.45593999997E+02  0.45594000000E+02  0.51100000000E-03 0. -1.
         11   -1    0    0    0    0 -0.00000000000E+00 -0.00000000000E+00 -0.45593999997E+02  0.45594000000E+02  0.51100000000E-03 0.  1.
    9900012    2    1    2    0    0  0.82067794432E+01  0.38147380401E+02 -0.11427723854E+02  0.50528846876E+02  0.29999960563E+02 0.  0.
         12    1    1    2    0    0 -0.82067794432E+01 -0.38147380401E+02  0.11427723854E+02  0.40659153124E+02  0.00000000000E+00 0. -1.
         11    1    3    3    0    0 -0.62280375327E+00  0.30332404379E+01 -0.10018785495E+02  0.10486395716E+02  0.51100000000E-03 0. -1.
        -11    1    3    3    0    0  0.39875061628E+01  0.37664765457E+01 -0.58434869902E+01  0.80145424969E+01  0.51100000000E-03 0.  1.
        -12    1    3    3    0    0  0.48420770336E+01  0.31347663418E+02  0.44345486307E+01  0.32027908663E+02  0.00000000000E+00 0.  1.
</event>
<event>
 7    1  0.6624035E-013  0.5052886E+02  0.7816164E-02  0.1300439E+00
        -11   -1    0    0    0    0  0.00000000000E+00  0.00000000000E+00  0.45593999997E+02  0.45594000000E+02  0.51100000000E-03 0.  1.
         11   -1    0    0    0    0 -0.00000000000E+00 -0.00000000000E+00 -0.45593999997E+02  0.45594000000E+02  0.51100000000E-03 0. -1.
    9900012    2    1    2    0    0 -0.79545982020E+01 -0.13757125276E+02  0.37425012735E+02  0.50528859495E+02  0.29999998920E+02 0.  0.
         12    1    1    2    0    0  0.79545982020E+01  0.13757125276E+02 -0.37425012735E+02  0.40659140505E+02  0.00000000000E+00 0. -1.
         11    1    3    3    0    0 -0.66467389086E+01 -0.98391877929E+01  0.56835947429E+01  0.13164042085E+02  0.51100000000E-03 0. -1.
        -11    1    3    3    0    0 -0.31287434461E+01  0.66372023530E+00 -0.16586221105E+01  0.36028582638E+01  0.51100000000E-03 0.  1.
        -12    1    3    3    0    0  0.18208841527E+01 -0.45816577185E+01  0.33400040103E+02  0.33761959146E+02  0.00000000000E+00 0.  1.
</event>
<event>
 7    1  0.6624035E-013  0.5052886E+02  0.7816164E-02  0.1300439E+00
        -11   -1    0    0    0    0  0.00000000000E+00  0.00000000000E+00  0.45593999997E+02  0.45594000000E+02  0.51100000000E-03 0.  1.
         11   -1    0    0    0    0 -0.00000000000E+00 -0.00000000000E+00 -0.45593999997E+02  0.45594000000E+02  0.51100000000E-03 0. -1.
    9900012    2    1    2    0    0  0.28616584348E+02  0.14104178248E+02  0.25205724220E+02  0.50528864775E+02  0.30000014969E+02 0.  0.
         12    1    1    2    0    0 -0.28616584348E+02 -0.14104178248E+02 -0.25205724220E+02  0.40659135225E+02  0.00000000000E+00 0. -1.
         11    1    3    3    0    0  0.69522606297E+01 -0.54560178195E+00  0.29877172862E+01  0.75867031055E+01  0.51100000000E-03 0. -1.
        -11    1    3    3    0    0  0.84556658981E+01 -0.70760905177E+01  0.92920896718E+01  0.14419163413E+02  0.51100000000E-03 0.  1.
        -12    1    3    3    0    0  0.13208657820E+02  0.21725870548E+02  0.12925917262E+02  0.28522998256E+02  0.00000000000E+00 0.  1.
</event>
<event>
 7    1  0.6624035E-013  0.5052886E+02  0.7816164E-02  0.1300439E+00
        -11   -1    0    0    0    0  0.00000000000E+00  0.00000000000E+00  0.45593999997E+02  0.45594000000E+02  0.51100000000E-03 0.  1.
         11   -1    0    0    0    0 -0.00000000000E+00 -0.00000000000E+00 -0.45593999997E+02  0.45594000000E+02  0.51100000000E-03 0. -1.
    9900012    2    1    2    0    0 -0.37009655477E+02 -0.16826583561E+02 -0.56304001412E+00  0.50528861705E+02  0.30000005639E+02 0.  0.
         12    1    1    2    0    0  0.37009655477E+02  0.16826583561E+02  0.56304001412E+00  0.40659138295E+02  0.00000000000E+00 0. -1.
         11    1    3    3    0    0 -0.20576108648E+02 -0.54520290191E+01 -0.87837968867E+00  0.21304281698E+02  0.51100000000E-03 0. -1.
        -11    1    3    3    0    0 -0.14647478134E+02  0.24023021168E+01  0.28193791956E+01  0.15108559509E+02  0.51100000000E-03 0.  1.
         12    1    3    3    0    0 -0.17860686948E+01 -0.13776856658E+02 -0.25040395210E+01  0.14116020498E+02  0.00000000000E+00 0. -1.
</event>
<event>
 7    1  0.6624035E-013  0.5052886E+02  0.7816164E-02  0.1300439E+00
        -11   -1    0    0    0    0  0.00000000000E+00  0.00000000000E+00  0.45593999997E+02  0.45594000000E+02  0.51100000000E-03 0.  1.
         11   -1    0    0    0    0 -0.00000000000E+00 -0.00000000000E+00 -0.45593999997E+02  0.45594000000E+02  0.51100000000E-03 0. -1.
    9900012    2    1    2    0    0 -0.20711725584E+02  0.34529583510E+02 -0.56478174252E+01  0.50528861351E+02  0.30000004562E+02 0.  0.
         12    1    1    2    0    0  0.20711725584E+02 -0.34529583510E+02  0.56478174252E+01  0.40659138649E+02  0.00000000000E+00 0. -1.
         11    1    3    3    0    0  0.29725078040E+01 -0.87995698849E+00  0.17047348028E+01  0.35378309676E+01  0.51100000000E-03 0. -1.
        -11    1    3    3    0    0 -0.72668545810E+01  0.21999967332E+02  0.30663752851E+01  0.23371101723E+02  0.51100000000E-03 0.  1.
        -12    1    3    3    0    0 -0.16417378807E+02  0.13409573167E+02 -0.10418927513E+02  0.23619928660E+02  0.00000000000E+00 0.  1.
</event>
<event>
 7    1  0.6624035E-013  0.5052887E+02  0.7816164E-02  0.1300439E+00
        -11   -1    0    0    0    0  0.00000000000E+00  0.00000000000E+00  0.45593999997E+02  0.45594000000E+02  0.51100000000E-03 0.  1.
         11   -1    0    0    0    0 -0.00000000000E+00 -0.00000000000E+00 -0.45593999997E+02  0.45594000000E+02  0.51100000000E-03 0. -1.
    9900012    2    1    2    0    0 -0.39071143883E+02 -0.67786721440E+01  0.89810844332E+01  0.50528873621E+02  0.30000041858E+02 0.  0.
         12    1    1    2    0    0  0.39071143883E+02  0.67786721440E+01 -0.89810844332E+01  0.40659126379E+02  0.00000000000E+00 0. -1.
         11    1    3    3    0    0 -0.25798740456E+02 -0.78134959946E+01  0.97703824937E+01  0.28672043930E+02  0.51100000000E-03 0. -1.
        -11    1    3    3    0    0 -0.63336105446E+01 -0.40685243115E+01  0.69735302581E+01  0.10261463693E+02  0.51100000000E-03 0.  1.
         12    1    3    3    0    0 -0.69387928819E+01  0.51033481621E+01 -0.77628283186E+01  0.11595365998E+02  0.00000000000E+00 0. -1.
</event>
<event>
 7    1  0.6624035E-013  0.5052885E+02  0.7816164E-02  0.1300439E+00
        -11   -1    0    0    0    0  0.00000000000E+00  0.00000000000E+00  0.45593999997E+02  0.45594000000E+02  0.51100000000E-03 0. -1.
         11   -1    0    0    0    0 -0.00000000000E+00 -0.00000000000E+00 -0.45593999997E+02  0.45594000000E+02  0.51100000000E-03 0.  1.
    9900012    2    1    2    0    0 -0.19268772840E+02 -0.33206605938E+02 -0.13386639995E+02  0.50528850783E+02  0.29999972440E+02 0.  0.
         12    1    1    2    0    0  0.19268772840E+02  0.33206605938E+02  0.13386639995E+02  0.40659149217E+02  0.00000000000E+00 0. -1.
         11    1    3    3    0    0  0.14631992016E+01 -0.17882878695E+02  0.10407664616E+01  0.17972798820E+02  0.51100000000E-03 0. -1.
        -11    1    3    3    0    0  0.10155493862E-01 -0.59566486569E+01 -0.55035537269E+01  0.81099241823E+01  0.51100000000E-03 0.  1.
         12    1    3    3    0    0 -0.20742127536E+02 -0.93670785861E+01 -0.89238527294E+01  0.24446127781E+02  0.00000000000E+00 0. -1.
</event>
<event>
 7    1  0.6624035E-013  0.5052886E+02  0.7816164E-02  0.1300439E+00
        -11   -1    0    0    0    0  0.00000000000E+00  0.00000000000E+00  0.45593999997E+02  0.45594000000E+02  0.51100000000E-03 0. -1.
         11   -1    0    0    0    0 -0.00000000000E+00 -0.00000000000E+00 -0.45593999997E+02  0.45594000000E+02  0.51100000000E-03 0.  1.
    9900012    2    1    2    0    0  0.25917740888E+02 -0.29258749823E+02 -0.11196509348E+02  0.50528861353E+02  0.30000004568E+02 0.  0.
         12    1    1    2    0    0 -0.25917740888E+02  0.29258749823E+02  0.11196509348E+02  0.40659138647E+02  0.00000000000E+00 0. -1.
         11    1    3    3    0    0  0.92718347703E+01 -0.29115957087E+01  0.44790938602E+01  0.10700775283E+02  0.51100000000E-03 0. -1.
        -11    1    3    3    0    0  0.36131046680E+01 -0.55679240802E+00  0.35696969862E+01  0.51095283502E+01  0.51100000000E-03 0.  1.
        -12    1    3    3    0    0  0.13032801450E+02 -0.25790361706E+02 -0.19245300194E+02  0.34718557720E+02  0.00000000000E+00 0.  1.
</event>
<event>
 7    1  0.6624035E-013  0.5052888E+02  0.7816164E-02  0.1300439E+00
        -11   -1    0    0    0    0  0.00000000000E+00  0.00000000000E+00  0.45593999997E+02  0.45594000000E+02  0.51100000000E-03 0.  1.
         11   -1    0    0    0    0 -0.00000000000E+00 -0.00000000000E+00 -0.45593999997E+02  0.45594000000E+02  0.51100000000E-03 0. -1.
    9900012    2    1    2    0    0  0.43407239102E+01  0.18829028634E+02  0.35774152809E+02  0.50528877868E+02  0.30000054767E+02 0.  0.
         12    1    1    2    0    0 -0.43407239102E+01 -0.18829028634E+02 -0.35774152809E+02  0.40659122132E+02  0.00000000000E+00 0. -1.
         11    1    3    3    0    0 -0.35804504579E+01 -0.34015228720E+01  0.14595030152E+01  0.51497701544E+01  0.51100000000E-03 0. -1.
        -11    1    3    3    0    0 -0.10101918454E+01 -0.16320219777E+01  0.99221526746E+01  0.10106092086E+02  0.51100000000E-03 0.  1.
         12    1    3    3    0    0  0.89313662136E+01  0.23862573484E+02  0.24392497119E+02  0.35273015627E+02  0.00000000000E+00 0. -1.
</event>
<event>
 7    1  0.6624035E-013  0.5052885E+02  0.7816164E-02  0.1300439E+00
        -11   -1    0    0    0    0  0.00000000000E+00  0.00000000000E+00  0.45593999997E+02  0.45594000000E+02  0.51100000000E-03 0.  1.
         11   -1    0    0    0    0 -0.00000000000E+00 -0.00000000000E+00 -0.45593999997E+02  0.45594000000E+02  0.51100000000E-03 0. -1.
    9900012    2    1    2    0    0 -0.14210324119E+02  0.37847406279E+02 -0.43366673404E+01  0.50528853954E+02  0.29999982078E+02 0.  0.
         12    1    1    2    0    0  0.14210324119E+02 -0.37847406279E+02  0.43366673404E+01  0.40659146046E+02  0.00000000000E+00 0. -1.
         11    1    3    3    0    0  0.32526522268E+01  0.10137821170E+02 -0.55864174456E+01  0.12023444795E+02  0.51100000000E-03 0. -1.
        -11    1    3    3    0    0 -0.16175482541E+02  0.30550421748E+02 -0.11227638399E+01  0.34586631859E+02  0.51100000000E-03 0.  1.
        -12    1    3    3    0    0 -0.12874938045E+01 -0.28408366400E+01  0.23725139452E+01  0.39187773007E+01  0.00000000000E+00 0.  1.
</event>
<event>
 7    1  0.6624035E-013  0.5052886E+02  0.7816164E-02  0.1300439E+00
        -11   -1    0    0    0    0  0.00000000000E+00  0.00000000000E+00  0.45593999997E+02  0.45594000000E+02  0.51100000000E-03 0.  1.
         11   -1    0    0    0    0 -0.00000000000E+00 -0.00000000000E+00 -0.45593999997E+02  0.45594000000E+02  0.51100000000E-03 0. -1.
    9900012    2    1    2    0    0 -0.49415058086E+01  0.30225932075E+02  0.26742107781E+02  0.50528858617E+02  0.29999996251E+02 0.  0.
         12    1    1    2    0    0  0.49415058086E+01 -0.30225932075E+02 -0.26742107781E+02  0.40659141383E+02  0.00000000000E+00 0. -1.
         11    1    3    3    0    0  0.49012527481E+01  0.43526823516E+01 -0.17715463249E+01  0.67901766396E+01  0.51100000000E-03 0. -1.
        -11    1    3    3    0    0  0.21759026971E+01  0.67405648972E+01 -0.33992549004E+00  0.70912140907E+01  0.51100000000E-03 0.  1.
        -12    1    3    3    0    0 -0.12018661254E+02  0.19132684826E+02  0.28853579596E+02  0.36647467886E+02  0.00000000000E+00 0.  1.
</event>
<event>
 7    1  0.1013365E-012  0.5052886E+02  0.7816164E-02  0.1300439E+00
        -11   -1    0    0    0    0  0.00000000000E+00  0.00000000000E+00  0.45593999997E+02  0.45594000000E+02  0.51100000000E-03 0. -1.
         11   -1    0    0    0    0 -0.00000000000E+00 -0.00000000000E+00 -0.45593999997E+02  0.45594000000E+02  0.51100000000E-03 0.  1.
    9900012    2    1    2    0    0 -0.16164970667E+02 -0.18719431792E+02 -0.32271385813E+02  0.50528859016E+02  0.29999997466E+02 0.  0.
         12    1    1    2    0    0  0.16164970667E+02  0.18719431792E+02  0.32271385813E+02  0.40659140984E+02  0.00000000000E+00 0. -1.
         11    1    3    3    0    0 -0.96899381685E+01  0.36629223675E+00 -0.12063673691E+02  0.15477767762E+02  0.51100000000E-03 0. -1.
        -11    1    3    3    0    0 -0.13608876374E+02 -0.14785261947E+02 -0.12269644406E+02  0.23544631259E+02  0.51100000000E-03 0.  1.
         12    1    3    3    0    0  0.71338438757E+01 -0.43004620809E+01 -0.79380677160E+01  0.11506459995E+02  0.00000000000E+00 0. -1.
</event>
<event>
 7    1  0.6624035E-013  0.5052887E+02  0.7816164E-02  0.1300439E+00
        -11   -1    0    0    0    0  0.00000000000E+00  0.00000000000E+00  0.45593999997E+02  0.45594000000E+02  0.51100000000E-03 0.  1.
         11   -1    0    0    0    0 -0.00000000000E+00 -0.00000000000E+00 -0.45593999997E+02  0.45594000000E+02  0.51100000000E-03 0. -1.
    9900012    2    1    2    0    0  0.31796475950E+02 -0.24803160332E+02 -0.51915761066E+01  0.50528866859E+02  0.30000021306E+02 0.  0.
         12    1    1    2    0    0 -0.31796475950E+02  0.24803160332E+02  0.51915761066E+01  0.40659133141E+02  0.00000000000E+00 0. -1.
         11    1    3    3    0    0 -0.11424927351E+01  0.20571541251E+01 -0.51932076749E+01  0.57014541092E+01  0.51100000000E-03 0. -1.
        -11    1    3    3    0    0  0.37810591161E+01  0.13159719081E+01  0.14398620085E+01  0.42545731827E+01  0.51100000000E-03 0.  1.
        -12    1    3    3    0    0  0.29157909569E+02 -0.28176286365E+02 -0.14382304403E+01  0.40572839567E+02  0.00000000000E+00 0.  1.
</event>
<event>
 7    1  0.6624035E-013  0.5052886E+02  0.7816164E-02  0.1300439E+00
        -11   -1    0    0    0    0  0.00000000000E+00  0.00000000000E+00  0.45593999997E+02  0.45594000000E+02  0.51100000000E-03 0.  1.
         11   -1    0    0    0    0 -0.00000000000E+00 -0.00000000000E+00 -0.45593999997E+02  0.45594000000E+02  0.51100000000E-03 0. -1.
    9900012    2    1    2    0    0 -0.24671278345E+02  0.23015769481E+02  0.22688499288E+02  0.50528860561E+02  0.30000002160E+02 0.  0.
         12    1    1    2    0    0  0.24671278345E+02 -0.23015769481E+02 -0.22688499288E+02  0.40659139439E+02  0.00000000000E+00 0. -1.
         11    1    3    3    0    0 -0.87874653382E+01  0.16836987555E+02  0.35515114752E+01  0.19321411207E+02  0.51100000000E-03 0. -1.
        -11    1    3    3    0    0 -0.13699858508E+02  0.10607678959E+02  0.81209938617E+01  0.19135295075E+02  0.51100000000E-03 0.  1.
        -12    1    3    3    0    0 -0.21839544989E+01 -0.44288970338E+01  0.11015993952E+02  0.12072154279E+02  0.00000000000E+00 0.  1.
</event>
<event>
 7    1  0.6624035E-013  0.5052888E+02  0.7816164E-02  0.1300439E+00
        -11   -1    0    0    0    0  0.00000000000E+00  0.00000000000E+00  0.45593999997E+02  0.45594000000E+02  0.51100000000E-03 0.  1.
         11   -1    0    0    0    0 -0.00000000000E+00 -0.00000000000E+00 -0.45593999997E+02  0.45594000000E+02  0.51100000000E-03 0. -1.
    9900012    2    1    2    0    0 -0.51727492868E+01 -0.29523010000E+02  0.27473593095E+02  0.50528883284E+02  0.30000071229E+02 0.  0.
         12    1    1    2    0    0  0.51727492868E+01  0.29523010000E+02 -0.27473593095E+02  0.40659116716E+02  0.00000000000E+00 0. -1.
         11    1    3    3    0    0 -0.45478216462E+00  0.96875786345E+00  0.11411074489E+00  0.10762621142E+01  0.51100000000E-03 0. -1.
        -11    1    3    3    0    0 -0.12291082632E+02 -0.29653079695E+01  0.81755861678E+01  0.15056691970E+02  0.51100000000E-03 0.  1.
         12    1    3    3    0    0  0.75731155101E+01 -0.27526459894E+02  0.19183896182E+02  0.34395929200E+02  0.00000000000E+00 0. -1.
</event>
<event>
 7    1  0.6624035E-013  0.5052887E+02  0.7816164E-02  0.1300439E+00
        -11   -1    0    0    0    0  0.00000000000E+00  0.00000000000E+00  0.45593999997E+02  0.45594000000E+02  0.51100000000E-03 0.  1.
         11   -1    0    0    0    0 -0.00000000000E+00 -0.00000000000E+00 -0.45593999997E+02  0.45594000000E+02  0.51100000000E-03 0. -1.
    9900012    2    1    2    0    0  0.29904273235E+02  0.21794862369E+02  0.16848839101E+02  0.50528868646E+02  0.30000026735E+02 0.  0.
         12    1    1    2    0    0 -0.29904273235E+02 -0.21794862369E+02 -0.16848839101E+02  0.40659131354E+02  0.00000000000E+00 0. -1.
         11    1    3    3    0    0  0.54948836885E+01  0.16056945681E+02  0.32655493103E+01  0.17282449592E+02  0.51100000000E-03 0. -1.
        -11    1    3    3    0    0  0.15011652796E+02  0.10613036916E+02  0.13236557767E+02  0.22653757614E+02  0.51100000000E-03 0.  1.
        -12    1    3    3    0    0  0.93977367508E+01 -0.48751202278E+01  0.34673202392E+00  0.10592661439E+02  0.00000000000E+00 0.  1.
</event>
<event>
 7    1  0.6624035E-013  0.5052888E+02  0.7816164E-02  0.1300439E+00
        -11   -1    0    0    0    0  0.00000000000E+00  0.00000000000E+00  0.45593999997E+02  0.45594000000E+02  0.51100000000E-03 0. -1.
         11   -1    0    0    0    0 -0.00000000000E+00 -0.00000000000E+00 -0.45593999997E+02  0.45594000000E+02  0.51100000000E-03 0.  1.
    9900012    2    1    2    0    0 -0.29399820195E+02  0.17334367182E+02 -0.22098296849E+02  0.50528875112E+02  0.30000046390E+02 0.  0.
         12    1    1    2    0    0  0.29399820195E+02 -0.17334367182E+02  0.22098296849E+02  0.40659124888E+02  0.00000000000E+00 0. -1.
         11    1    3    3    0    0 -0.67932476800E+01  0.26707265517E+01 -0.81020866166E+01  0.10905264883E+02  0.51100000000E-03 0. -1.
        -11    1    3    3    0    0 -0.28288336488E+02  0.13066421739E+02 -0.12049349880E+02  0.33408804096E+02  0.51100000000E-03 0.  1.
        -12    1    3    3    0    0  0.56817639738E+01  0.15972188913E+01 -0.19468603524E+01  0.62148061331E+01  0.00000000000E+00 0.  1.
</event>
<event>
 7    1  0.6624035E-013  0.5052888E+02  0.7816164E-02  0.1300439E+00
        -11   -1    0    0    0    0  0.00000000000E+00  0.00000000000E+00  0.45593999997E+02  0.45594000000E+02  0.51100000000E-03 0. -1.
         11   -1    0    0    0    0 -0.00000000000E+00 -0.00000000000E+00 -0.45593999997E+02  0.45594000000E+02  0.51100000000E-03 0.  1.
    9900012    2    1    2    0    0  0.33685108606E+02  0.21751374878E+02  0.67346081862E+01  0.50528882963E+02  0.30000070253E+02 0.  0.
         12    1    1    2    0    0 -0.33685108606E+02 -0.21751374878E+02 -0.67346081862E+01  0.40659117037E+02  0.00000000000E+00 0. -1.
         11    1    3    3    0    0  0.19289853794E+02  0.75900921121E+01  0.38263981621E+01  0.21079593943E+02  0.51100000000E-03 0. -1.
        -11    1    3    3    0    0  0.14163478056E+02  0.19381852671E+02  0.15796655861E+01  0.24057341233E+02  0.51100000000E-03 0.  1.
        -12    1    3    3    0    0  0.23177675593E+00 -0.52205699054E+01  0.13285444380E+01  0.53919477859E+01  0.00000000000E+00 0.  1.
</event>
<event>
 7    1  0.6624035E-013  0.5052885E+02  0.7816164E-02  0.1300439E+00
        -11   -1    0    0    0    0  0.00000000000E+00  0.00000000000E+00  0.45593999997E+02  0.45594000000E+02  0.51100000000E-03 0.  1.
         11   -1    0    0    0    0 -0.00000000000E+00 -0.00000000000E+00 -0.45593999997E+02  0.45594000000E+02  0.51100000000E-03 0. -1.
    9900012    2    1    2    0    0  0.24268012822E+02  0.56273491473E+01  0.32133514897E+02  0.50528852389E+02  0.29999977323E+02 0.  0.
         12    1    1    2    0    0 -0.24268012822E+02 -0.56273491473E+01 -0.32133514897E+02  0.40659147611E+02  0.00000000000E+00 0. -1.
         11    1    3    3    0    0  0.21548696215E+02 -0.27099151313E+01  0.23903563430E+02  0.32296598792E+02  0.51100000000E-03 0. -1.
        -11    1    3    3    0    0  0.49474633144E+01  0.56757218330E+01 -0.16950367566E+01  0.77177951152E+01  0.51100000000E-03 0.  1.
        -12    1    3    3    0    0 -0.22281467071E+01  0.26615424455E+01  0.99249882239E+01  0.10514458483E+02  0.00000000000E+00 0.  1.
</event>
<event>
 7    1  0.6624035E-013  0.5052890E+02  0.7816164E-02  0.1300439E+00
        -11   -1    0    0    0    0  0.00000000000E+00  0.00000000000E+00  0.45593999997E+02  0.45594000000E+02  0.51100000000E-03 0. -1.
         11   -1    0    0    0    0 -0.00000000000E+00 -0.00000000000E+00 -0.45593999997E+02  0.45594000000E+02  0.51100000000E-03 0.  1.
    9900012    2    1    2    0    0 -0.18078798006E+02  0.17553710130E+02 -0.31909035298E+02  0.50528902490E+02  0.30000129608E+02 0.  0.
         12    1    1    2    0    0  0.18078798006E+02 -0.17553710130E+02  0.31909035298E+02  0.40659097510E+02  0.00000000000E+00 0. -1.
         11    1    3    3    0    0 -0.29488651773E+01 -0.72030658016E+00 -0.10791417565E+01  0.32216757433E+01  0.51100000000E-03 0. -1.
        -11    1    3    3    0    0 -0.37323514611E+01  0.97524393881E+01  0.27822658024E+01  0.10806550083E+02  0.51100000000E-03 0.  1.
        -12    1    3    3    0    0 -0.11397581368E+02  0.85215773218E+01 -0.33612159344E+02  0.36500676663E+02  0.00000000000E+00 0.  1.
</event>
<event>
 7    1  0.6624035E-013  0.5052887E+02  0.7816164E-02  0.1300439E+00
        -11   -1    0    0    0    0  0.00000000000E+00  0.00000000000E+00  0.45593999997E+02  0.45594000000E+02  0.51100000000E-03 0. -1.
         11   -1    0    0    0    0 -0.00000000000E+00 -0.00000000000E+00 -0.45593999997E+02  0.45594000000E+02  0.51100000000E-03 0.  1.
    9900012    2    1    2    0    0 -0.16028914324E+02 -0.36758699755E+02 -0.67109680711E+01  0.50528865792E+02  0.30000018060E+02 0.  0.
         12    1    1    2    0    0  0.16028914324E+02  0.36758699755E+02  0.67109680711E+01  0.40659134208E+02  0.00000000000E+00 0. -1.
         11    1    3    3    0    0  0.36032339594E+01 -0.38363530200E+01  0.77519929141E+00  0.53199467725E+01  0.51100000000E-03 0.  1.
        -11    1    3    3    0    0 -0.81967643915E+00 -0.20329037943E+01 -0.87492720802E+01  0.90196634913E+01  0.51100000000E-03 0. -1.
         12    1    3    3    0    0 -0.18812471845E+02 -0.30889442941E+02  0.12631047178E+01  0.36189255528E+02  0.00000000000E+00 0. -1.
</event>
<event>
 7    1  0.6624035E-013  0.5052887E+02  0.7816164E-02  0.1300439E+00
        -11   -1    0    0    0    0  0.00000000000E+00  0.00000000000E+00  0.45593999997E+02  0.45594000000E+02  0.51100000000E-03 0.  1.
         11   -1    0    0    0    0 -0.00000000000E+00 -0.00000000000E+00 -0.45593999997E+02  0.45594000000E+02  0.51100000000E-03 0. -1.
    9900012    2    1    2    0    0 -0.58682181364E+01  0.40138052554E+02  0.27687430826E+01  0.50528865907E+02  0.30000018411E+02 0.  0.
         12    1    1    2    0    0  0.58682181364E+01 -0.40138052554E+02 -0.27687430826E+01  0.40659134093E+02  0.00000000000E+00 0. -1.
         11    1    3    3    0    0  0.38504721469E+01  0.33130217600E+02 -0.63211196516E+01  0.33946929285E+02  0.51100000000E-03 0. -1.
        -11    1    3    3    0    0 -0.25839469375E+01  0.48946297282E+01  0.10618703891E+01  0.56357564654E+01  0.51100000000E-03 0.  1.
         12    1    3    3    0    0 -0.71347433458E+01  0.21132052262E+01  0.80279923450E+01  0.10946180157E+02  0.00000000000E+00 0. -1.
</event>
<event>
 7    1  0.6624035E-013  0.5052886E+02  0.7816164E-02  0.1300439E+00
        -11   -1    0    0    0    0  0.00000000000E+00  0.00000000000E+00  0.45593999997E+02  0.45594000000E+02  0.51100000000E-03 0. -1.
         11   -1    0    0    0    0 -0.00000000000E+00 -0.00000000000E+00 -0.45593999997E+02  0.45594000000E+02  0.51100000000E-03 0.  1.
    9900012    2    1    2    0    0  0.63333593942E+01  0.36244929383E+02 -0.17302003448E+02  0.50528859939E+02  0.30000000270E+02 0.  0.
         12    1    1    2    0    0 -0.63333593942E+01 -0.36244929383E+02  0.17302003448E+02  0.40659140061E+02  0.00000000000E+00 0. -1.
         11    1    3    3    0    0 -0.84107490005E+01  0.95279086426E+01 -0.44494706843E+01  0.13465494105E+02  0.51100000000E-03 0. -1.
        -11    1    3    3    0    0 -0.20001517603E+01  0.11086411009E+02 -0.75202883166E+01  0.13544882899E+02  0.51100000000E-03 0.  1.
         12    1    3    3    0    0  0.16744260155E+02  0.15630609732E+02 -0.53322444466E+01  0.23518482935E+02  0.00000000000E+00 0. -1.
</event>
<event>
 7    1  0.6624035E-013  0.5052882E+02  0.7816164E-02  0.1300439E+00
        -11   -1    0    0    0    0  0.00000000000E+00  0.00000000000E+00  0.45593999997E+02  0.45594000000E+02  0.51100000000E-03 0.  1.
         11   -1    0    0    0    0 -0.00000000000E+00 -0.00000000000E+00 -0.45593999997E+02  0.45594000000E+02  0.51100000000E-03 0. -1.
    9900012    2    1    2    0    0 -0.22172079174E+02 -0.63813034292E+01  0.33479048997E+02  0.50528820838E+02  0.29999881420E+02 0.  0.
         12    1    1    2    0    0  0.22172079174E+02  0.63813034292E+01 -0.33479048997E+02  0.40659179162E+02  0.00000000000E+00 0. -1.
         11    1    3    3    0    0 -0.34666550011E+00 -0.79874566672E+01 -0.34051690556E+00  0.80022242535E+01  0.51100000000E-03 0.  1.
        -11    1    3    3    0    0 -0.39350691239E+01 -0.23411316903E+01  0.17172284429E+02  0.17772254201E+02  0.51100000000E-03 0. -1.
         12    1    3    3    0    0 -0.17890344550E+02  0.39472849283E+01  0.16647281473E+02  0.24754342384E+02  0.00000000000E+00 0. -1.
</event>
<event>
 7    1  0.6624035E-013  0.5052886E+02  0.7816164E-02  0.1300439E+00
        -11   -1    0    0    0    0  0.00000000000E+00  0.00000000000E+00  0.45593999997E+02  0.45594000000E+02  0.51100000000E-03 0. -1.
         11   -1    0    0    0    0 -0.00000000000E+00 -0.00000000000E+00 -0.45593999997E+02  0.45594000000E+02  0.51100000000E-03 0.  1.
    9900012    2    1    2    0    0  0.27618940048E+00  0.70022932609E+01 -0.40050685120E+02  0.50528858714E+02  0.29999996548E+02 0.  0.
         12    1    1    2    0    0 -0.27618940048E+00 -0.70022932609E+01  0.40050685120E+02  0.40659141286E+02  0.00000000000E+00 0. -1.
         11    1    3    3    0    0 -0.13231188825E+01 -0.11103224355E+01  0.11899749573E+01  0.20974985455E+01  0.51100000000E-03 0. -1.
        -11    1    3    3    0    0  0.31703737920E+01  0.96132865575E+01 -0.36235914456E+01  0.10751602841E+02  0.51100000000E-03 0.  1.
         12    1    3    3    0    0 -0.15710655089E+01 -0.15006708610E+01 -0.37617068632E+02  0.37679757328E+02  0.00000000000E+00 0. -1.
</event>
<event>
 7    1  0.6624035E-013  0.5052884E+02  0.7816164E-02  0.1300439E+00
        -11   -1    0    0    0    0  0.00000000000E+00  0.00000000000E+00  0.45593999997E+02  0.45594000000E+02  0.51100000000E-03 0. -1.
         11   -1    0    0    0    0 -0.00000000000E+00 -0.00000000000E+00 -0.45593999997E+02  0.45594000000E+02  0.51100000000E-03 0.  1.
    9900012    2    1    2    0    0 -0.36934797955E+02  0.16282396872E+02 -0.48858398129E+01  0.50528841394E+02  0.29999943901E+02 0.  0.
         12    1    1    2    0    0  0.36934797955E+02 -0.16282396872E+02  0.48858398129E+01  0.40659158606E+02  0.00000000000E+00 0. -1.
         11    1    3    3    0    0 -0.14669076740E+01  0.47774364026E+01 -0.50057133131E+01  0.70733925905E+01  0.51100000000E-03 0. -1.
        -11    1    3    3    0    0 -0.19128450704E+02  0.14970837172E+02 -0.70289157088E+01  0.25286938294E+02  0.51100000000E-03 0.  1.
        -12    1    3    3    0    0 -0.16339439577E+02 -0.34658767021E+01  0.71487892089E+01  0.18168510510E+02  0.00000000000E+00 0.  1.
</event>
<event>
 7    1  0.6624035E-013  0.5052891E+02  0.7816164E-02  0.1300439E+00
        -11   -1    0    0    0    0  0.00000000000E+00  0.00000000000E+00  0.45593999997E+02  0.45594000000E+02  0.51100000000E-03 0.  1.
         11   -1    0    0    0    0 -0.00000000000E+00 -0.00000000000E+00 -0.45593999997E+02  0.45594000000E+02  0.51100000000E-03 0. -1.
    9900012    2    1    2    0    0 -0.27031776696E+02  0.26933091000E+02  0.14037571196E+02  0.50528908185E+02  0.30000146918E+02 0.  0.
         12    1    1    2    0    0  0.27031776696E+02 -0.26933091000E+02 -0.14037571196E+02  0.40659091815E+02  0.00000000000E+00 0. -1.
         11    1    3    3    0    0  0.23960281270E+01  0.11131135557E+02  0.10046984854E+02  0.15185026654E+02  0.51100000000E-03 0. -1.
        -11    1    3    3    0    0 -0.39244825983E+01  0.50501916100E+01  0.42259610593E+01  0.76658167274E+01  0.51100000000E-03 0.  1.
         12    1    3    3    0    0 -0.25503322224E+02  0.10751763833E+02 -0.23537471701E+00  0.27678064803E+02  0.00000000000E+00 0. -1.
</event>
<event>
 7    1  0.6624035E-013  0.5052885E+02  0.7816164E-02  0.1300439E+00
        -11   -1    0    0    0    0  0.00000000000E+00  0.00000000000E+00  0.45593999997E+02  0.45594000000E+02  0.51100000000E-03 0. -1.
         11   -1    0    0    0    0 -0.00000000000E+00 -0.00000000000E+00 -0.45593999997E+02  0.45594000000E+02  0.51100000000E-03 0.  1.
    9900012    2    1    2    0    0 -0.19051015117E+02  0.33328619222E+02 -0.13395082900E+02  0.50528852417E+02  0.29999977408E+02 0.  0.
         12    1    1    2    0    0  0.19051015117E+02 -0.33328619222E+02  0.13395082900E+02  0.40659147583E+02  0.00000000000E+00 0. -1.
         11    1    3    3    0    0  0.26716303273E+01  0.60312863247E+01 -0.43499948395E+01  0.79016756894E+01  0.51100000000E-03 0. -1.
        -11    1    3    3    0    0 -0.16618922584E+02  0.25260089483E+02 -0.15640516374E+02  0.34042421495E+02  0.51100000000E-03 0.  1.
        -12    1    3    3    0    0 -0.51037228605E+01  0.20372434138E+01  0.65954283136E+01  0.85847552326E+01  0.00000000000E+00 0.  1.
</event>
<event>
 7    1  0.6624035E-013  0.5052885E+02  0.7816164E-02  0.1300439E+00
        -11   -1    0    0    0    0  0.00000000000E+00  0.00000000000E+00  0.45593999997E+02  0.45594000000E+02  0.51100000000E-03 0.  1.
         11   -1    0    0    0    0 -0.00000000000E+00 -0.00000000000E+00 -0.45593999997E+02  0.45594000000E+02  0.51100000000E-03 0. -1.
    9900012    2    1    2    0    0  0.19057886262E+02  0.11482455740E+02  0.34031107278E+02  0.50528854889E+02  0.29999984920E+02 0.  0.
         12    1    1    2    0    0 -0.19057886262E+02 -0.11482455740E+02 -0.34031107278E+02  0.40659145111E+02  0.00000000000E+00 0. -1.
         11    1    3    3    0    0  0.58653518264E+01  0.13616617403E+02  0.79056922063E+01  0.16802219825E+02  0.51100000000E-03 0. -1.
        -11    1    3    3    0    0 -0.24667465288E+01  0.38067836632E+01  0.47015403748E+01  0.65330637876E+01  0.51100000000E-03 0.  1.
        -12    1    3    3    0    0  0.15659280965E+02 -0.59409453260E+01  0.21423874697E+02  0.27193571276E+02  0.00000000000E+00 0.  1.
</event>
<event>
 7    1  0.6624035E-013  0.5052885E+02  0.7816164E-02  0.1300439E+00
        -11   -1    0    0    0    0  0.00000000000E+00  0.00000000000E+00  0.45593999997E+02  0.45594000000E+02  0.51100000000E-03 0.  1.
         11   -1    0    0    0    0 -0.00000000000E+00 -0.00000000000E+00 -0.45593999997E+02  0.45594000000E+02  0.51100000000E-03 0. -1.
    9900012    2    1    2    0    0 -0.71570548603E+01  0.15930524466E+02  0.36717316413E+02  0.50528851354E+02  0.29999974176E+02 0.  0.
         12    1    1    2    0    0  0.71570548603E+01 -0.15930524466E+02 -0.36717316413E+02  0.40659148646E+02  0.00000000000E+00 0. -1.
         11    1    3    3    0    0  0.63467202635E+01  0.13143226646E+02  0.14388031030E+02  0.20494894534E+02  0.51100000000E-03 0.  1.
        -11    1    3    3    0    0  0.31894626078E+01  0.24031703642E+00  0.36622751253E+01  0.48623742512E+01  0.51100000000E-03 0. -1.
         12    1    3    3    0    0 -0.16693237732E+02  0.25469807839E+01  0.18667010258E+02  0.25171582569E+02  0.00000000000E+00 0. -1.
</event>
<event>
 7    1  0.6624035E-013  0.5052887E+02  0.7816164E-02  0.1300439E+00
        -11   -1    0    0    0    0  0.00000000000E+00  0.00000000000E+00  0.45593999997E+02  0.45594000000E+02  0.51100000000E-03 0.  1.
         11   -1    0    0    0    0 -0.00000000000E+00 -0.00000000000E+00 -0.45593999997E+02  0.45594000000E+02  0.51100000000E-03 0. -1.
    9900012    2    1    2    0    0  0.98678603490E+01 -0.30227296992E+02  0.25339708272E+02  0.50528868595E+02  0.30000026581E+02 0.  0.
         12    1    1    2    0    0 -0.98678603490E+01  0.30227296992E+02 -0.25339708272E+02  0.40659131405E+02  0.00000000000E+00 0. -1.
         11    1    3    3    0    0 -0.18466413522E+01 -0.87455469306E+00  0.42509158269E+01  0.47164834171E+01  0.51100000000E-03 0. -1.
        -11    1    3    3    0    0 -0.97098225596E+00 -0.22928131807E+02  0.21694410946E+02  0.31579890774E+02  0.51100000000E-03 0.  1.
         12    1    3    3    0    0  0.12685483957E+02 -0.64246104913E+01 -0.60561850072E+00  0.14232494404E+02  0.00000000000E+00 0. -1.
</event>
<event>
 7    1  0.6624035E-013  0.5052889E+02  0.7816164E-02  0.1300439E+00
        -11   -1    0    0    0    0  0.00000000000E+00  0.00000000000E+00  0.45593999997E+02  0.45594000000E+02  0.51100000000E-03 0.  1.
         11   -1    0    0    0    0 -0.00000000000E+00 -0.00000000000E+00 -0.45593999997E+02  0.45594000000E+02  0.51100000000E-03 0. -1.
    9900012    2    1    2    0    0  0.67942642158E+01 -0.28994162703E+02  0.27682846435E+02  0.50528886829E+02  0.30000082006E+02 0.  0.
         12    1    1    2    0    0 -0.67942642158E+01  0.28994162703E+02 -0.27682846435E+02  0.40659113171E+02  0.00000000000E+00 0. -1.
         11    1    3    3    0    0 -0.26910154127E+01  0.90553906719E+00 -0.13156794265E+01  0.31293094395E+01  0.51100000000E-03 0. -1.
        -11    1    3    3    0    0 -0.41771766930E+01 -0.18636580545E+02  0.19545920277E+02  0.27327896722E+02  0.51100000000E-03 0.  1.
        -12    1    3    3    0    0  0.13662456322E+02 -0.11263121226E+02  0.94526055845E+01  0.20071680668E+02  0.00000000000E+00 0.  1.
</event>
<event>
 7    1  0.6624035E-013  0.5052886E+02  0.7816164E-02  0.1300439E+00
        -11   -1    0    0    0    0  0.00000000000E+00  0.00000000000E+00  0.45593999997E+02  0.45594000000E+02  0.51100000000E-03 0. -1.
         11   -1    0    0    0    0 -0.00000000000E+00 -0.00000000000E+00 -0.45593999997E+02  0.45594000000E+02  0.51100000000E-03 0.  1.
    9900012    2    1    2    0    0 -0.43661150035E+01 -0.41852556270E+01 -0.40206796933E+02  0.50528857799E+02  0.29999993767E+02 0.  0.
         12    1    1    2    0    0  0.43661150035E+01  0.41852556270E+01  0.40206796933E+02  0.40659142201E+02  0.00000000000E+00 0. -1.
         11    1    3    3    0    0 -0.82646160079E+01 -0.11311272648E+02 -0.22058709146E+02  0.26131119688E+02  0.51100000000E-03 0. -1.
        -11    1    3    3    0    0 -0.23718040434E+01 -0.20425878433E+01 -0.11637390071E-01  0.31301366117E+01  0.51100000000E-03 0.  1.
        -12    1    3    3    0    0  0.62703050477E+01  0.91686048648E+01 -0.18136450396E+02  0.21267601499E+02  0.00000000000E+00 0.  1.
</event>
<event>
 7    1  0.6624035E-013  0.5052886E+02  0.7816164E-02  0.1300439E+00
        -11   -1    0    0    0    0  0.00000000000E+00  0.00000000000E+00  0.45593999997E+02  0.45594000000E+02  0.51100000000E-03 0. -1.
         11   -1    0    0    0    0 -0.00000000000E+00 -0.00000000000E+00 -0.45593999997E+02  0.45594000000E+02  0.51100000000E-03 0.  1.
    9900012    2    1    2    0    0  0.24071487978E+02  0.32407256336E+02  0.48475816093E+01  0.50528857803E+02  0.29999993779E+02 0.  0.
         12    1    1    2    0    0 -0.24071487978E+02 -0.32407256336E+02 -0.48475816093E+01  0.40659142197E+02  0.00000000000E+00 0. -1.
         11    1    3    3    0    0  0.62394158929E+01 -0.14723535479E+01 -0.22136300344E+01  0.67822042026E+01  0.51100000000E-03 0. -1.
        -11    1    3    3    0    0  0.13364320250E+02  0.20858039412E+02 -0.51991593186E+01  0.25311936349E+02  0.51100000000E-03 0.  1.
        -12    1    3    3    0    0  0.44677518344E+01  0.13021570472E+02  0.12260370962E+02  0.18434717252E+02  0.00000000000E+00 0.  1.
</event>
<event>
 7    1  0.6624035E-013  0.5052872E+02  0.7816164E-02  0.1300439E+00
        -11   -1    0    0    0    0  0.00000000000E+00  0.00000000000E+00  0.45593999997E+02  0.45594000000E+02  0.51100000000E-03 0.  1.
         11   -1    0    0    0    0 -0.00000000000E+00 -0.00000000000E+00 -0.45593999997E+02  0.45594000000E+02  0.51100000000E-03 0. -1.
    9900012    2    1    2    0    0  0.27848314304E+02  0.64386286895E+01  0.28916992610E+02  0.50528720486E+02  0.29999576387E+02 0.  0.
         12    1    1    2    0    0 -0.27848314304E+02 -0.64386286895E+01 -0.28916992610E+02  0.40659279514E+02  0.00000000000E+00 0. -1.
         11    1    3    3    0    0 -0.18194005234E+01 -0.44298610224E+01  0.31679811237E+01  0.57419501568E+01  0.51100000000E-03 0. -1.
        -11    1    3    3    0    0  0.11462602051E+02  0.69584207277E+00  0.20151869301E+02  0.23194250980E+02  0.51100000000E-03 0.  1.
        -12    1    3    3    0    0  0.18205112776E+02  0.10172647639E+02  0.55971421861E+01  0.21592519349E+02  0.00000000000E+00 0.  1.
</event>
<event>
 7    1  0.6624035E-013  0.5052887E+02  0.7816164E-02  0.1300439E+00
        -11   -1    0    0    0    0  0.00000000000E+00  0.00000000000E+00  0.45593999997E+02  0.45594000000E+02  0.51100000000E-03 0. -1.
         11   -1    0    0    0    0 -0.00000000000E+00 -0.00000000000E+00 -0.45593999997E+02  0.45594000000E+02  0.51100000000E-03 0.  1.
    9900012    2    1    2    0    0 -0.23165324693E+01 -0.18529086155E+02 -0.36117468609E+02  0.50528869474E+02  0.30000029252E+02 0.  0.
         12    1    1    2    0    0  0.23165324693E+01  0.18529086155E+02  0.36117468609E+02  0.40659130526E+02  0.00000000000E+00 0. -1.
         11    1    3    3    0    0  0.13583817377E+01  0.84239860609E+00 -0.82809904084E+00  0.18001623925E+01  0.51100000000E-03 0. -1.
        -11    1    3    3    0    0 -0.11340762114E+02 -0.22287425726E+02 -0.29587893717E+02  0.38739975293E+02  0.51100000000E-03 0.  1.
        -12    1    3    3    0    0  0.76658479073E+01  0.29159409651E+01 -0.57014758517E+01  0.99887317882E+01  0.00000000000E+00 0.  1.
</event>
<event>
 7    1  0.6624035E-013  0.5052887E+02  0.7816164E-02  0.1300439E+00
        -11   -1    0    0    0    0  0.00000000000E+00  0.00000000000E+00  0.45593999997E+02  0.45594000000E+02  0.51100000000E-03 0. -1.
         11   -1    0    0    0    0 -0.00000000000E+00 -0.00000000000E+00 -0.45593999997E+02  0.45594000000E+02  0.51100000000E-03 0.  1.
    9900012    2    1    2    0    0 -0.25230770018E+01  0.40498964051E+02 -0.25754571162E+01  0.50528868355E+02  0.30000025853E+02 0.  0.
         12    1    1    2    0    0  0.25230770018E+01 -0.40498964051E+02  0.25754571162E+01  0.40659131645E+02  0.00000000000E+00 0. -1.
         11    1    3    3    0    0 -0.10637312886E+01 -0.30716977796E+01  0.28863346269E+01  0.43471576166E+01  0.51100000000E-03 0. -1.
        -11    1    3    3    0    0  0.44789234787E+01  0.16370145248E+02  0.26624824352E+01  0.17179383690E+02  0.51100000000E-03 0.  1.
        -12    1    3    3    0    0 -0.59382691918E+01  0.27200516582E+02 -0.81242741783E+01  0.29002327049E+02  0.00000000000E+00 0.  1.
</event>
<event>
 7    1  0.6624035E-013  0.5052886E+02  0.7816164E-02  0.1300439E+00
        -11   -1    0    0    0    0  0.00000000000E+00  0.00000000000E+00  0.45593999997E+02  0.45594000000E+02  0.51100000000E-03 0.  1.
         11   -1    0    0    0    0 -0.00000000000E+00 -0.00000000000E+00 -0.45593999997E+02  0.45594000000E+02  0.51100000000E-03 0. -1.
    9900012    2    1    2    0    0  0.33033888946E+02  0.11849063275E+02  0.20531135771E+02  0.50528860124E+02  0.30000000833E+02 0.  0.
         12    1    1    2    0    0 -0.33033888946E+02 -0.11849063275E+02 -0.20531135771E+02  0.40659139876E+02  0.00000000000E+00 0. -1.
         11    1    3    3    0    0  0.13405467736E+02 -0.21438189252E+01 -0.35503056100E+00  0.13580448143E+02  0.51100000000E-03 0. -1.
        -11    1    3    3    0    0  0.12147533112E+02 -0.24469414106E+01  0.92415927120E+01  0.15458237904E+02  0.51100000000E-03 0.  1.
        -12    1    3    3    0    0  0.74808880984E+01  0.16439823611E+02  0.11644573620E+02  0.21490174078E+02  0.00000000000E+00 0.  1.
</event>
<event>
 7    1  0.6624035E-013  0.5052883E+02  0.7816164E-02  0.1300439E+00
        -11   -1    0    0    0    0  0.00000000000E+00  0.00000000000E+00  0.45593999997E+02  0.45594000000E+02  0.51100000000E-03 0. -1.
         11   -1    0    0    0    0 -0.00000000000E+00 -0.00000000000E+00 -0.45593999997E+02  0.45594000000E+02  0.51100000000E-03 0.  1.
    9900012    2    1    2    0    0 -0.60422140594E+01 -0.36366467877E+02 -0.17150504614E+02  0.50528829507E+02  0.29999907771E+02 0.  0.
         12    1    1    2    0    0  0.60422140594E+01  0.36366467877E+02  0.17150504614E+02  0.40659170493E+02  0.00000000000E+00 0. -1.
         11    1    3    3    0    0  0.11601925546E+01  0.23514542515E+01 -0.92734436027E+00  0.27812500219E+01  0.51100000000E-03 0. -1.
        -11    1    3    3    0    0 -0.14427306584E+01 -0.12993857346E+02 -0.16913836925E+02  0.21377550848E+02  0.51100000000E-03 0.  1.
         12    1    3    3    0    0 -0.57596759557E+01 -0.25724064783E+02  0.69067667087E+00  0.26370028638E+02  0.00000000000E+00 0. -1.
</event>
<event>
 7    1  0.6624035E-013  0.5052886E+02  0.7816164E-02  0.1300439E+00
        -11   -1    0    0    0    0  0.00000000000E+00  0.00000000000E+00  0.45593999997E+02  0.45594000000E+02  0.51100000000E-03 0.  1.
         11   -1    0    0    0    0 -0.00000000000E+00 -0.00000000000E+00 -0.45593999997E+02  0.45594000000E+02  0.51100000000E-03 0. -1.
    9900012    2    1    2    0    0 -0.72523257740E+01  0.21141697914E+02  0.33964662544E+02  0.50528856852E+02  0.29999990888E+02 0.  0.
         12    1    1    2    0    0  0.72523257740E+01 -0.21141697914E+02 -0.33964662544E+02  0.40659143148E+02  0.00000000000E+00 0. -1.
         11    1    3    3    0    0  0.56802835632E+01  0.46729647803E+01  0.26712261191E+01  0.78254501747E+01  0.51100000000E-03 0. -1.
        -11    1    3    3    0    0  0.26706805738E+01  0.12290117927E+02  0.16911678541E+02  0.21075682782E+02  0.51100000000E-03 0.  1.
         12    1    3    3    0    0 -0.15603289911E+02  0.41786152062E+01  0.14381757884E+02  0.21627723896E+02  0.00000000000E+00 0. -1.
</event>
<event>
 7    1  0.6624035E-013  0.5052885E+02  0.7816164E-02  0.1300439E+00
        -11   -1    0    0    0    0  0.00000000000E+00  0.00000000000E+00  0.45593999997E+02  0.45594000000E+02  0.51100000000E-03 0. -1.
         11   -1    0    0    0    0 -0.00000000000E+00 -0.00000000000E+00 -0.45593999997E+02  0.45594000000E+02  0.51100000000E-03 0.  1.
    9900012    2    1    2    0    0  0.31868898562E+02  0.11328306335E+02 -0.22565657268E+02  0.50528854560E+02  0.29999983921E+02 0.  0.
         12    1    1    2    0    0 -0.31868898562E+02 -0.11328306335E+02  0.22565657268E+02  0.40659145440E+02  0.00000000000E+00 0. -1.
         11    1    3    3    0    0  0.16283546790E+02 -0.21022706267E+01 -0.16007783721E+02  0.22930821568E+02  0.51100000000E-03 0. -1.
        -11    1    3    3    0    0  0.92597202551E+01  0.13636372013E+02 -0.11043497796E+02  0.19840662910E+02  0.51100000000E-03 0.  1.
        -12    1    3    3    0    0  0.63256315166E+01 -0.20579505081E+00  0.44856242494E+01  0.77573700823E+01  0.00000000000E+00 0.  1.
</event>
<event>
 7    1  0.6624035E-013  0.5052886E+02  0.7816164E-02  0.1300439E+00
        -11   -1    0    0    0    0  0.00000000000E+00  0.00000000000E+00  0.45593999997E+02  0.45594000000E+02  0.51100000000E-03 0.  1.
         11   -1    0    0    0    0 -0.00000000000E+00 -0.00000000000E+00 -0.45593999997E+02  0.45594000000E+02  0.51100000000E-03 0. -1.
    9900012    2    1    2    0    0 -0.30979268032E+02  0.58824558610E+01  0.25668021411E+02  0.50528860094E+02  0.30000000741E+02 0.  0.
         12    1    1    2    0    0  0.30979268032E+02 -0.58824558610E+01 -0.25668021411E+02  0.40659139906E+02  0.00000000000E+00 0. -1.
         11    1    3    3    0    0 -0.21764905405E+02 -0.60079086754E+01  0.13732604183E+02  0.26427078761E+02  0.51100000000E-03 0.  1.
        -11    1    3    3    0    0 -0.10198607641E+02  0.15140377728E+01  0.42508891051E+01  0.11152307682E+02  0.51100000000E-03 0. -1.
        -12    1    3    3    0    0  0.98424501410E+00  0.10376326764E+02  0.76845281236E+01  0.12949473651E+02  0.00000000000E+00 0.  1.
</event>
<event>
 7    1  0.6624035E-013  0.5052885E+02  0.7816164E-02  0.1300439E+00
        -11   -1    0    0    0    0  0.00000000000E+00  0.00000000000E+00  0.45593999997E+02  0.45594000000E+02  0.51100000000E-03 0.  1.
         11   -1    0    0    0    0 -0.00000000000E+00 -0.00000000000E+00 -0.45593999997E+02  0.45594000000E+02  0.51100000000E-03 0. -1.
    9900012    2    1    2    0    0 -0.99698540650E+01 -0.34379468846E+02  0.19282654569E+02  0.50528848073E+02  0.29999964201E+02 0.  0.
         12    1    1    2    0    0  0.99698540650E+01  0.34379468846E+02 -0.19282654569E+02  0.40659151927E+02  0.00000000000E+00 0. -1.
         11    1    3    3    0    0  0.28966561877E+01 -0.16862368566E+02  0.17532601382E+01  0.17198953808E+02  0.51100000000E-03 0.  1.
        -11    1    3    3    0    0 -0.86664353485E+01 -0.49772523757E+01 -0.15519832619E+01  0.10113792324E+02  0.51100000000E-03 0. -1.
         12    1    3    3    0    0 -0.42000749042E+01 -0.12539847905E+02  0.19081377693E+02  0.23216101941E+02  0.00000000000E+00 0. -1.
</event>
<event>
 7    1  0.6624035E-013  0.5052882E+02  0.7816164E-02  0.1300439E+00
        -11   -1    0    0    0    0  0.00000000000E+00  0.00000000000E+00  0.45593999997E+02  0.45594000000E+02  0.51100000000E-03 0.  1.
         11   -1    0    0    0    0 -0.00000000000E+00 -0.00000000000E+00 -0.45593999997E+02  0.45594000000E+02  0.51100000000E-03 0. -1.
    9900012    2    1    2    0    0 -0.35087189405E+02 -0.19436623042E+02 -0.66540065100E+01  0.50528819262E+02  0.29999876629E+02 0.  0.
         12    1    1    2    0    0  0.35087189405E+02  0.19436623042E+02  0.66540065100E+01  0.40659180738E+02  0.00000000000E+00 0. -1.
         11    1    3    3    0    0 -0.15233424635E+02 -0.58707150893E+00 -0.86583983271E+01  0.17531963407E+02  0.51100000000E-03 0. -1.
        -11    1    3    3    0    0 -0.12911899306E+02 -0.21619947944E+01 -0.44162026306E+01  0.13816447123E+02  0.51100000000E-03 0.  1.
         12    1    3    3    0    0 -0.69418654646E+01 -0.16687556739E+02  0.64205944477E+01  0.19180408731E+02  0.00000000000E+00 0. -1.
</event>
<event>
 7    1  0.6624035E-013  0.5052886E+02  0.7816164E-02  0.1300439E+00
        -11   -1    0    0    0    0  0.00000000000E+00  0.00000000000E+00  0.45593999997E+02  0.45594000000E+02  0.51100000000E-03 0.  1.
         11   -1    0    0    0    0 -0.00000000000E+00 -0.00000000000E+00 -0.45593999997E+02  0.45594000000E+02  0.51100000000E-03 0. -1.
    9900012    2    1    2    0    0 -0.34178265533E+02  0.18621092653E+02  0.11758679353E+02  0.50528862447E+02  0.30000007894E+02 0.  0.
         12    1    1    2    0    0  0.34178265533E+02 -0.18621092653E+02 -0.11758679353E+02  0.40659137553E+02  0.00000000000E+00 0. -1.
         11    1    3    3    0    0 -0.33988558355E+01 -0.26933586000E+01  0.33497378563E+01  0.54797030491E+01  0.51100000000E-03 0. -1.
        -11    1    3    3    0    0 -0.14109989126E+02 -0.14567541883E+01 -0.31878472676E+01  0.14538785932E+02  0.51100000000E-03 0.  1.
        -12    1    3    3    0    0 -0.16669420571E+02  0.22771205441E+02  0.11596788765E+02  0.30510373467E+02  0.00000000000E+00 0.  1.
</event>
<event>
 7    1  0.6624035E-013  0.5052886E+02  0.7816164E-02  0.1300439E+00
        -11   -1    0    0    0    0  0.00000000000E+00  0.00000000000E+00  0.45593999997E+02  0.45594000000E+02  0.51100000000E-03 0. -1.
         11   -1    0    0    0    0 -0.00000000000E+00 -0.00000000000E+00 -0.45593999997E+02  0.45594000000E+02  0.51100000000E-03 0.  1.
    9900012    2    1    2    0    0  0.34102924524E+02  0.54412002347E+01 -0.21460416228E+02  0.50528860982E+02  0.30000003439E+02 0.  0.
         12    1    1    2    0    0 -0.34102924524E+02 -0.54412002347E+01  0.21460416228E+02  0.40659139018E+02  0.00000000000E+00 0. -1.
         11    1    3    3    0    0  0.86540043270E+01  0.11502304562E+02 -0.46709360586E+01  0.15133157141E+02  0.51100000000E-03 0. -1.
        -11    1    3    3    0    0  0.31108784786E+01  0.59708312924E+00  0.33360114970E+01  0.46003310904E+01  0.51100000000E-03 0.  1.
        -12    1    3    3    0    0  0.22338041718E+02 -0.66581874568E+01 -0.20125491666E+02  0.30795372750E+02  0.00000000000E+00 0.  1.
</event>
<event>
 7    1  0.6624035E-013  0.5052886E+02  0.7816164E-02  0.1300439E+00
        -11   -1    0    0    0    0  0.00000000000E+00  0.00000000000E+00  0.45593999997E+02  0.45594000000E+02  0.51100000000E-03 0.  1.
         11   -1    0    0    0    0 -0.00000000000E+00 -0.00000000000E+00 -0.45593999997E+02  0.45594000000E+02  0.51100000000E-03 0. -1.
    9900012    2    1    2    0    0  0.11991879253E+02  0.38499764456E+02  0.52084891443E+01  0.50528863384E+02  0.30000010741E+02 0.  0.
         12    1    1    2    0    0 -0.11991879253E+02 -0.38499764456E+02 -0.52084891443E+01  0.40659136616E+02  0.00000000000E+00 0. -1.
         11    1    3    3    0    0  0.52328480595E+01  0.24389681339E+02 -0.64099852441E+01  0.25755138628E+02  0.51100000000E-03 0. -1.
        -11    1    3    3    0    0  0.11186319700E+02  0.79275879298E+01  0.47017690463E+01  0.14494379298E+02  0.51100000000E-03 0.  1.
        -12    1    3    3    0    0 -0.44272885062E+01  0.61824951871E+01  0.69167053421E+01  0.10279345458E+02  0.00000000000E+00 0.  1.
</event>
<event>
 7    1  0.6624035E-013  0.5052886E+02  0.7816164E-02  0.1300439E+00
        -11   -1    0    0    0    0  0.00000000000E+00  0.00000000000E+00  0.45593999997E+02  0.45594000000E+02  0.51100000000E-03 0. -1.
         11   -1    0    0    0    0 -0.00000000000E+00 -0.00000000000E+00 -0.45593999997E+02  0.45594000000E+02  0.51100000000E-03 0.  1.
    9900012    2    1    2    0    0  0.18450217496E+02 -0.60344381907E+01 -0.35725915609E+02  0.50528855690E+02  0.29999987356E+02 0.  0.
         12    1    1    2    0    0 -0.18450217496E+02  0.60344381907E+01  0.35725915609E+02  0.40659144310E+02  0.00000000000E+00 0. -1.
         11    1    3    3    0    0  0.36292483032E+01 -0.26015679569E+01 -0.98857403010E+01  0.10847463327E+02  0.51100000000E-03 0. -1.
        -11    1    3    3    0    0  0.22701694918E+00  0.42449090739E+01 -0.22446463170E+02  0.22845448099E+02  0.51100000000E-03 0.  1.
         12    1    3    3    0    0  0.14593952244E+02 -0.76777793077E+01 -0.33937121378E+01  0.16835944264E+02  0.00000000000E+00 0. -1.
</event>
<event>
 7    1  0.6624035E-013  0.5052878E+02  0.7816164E-02  0.1300439E+00
        -11   -1    0    0    0    0  0.00000000000E+00  0.00000000000E+00  0.45593999997E+02  0.45594000000E+02  0.51100000000E-03 0.  1.
         11   -1    0    0    0    0 -0.00000000000E+00 -0.00000000000E+00 -0.45593999997E+02  0.45594000000E+02  0.51100000000E-03 0. -1.
    9900012    2    1    2    0    0 -0.11953097507E+02  0.23539232940E+02  0.30922491081E+02  0.50528776175E+02  0.29999745659E+02 0.  0.
         12    1    1    2    0    0  0.11953097507E+02 -0.23539232940E+02 -0.30922491081E+02  0.40659223825E+02  0.00000000000E+00 0. -1.
         11    1    3    3    0    0 -0.90991557195E+01  0.20062988225E+01  0.28204556284E+01  0.97352370277E+01  0.51100000000E-03 0.  1.
        -11    1    3    3    0    0  0.27386392905E+00  0.11318065751E+01 -0.31403160678E+01  0.33492645225E+01  0.51100000000E-03 0. -1.
        -12    1    3    3    0    0 -0.31278057163E+01  0.20401127542E+02  0.31242351521E+02  0.37444274624E+02  0.00000000000E+00 0.  1.
</event>
<event>
 7    1  0.6624035E-013  0.5052886E+02  0.7816164E-02  0.1300439E+00
        -11   -1    0    0    0    0  0.00000000000E+00  0.00000000000E+00  0.45593999997E+02  0.45594000000E+02  0.51100000000E-03 0.  1.
         11   -1    0    0    0    0 -0.00000000000E+00 -0.00000000000E+00 -0.45593999997E+02  0.45594000000E+02  0.51100000000E-03 0. -1.
    9900012    2    1    2    0    0  0.81782222270E+01 -0.51126188177E+01  0.39498649714E+02  0.50528861800E+02  0.30000005927E+02 0.  0.
         12    1    1    2    0    0 -0.81782222270E+01  0.51126188177E+01 -0.39498649714E+02  0.40659138200E+02  0.00000000000E+00 0. -1.
         11    1    3    3    0    0 -0.45927443655E+01 -0.73205021652E+01  0.12126517677E+02  0.14890785204E+02  0.51100000000E-03 0. -1.
        -11    1    3    3    0    0  0.87851994682E+01 -0.79558382661E+01  0.15450889451E+02  0.19473188679E+02  0.51100000000E-03 0.  1.
        -12    1    3    3    0    0  0.39857671243E+01  0.10163721614E+02  0.11921242585E+02  0.16164887918E+02  0.00000000000E+00 0.  1.
</event>
<event>
 7    1  0.6624035E-013  0.5052892E+02  0.7816164E-02  0.1300439E+00
        -11   -1    0    0    0    0  0.00000000000E+00  0.00000000000E+00  0.45593999997E+02  0.45594000000E+02  0.51100000000E-03 0. -1.
         11   -1    0    0    0    0 -0.00000000000E+00 -0.00000000000E+00 -0.45593999997E+02  0.45594000000E+02  0.51100000000E-03 0.  1.
    9900012    2    1    2    0    0  0.34766781658E+02 -0.55575343971E+00 -0.21074224304E+02  0.50528918619E+02  0.30000178634E+02 0.  0.
         12    1    1    2    0    0 -0.34766781658E+02  0.55575343971E+00  0.21074224304E+02  0.40659081381E+02  0.00000000000E+00 0. -1.
         11    1    3    3    0    0 -0.16129562217E+01  0.22729593851E+01 -0.39563250501E+01  0.48394710767E+01  0.51100000000E-03 0. -1.
        -11    1    3    3    0    0  0.64932327542E+01  0.62336554518E+01 -0.10382612151E+02  0.13741148687E+02  0.51100000000E-03 0.  1.
         12    1    3    3    0    0  0.29886505125E+02 -0.90623682766E+01 -0.67352871029E+01  0.31948298855E+02  0.00000000000E+00 0. -1.
</event>
<event>
 7    1  0.6624035E-013  0.5052886E+02  0.7816164E-02  0.1300439E+00
        -11   -1    0    0    0    0  0.00000000000E+00  0.00000000000E+00  0.45593999997E+02  0.45594000000E+02  0.51100000000E-03 0. -1.
         11   -1    0    0    0    0 -0.00000000000E+00 -0.00000000000E+00 -0.45593999997E+02  0.45594000000E+02  0.51100000000E-03 0.  1.
    9900012    2    1    2    0    0 -0.21137157213E+02  0.73268625990E+01 -0.33951480824E+02  0.50528863502E+02  0.30000011100E+02 0.  0.
         12    1    1    2    0    0  0.21137157213E+02 -0.73268625990E+01  0.33951480824E+02  0.40659136498E+02  0.00000000000E+00 0. -1.
         11    1    3    3    0    0 -0.18871428592E+01  0.52982934188E+01  0.13555695582E+01  0.57853945769E+01  0.51100000000E-03 0. -1.
        -11    1    3    3    0    0 -0.35712814538E+01 -0.40433790614E+00  0.20634074994E+01  0.41442962170E+01  0.51100000000E-03 0.  1.
        -12    1    3    3    0    0 -0.15678732900E+02  0.24329070864E+01 -0.37370457882E+02  0.40599172708E+02  0.00000000000E+00 0.  1.
</event>
<event>
 7    1  0.6624035E-013  0.5052886E+02  0.7816164E-02  0.1300439E+00
        -11   -1    0    0    0    0  0.00000000000E+00  0.00000000000E+00  0.45593999997E+02  0.45594000000E+02  0.51100000000E-03 0.  1.
         11   -1    0    0    0    0 -0.00000000000E+00 -0.00000000000E+00 -0.45593999997E+02  0.45594000000E+02  0.51100000000E-03 0. -1.
    9900012    2    1    2    0    0  0.13644373702E+01  0.21781634169E+02  0.34305462395E+02  0.50528855561E+02  0.29999986962E+02 0.  0.
         12    1    1    2    0    0 -0.13644373702E+01 -0.21781634169E+02 -0.34305462395E+02  0.40659144439E+02  0.00000000000E+00 0. -1.
         11    1    3    3    0    0 -0.55991540053E+01  0.16025521376E+01  0.61587074352E+01  0.84763421629E+01  0.51100000000E-03 0. -1.
        -11    1    3    3    0    0  0.31153374335E+01  0.17322117593E+02  0.48334844487E+01  0.18251675469E+02  0.51100000000E-03 0.  1.
         12    1    3    3    0    0  0.38482539420E+01  0.28569644380E+01  0.23313270511E+02  0.23800837929E+02  0.00000000000E+00 0. -1.
</event>
<event>
 7    1  0.6624035E-013  0.5052887E+02  0.7816164E-02  0.1300439E+00
        -11   -1    0    0    0    0  0.00000000000E+00  0.00000000000E+00  0.45593999997E+02  0.45594000000E+02  0.51100000000E-03 0.  1.
         11   -1    0    0    0    0 -0.00000000000E+00 -0.00000000000E+00 -0.45593999997E+02  0.45594000000E+02  0.51100000000E-03 0. -1.
    9900012    2    1    2    0    0 -0.26778128180E+02  0.30463058573E+02  0.28457929307E+01  0.50528872810E+02  0.30000039393E+02 0.  0.
         12    1    1    2    0    0  0.26778128180E+02 -0.30463058573E+02 -0.28457929307E+01  0.40659127190E+02  0.00000000000E+00 0. -1.
         11    1    3    3    0    0 -0.36532879304E+01  0.10759086371E+02  0.21552474073E+01  0.11565013786E+02  0.51100000000E-03 0.  1.
        -11    1    3    3    0    0 -0.13971055881E+02 -0.28581169496E+01  0.27699253533E+01  0.14526930910E+02  0.51100000000E-03 0. -1.
         12    1    3    3    0    0 -0.91537843685E+01  0.22562089152E+02 -0.20793798300E+01  0.24436928114E+02  0.00000000000E+00 0. -1.
</event>
<event>
 7    1  0.6624035E-013  0.5052886E+02  0.7816164E-02  0.1300439E+00
        -11   -1    0    0    0    0  0.00000000000E+00  0.00000000000E+00  0.45593999997E+02  0.45594000000E+02  0.51100000000E-03 0.  1.
         11   -1    0    0    0    0 -0.00000000000E+00 -0.00000000000E+00 -0.45593999997E+02  0.45594000000E+02  0.51100000000E-03 0. -1.
    9900012    2    1    2    0    0  0.12058650600E+02 -0.29711405325E+02  0.24999737087E+02  0.50528861850E+02  0.30000006080E+02 0.  0.
         12    1    1    2    0    0 -0.12058650600E+02  0.29711405325E+02 -0.24999737087E+02  0.40659138150E+02  0.00000000000E+00 0. -1.
         11    1    3    3    0    0 -0.14693725859E+01  0.48378451444E+00 -0.78846858186E+00  0.17363139746E+01  0.51100000000E-03 0. -1.
        -11    1    3    3    0    0  0.11417778010E+02 -0.14124724494E+02 -0.20071143732E+00  0.18163528899E+02  0.51100000000E-03 0.  1.
        -12    1    3    3    0    0  0.21102451750E+01 -0.16070465346E+02  0.25988917106E+02  0.30629018977E+02  0.00000000000E+00 0.  1.
</event>
<event>
 7    1  0.6624035E-013  0.5052889E+02  0.7816164E-02  0.1300439E+00
        -11   -1    0    0    0    0  0.00000000000E+00  0.00000000000E+00  0.45593999997E+02  0.45594000000E+02  0.51100000000E-03 0.  1.
         11   -1    0    0    0    0 -0.00000000000E+00 -0.00000000000E+00 -0.45593999997E+02  0.45594000000E+02  0.51100000000E-03 0. -1.
    9900012    2    1    2    0    0  0.33168821492E+02  0.61908329243E+01  0.22686254076E+02  0.50528889638E+02  0.30000090544E+02 0.  0.
         12    1    1    2    0    0 -0.33168821492E+02 -0.61908329243E+01 -0.22686254076E+02  0.40659110362E+02  0.00000000000E+00 0. -1.
         11    1    3    3    0    0  0.10558372182E+02 -0.84321675244E+01  0.63316473299E+01  0.14922145639E+02  0.51100000000E-03 0. -1.
        -11    1    3    3    0    0  0.18007878004E+01  0.33260494950E+01  0.10578156022E+02  0.11234003162E+02  0.51100000000E-03 0.  1.
         12    1    3    3    0    0  0.20809661509E+02  0.11296950954E+02  0.57764507234E+01  0.24372740837E+02  0.00000000000E+00 0. -1.
</event>
<event>
 7    1  0.6624035E-013  0.5052873E+02  0.7816164E-02  0.1300439E+00
        -11   -1    0    0    0    0  0.00000000000E+00  0.00000000000E+00  0.45593999997E+02  0.45594000000E+02  0.51100000000E-03 0.  1.
         11   -1    0    0    0    0 -0.00000000000E+00 -0.00000000000E+00 -0.45593999997E+02  0.45594000000E+02  0.51100000000E-03 0. -1.
    9900012    2    1    2    0    0 -0.11164149349E+02  0.32830410905E+02 -0.21229751151E+02  0.50528727443E+02  0.29999597534E+02 0.  0.
         12    1    1    2    0    0  0.11164149349E+02 -0.32830410905E+02  0.21229751151E+02  0.40659272557E+02  0.00000000000E+00 0. -1.
         11    1    3    3    0    0 -0.89105735491E+01  0.67737443125E+01 -0.23988003267E+01  0.11447103400E+02  0.51100000000E-03 0. -1.
        -11    1    3    3    0    0 -0.52347336637E+01  0.32386738242E+01  0.34450013908E+01  0.70540399427E+01  0.51100000000E-03 0.  1.
         12    1    3    3    0    0  0.29811578639E+01  0.22817992769E+02 -0.22275952215E+02  0.32027584100E+02  0.00000000000E+00 0. -1.
</event>
<event>
 7    1  0.6624035E-013  0.5052887E+02  0.7816164E-02  0.1300439E+00
        -11   -1    0    0    0    0  0.00000000000E+00  0.00000000000E+00  0.45593999997E+02  0.45594000000E+02  0.51100000000E-03 0.  1.
         11   -1    0    0    0    0 -0.00000000000E+00 -0.00000000000E+00 -0.45593999997E+02  0.45594000000E+02  0.51100000000E-03 0. -1.
    9900012    2    1    2    0    0  0.99054992637E+01  0.14320086354E+02  0.36742087853E+02  0.50528870537E+02  0.30000032485E+02 0.  0.
         12    1    1    2    0    0 -0.99054992637E+01 -0.14320086354E+02 -0.36742087853E+02  0.40659129463E+02  0.00000000000E+00 0. -1.
         11    1    3    3    0    0  0.90978116575E+01  0.16373589589E+02  0.71921284020E+01  0.20064678522E+02  0.51100000000E-03 0. -1.
        -11    1    3    3    0    0  0.18829755835E+01  0.22709330083E+01  0.11518903361E+02  0.11890663088E+02  0.51100000000E-03 0.  1.
        -12    1    3    3    0    0 -0.10752879772E+01 -0.43244362433E+01  0.18031056090E+02  0.18573528927E+02  0.00000000000E+00 0.  1.
</event>
<event>
 7    1  0.6624035E-013  0.5052886E+02  0.7816164E-02  0.1300439E+00
        -11   -1    0    0    0    0  0.00000000000E+00  0.00000000000E+00  0.45593999997E+02  0.45594000000E+02  0.51100000000E-03 0.  1.
         11   -1    0    0    0    0 -0.00000000000E+00 -0.00000000000E+00 -0.45593999997E+02  0.45594000000E+02  0.51100000000E-03 0. -1.
    9900012    2    1    2    0    0 -0.18099818163E+02  0.11694326324E+02  0.34479051848E+02  0.50528859551E+02  0.29999999093E+02 0.  0.
         12    1    1    2    0    0  0.18099818163E+02 -0.11694326324E+02 -0.34479051848E+02  0.40659140449E+02  0.00000000000E+00 0. -1.
         11    1    3    3    0    0  0.16103492373E+01  0.37334671589E+01  0.21455441878E+02  0.21837307254E+02  0.51100000000E-03 0. -1.
        -11    1    3    3    0    0  0.10709409309E+00  0.45345207632E+01  0.57087301542E+01  0.72912926105E+01  0.51100000000E-03 0.  1.
        -12    1    3    3    0    0 -0.19817261493E+02  0.34263384016E+01  0.73148798159E+01  0.21400259687E+02  0.00000000000E+00 0.  1.
</event>
<event>
 7    1  0.6624035E-013  0.5052887E+02  0.7816164E-02  0.1300439E+00
        -11   -1    0    0    0    0  0.00000000000E+00  0.00000000000E+00  0.45593999997E+02  0.45594000000E+02  0.51100000000E-03 0.  1.
         11   -1    0    0    0    0 -0.00000000000E+00 -0.00000000000E+00 -0.45593999997E+02  0.45594000000E+02  0.51100000000E-03 0. -1.
    9900012    2    1    2    0    0 -0.21937361817E+02 -0.32199739526E+02  0.11622976849E+02  0.50528872367E+02  0.30000038047E+02 0.  0.
         12    1    1    2    0    0  0.21937361817E+02  0.32199739526E+02 -0.11622976849E+02  0.40659127633E+02  0.00000000000E+00 0. -1.
         11    1    3    3    0    0 -0.10641268346E+01  0.46511942530E+01  0.61673892285E+00  0.48110644414E+01  0.51100000000E-03 0. -1.
        -11    1    3    3    0    0 -0.20278005531E+01 -0.11817484217E+02 -0.12858239806E+01  0.12058949037E+02  0.51100000000E-03 0.  1.
        -12    1    3    3    0    0 -0.18845434429E+02 -0.25033449562E+02  0.12292061907E+02  0.33658858889E+02  0.00000000000E+00 0.  1.
</event>
<event>
 7    1  0.6624035E-013  0.5052886E+02  0.7816164E-02  0.1300439E+00
        -11   -1    0    0    0    0  0.00000000000E+00  0.00000000000E+00  0.45593999997E+02  0.45594000000E+02  0.51100000000E-03 0.  1.
         11   -1    0    0    0    0 -0.00000000000E+00 -0.00000000000E+00 -0.45593999997E+02  0.45594000000E+02  0.51100000000E-03 0. -1.
    9900012    2    1    2    0    0  0.30399639884E+01 -0.25228785886E+02  0.31740085908E+02  0.50528855004E+02  0.29999985270E+02 0.  0.
         12    1    1    2    0    0 -0.30399639884E+01  0.25228785886E+02 -0.31740085908E+02  0.40659144996E+02  0.00000000000E+00 0. -1.
         11    1    3    3    0    0 -0.63083765147E+01 -0.12974576001E+02  0.17533534805E+02  0.22705948113E+02  0.51100000000E-03 0. -1.
        -11    1    3    3    0    0 -0.46583387820E+01  0.56433404277E+00  0.44886977904E+01  0.64936123409E+01  0.51100000000E-03 0.  1.
        -12    1    3    3    0    0  0.14006679285E+02 -0.12818543927E+02  0.97178533125E+01  0.21329294550E+02  0.00000000000E+00 0.  1.
</event>
<event>
 7    1  0.6624035E-013  0.5052886E+02  0.7816164E-02  0.1300439E+00
        -11   -1    0    0    0    0  0.00000000000E+00  0.00000000000E+00  0.45593999997E+02  0.45594000000E+02  0.51100000000E-03 0.  1.
         11   -1    0    0    0    0 -0.00000000000E+00 -0.00000000000E+00 -0.45593999997E+02  0.45594000000E+02  0.51100000000E-03 0. -1.
    9900012    2    1    2    0    0  0.24637200504E+02  0.19024298481E+02 -0.26158179382E+02  0.50528856749E+02  0.29999990574E+02 0.  0.
         12    1    1    2    0    0 -0.24637200504E+02 -0.19024298481E+02  0.26158179382E+02  0.40659143251E+02  0.00000000000E+00 0. -1.
         11    1    3    3    0    0  0.11652211504E+02  0.35534975907E+01 -0.12723228973E+02  0.17614821425E+02  0.51100000000E-03 0. -1.
        -11    1    3    3    0    0  0.96544215023E+01 -0.36791250764E+01 -0.68295899562E+01  0.12384955192E+02  0.51100000000E-03 0.  1.
        -12    1    3    3    0    0  0.33305674971E+01  0.19149925966E+02 -0.66053604522E+01  0.20529080132E+02  0.00000000000E+00 0.  1.
</event>
<event>
 7    1  0.6624035E-013  0.5052890E+02  0.7816164E-02  0.1300439E+00
        -11   -1    0    0    0    0  0.00000000000E+00  0.00000000000E+00  0.45593999997E+02  0.45594000000E+02  0.51100000000E-03 0.  1.
         11   -1    0    0    0    0 -0.00000000000E+00 -0.00000000000E+00 -0.45593999997E+02  0.45594000000E+02  0.51100000000E-03 0. -1.
    9900012    2    1    2    0    0  0.20202979351E+01  0.25263897744E+02  0.31793335231E+02  0.50528901411E+02  0.30000126329E+02 0.  0.
         12    1    1    2    0    0 -0.20202979351E+01 -0.25263897744E+02 -0.31793335231E+02  0.40659098589E+02  0.00000000000E+00 0. -1.
         11    1    3    3    0    0  0.22963289133E+00 -0.37087770293E+01  0.71826835051E+01  0.80869463281E+01  0.51100000000E-03 0. -1.
        -11    1    3    3    0    0  0.58110492244E+01  0.17135660057E+01  0.96863136989E+00  0.61353768048E+01  0.51100000000E-03 0.  1.
        -12    1    3    3    0    0 -0.40203841806E+01  0.27259108767E+02  0.23642020356E+02  0.36306578278E+02  0.00000000000E+00 0.  1.
</event>
<event>
 7    1  0.6624035E-013  0.5052886E+02  0.7816164E-02  0.1300439E+00
        -11   -1    0    0    0    0  0.00000000000E+00  0.00000000000E+00  0.45593999997E+02  0.45594000000E+02  0.51100000000E-03 0.  1.
         11   -1    0    0    0    0 -0.00000000000E+00 -0.00000000000E+00 -0.45593999997E+02  0.45594000000E+02  0.51100000000E-03 0. -1.
    9900012    2    1    2    0    0  0.67183155061E+01  0.60688673059E+01  0.39638345281E+02  0.50528864124E+02  0.30000012991E+02 0.  0.
         12    1    1    2    0    0 -0.67183155061E+01 -0.60688673059E+01 -0.39638345281E+02  0.40659135876E+02  0.00000000000E+00 0. -1.
         11    1    3    3    0    0 -0.24871708143E+01  0.12357008557E+01  0.34293591365E+01  0.44128765689E+01  0.51100000000E-03 0.  1.
        -11    1    3    3    0    0 -0.61906090437E+01 -0.26502310734E+01  0.79394902035E+00  0.67806873090E+01  0.51100000000E-03 0. -1.
        -12    1    3    3    0    0  0.15396095364E+02  0.74833975236E+01  0.35415037124E+02  0.39335300246E+02  0.00000000000E+00 0.  1.
</event>
<event>
 7    1  0.6624035E-013  0.5052887E+02  0.7816164E-02  0.1300439E+00
        -11   -1    0    0    0    0  0.00000000000E+00  0.00000000000E+00  0.45593999997E+02  0.45594000000E+02  0.51100000000E-03 0. -1.
         11   -1    0    0    0    0 -0.00000000000E+00 -0.00000000000E+00 -0.45593999997E+02  0.45594000000E+02  0.51100000000E-03 0.  1.
    9900012    2    1    2    0    0  0.12876026771E+02 -0.38224339147E+02 -0.51256625564E+01  0.50528873284E+02  0.30000040835E+02 0.  0.
         12    1    1    2    0    0 -0.12876026771E+02  0.38224339147E+02  0.51256625564E+01  0.40659126716E+02  0.00000000000E+00 0. -1.
         11    1    3    3    0    0 -0.18467411823E+01 -0.50894008146E+01 -0.58548189222E+01  0.79744190083E+01  0.51100000000E-03 0. -1.
        -11    1    3    3    0    0  0.57860215722E+01 -0.25629855340E+02 -0.85649628156E+01  0.27635595139E+02  0.51100000000E-03 0.  1.
         12    1    3    3    0    0  0.89367463809E+01 -0.75050829930E+01  0.92941191815E+01  0.14918859138E+02  0.00000000000E+00 0. -1.
</event>
<event>
 7    1  0.6624035E-013  0.5052887E+02  0.7816164E-02  0.1300439E+00
        -11   -1    0    0    0    0  0.00000000000E+00  0.00000000000E+00  0.45593999997E+02  0.45594000000E+02  0.51100000000E-03 0.  1.
         11   -1    0    0    0    0 -0.00000000000E+00 -0.00000000000E+00 -0.45593999997E+02  0.45594000000E+02  0.51100000000E-03 0. -1.
    9900012    2    1    2    0    0 -0.41409830654E+01 -0.41107553340E+01  0.40238280003E+02  0.50528865384E+02  0.30000016820E+02 0.  0.
         12    1    1    2    0    0  0.41409830654E+01  0.41107553340E+01 -0.40238280003E+02  0.40659134616E+02  0.00000000000E+00 0. -1.
         11    1    3    3    0    0 -0.38412343583E+01 -0.89968921821E+01  0.33385223240E+02  0.34788967811E+02  0.51100000000E-03 0.  1.
        -11    1    3    3    0    0 -0.21738226837E+01 -0.41939360171E+01  0.35061724741E+01  0.58828437048E+01  0.51100000000E-03 0. -1.
         12    1    3    3    0    0  0.18740739766E+01  0.90800728652E+01  0.33468842889E+01  0.98570538677E+01  0.00000000000E+00 0. -1.
</event>
<event>
 7    1  0.6624035E-013  0.5052887E+02  0.7816164E-02  0.1300439E+00
        -11   -1    0    0    0    0  0.00000000000E+00  0.00000000000E+00  0.45593999997E+02  0.45594000000E+02  0.51100000000E-03 0.  1.
         11   -1    0    0    0    0 -0.00000000000E+00 -0.00000000000E+00 -0.45593999997E+02  0.45594000000E+02  0.51100000000E-03 0. -1.
    9900012    2    1    2    0    0 -0.35881506502E+02 -0.15582353834E+02  0.11084797776E+02  0.50528868165E+02  0.30000025275E+02 0.  0.
         12    1    1    2    0    0  0.35881506502E+02  0.15582353834E+02 -0.11084797776E+02  0.40659131835E+02  0.00000000000E+00 0. -1.
         11    1    3    3    0    0 -0.37719841438E+01 -0.11128133405E+02  0.70958075012E+01  0.13726387064E+02  0.51100000000E-03 0. -1.
        -11    1    3    3    0    0 -0.58710060167E+01 -0.36707366934E+00  0.80171674741E+01  0.99437633367E+01  0.51100000000E-03 0.  1.
        -12    1    3    3    0    0 -0.26238516341E+02 -0.40871467588E+01 -0.40281771998E+01  0.26858717765E+02  0.00000000000E+00 0.  1.
</event>
<event>
 7    1  0.6624035E-013  0.5052886E+02  0.7816164E-02  0.1300439E+00
        -11   -1    0    0    0    0  0.00000000000E+00  0.00000000000E+00  0.45593999997E+02  0.45594000000E+02  0.51100000000E-03 0. -1.
         11   -1    0    0    0    0 -0.00000000000E+00 -0.00000000000E+00 -0.45593999997E+02  0.45594000000E+02  0.51100000000E-03 0.  1.
    9900012    2    1    2    0    0 -0.38195268899E+02 -0.13877199468E+02 -0.13078405552E+01  0.50528859844E+02  0.29999999981E+02 0.  0.
         12    1    1    2    0    0  0.38195268899E+02  0.13877199468E+02  0.13078405552E+01  0.40659140156E+02  0.00000000000E+00 0. -1.
         11    1    3    3    0    0 -0.30310365557E+02  0.40422992242E+00  0.22008997311E+01  0.30392854784E+02  0.51100000000E-03 0. -1.
        -11    1    3    3    0    0 -0.92868620753E+01 -0.70294641709E+01  0.63912189618E+00  0.11664803933E+02  0.51100000000E-03 0.  1.
         12    1    3    3    0    0  0.14019587339E+01 -0.72519652199E+01 -0.41478621824E+01  0.84712011265E+01  0.00000000000E+00 0. -1.
</event>
<event>
 7    1  0.6624035E-013  0.5052886E+02  0.7816164E-02  0.1300439E+00
        -11   -1    0    0    0    0  0.00000000000E+00  0.00000000000E+00  0.45593999997E+02  0.45594000000E+02  0.51100000000E-03 0.  1.
         11   -1    0    0    0    0 -0.00000000000E+00 -0.00000000000E+00 -0.45593999997E+02  0.45594000000E+02  0.51100000000E-03 0. -1.
    9900012    2    1    2    0    0 -0.33707671908E-01 -0.31137780716E+01  0.40539720435E+02  0.50528859784E+02  0.29999999801E+02 0.  0.
         12    1    1    2    0    0  0.33707671908E-01  0.31137780716E+01 -0.40539720435E+02  0.40659140216E+02  0.00000000000E+00 0. -1.
         11    1    3    3    0    0 -0.60683582781E+01  0.41243132835E+01  0.11915814721E+02  0.13993626156E+02  0.51100000000E-03 0. -1.
        -11    1    3    3    0    0  0.73678290824E+01 -0.30852077268E+01  0.42285651054E+00  0.79988886725E+01  0.51100000000E-03 0.  1.
         12    1    3    3    0    0 -0.13331784762E+01 -0.41528836284E+01  0.28201049204E+02  0.28536344956E+02  0.00000000000E+00 0. -1.
</event>
<event>
 7    1  0.6624035E-013  0.5052885E+02  0.7816164E-02  0.1300439E+00
        -11   -1    0    0    0    0  0.00000000000E+00  0.00000000000E+00  0.45593999997E+02  0.45594000000E+02  0.51100000000E-03 0. -1.
         11   -1    0    0    0    0 -0.00000000000E+00 -0.00000000000E+00 -0.45593999997E+02  0.45594000000E+02  0.51100000000E-03 0.  1.
    9900012    2    1    2    0    0  0.17706359692E+02 -0.24938962056E+00 -0.36600403040E+02  0.50528845171E+02  0.29999955382E+02 0.  0.
         12    1    1    2    0    0 -0.17706359692E+02  0.24938962056E+00  0.36600403040E+02  0.40659154829E+02  0.00000000000E+00 0. -1.
         11    1    3    3    0    0  0.17652622787E+02  0.14884013340E+01 -0.19242469433E+02  0.26155363885E+02  0.51100000000E-03 0. -1.
        -11    1    3    3    0    0  0.70553365070E+01  0.20534897128E+01 -0.29625180830E+01  0.79228219014E+01  0.51100000000E-03 0.  1.
         12    1    3    3    0    0 -0.70015996025E+01 -0.37912806673E+01 -0.14395415524E+02  0.16450659385E+02  0.00000000000E+00 0. -1.
</event>
<event>
 7    1  0.6624035E-013  0.5052886E+02  0.7816164E-02  0.1300439E+00
        -11   -1    0    0    0    0  0.00000000000E+00  0.00000000000E+00  0.45593999997E+02  0.45594000000E+02  0.51100000000E-03 0.  1.
         11   -1    0    0    0    0 -0.00000000000E+00 -0.00000000000E+00 -0.45593999997E+02  0.45594000000E+02  0.51100000000E-03 0. -1.
    9900012    2    1    2    0    0  0.12468134457E+02 -0.38443922007E+02  0.44470508729E+01  0.50528858622E+02  0.29999996268E+02 0.  0.
         12    1    1    2    0    0 -0.12468134457E+02  0.38443922007E+02 -0.44470508729E+01  0.40659141378E+02  0.00000000000E+00 0. -1.
         11    1    3    3    0    0  0.17308837751E+01 -0.10340188891E+02  0.20935509427E+01  0.10691043950E+02  0.51100000000E-03 0. -1.
        -11    1    3    3    0    0 -0.19137074079E+01 -0.16075441303E+02  0.11758900055E+02  0.20008843542E+02  0.51100000000E-03 0.  1.
         12    1    3    3    0    0  0.12650958090E+02 -0.12028291813E+02 -0.94054001251E+01  0.19828971130E+02  0.00000000000E+00 0. -1.
</event>
<event>
 7    1  0.6624035E-013  0.5052886E+02  0.7816164E-02  0.1300439E+00
        -11   -1    0    0    0    0  0.00000000000E+00  0.00000000000E+00  0.45593999997E+02  0.45594000000E+02  0.51100000000E-03 0.  1.
         11   -1    0    0    0    0 -0.00000000000E+00 -0.00000000000E+00 -0.45593999997E+02  0.45594000000E+02  0.51100000000E-03 0. -1.
    9900012    2    1    2    0    0 -0.21209919252E+02  0.15839855706E+02  0.30861037390E+02  0.50528864099E+02  0.30000012914E+02 0.  0.
         12    1    1    2    0    0  0.21209919252E+02 -0.15839855706E+02 -0.30861037390E+02  0.40659135901E+02  0.00000000000E+00 0. -1.
         11    1    3    3    0    0  0.28619822059E+00 -0.30908584729E+01  0.34075759592E+01  0.46094348568E+01  0.51100000000E-03 0. -1.
        -11    1    3    3    0    0 -0.14983038687E+01 -0.73570153847E+00  0.15234352370E+02  0.15325523275E+02  0.51100000000E-03 0.  1.
        -12    1    3    3    0    0 -0.19997813604E+02  0.19666415718E+02  0.12219109060E+02  0.30593905967E+02  0.00000000000E+00 0.  1.
</event>
<event>
 7    1  0.6624035E-013  0.5052887E+02  0.7816164E-02  0.1300439E+00
        -11   -1    0    0    0    0  0.00000000000E+00  0.00000000000E+00  0.45593999997E+02  0.45594000000E+02  0.51100000000E-03 0.  1.
         11   -1    0    0    0    0 -0.00000000000E+00 -0.00000000000E+00 -0.45593999997E+02  0.45594000000E+02  0.51100000000E-03 0. -1.
    9900012    2    1    2    0    0  0.40104588367E+02 -0.16098861356E+01  0.64958031840E+01  0.50528865719E+02  0.30000017839E+02 0.  0.
         12    1    1    2    0    0 -0.40104588367E+02  0.16098861356E+01 -0.64958031840E+01  0.40659134281E+02  0.00000000000E+00 0. -1.
         11    1    3    3    0    0  0.18902879156E+01  0.27074222005E+01 -0.50151701376E+01  0.60046028300E+01  0.51100000000E-03 0. -1.
        -11    1    3    3    0    0 -0.99098294325E+00 -0.28736021778E+01 -0.12245355712E+01  0.32770603132E+01  0.51100000000E-03 0.  1.
        -12    1    3    3    0    0  0.39205283395E+02 -0.14437061582E+01  0.12735508893E+02  0.41247202576E+02  0.00000000000E+00 0.  1.
</event>
<event>
 7    1  0.6624035E-013  0.5052889E+02  0.7816164E-02  0.1300439E+00
        -11   -1    0    0    0    0  0.00000000000E+00  0.00000000000E+00  0.45593999997E+02  0.45594000000E+02  0.51100000000E-03 0.  1.
         11   -1    0    0    0    0 -0.00000000000E+00 -0.00000000000E+00 -0.45593999997E+02  0.45594000000E+02  0.51100000000E-03 0. -1.
    9900012    2    1    2    0    0 -0.13839488401E+02 -0.24663655672E+01  0.38151659762E+02  0.50528886127E+02  0.30000079872E+02 0.  0.
         12    1    1    2    0    0  0.13839488401E+02  0.24663655672E+01 -0.38151659762E+02  0.40659113873E+02  0.00000000000E+00 0. -1.
         11    1    3    3    0    0 -0.42396650031E+01  0.29814355612E+01  0.25403329693E+01  0.57720888074E+01  0.51100000000E-03 0. -1.
        -11    1    3    3    0    0  0.84362570395E+01 -0.14923051032E+01  0.97348481739E+01  0.12967832378E+02  0.51100000000E-03 0.  1.
         12    1    3    3    0    0 -0.18036080438E+02 -0.39554960252E+01  0.25876478619E+02  0.31788964942E+02  0.00000000000E+00 0. -1.
</event>
<event>
 7    1  0.6624035E-013  0.5052886E+02  0.7816164E-02  0.1300439E+00
        -11   -1    0    0    0    0  0.00000000000E+00  0.00000000000E+00  0.45593999997E+02  0.45594000000E+02  0.51100000000E-03 0. -1.
         11   -1    0    0    0    0 -0.00000000000E+00 -0.00000000000E+00 -0.45593999997E+02  0.45594000000E+02  0.51100000000E-03 0.  1.
    9900012    2    1    2    0    0 -0.34843232505E+02 -0.19155551889E+02  0.84958672106E+01  0.50528858602E+02  0.29999996206E+02 0.  0.
         12    1    1    2    0    0  0.34843232505E+02  0.19155551889E+02 -0.84958672106E+01  0.40659141398E+02  0.00000000000E+00 0. -1.
         11    1    3    3    0    0 -0.22814982913E+02 -0.96292551746E+01 -0.53148379063E+01  0.25327722021E+02  0.51100000000E-03 0. -1.
        -11    1    3    3    0    0 -0.90699666397E+01 -0.79155464833E+01  0.11420487676E+01  0.12092330074E+02  0.51100000000E-03 0.  1.
         12    1    3    3    0    0 -0.29582829531E+01 -0.16107502308E+01  0.12668656349E+02  0.13108806507E+02  0.00000000000E+00 0. -1.
</event>
<event>
 7    1  0.6624035E-013  0.5052885E+02  0.7816164E-02  0.1300439E+00
        -11   -1    0    0    0    0  0.00000000000E+00  0.00000000000E+00  0.45593999997E+02  0.45594000000E+02  0.51100000000E-03 0.  1.
         11   -1    0    0    0    0 -0.00000000000E+00 -0.00000000000E+00 -0.45593999997E+02  0.45594000000E+02  0.51100000000E-03 0. -1.
    9900012    2    1    2    0    0  0.94629897499E+01  0.10255003215E+02  0.38189695304E+02  0.50528854739E+02  0.29999984465E+02 0.  0.
         12    1    1    2    0    0 -0.94629897499E+01 -0.10255003215E+02 -0.38189695304E+02  0.40659145261E+02  0.00000000000E+00 0. -1.
         11    1    3    3    0    0  0.34816480028E+01  0.12402717305E+02  0.67140902951E+01  0.14526812386E+02  0.51100000000E-03 0. -1.
        -11    1    3    3    0    0 -0.24680210490E+00  0.19589257396E+01  0.27457865551E+02  0.27528761000E+02  0.51100000000E-03 0.  1.
         12    1    3    3    0    0  0.62281438520E+01 -0.41066398293E+01  0.40177394582E+01  0.84732813527E+01  0.00000000000E+00 0. -1.
</event>
<event>
 7    1  0.6624035E-013  0.5052886E+02  0.7816164E-02  0.1300439E+00
        -11   -1    0    0    0    0  0.00000000000E+00  0.00000000000E+00  0.45593999997E+02  0.45594000000E+02  0.51100000000E-03 0. -1.
         11   -1    0    0    0    0 -0.00000000000E+00 -0.00000000000E+00 -0.45593999997E+02  0.45594000000E+02  0.51100000000E-03 0.  1.
    9900012    2    1    2    0    0  0.36295522588E+02 -0.14709117208E+01  0.18265735291E+02  0.50528860474E+02  0.30000001898E+02 0.  0.
         12    1    1    2    0    0 -0.36295522588E+02  0.14709117208E+01 -0.18265735291E+02  0.40659139526E+02  0.00000000000E+00 0. -1.
         11    1    3    3    0    0 -0.24542288444E+00 -0.82904180937E+00  0.52253371455E+01  0.52963847348E+01  0.51100000000E-03 0. -1.
        -11    1    3    3    0    0  0.95993391175E+01  0.64328730392E+01  0.12978613880E+02  0.17377387190E+02  0.51100000000E-03 0.  1.
        -12    1    3    3    0    0  0.26941606355E+02 -0.70747429506E+01  0.61784265579E-01  0.27855088550E+02  0.00000000000E+00 0.  1.
</event>
<event>
 7    1  0.6624035E-013  0.5052885E+02  0.7816164E-02  0.1300439E+00
        -11   -1    0    0    0    0  0.00000000000E+00  0.00000000000E+00  0.45593999997E+02  0.45594000000E+02  0.51100000000E-03 0. -1.
         11   -1    0    0    0    0 -0.00000000000E+00 -0.00000000000E+00 -0.45593999997E+02  0.45594000000E+02  0.51100000000E-03 0.  1.
    9900012    2    1    2    0    0 -0.20931144987E+02 -0.20853616960E+02 -0.27931710731E+02  0.50528848076E+02  0.29999964212E+02 0.  0.
         12    1    1    2    0    0  0.20931144987E+02  0.20853616960E+02  0.27931710731E+02  0.40659151924E+02  0.00000000000E+00 0. -1.
         11    1    3    3    0    0  0.26940225879E+00 -0.11496777615E+02 -0.25390630263E+00  0.11502736274E+02  0.51100000000E-03 0. -1.
        -11    1    3    3    0    0 -0.36074755739E+01 -0.28287250494E+01  0.10590299120E+01  0.47050090369E+01  0.51100000000E-03 0.  1.
         12    1    3    3    0    0 -0.17593071672E+02 -0.65281142954E+01 -0.28736834341E+02  0.34321102766E+02  0.00000000000E+00 0. -1.
</event>
<event>
 7    1  0.6624035E-013  0.5052885E+02  0.7816164E-02  0.1300439E+00
        -11   -1    0    0    0    0  0.00000000000E+00  0.00000000000E+00  0.45593999997E+02  0.45594000000E+02  0.51100000000E-03 0. -1.
         11   -1    0    0    0    0 -0.00000000000E+00 -0.00000000000E+00 -0.45593999997E+02  0.45594000000E+02  0.51100000000E-03 0.  1.
    9900012    2    1    2    0    0 -0.38639914942E+02  0.12640153555E+02  0.59143148576E+00  0.50528852200E+02  0.29999976748E+02 0.  0.
         12    1    1    2    0    0  0.38639914942E+02 -0.12640153555E+02 -0.59143148576E+00  0.40659147800E+02  0.00000000000E+00 0. -1.
         11    1    3    3    0    0 -0.70906582834E+01  0.65256687576E+01  0.97813563708E+01  0.13730867429E+02  0.51100000000E-03 0. -1.
        -11    1    3    3    0    0 -0.13966376647E+02 -0.43346579150E+01 -0.66381150788E+00  0.14638633197E+02  0.51100000000E-03 0.  1.
        -12    1    3    3    0    0 -0.17582880011E+02  0.10449142712E+02 -0.85261133772E+01  0.22159351575E+02  0.00000000000E+00 0.  1.
</event>
<event>
 7    1  0.6624035E-013  0.5052887E+02  0.7816164E-02  0.1300439E+00
        -11   -1    0    0    0    0  0.00000000000E+00  0.00000000000E+00  0.45593999997E+02  0.45594000000E+02  0.51100000000E-03 0.  1.
         11   -1    0    0    0    0 -0.00000000000E+00 -0.00000000000E+00 -0.45593999997E+02  0.45594000000E+02  0.51100000000E-03 0. -1.
    9900012    2    1    2    0    0  0.11832771345E+02  0.59483728614E+01  0.38441736349E+02  0.50528871739E+02  0.30000036139E+02 0.  0.
         12    1    1    2    0    0 -0.11832771345E+02 -0.59483728614E+01 -0.38441736349E+02  0.40659128261E+02  0.00000000000E+00 0. -1.
         11    1    3    3    0    0  0.19856013388E+01  0.20739723234E+01 -0.28848261498E+01  0.40701592169E+01  0.51100000000E-03 0. -1.
        -11    1    3    3    0    0  0.28391975763E+00  0.58074409882E+01  0.23361961709E+01  0.62661626272E+01  0.51100000000E-03 0.  1.
         12    1    3    3    0    0  0.95632502488E+01 -0.19330404503E+01  0.38990366328E+02  0.40192549895E+02  0.00000000000E+00 0. -1.
</event>
<event>
 7    1  0.6624035E-013  0.5052880E+02  0.7816164E-02  0.1300439E+00
        -11   -1    0    0    0    0  0.00000000000E+00  0.00000000000E+00  0.45593999997E+02  0.45594000000E+02  0.51100000000E-03 0. -1.
         11   -1    0    0    0    0 -0.00000000000E+00 -0.00000000000E+00 -0.45593999997E+02  0.45594000000E+02  0.51100000000E-03 0.  1.
    9900012    2    1    2    0    0 -0.20146712750E+01  0.40321334788E+02  0.48271840042E+01  0.50528798768E+02  0.29999814334E+02 0.  0.
         12    1    1    2    0    0  0.20146712750E+01 -0.40321334788E+02 -0.48271840042E+01  0.40659201232E+02  0.00000000000E+00 0. -1.
         11    1    3    3    0    0  0.81850099004E+01  0.97726517848E+01  0.29553828289E+01  0.13085617979E+02  0.51100000000E-03 0. -1.
        -11    1    3    3    0    0  0.55625729101E+01  0.56568697761E+01  0.37596811716E+00  0.79425276411E+01  0.51100000000E-03 0.  1.
         12    1    3    3    0    0 -0.15762254085E+02  0.24891813227E+02  0.14958330581E+01  0.29500653147E+02  0.00000000000E+00 0. -1.
</event>
<event>
 7    1  0.6624035E-013  0.5052886E+02  0.7816164E-02  0.1300439E+00
        -11   -1    0    0    0    0  0.00000000000E+00  0.00000000000E+00  0.45593999997E+02  0.45594000000E+02  0.51100000000E-03 0. -1.
         11   -1    0    0    0    0 -0.00000000000E+00 -0.00000000000E+00 -0.45593999997E+02  0.45594000000E+02  0.51100000000E-03 0.  1.
    9900012    2    1    2    0    0  0.17915993694E+02  0.29608438318E+02 -0.21342986125E+02  0.50528861957E+02  0.30000006404E+02 0.  0.
         12    1    1    2    0    0 -0.17915993694E+02 -0.29608438318E+02  0.21342986125E+02  0.40659138043E+02  0.00000000000E+00 0. -1.
         11    1    3    3    0    0 -0.25612283999E+01  0.16120057686E+02 -0.14697349685E+02  0.21964249105E+02  0.51100000000E-03 0.  1.
        -11    1    3    3    0    0 -0.71392643791E+00  0.47350525496E+01 -0.42214294891E+00  0.48071424502E+01  0.51100000000E-03 0. -1.
        -12    1    3    3    0    0  0.21191148532E+02  0.87533280823E+01 -0.62234934904E+01  0.23757470401E+02  0.00000000000E+00 0.  1.
</event>
<event>
 7    1  0.6624035E-013  0.5052887E+02  0.7816164E-02  0.1300439E+00
        -11   -1    0    0    0    0  0.00000000000E+00  0.00000000000E+00  0.45593999997E+02  0.45594000000E+02  0.51100000000E-03 0.  1.
         11   -1    0    0    0    0 -0.00000000000E+00 -0.00000000000E+00 -0.45593999997E+02  0.45594000000E+02  0.51100000000E-03 0. -1.
    9900012    2    1    2    0    0  0.23339127956E+02  0.28753957591E+02  0.16782736120E+02  0.50528865693E+02  0.30000017760E+02 0.  0.
         12    1    1    2    0    0 -0.23339127956E+02 -0.28753957591E+02 -0.16782736120E+02  0.40659134307E+02  0.00000000000E+00 0. -1.
         11    1    3    3    0    0 -0.32340386128E+01  0.80346181587E+01  0.11447608999E+01  0.87363935628E+01  0.51100000000E-03 0. -1.
        -11    1    3    3    0    0  0.11438966921E+02 -0.36563096366E+00 -0.89060632848E-01  0.11445155406E+02  0.51100000000E-03 0.  1.
        -12    1    3    3    0    0  0.15134199648E+02  0.21084970396E+02  0.15727035853E+02  0.30347316724E+02  0.00000000000E+00 0.  1.
</event>
<event>
 7    1  0.6624035E-013  0.5052886E+02  0.7816164E-02  0.1300439E+00
        -11   -1    0    0    0    0  0.00000000000E+00  0.00000000000E+00  0.45593999997E+02  0.45594000000E+02  0.51100000000E-03 0. -1.
         11   -1    0    0    0    0 -0.00000000000E+00 -0.00000000000E+00 -0.45593999997E+02  0.45594000000E+02  0.51100000000E-03 0.  1.
    9900012    2    1    2    0    0  0.38804866865E+02  0.12094026633E+02 -0.10404421567E+01  0.50528859668E+02  0.29999999448E+02 0.  0.
         12    1    1    2    0    0 -0.38804866865E+02 -0.12094026633E+02  0.10404421567E+01  0.40659140332E+02  0.00000000000E+00 0. -1.
         11    1    3    3    0    0  0.95278537424E+01  0.24257380626E+00 -0.24532035837E+01  0.98415977906E+01  0.51100000000E-03 0. -1.
        -11    1    3    3    0    0  0.14622574166E+02  0.51564291654E+01 -0.12093406300E+02  0.19663644453E+02  0.51100000000E-03 0.  1.
        -12    1    3    3    0    0  0.14654438957E+02  0.66950236617E+01  0.13506167726E+02  0.21023617425E+02  0.00000000000E+00 0.  1.
</event>
<event>
 7    1  0.6624035E-013  0.5052886E+02  0.7816164E-02  0.1300439E+00
        -11   -1    0    0    0    0  0.00000000000E+00  0.00000000000E+00  0.45593999997E+02  0.45594000000E+02  0.51100000000E-03 0. -1.
         11   -1    0    0    0    0 -0.00000000000E+00 -0.00000000000E+00 -0.45593999997E+02  0.45594000000E+02  0.51100000000E-03 0.  1.
    9900012    2    1    2    0    0  0.54762671261E+01  0.22686267257E+02 -0.33294286522E+02  0.50528859100E+02  0.29999997721E+02 0.  0.
         12    1    1    2    0    0 -0.54762671261E+01 -0.22686267257E+02  0.33294286522E+02  0.40659140900E+02  0.00000000000E+00 0. -1.
         11    1    3    3    0    0 -0.10247252931E+02  0.74897449919E+01 -0.72503702154E+01  0.14617466990E+02  0.51100000000E-03 0.  1.
        -11    1    3    3    0    0 -0.13483085412E+01 -0.57680769088E+00 -0.12576409900E+01  0.19319172227E+01  0.51100000000E-03 0. -1.
        -12    1    3    3    0    0  0.17071828598E+02  0.15773329956E+02 -0.24786275317E+02  0.33979474888E+02  0.00000000000E+00 0.  1.
</event>
<event>
 7    1  0.6624035E-013  0.5052881E+02  0.7816164E-02  0.1300439E+00
        -11   -1    0    0    0    0  0.00000000000E+00  0.00000000000E+00  0.45593999997E+02  0.45594000000E+02  0.51100000000E-03 0.  1.
         11   -1    0    0    0    0 -0.00000000000E+00 -0.00000000000E+00 -0.45593999997E+02  0.45594000000E+02  0.51100000000E-03 0. -1.
    9900012    2    1    2    0    0 -0.27088884846E+02  0.14597710096E+02  0.26575723554E+02  0.50528807870E+02  0.29999842001E+02 0.  0.
         12    1    1    2    0    0  0.27088884846E+02 -0.14597710096E+02 -0.26575723554E+02  0.40659192130E+02  0.00000000000E+00 0. -1.
         11    1    3    3    0    0 -0.12075799305E+02  0.14172000707E+02  0.39784434479E+01  0.19039394565E+02  0.51100000000E-03 0.  1.
        -11    1    3    3    0    0 -0.28434260589E+01  0.72085450366E+01  0.58786441064E+01  0.97265949894E+01  0.51100000000E-03 0. -1.
        -12    1    3    3    0    0 -0.12169659482E+02 -0.67828356474E+01  0.16718636000E+02  0.21762818315E+02  0.00000000000E+00 0.  1.
</event>
<event>
 7    1  0.6624035E-013  0.5052887E+02  0.7816164E-02  0.1300439E+00
        -11   -1    0    0    0    0  0.00000000000E+00  0.00000000000E+00  0.45593999997E+02  0.45594000000E+02  0.51100000000E-03 0.  1.
         11   -1    0    0    0    0 -0.00000000000E+00 -0.00000000000E+00 -0.45593999997E+02  0.45594000000E+02  0.51100000000E-03 0. -1.
    9900012    2    1    2    0    0 -0.16658507806E+02 -0.25223568609E+02 -0.27192468803E+02  0.50528872423E+02  0.30000038217E+02 0.  0.
         12    1    1    2    0    0  0.16658507806E+02  0.25223568609E+02  0.27192468803E+02  0.40659127577E+02  0.00000000000E+00 0. -1.
         11    1    3    3    0    0 -0.90050428921E+01 -0.12900824869E+02 -0.99152846178E+01  0.18596638113E+02  0.51100000000E-03 0. -1.
        -11    1    3    3    0    0 -0.12229744951E+02 -0.15588820060E+02 -0.86150992569E+01  0.21605506425E+02  0.51100000000E-03 0.  1.
         12    1    3    3    0    0  0.45762800365E+01  0.32660763199E+01 -0.86620849286E+01  0.10326727885E+02  0.00000000000E+00 0. -1.
</event>
<event>
 7    1  0.6624035E-013  0.5052888E+02  0.7816164E-02  0.1300439E+00
        -11   -1    0    0    0    0  0.00000000000E+00  0.00000000000E+00  0.45593999997E+02  0.45594000000E+02  0.51100000000E-03 0.  1.
         11   -1    0    0    0    0 -0.00000000000E+00 -0.00000000000E+00 -0.45593999997E+02  0.45594000000E+02  0.51100000000E-03 0. -1.
    9900012    2    1    2    0    0 -0.14512712710E+02  0.37412993465E+02 -0.65431592318E+01  0.50528882414E+02  0.30000068584E+02 0.  0.
         12    1    1    2    0    0  0.14512712710E+02 -0.37412993465E+02  0.65431592318E+01  0.40659117586E+02  0.00000000000E+00 0. -1.
         11    1    3    3    0    0 -0.14679889609E+01 -0.22258624153E+01 -0.11474435716E+01  0.29027714502E+01  0.51100000000E-03 0. -1.
        -11    1    3    3    0    0 -0.14104508436E+01  0.22361086144E+02  0.68926811482E+01  0.23441770385E+02  0.51100000000E-03 0.  1.
         12    1    3    3    0    0 -0.11634272905E+02  0.17277769736E+02 -0.12288396808E+02  0.24184340578E+02  0.00000000000E+00 0. -1.
</event>
<event>
 7    1  0.6624035E-013  0.5052886E+02  0.7816164E-02  0.1300439E+00
        -11   -1    0    0    0    0  0.00000000000E+00  0.00000000000E+00  0.45593999997E+02  0.45594000000E+02  0.51100000000E-03 0.  1.
         11   -1    0    0    0    0 -0.00000000000E+00 -0.00000000000E+00 -0.45593999997E+02  0.45594000000E+02  0.51100000000E-03 0. -1.
    9900012    2    1    2    0    0 -0.20480808408E+02 -0.34994049154E+02  0.30197460007E+01  0.50528857669E+02  0.29999993369E+02 0.  0.
         12    1    1    2    0    0  0.20480808408E+02  0.34994049154E+02 -0.30197460007E+01  0.40659142331E+02  0.00000000000E+00 0. -1.
         11    1    3    3    0    0  0.50807830301E+00 -0.93956232054E+01  0.33943229690E+01  0.10002864973E+02  0.51100000000E-03 0. -1.
        -11    1    3    3    0    0 -0.14157656396E+02 -0.24141472862E+02  0.84845820882E+01  0.29244453834E+02  0.51100000000E-03 0.  1.
         12    1    3    3    0    0 -0.68312303151E+01 -0.14569530865E+01 -0.88591590564E+01  0.11281538862E+02  0.00000000000E+00 0. -1.
</event>
<event>
 7    1  0.6624035E-013  0.5052887E+02  0.7816164E-02  0.1300439E+00
        -11   -1    0    0    0    0  0.00000000000E+00  0.00000000000E+00  0.45593999997E+02  0.45594000000E+02  0.51100000000E-03 0. -1.
         11   -1    0    0    0    0 -0.00000000000E+00 -0.00000000000E+00 -0.45593999997E+02  0.45594000000E+02  0.51100000000E-03 0.  1.
    9900012    2    1    2    0    0  0.13945044887E+02 -0.32370397396E+02 -0.20269640051E+02  0.50528865574E+02  0.30000017399E+02 0.  0.
         12    1    1    2    0    0 -0.13945044887E+02  0.32370397396E+02  0.20269640051E+02  0.40659134426E+02  0.00000000000E+00 0. -1.
         11    1    3    3    0    0  0.55955717584E+01 -0.15709757538E+02  0.48843201401E+01  0.17377096671E+02  0.51100000000E-03 0. -1.
        -11    1    3    3    0    0  0.73948826355E+01 -0.31886785171E+01 -0.84860476376E+01  0.11698930064E+02  0.51100000000E-03 0.  1.
        -12    1    3    3    0    0  0.95459049330E+00 -0.13471961340E+02 -0.16667912553E+02  0.21452838839E+02  0.00000000000E+00 0.  1.
</event>
<event>
 7    1  0.6624035E-013  0.5052886E+02  0.7816164E-02  0.1300439E+00
        -11   -1    0    0    0    0  0.00000000000E+00  0.00000000000E+00  0.45593999997E+02  0.45594000000E+02  0.51100000000E-03 0. -1.
         11   -1    0    0    0    0 -0.00000000000E+00 -0.00000000000E+00 -0.45593999997E+02  0.45594000000E+02  0.51100000000E-03 0.  1.
    9900012    2    1    2    0    0  0.30009096890E+02 -0.97928699777E+01 -0.25626542222E+02  0.50528857550E+02  0.29999993008E+02 0.  0.
         12    1    1    2    0    0 -0.30009096890E+02  0.97928699777E+01  0.25626542222E+02  0.40659142450E+02  0.00000000000E+00 0. -1.
         11    1    3    3    0    0  0.84348134480E+01 -0.19974034011E+00  0.58055396563E+00  0.84571281930E+01  0.51100000000E-03 0. -1.
        -11    1    3    3    0    0  0.19355404300E+02 -0.25114930844E+01 -0.58062022256E+01  0.20362987445E+02  0.51100000000E-03 0.  1.
        -12    1    3    3    0    0  0.22188791414E+01 -0.70816365532E+01 -0.20400893963E+02  0.21708741912E+02  0.00000000000E+00 0.  1.
</event>
<event>
 7    1  0.7879222E-013  0.5052886E+02  0.7816164E-02  0.1300439E+00
        -11   -1    0    0    0    0  0.00000000000E+00  0.00000000000E+00  0.45593999997E+02  0.45594000000E+02  0.51100000000E-03 0. -1.
         11   -1    0    0    0    0 -0.00000000000E+00 -0.00000000000E+00 -0.45593999997E+02  0.45594000000E+02  0.51100000000E-03 0.  1.
    9900012    2    1    2    0    0  0.13994681621E+02  0.44519045549E+01 -0.37914312191E+02  0.50528860354E+02  0.30000001532E+02 0.  0.
         12    1    1    2    0    0 -0.13994681621E+02 -0.44519045549E+01  0.37914312191E+02  0.40659139646E+02  0.00000000000E+00 0. -1.
         11    1    3    3    0    0  0.20695542786E+01  0.75278882204E+00 -0.24287705318E+02  0.24387340482E+02  0.51100000000E-03 0.  1.
        -11    1    3    3    0    0 -0.12150202552E+01  0.82438595039E+01 -0.61353045483E+01  0.10347920366E+02  0.51100000000E-03 0. -1.
         12    1    3    3    0    0  0.13140147598E+02 -0.45447437710E+01 -0.74913023250E+01  0.15793599506E+02  0.00000000000E+00 0. -1.
</event>
<event>
 7    1  0.6624035E-013  0.5052887E+02  0.7816164E-02  0.1300439E+00
        -11   -1    0    0    0    0  0.00000000000E+00  0.00000000000E+00  0.45593999997E+02  0.45594000000E+02  0.51100000000E-03 0.  1.
         11   -1    0    0    0    0 -0.00000000000E+00 -0.00000000000E+00 -0.45593999997E+02  0.45594000000E+02  0.51100000000E-03 0. -1.
    9900012    2    1    2    0    0  0.29514797630E+02  0.85550428041E+01  0.26624290757E+02  0.50528869478E+02  0.30000029265E+02 0.  0.
         12    1    1    2    0    0 -0.29514797630E+02 -0.85550428041E+01 -0.26624290757E+02  0.40659130522E+02  0.00000000000E+00 0. -1.
         11    1    3    3    0    0 -0.24150831744E+01  0.61360934147E+01  0.43280630108E+01  0.78877372433E+01  0.51100000000E-03 0. -1.
        -11    1    3    3    0    0  0.33235203639E+01  0.43589167317E+01  0.10082224980E+02  0.11475940201E+02  0.51100000000E-03 0.  1.
        -12    1    3    3    0    0  0.28606360440E+02 -0.19399673423E+01  0.12214002766E+02  0.31165192034E+02  0.00000000000E+00 0.  1.
</event>
<event>
 7    1  0.6624035E-013  0.5052886E+02  0.7816164E-02  0.1300439E+00
        -11   -1    0    0    0    0  0.00000000000E+00  0.00000000000E+00  0.45593999997E+02  0.45594000000E+02  0.51100000000E-03 0.  1.
         11   -1    0    0    0    0 -0.00000000000E+00 -0.00000000000E+00 -0.45593999997E+02  0.45594000000E+02  0.51100000000E-03 0. -1.
    9900012    2    1    2    0    0 -0.23283818526E+02 -0.28992935426E+02  0.16445025309E+02  0.50528863669E+02  0.30000011607E+02 0.  0.
         12    1    1    2    0    0  0.23283818526E+02  0.28992935426E+02 -0.16445025309E+02  0.40659136331E+02  0.00000000000E+00 0. -1.
         11    1    3    3    0    0 -0.57190748932E+01 -0.10359483608E+02  0.11380448306E+02  0.16417713671E+02  0.51100000000E-03 0. -1.
        -11    1    3    3    0    0 -0.37242256402E+01 -0.16716258335E+02  0.93291046799E+01  0.19502188178E+02  0.51100000000E-03 0.  1.
         12    1    3    3    0    0 -0.13840517992E+02 -0.19171934837E+01 -0.42645276768E+01  0.14608961820E+02  0.00000000000E+00 0. -1.
</event>
<event>
 7    1  0.6624035E-013  0.5052886E+02  0.7816164E-02  0.1300439E+00
        -11   -1    0    0    0    0  0.00000000000E+00  0.00000000000E+00  0.45593999997E+02  0.45594000000E+02  0.51100000000E-03 0. -1.
         11   -1    0    0    0    0 -0.00000000000E+00 -0.00000000000E+00 -0.45593999997E+02  0.45594000000E+02  0.51100000000E-03 0.  1.
    9900012    2    1    2    0    0 -0.10214031438E+02  0.33676127152E+02 -0.20365609308E+02  0.50528855632E+02  0.29999987180E+02 0.  0.
         12    1    1    2    0    0  0.10214031438E+02 -0.33676127152E+02  0.20365609308E+02  0.40659144368E+02  0.00000000000E+00 0. -1.
         11    1    3    3    0    0 -0.43207272745E+00  0.19366424932E+02 -0.13328473772E+02  0.23513683566E+02  0.51100000000E-03 0. -1.
        -11    1    3    3    0    0 -0.73502906793E+01  0.15571022548E+02 -0.12246410872E+02  0.21129555030E+02  0.51100000000E-03 0.  1.
        -12    1    3    3    0    0 -0.24316680313E+01 -0.12613203277E+01  0.52092753352E+01  0.58856170366E+01  0.00000000000E+00 0.  1.
</event>
<event>
 7    1  0.6624035E-013  0.5052886E+02  0.7816164E-02  0.1300439E+00
        -11   -1    0    0    0    0  0.00000000000E+00  0.00000000000E+00  0.45593999997E+02  0.45594000000E+02  0.51100000000E-03 0.  1.
         11   -1    0    0    0    0 -0.00000000000E+00 -0.00000000000E+00 -0.45593999997E+02  0.45594000000E+02  0.51100000000E-03 0. -1.
    9900012    2    1    2    0    0 -0.39035558761E+02 -0.83081326929E+01  0.77695488787E+01  0.50528858268E+02  0.29999995191E+02 0.  0.
         12    1    1    2    0    0  0.39035558761E+02  0.83081326929E+01 -0.77695488787E+01  0.40659141732E+02  0.00000000000E+00 0. -1.
         11    1    3    3    0    0  0.15076308238E+01 -0.36729151382E+01 -0.29795296922E+01  0.49639554552E+01  0.51100000000E-03 0. -1.
        -11    1    3    3    0    0 -0.47836305807E+01 -0.38272830212E+01 -0.35079834845E+01  0.70595442661E+01  0.51100000000E-03 0.  1.
        -12    1    3    3    0    0 -0.35759559004E+02 -0.80793453340E+00  0.14257062055E+02  0.38505358547E+02  0.00000000000E+00 0.  1.
</event>
<event>
 7    1  0.6624035E-013  0.5052890E+02  0.7816164E-02  0.1300439E+00
        -11   -1    0    0    0    0  0.00000000000E+00  0.00000000000E+00  0.45593999997E+02  0.45594000000E+02  0.51100000000E-03 0.  1.
         11   -1    0    0    0    0 -0.00000000000E+00 -0.00000000000E+00 -0.45593999997E+02  0.45594000000E+02  0.51100000000E-03 0. -1.
    9900012    2    1    2    0    0 -0.18526292131E+02 -0.31463656959E+02  0.17887909908E+02  0.50528898556E+02  0.30000117650E+02 0.  0.
         12    1    1    2    0    0  0.18526292131E+02  0.31463656959E+02 -0.17887909908E+02  0.40659101444E+02  0.00000000000E+00 0. -1.
         11    1    3    3    0    0 -0.11080068838E+02 -0.19247512224E+02  0.90751390453E+01  0.23991515192E+02  0.51100000000E-03 0. -1.
        -11    1    3    3    0    0 -0.14103029311E+02 -0.10837643160E+02  0.85492859338E+01  0.19734240174E+02  0.51100000000E-03 0.  1.
         12    1    3    3    0    0  0.66568060179E+01 -0.13785015752E+01  0.26348492903E+00  0.68031431898E+01  0.00000000000E+00 0. -1.
</event>
<event>
 7    1  0.6624035E-013  0.5052886E+02  0.7816164E-02  0.1300439E+00
        -11   -1    0    0    0    0  0.00000000000E+00  0.00000000000E+00  0.45593999997E+02  0.45594000000E+02  0.51100000000E-03 0.  1.
         11   -1    0    0    0    0 -0.00000000000E+00 -0.00000000000E+00 -0.45593999997E+02  0.45594000000E+02  0.51100000000E-03 0. -1.
    9900012    2    1    2    0    0  0.31815492998E+02  0.23728855464E+02  0.88250534923E+01  0.50528859017E+02  0.29999997469E+02 0.  0.
         12    1    1    2    0    0 -0.31815492998E+02 -0.23728855464E+02 -0.88250534923E+01  0.40659140983E+02  0.00000000000E+00 0. -1.
         11    1    3    3    0    0 -0.11919800458E+01  0.24950163512E+00  0.35053399029E+01  0.37108591447E+01  0.51100000000E-03 0. -1.
        -11    1    3    3    0    0  0.50928808198E+01  0.31724700527E+01  0.10320724968E+02  0.11938147486E+02  0.51100000000E-03 0.  1.
         12    1    3    3    0    0  0.27914592224E+02  0.20306883776E+02 -0.50010113782E+01  0.34879852387E+02  0.00000000000E+00 0. -1.
</event>
<event>
 7    1  0.6624035E-013  0.5052893E+02  0.7816164E-02  0.1300439E+00
        -11   -1    0    0    0    0  0.00000000000E+00  0.00000000000E+00  0.45593999997E+02  0.45594000000E+02  0.51100000000E-03 0.  1.
         11   -1    0    0    0    0 -0.00000000000E+00 -0.00000000000E+00 -0.45593999997E+02  0.45594000000E+02  0.51100000000E-03 0. -1.
    9900012    2    1    2    0    0 -0.39404647880E+02  0.60862274454E+01  0.79618665085E+01  0.50528932655E+02  0.30000221299E+02 0.  0.
         12    1    1    2    0    0  0.39404647880E+02 -0.60862274454E+01 -0.79618665085E+01  0.40659067345E+02  0.00000000000E+00 0. -1.
         11    1    3    3    0    0 -0.46986599586E+01 -0.32470851605E+01  0.84617681311E+01  0.10208941552E+02  0.51100000000E-03 0. -1.
        -11    1    3    3    0    0 -0.30715323902E+01  0.47849552864E+01  0.53754384089E+01  0.78246691091E+01  0.51100000000E-03 0.  1.
        -12    1    3    3    0    0 -0.31634455531E+02  0.45483573195E+01 -0.58753400315E+01  0.32495321994E+02  0.00000000000E+00 0.  1.
</event>
<event>
 7    1  0.6624035E-013  0.5052887E+02  0.7816164E-02  0.1300439E+00
        -11   -1    0    0    0    0  0.00000000000E+00  0.00000000000E+00  0.45593999997E+02  0.45594000000E+02  0.51100000000E-03 0. -1.
         11   -1    0    0    0    0 -0.00000000000E+00 -0.00000000000E+00 -0.45593999997E+02  0.45594000000E+02  0.51100000000E-03 0.  1.
    9900012    2    1    2    0    0  0.31435129671E+01 -0.31202359873E+02 -0.25878489271E+02  0.50528866434E+02  0.30000020012E+02 0.  0.
         12    1    1    2    0    0 -0.31435129671E+01  0.31202359873E+02  0.25878489271E+02  0.40659133566E+02  0.00000000000E+00 0. -1.
         11    1    3    3    0    0  0.28938626482E+01 -0.31894595329E+01 -0.21247397818E+02  0.21679460497E+02  0.51100000000E-03 0. -1.
        -11    1    3    3    0    0 -0.30012103939E+00 -0.93324089992E+01 -0.39783144937E+01  0.10149429385E+02  0.51100000000E-03 0.  1.
        -12    1    3    3    0    0  0.54977135829E+00 -0.18680491341E+02 -0.65277695938E+00  0.18699976552E+02  0.00000000000E+00 0.  1.
</event>
<event>
 7    1  0.6624035E-013  0.5052886E+02  0.7816164E-02  0.1300439E+00
        -11   -1    0    0    0    0  0.00000000000E+00  0.00000000000E+00  0.45593999997E+02  0.45594000000E+02  0.51100000000E-03 0. -1.
         11   -1    0    0    0    0 -0.00000000000E+00 -0.00000000000E+00 -0.45593999997E+02  0.45594000000E+02  0.51100000000E-03 0.  1.
    9900012    2    1    2    0    0  0.39411950945E+02 -0.28947404624E+01 -0.95647402818E+01  0.50528860114E+02  0.30000000802E+02 0.  0.
         12    1    1    2    0    0 -0.39411950945E+02  0.28947404624E+01  0.95647402818E+01  0.40659139886E+02  0.00000000000E+00 0. -1.
         11    1    3    3    0    0  0.53779421535E+01 -0.20876719967E+01  0.25227134809E+00  0.57744503865E+01  0.51100000000E-03 0. -1.
        -11    1    3    3    0    0  0.29402581195E+02  0.88854044599E+01 -0.13285865153E+02  0.33466048564E+02  0.51100000000E-03 0.  1.
        -12    1    3    3    0    0  0.46314275962E+01 -0.96924729257E+01  0.34688535227E+01  0.11288361163E+02  0.00000000000E+00 0.  1.
</event>
<event>
 7    1  0.6624035E-013  0.5052886E+02  0.7816164E-02  0.1300439E+00
        -11   -1    0    0    0    0  0.00000000000E+00  0.00000000000E+00  0.45593999997E+02  0.45594000000E+02  0.51100000000E-03 0. -1.
         11   -1    0    0    0    0 -0.00000000000E+00 -0.00000000000E+00 -0.45593999997E+02  0.45594000000E+02  0.51100000000E-03 0.  1.
    9900012    2    1    2    0    0 -0.27021896794E+02 -0.17853305458E+02 -0.24581337783E+02  0.50528860937E+02  0.30000003305E+02 0.  0.
         12    1    1    2    0    0  0.27021896794E+02  0.17853305458E+02  0.24581337783E+02  0.40659139063E+02  0.00000000000E+00 0. -1.
         11    1    3    3    0    0 -0.59603766207E+01 -0.43176150010E+01 -0.61478602204E+01  0.95897901076E+01  0.51100000000E-03 0. -1.
        -11    1    3    3    0    0 -0.19836765670E+02  0.15000622405E+01 -0.16269488138E+02  0.25699099275E+02  0.51100000000E-03 0.  1.
         12    1    3    3    0    0 -0.12247545037E+01 -0.15035752697E+02 -0.21639894237E+01  0.15239971555E+02  0.00000000000E+00 0. -1.
</event>
<event>
 7    1  0.6624035E-013  0.5052886E+02  0.7816164E-02  0.1300439E+00
        -11   -1    0    0    0    0  0.00000000000E+00  0.00000000000E+00  0.45593999997E+02  0.45594000000E+02  0.51100000000E-03 0.  1.
         11   -1    0    0    0    0 -0.00000000000E+00 -0.00000000000E+00 -0.45593999997E+02  0.45594000000E+02  0.51100000000E-03 0. -1.
    9900012    2    1    2    0    0 -0.34794806746E+02  0.20981996600E+02  0.14975873262E+01  0.50528861720E+02  0.30000005685E+02 0.  0.
         12    1    1    2    0    0  0.34794806746E+02 -0.20981996600E+02 -0.14975873262E+01  0.40659138280E+02  0.00000000000E+00 0. -1.
         11    1    3    3    0    0  0.45155216050E+01  0.15672410952E+01 -0.11629755851E+01  0.49192166539E+01  0.51100000000E-03 0. -1.
        -11    1    3    3    0    0 -0.19903944170E+02  0.32172781039E+01  0.26202424186E+01  0.20331835690E+02  0.51100000000E-03 0.  1.
        -12    1    3    3    0    0 -0.19406384181E+02  0.16197477401E+02  0.40320492692E-01  0.25277809377E+02  0.00000000000E+00 0.  1.
</event>
<event>
 7    1  0.6624035E-013  0.5052886E+02  0.7816164E-02  0.1300439E+00
        -11   -1    0    0    0    0  0.00000000000E+00  0.00000000000E+00  0.45593999997E+02  0.45594000000E+02  0.51100000000E-03 0.  1.
         11   -1    0    0    0    0 -0.00000000000E+00 -0.00000000000E+00 -0.45593999997E+02  0.45594000000E+02  0.51100000000E-03 0. -1.
    9900012    2    1    2    0    0 -0.37183324415E+00 -0.26449857828E+02  0.30877699290E+02  0.50528861389E+02  0.30000004679E+02 0.  0.
         12    1    1    2    0    0  0.37183324415E+00  0.26449857828E+02 -0.30877699290E+02  0.40659138611E+02  0.00000000000E+00 0. -1.
         11    1    3    3    0    0  0.28307283349E+01  0.19221361516E+01  0.32730510199E+01  0.47350283559E+01  0.51100000000E-03 0. -1.
        -11    1    3    3    0    0 -0.67522737632E+01 -0.75886200594E+00  0.30429548799E+00  0.68015930871E+01  0.51100000000E-03 0.  1.
        -12    1    3    3    0    0  0.35497121842E+01 -0.27613131974E+02  0.27300352783E+02  0.38992239946E+02  0.00000000000E+00 0.  1.
</event>
<event>
 7    1  0.6624035E-013  0.5052886E+02  0.7816164E-02  0.1300439E+00
        -11   -1    0    0    0    0  0.00000000000E+00  0.00000000000E+00  0.45593999997E+02  0.45594000000E+02  0.51100000000E-03 0.  1.
         11   -1    0    0    0    0 -0.00000000000E+00 -0.00000000000E+00 -0.45593999997E+02  0.45594000000E+02  0.51100000000E-03 0. -1.
    9900012    2    1    2    0    0 -0.33759508590E+02  0.14274131380E+02  0.17598586598E+02  0.50528862071E+02  0.30000006751E+02 0.  0.
         12    1    1    2    0    0  0.33759508590E+02 -0.14274131380E+02 -0.17598586598E+02  0.40659137929E+02  0.00000000000E+00 0. -1.
         11    1    3    3    0    0 -0.19634019511E+02  0.11197488415E+02  0.18165122310E+02  0.28997416053E+02  0.51100000000E-03 0. -1.
        -11    1    3    3    0    0 -0.88167281633E+01  0.19651308467E+01  0.75477223202E+01  0.11771344326E+02  0.51100000000E-03 0.  1.
         12    1    3    3    0    0 -0.53087609151E+01  0.11115121185E+01 -0.81142580314E+01  0.97601016923E+01  0.00000000000E+00 0. -1.
</event>
<event>
 7    1  0.6624035E-013  0.5052885E+02  0.7816164E-02  0.1300439E+00
        -11   -1    0    0    0    0  0.00000000000E+00  0.00000000000E+00  0.45593999997E+02  0.45594000000E+02  0.51100000000E-03 0. -1.
         11   -1    0    0    0    0 -0.00000000000E+00 -0.00000000000E+00 -0.45593999997E+02  0.45594000000E+02  0.51100000000E-03 0.  1.
    9900012    2    1    2    0    0 -0.34002300544E+02 -0.21463412085E+02  0.60276143249E+01  0.50528848077E+02  0.29999964215E+02 0.  0.
         12    1    1    2    0    0  0.34002300544E+02  0.21463412085E+02 -0.60276143249E+01  0.40659151923E+02  0.00000000000E+00 0. -1.
         11    1    3    3    0    0  0.19223792505E+01 -0.59740192994E+01  0.29038240620E+01  0.69149579186E+01  0.51100000000E-03 0. -1.
        -11    1    3    3    0    0 -0.68839060676E+01 -0.50203255731E+01  0.87748988113E+01  0.12230726921E+02  0.51100000000E-03 0.  1.
        -12    1    3    3    0    0 -0.29040773727E+02 -0.10469067213E+02 -0.56511085484E+01  0.31383163238E+02  0.00000000000E+00 0.  1.
</event>
<event>
 7    1  0.6624035E-013  0.5052878E+02  0.7816164E-02  0.1300439E+00
        -11   -1    0    0    0    0  0.00000000000E+00  0.00000000000E+00  0.45593999997E+02  0.45594000000E+02  0.51100000000E-03 0.  1.
         11   -1    0    0    0    0 -0.00000000000E+00 -0.00000000000E+00 -0.45593999997E+02  0.45594000000E+02  0.51100000000E-03 0. -1.
    9900012    2    1    2    0    0 -0.16289836774E+02 -0.18732621581E+02  0.32200969169E+02  0.50528778305E+02  0.29999752134E+02 0.  0.
         12    1    1    2    0    0  0.16289836774E+02  0.18732621581E+02 -0.32200969169E+02  0.40659221695E+02  0.00000000000E+00 0. -1.
         11    1    3    3    0    0  0.38402040573E+01 -0.32586311333E+01 -0.10181695849E+01  0.51383376328E+01  0.51100000000E-03 0. -1.
        -11    1    3    3    0    0  0.21691596567E+01 -0.64125354932E+01  0.58942827961E+01  0.89759921463E+01  0.51100000000E-03 0.  1.
         12    1    3    3    0    0 -0.22299200488E+02 -0.90614549549E+01  0.27324855958E+02  0.36414448526E+02  0.00000000000E+00 0. -1.
</event>
<event>
 7    1  0.6624035E-013  0.5052885E+02  0.7816164E-02  0.1300439E+00
        -11   -1    0    0    0    0  0.00000000000E+00  0.00000000000E+00  0.45593999997E+02  0.45594000000E+02  0.51100000000E-03 0.  1.
         11   -1    0    0    0    0 -0.00000000000E+00 -0.00000000000E+00 -0.45593999997E+02  0.45594000000E+02  0.51100000000E-03 0. -1.
    9900012    2    1    2    0    0 -0.14957330808E+02 -0.13681818330E+02  0.35245603781E+02  0.50528849940E+02  0.29999969879E+02 0.  0.
         12    1    1    2    0    0  0.14957330808E+02  0.13681818330E+02 -0.35245603781E+02  0.40659150060E+02  0.00000000000E+00 0. -1.
         11    1    3    3    0    0  0.67259544911E-01  0.11889885451E+01  0.39852947767E+01  0.41594221143E+01  0.51100000000E-03 0. -1.
        -11    1    3    3    0    0 -0.18668670114E+02 -0.35478634042E+00  0.21619893604E+02  0.28566849964E+02  0.51100000000E-03 0.  1.
         12    1    3    3    0    0  0.36440797605E+01 -0.14516020534E+02  0.96404154000E+01  0.17802577862E+02  0.00000000000E+00 0. -1.
</event>
<event>
 7    1  0.6624035E-013  0.5052885E+02  0.7816164E-02  0.1300439E+00
        -11   -1    0    0    0    0  0.00000000000E+00  0.00000000000E+00  0.45593999997E+02  0.45594000000E+02  0.51100000000E-03 0.  1.
         11   -1    0    0    0    0 -0.00000000000E+00 -0.00000000000E+00 -0.45593999997E+02  0.45594000000E+02  0.51100000000E-03 0. -1.
    9900012    2    1    2    0    0  0.34966363888E+02 -0.18769215381E+02  0.88451284057E+01  0.50528851631E+02  0.29999975018E+02 0.  0.
         12    1    1    2    0    0 -0.34966363888E+02  0.18769215381E+02 -0.88451284057E+01  0.40659148369E+02  0.00000000000E+00 0. -1.
         11    1    3    3    0    0  0.22133889459E+02 -0.75955911674E+01  0.13496021697E+02  0.27013786659E+02  0.51100000000E-03 0. -1.
        -11    1    3    3    0    0  0.79920823738E+01 -0.45253840229E+01  0.53015138629E+01  0.10604646657E+02  0.51100000000E-03 0.  1.
         12    1    3    3    0    0  0.48403920551E+01 -0.66482401911E+01 -0.99524071547E+01  0.12910418315E+02  0.00000000000E+00 0. -1.
</event>
<event>
 7    1  0.6624035E-013  0.5052885E+02  0.7816164E-02  0.1300439E+00
        -11   -1    0    0    0    0  0.00000000000E+00  0.00000000000E+00  0.45593999997E+02  0.45594000000E+02  0.51100000000E-03 0. -1.
         11   -1    0    0    0    0 -0.00000000000E+00 -0.00000000000E+00 -0.45593999997E+02  0.45594000000E+02  0.51100000000E-03 0.  1.
    9900012    2    1    2    0    0 -0.97650634767E+01 -0.39356761867E+02  0.29758282382E+01  0.50528846996E+02  0.29999960928E+02 0.  0.
         12    1    1    2    0    0  0.97650634767E+01  0.39356761867E+02 -0.29758282382E+01  0.40659153004E+02  0.00000000000E+00 0. -1.
         11    1    3    3    0    0 -0.32108088027E+01 -0.78314369867E+00  0.26388380217E+01  0.42291930183E+01  0.51100000000E-03 0. -1.
        -11    1    3    3    0    0  0.17827769027E+01  0.19043419610E+01 -0.39677469014E+01  0.47484552776E+01  0.51100000000E-03 0.  1.
        -12    1    3    3    0    0 -0.83370315767E+01 -0.40477960129E+02  0.43047371179E+01  0.41551198700E+02  0.00000000000E+00 0.  1.
</event>
<event>
 7    1  0.6624035E-013  0.5052886E+02  0.7816164E-02  0.1300439E+00
        -11   -1    0    0    0    0  0.00000000000E+00  0.00000000000E+00  0.45593999997E+02  0.45594000000E+02  0.51100000000E-03 0.  1.
         11   -1    0    0    0    0 -0.00000000000E+00 -0.00000000000E+00 -0.45593999997E+02  0.45594000000E+02  0.51100000000E-03 0. -1.
    9900012    2    1    2    0    0  0.19297870157E+01 -0.35963457323E+02  0.18869852306E+02  0.50528859987E+02  0.30000000415E+02 0.  0.
         12    1    1    2    0    0 -0.19297870157E+01  0.35963457323E+02 -0.18869852306E+02  0.40659140013E+02  0.00000000000E+00 0. -1.
         11    1    3    3    0    0  0.80180175948E+01 -0.40489789411E+01 -0.54614532277E+00  0.89989505828E+01  0.51100000000E-03 0. -1.
        -11    1    3    3    0    0  0.50514243527E+01 -0.33849209850E+01  0.34409314213E+01  0.69867436888E+01  0.51100000000E-03 0.  1.
        -12    1    3    3    0    0 -0.11139654932E+02 -0.28529557397E+02  0.15975066207E+02  0.34543165715E+02  0.00000000000E+00 0.  1.
</event>
<event>
 7    1  0.6624035E-013  0.5052886E+02  0.7816164E-02  0.1300439E+00
        -11   -1    0    0    0    0  0.00000000000E+00  0.00000000000E+00  0.45593999997E+02  0.45594000000E+02  0.51100000000E-03 0.  1.
         11   -1    0    0    0    0 -0.00000000000E+00 -0.00000000000E+00 -0.45593999997E+02  0.45594000000E+02  0.51100000000E-03 0. -1.
    9900012    2    1    2    0    0  0.32165276439E+02  0.21247896867E+02 -0.12926226103E+02  0.50528862639E+02  0.30000008478E+02 0.  0.
         12    1    1    2    0    0 -0.32165276439E+02 -0.21247896867E+02  0.12926226103E+02  0.40659137361E+02  0.00000000000E+00 0. -1.
         11    1    3    3    0    0  0.40766278445E+01 -0.57994383475E+00  0.21557121452E+01  0.46478300903E+01  0.51100000000E-03 0. -1.
        -11    1    3    3    0    0  0.32501594798E+02  0.20338410276E+02 -0.15143952954E+02  0.41223099208E+02  0.51100000000E-03 0.  1.
         12    1    3    3    0    0 -0.44129462033E+01  0.14894304256E+01  0.62014706172E-01  0.46579333411E+01  0.00000000000E+00 0. -1.
</event>
<event>
 7    1  0.6624035E-013  0.5052885E+02  0.7816164E-02  0.1300439E+00
        -11   -1    0    0    0    0  0.00000000000E+00  0.00000000000E+00  0.45593999997E+02  0.45594000000E+02  0.51100000000E-03 0.  1.
         11   -1    0    0    0    0 -0.00000000000E+00 -0.00000000000E+00 -0.45593999997E+02  0.45594000000E+02  0.51100000000E-03 0. -1.
    9900012    2    1    2    0    0  0.38699109596E+01 -0.26016293873E+02  0.31005525664E+02  0.50528851221E+02  0.29999973772E+02 0.  0.
         12    1    1    2    0    0 -0.38699109596E+01  0.26016293873E+02 -0.31005525664E+02  0.40659148779E+02  0.00000000000E+00 0. -1.
         11    1    3    3    0    0 -0.64366960657E+01 -0.62679861753E+01  0.21660369694E+01  0.92417759846E+01  0.51100000000E-03 0. -1.
        -11    1    3    3    0    0 -0.46219390102E+01 -0.10012269213E+02  0.68505648657E+01  0.12982222239E+02  0.51100000000E-03 0.  1.
        -12    1    3    3    0    0  0.14928546035E+02 -0.97360384843E+01  0.21988923829E+02  0.28304852998E+02  0.00000000000E+00 0.  1.
</event>
<event>
 7    1  0.6624035E-013  0.5052886E+02  0.7816164E-02  0.1300439E+00
        -11   -1    0    0    0    0  0.00000000000E+00  0.00000000000E+00  0.45593999997E+02  0.45594000000E+02  0.51100000000E-03 0. -1.
         11   -1    0    0    0    0 -0.00000000000E+00 -0.00000000000E+00 -0.45593999997E+02  0.45594000000E+02  0.51100000000E-03 0.  1.
    9900012    2    1    2    0    0 -0.12564960483E+02 -0.38150662452E+02 -0.63098660128E+01  0.50528859742E+02  0.29999999670E+02 0.  0.
         12    1    1    2    0    0  0.12564960483E+02  0.38150662452E+02  0.63098660128E+01  0.40659140258E+02  0.00000000000E+00 0. -1.
         11    1    3    3    0    0  0.42542501098E+01 -0.39552162929E+01 -0.91579190493E+01  0.10844808043E+02  0.51100000000E-03 0. -1.
        -11    1    3    3    0    0  0.94418403887E+00 -0.70264327042E+01 -0.95386406674E-01  0.70902284078E+01  0.51100000000E-03 0.  1.
         12    1    3    3    0    0 -0.17763394631E+02 -0.27169013455E+02  0.29434394431E+01  0.32593823290E+02  0.00000000000E+00 0. -1.
</event>
<event>
 7    1  0.6624035E-013  0.5052886E+02  0.7816164E-02  0.1300439E+00
        -11   -1    0    0    0    0  0.00000000000E+00  0.00000000000E+00  0.45593999997E+02  0.45594000000E+02  0.51100000000E-03 0.  1.
         11   -1    0    0    0    0 -0.00000000000E+00 -0.00000000000E+00 -0.45593999997E+02  0.45594000000E+02  0.51100000000E-03 0. -1.
    9900012    2    1    2    0    0  0.20217037781E+02 -0.17955728461E+02  0.30364925317E+02  0.50528862150E+02  0.30000006991E+02 0.  0.
         12    1    1    2    0    0 -0.20217037781E+02  0.17955728461E+02 -0.30364925317E+02  0.40659137850E+02  0.00000000000E+00 0. -1.
         11    1    3    3    0    0  0.17208805629E+02 -0.11196355345E+02  0.19303629922E+02  0.28180338760E+02  0.51100000000E-03 0. -1.
        -11    1    3    3    0    0  0.19955100337E+01  0.24537122359E+01  0.12566620170E+02  0.12958499403E+02  0.51100000000E-03 0.  1.
         12    1    3    3    0    0  0.10127221184E+01 -0.92130853523E+01 -0.15053247752E+01  0.93900239870E+01  0.00000000000E+00 0. -1.
</event>
<event>
 7    1  0.7279577E-013  0.5052884E+02  0.7816164E-02  0.1300439E+00
        -11   -1    0    0    0    0  0.00000000000E+00  0.00000000000E+00  0.45593999997E+02  0.45594000000E+02  0.51100000000E-03 0. -1.
         11   -1    0    0    0    0 -0.00000000000E+00 -0.00000000000E+00 -0.45593999997E+02  0.45594000000E+02  0.51100000000E-03 0.  1.
    9900012    2    1    2    0    0  0.35499815444E+02  0.11714393099E+02 -0.15990731910E+02  0.50528838557E+02  0.29999935277E+02 0.  0.
         12    1    1    2    0    0 -0.35499815444E+02 -0.11714393099E+02  0.15990731910E+02  0.40659161443E+02  0.00000000000E+00 0. -1.
         11    1    3    3    0    0  0.99572861729E+01  0.86784361996E+01 -0.11401011421E+02  0.17448377130E+02  0.51100000000E-03 0. -1.
        -11    1    3    3    0    0  0.14273656967E+02  0.13687027081E+00 -0.12529982113E+02  0.18993590200E+02  0.51100000000E-03 0.  1.
         12    1    3    3    0    0  0.11268872304E+02  0.28990866289E+01  0.79402616240E+01  0.14086871226E+02  0.00000000000E+00 0. -1.
</event>
<event>
 7    1  0.6624035E-013  0.5052886E+02  0.7816164E-02  0.1300439E+00
        -11   -1    0    0    0    0  0.00000000000E+00  0.00000000000E+00  0.45593999997E+02  0.45594000000E+02  0.51100000000E-03 0. -1.
         11   -1    0    0    0    0 -0.00000000000E+00 -0.00000000000E+00 -0.45593999997E+02  0.45594000000E+02  0.51100000000E-03 0.  1.
    9900012    2    1    2    0    0  0.25920782475E+02 -0.28924576282E+02 -0.12026954984E+02  0.50528859289E+02  0.29999998293E+02 0.  0.
         12    1    1    2    0    0 -0.25920782475E+02  0.28924576282E+02  0.12026954984E+02  0.40659140711E+02  0.00000000000E+00 0. -1.
         11    1    3    3    0    0  0.26305723929E+00 -0.29479940914E+01  0.40796374532E+01  0.50401696682E+01  0.51100000000E-03 0. -1.
        -11    1    3    3    0    0  0.19189998674E+02 -0.26232847521E+02 -0.53575043073E+01  0.32941177739E+02  0.51100000000E-03 0.  1.
        -12    1    3    3    0    0  0.64677265616E+01  0.25626533021E+00 -0.10749088129E+02  0.12547511881E+02  0.00000000000E+00 0.  1.
</event>
<event>
 7    1  0.6624035E-013  0.5052886E+02  0.7816164E-02  0.1300439E+00
        -11   -1    0    0    0    0  0.00000000000E+00  0.00000000000E+00  0.45593999997E+02  0.45594000000E+02  0.51100000000E-03 0.  1.
         11   -1    0    0    0    0 -0.00000000000E+00 -0.00000000000E+00 -0.45593999997E+02  0.45594000000E+02  0.51100000000E-03 0. -1.
    9900012    2    1    2    0    0 -0.33159610428E+02  0.19070071371E+02  0.13781797152E+02  0.50528864266E+02  0.30000013424E+02 0.  0.
         12    1    1    2    0    0  0.33159610428E+02 -0.19070071371E+02 -0.13781797152E+02  0.40659135734E+02  0.00000000000E+00 0. -1.
         11    1    3    3    0    0  0.17066793797E+01  0.43732712925E+00  0.42624976843E+00  0.18126496212E+01  0.51100000000E-03 0. -1.
        -11    1    3    3    0    0 -0.35665943702E-01  0.10046542646E+02  0.70984035721E+01  0.12301285491E+02  0.51100000000E-03 0.  1.
        -12    1    3    3    0    0 -0.34830623864E+02  0.85862015959E+01  0.62571438113E+01  0.36414929154E+02  0.00000000000E+00 0.  1.
</event>
<event>
 7    1  0.6624035E-013  0.5052886E+02  0.7816164E-02  0.1300439E+00
        -11   -1    0    0    0    0  0.00000000000E+00  0.00000000000E+00  0.45593999997E+02  0.45594000000E+02  0.51100000000E-03 0.  1.
         11   -1    0    0    0    0 -0.00000000000E+00 -0.00000000000E+00 -0.45593999997E+02  0.45594000000E+02  0.51100000000E-03 0. -1.
    9900012    2    1    2    0    0  0.28662835305E+02 -0.21358276387E+01  0.28758400591E+02  0.50528862135E+02  0.30000006944E+02 0.  0.
         12    1    1    2    0    0 -0.28662835305E+02  0.21358276387E+01 -0.28758400591E+02  0.40659137865E+02  0.00000000000E+00 0. -1.
         11    1    3    3    0    0 -0.65380809027E+00  0.56531282209E+01  0.92827683530E+01  0.10888301624E+02  0.51100000000E-03 0. -1.
        -11    1    3    3    0    0  0.13821058758E+02 -0.11790664742E+02  0.13172631557E+02  0.22440135086E+02  0.51100000000E-03 0.  1.
         12    1    3    3    0    0  0.15495584636E+02  0.40017088827E+01  0.63030006808E+01  0.17200425425E+02  0.00000000000E+00 0. -1.
</event>
<event>
 7    1  0.6624035E-013  0.5052886E+02  0.7816164E-02  0.1300439E+00
        -11   -1    0    0    0    0  0.00000000000E+00  0.00000000000E+00  0.45593999997E+02  0.45594000000E+02  0.51100000000E-03 0.  1.
         11   -1    0    0    0    0 -0.00000000000E+00 -0.00000000000E+00 -0.45593999997E+02  0.45594000000E+02  0.51100000000E-03 0. -1.
    9900012    2    1    2    0    0 -0.11521716553E+02  0.81324938299E+01  0.38134999267E+02  0.50528861085E+02  0.30000003754E+02 0.  0.
         12    1    1    2    0    0  0.11521716553E+02 -0.81324938299E+01 -0.38134999267E+02  0.40659138915E+02  0.00000000000E+00 0. -1.
         11    1    3    3    0    0 -0.58737984699E+00 -0.59374337457E+01 -0.50761413131E+00  0.59879718550E+01  0.51100000000E-03 0. -1.
        -11    1    3    3    0    0 -0.92002087146E+00  0.11162482637E+02  0.15174883549E+02  0.18860661388E+02  0.51100000000E-03 0.  1.
        -12    1    3    3    0    0 -0.10014315834E+02  0.29074449389E+01  0.23467729850E+02  0.25680227842E+02  0.00000000000E+00 0.  1.
</event>
<event>
 7    1  0.6624035E-013  0.5052886E+02  0.7816164E-02  0.1300439E+00
        -11   -1    0    0    0    0  0.00000000000E+00  0.00000000000E+00  0.45593999997E+02  0.45594000000E+02  0.51100000000E-03 0.  1.
         11   -1    0    0    0    0 -0.00000000000E+00 -0.00000000000E+00 -0.45593999997E+02  0.45594000000E+02  0.51100000000E-03 0. -1.
    9900012    2    1    2    0    0  0.24665271993E+02  0.33145790960E+01  0.32152819899E+02  0.50528857061E+02  0.29999991522E+02 0.  0.
         12    1    1    2    0    0 -0.24665271993E+02 -0.33145790960E+01 -0.32152819899E+02  0.40659142939E+02  0.00000000000E+00 0. -1.
         11    1    3    3    0    0  0.84466795316E+01  0.11814663735E+02  0.23652039368E+02  0.27755209256E+02  0.51100000000E-03 0.  1.
        -11    1    3    3    0    0  0.66944761209E+00  0.24253505254E+00 -0.19661758302E+01  0.20911315151E+01  0.51100000000E-03 0. -1.
        -12    1    3    3    0    0  0.15549144850E+02 -0.87426196915E+01  0.10466956361E+02  0.20682516290E+02  0.00000000000E+00 0.  1.
</event>
<event>
 7    1  0.6624035E-013  0.5052886E+02  0.7816164E-02  0.1300439E+00
        -11   -1    0    0    0    0  0.00000000000E+00  0.00000000000E+00  0.45593999997E+02  0.45594000000E+02  0.51100000000E-03 0.  1.
         11   -1    0    0    0    0 -0.00000000000E+00 -0.00000000000E+00 -0.45593999997E+02  0.45594000000E+02  0.51100000000E-03 0. -1.
    9900012    2    1    2    0    0 -0.37173839415E+02  0.15859159861E+02  0.44450529571E+01  0.50528858541E+02  0.29999996022E+02 0.  0.
         12    1    1    2    0    0  0.37173839415E+02 -0.15859159861E+02 -0.44450529571E+01  0.40659141459E+02  0.00000000000E+00 0. -1.
         11    1    3    3    0    0 -0.81465945286E+01  0.16852717222E+02  0.34428299240E+01  0.19032450140E+02  0.51100000000E-03 0.  1.
        -11    1    3    3    0    0 -0.10200340936E+02  0.10544635138E+01 -0.52922343241E+01  0.11539783054E+02  0.51100000000E-03 0. -1.
        -12    1    3    3    0    0 -0.18826903950E+02 -0.20480208745E+01  0.62944573573E+01  0.19956625348E+02  0.00000000000E+00 0.  1.
</event>
<event>
 7    1  0.6624035E-013  0.5052887E+02  0.7816164E-02  0.1300439E+00
        -11   -1    0    0    0    0  0.00000000000E+00  0.00000000000E+00  0.45593999997E+02  0.45594000000E+02  0.51100000000E-03 0. -1.
         11   -1    0    0    0    0 -0.00000000000E+00 -0.00000000000E+00 -0.45593999997E+02  0.45594000000E+02  0.51100000000E-03 0.  1.
    9900012    2    1    2    0    0  0.31003895623E+02  0.24467673099E+02 -0.96569343799E+01  0.50528868771E+02  0.30000027117E+02 0.  0.
         12    1    1    2    0    0 -0.31003895623E+02 -0.24467673099E+02  0.96569343799E+01  0.40659131229E+02  0.00000000000E+00 0. -1.
         11    1    3    3    0    0  0.16417124410E+02  0.22575003627E+02 -0.56132142643E+01  0.28472108058E+02  0.51100000000E-03 0.  1.
        -11    1    3    3    0    0  0.22852524336E+01  0.63091514923E+01 -0.57993753497E+01  0.88690769501E+01  0.51100000000E-03 0. -1.
         12    1    3    3    0    0  0.12301518780E+02 -0.44164820206E+01  0.17556552342E+01  0.13187683763E+02  0.00000000000E+00 0. -1.
</event>
<event>
 7    1  0.6624035E-013  0.5052886E+02  0.7816164E-02  0.1300439E+00
        -11   -1    0    0    0    0  0.00000000000E+00  0.00000000000E+00  0.45593999997E+02  0.45594000000E+02  0.51100000000E-03 0.  1.
         11   -1    0    0    0    0 -0.00000000000E+00 -0.00000000000E+00 -0.45593999997E+02  0.45594000000E+02  0.51100000000E-03 0. -1.
    9900012    2    1    2    0    0 -0.91638425462E+01  0.24544271530E+02  0.31092896308E+02  0.50528862331E+02  0.30000007542E+02 0.  0.
         12    1    1    2    0    0  0.91638425462E+01 -0.24544271530E+02 -0.31092896308E+02  0.40659137669E+02  0.00000000000E+00 0. -1.
         11    1    3    3    0    0  0.31861660499E+01 -0.25343986634E+00  0.82253850616E+00  0.33003720576E+01  0.51100000000E-03 0. -1.
        -11    1    3    3    0    0 -0.68373958307E+01 -0.27624188307E+01  0.10640625711E+02  0.12946190765E+02  0.51100000000E-03 0.  1.
        -12    1    3    3    0    0 -0.55126127653E+01  0.27560130227E+02  0.19629732090E+02  0.34282299509E+02  0.00000000000E+00 0.  1.
</event>
<event>
 7    1  0.6624035E-013  0.5052886E+02  0.7816164E-02  0.1300439E+00
        -11   -1    0    0    0    0  0.00000000000E+00  0.00000000000E+00  0.45593999997E+02  0.45594000000E+02  0.51100000000E-03 0.  1.
         11   -1    0    0    0    0 -0.00000000000E+00 -0.00000000000E+00 -0.45593999997E+02  0.45594000000E+02  0.51100000000E-03 0. -1.
    9900012    2    1    2    0    0  0.15155935335E+02  0.14397331969E+02  0.34873775612E+02  0.50528858726E+02  0.29999996583E+02 0.  0.
         12    1    1    2    0    0 -0.15155935335E+02 -0.14397331969E+02 -0.34873775612E+02  0.40659141274E+02  0.00000000000E+00 0. -1.
         11    1    3    3    0    0 -0.32757180419E+01  0.84576035011E+00  0.44351411012E+01  0.55781821509E+01  0.51100000000E-03 0. -1.
        -11    1    3    3    0    0  0.48192601850E+01 -0.67358875489E+01  0.10768480384E+02  0.13585198558E+02  0.51100000000E-03 0.  1.
        -12    1    3    3    0    0  0.13612393192E+02  0.20287459168E+02  0.19670154126E+02  0.31365478017E+02  0.00000000000E+00 0.  1.
</event>
<event>
 7    1  0.6624035E-013  0.5052887E+02  0.7816164E-02  0.1300439E+00
        -11   -1    0    0    0    0  0.00000000000E+00  0.00000000000E+00  0.45593999997E+02  0.45594000000E+02  0.51100000000E-03 0.  1.
         11   -1    0    0    0    0 -0.00000000000E+00 -0.00000000000E+00 -0.45593999997E+02  0.45594000000E+02  0.51100000000E-03 0. -1.
    9900012    2    1    2    0    0 -0.60560808250E+01 -0.89670671170E+01  0.39192862480E+02  0.50528869697E+02  0.30000029931E+02 0.  0.
         12    1    1    2    0    0  0.60560808250E+01  0.89670671170E+01 -0.39192862480E+02  0.40659130303E+02  0.00000000000E+00 0. -1.
         11    1    3    3    0    0 -0.87063503045E+01 -0.29173715363E+01  0.38260175246E+01  0.99473615932E+01  0.51100000000E-03 0. -1.
        -11    1    3    3    0    0 -0.36505270536E+01 -0.73446125544E+01  0.51433999952E+01  0.96811282976E+01  0.51100000000E-03 0.  1.
         12    1    3    3    0    0  0.63007965331E+01  0.12949169737E+01  0.30223444960E+02  0.30900379806E+02  0.00000000000E+00 0. -1.
</event>
<event>
 7    1  0.6624035E-013  0.5052887E+02  0.7816164E-02  0.1300439E+00
        -11   -1    0    0    0    0  0.00000000000E+00  0.00000000000E+00  0.45593999997E+02  0.45594000000E+02  0.51100000000E-03 0.  1.
         11   -1    0    0    0    0 -0.00000000000E+00 -0.00000000000E+00 -0.45593999997E+02  0.45594000000E+02  0.51100000000E-03 0. -1.
    9900012    2    1    2    0    0  0.46010404696E+00 -0.40313768427E+02 -0.52681336716E+01  0.50528869994E+02  0.30000030832E+02 0.  0.
         12    1    1    2    0    0 -0.46010404696E+00  0.40313768427E+02  0.52681336716E+01  0.40659130006E+02  0.00000000000E+00 0. -1.
         11    1    3    3    0    0 -0.39018829394E+00 -0.37071903045E+00 -0.12886130425E+01  0.13964968094E+01  0.51100000000E-03 0. -1.
        -11    1    3    3    0    0 -0.10460431767E+02 -0.31772938848E+02 -0.84125490315E+01  0.34492191251E+02  0.51100000000E-03 0.  1.
         12    1    3    3    0    0  0.11310724108E+02 -0.81701105480E+01  0.44330284024E+01  0.14640181933E+02  0.00000000000E+00 0. -1.
</event>
<event>
 7    1  0.6624035E-013  0.5052888E+02  0.7816164E-02  0.1300439E+00
        -11   -1    0    0    0    0  0.00000000000E+00  0.00000000000E+00  0.45593999997E+02  0.45594000000E+02  0.51100000000E-03 0.  1.
         11   -1    0    0    0    0 -0.00000000000E+00 -0.00000000000E+00 -0.45593999997E+02  0.45594000000E+02  0.51100000000E-03 0. -1.
    9900012    2    1    2    0    0  0.13587910661E+02  0.29985411203E+02 -0.23862265905E+02  0.50528881277E+02  0.30000065130E+02 0.  0.
         12    1    1    2    0    0 -0.13587910661E+02 -0.29985411203E+02  0.23862265905E+02  0.40659118723E+02  0.00000000000E+00 0. -1.
         11    1    3    3    0    0 -0.56767945144E+00 -0.14701638945E+01 -0.90594202320E+01  0.91954737256E+01  0.51100000000E-03 0. -1.
        -11    1    3    3    0    0 -0.18880246990E+01  0.44437957415E+01 -0.77554504068E+01  0.91355880561E+01  0.51100000000E-03 0.  1.
        -12    1    3    3    0    0  0.16043614812E+02  0.27011779356E+02 -0.70473952666E+01  0.32197819496E+02  0.00000000000E+00 0.  1.
</event>
<event>
 7    1  0.6624035E-013  0.5052884E+02  0.7816164E-02  0.1300439E+00
        -11   -1    0    0    0    0  0.00000000000E+00  0.00000000000E+00  0.45593999997E+02  0.45594000000E+02  0.51100000000E-03 0.  1.
         11   -1    0    0    0    0 -0.00000000000E+00 -0.00000000000E+00 -0.45593999997E+02  0.45594000000E+02  0.51100000000E-03 0. -1.
    9900012    2    1    2    0    0 -0.82809970483E+01 -0.35538205445E+02  0.17933994709E+02  0.50528842057E+02  0.29999945918E+02 0.  0.
         12    1    1    2    0    0  0.82809970483E+01  0.35538205445E+02 -0.17933994709E+02  0.40659157943E+02  0.00000000000E+00 0. -1.
         11    1    3    3    0    0  0.21843330506E+01 -0.16723493929E+01 -0.14411673912E+01  0.31056443902E+01  0.51100000000E-03 0. -1.
        -11    1    3    3    0    0  0.81907702861E+01 -0.11975851081E+02  0.70730958542E+01  0.16141202316E+02  0.51100000000E-03 0.  1.
        -12    1    3    3    0    0 -0.18656100385E+02 -0.21890004972E+02  0.12302066246E+02  0.31281995351E+02  0.00000000000E+00 0.  1.
</event>
<event>
 7    1  0.6624035E-013  0.5052884E+02  0.7816164E-02  0.1300439E+00
        -11   -1    0    0    0    0  0.00000000000E+00  0.00000000000E+00  0.45593999997E+02  0.45594000000E+02  0.51100000000E-03 0. -1.
         11   -1    0    0    0    0 -0.00000000000E+00 -0.00000000000E+00 -0.45593999997E+02  0.45594000000E+02  0.51100000000E-03 0.  1.
    9900012    2    1    2    0    0 -0.32151514673E+02  0.32382066114E+01 -0.24677138685E+02  0.50528842957E+02  0.29999948651E+02 0.  0.
         12    1    1    2    0    0  0.32151514673E+02 -0.32382066114E+01  0.24677138685E+02  0.40659157043E+02  0.00000000000E+00 0. -1.
         11    1    3    3    0    0 -0.19144056168E+02 -0.50722405040E+01 -0.23732978304E+02  0.30910787271E+02  0.51100000000E-03 0.  1.
        -11    1    3    3    0    0 -0.13139657355E-02  0.31824988262E+01  0.37055185903E+01  0.48845848124E+01  0.51100000000E-03 0. -1.
        -12    1    3    3    0    0 -0.13006144539E+02  0.51279482891E+01 -0.46496789714E+01  0.14733470873E+02  0.00000000000E+00 0.  1.
</event>
<event>
 7    1  0.6624035E-013  0.5052887E+02  0.7816164E-02  0.1300439E+00
        -11   -1    0    0    0    0  0.00000000000E+00  0.00000000000E+00  0.45593999997E+02  0.45594000000E+02  0.51100000000E-03 0.  1.
         11   -1    0    0    0    0 -0.00000000000E+00 -0.00000000000E+00 -0.45593999997E+02  0.45594000000E+02  0.51100000000E-03 0. -1.
    9900012    2    1    2    0    0 -0.12938634725E+02  0.36801938701E+02 -0.11461828378E+02  0.50528874696E+02  0.30000045126E+02 0.  0.
         12    1    1    2    0    0  0.12938634725E+02 -0.36801938701E+02  0.11461828378E+02  0.40659125304E+02  0.00000000000E+00 0. -1.
         11    1    3    3    0    0 -0.58968044646E+01  0.44124644565E+01 -0.26400341772E+01  0.78238050968E+01  0.51100000000E-03 0. -1.
        -11    1    3    3    0    0 -0.93340356986E+01  0.93558101004E+01 -0.13714911754E+02  0.19046107469E+02  0.51100000000E-03 0.  1.
         12    1    3    3    0    0  0.22922054385E+01  0.23033664144E+02  0.48931175531E+01  0.23658962130E+02  0.00000000000E+00 0. -1.
</event>
<event>
 7    1  0.6624035E-013  0.5052885E+02  0.7816164E-02  0.1300439E+00
        -11   -1    0    0    0    0  0.00000000000E+00  0.00000000000E+00  0.45593999997E+02  0.45594000000E+02  0.51100000000E-03 0.  1.
         11   -1    0    0    0    0 -0.00000000000E+00 -0.00000000000E+00 -0.45593999997E+02  0.45594000000E+02  0.51100000000E-03 0. -1.
    9900012    2    1    2    0    0 -0.33233731252E+02  0.16966737472E+02  0.16149770864E+02  0.50528853768E+02  0.29999981513E+02 0.  0.
         12    1    1    2    0    0  0.33233731252E+02 -0.16966737472E+02 -0.16149770864E+02  0.40659146232E+02  0.00000000000E+00 0. -1.
         11    1    3    3    0    0 -0.64257155270E+01 -0.12616725799E+01  0.30450926281E-01  0.65484780868E+01  0.51100000000E-03 0. -1.
        -11    1    3    3    0    0 -0.30762364679E+01  0.16240487645E+02  0.30276519611E+01  0.16804265720E+02  0.51100000000E-03 0.  1.
         12    1    3    3    0    0 -0.23731779257E+02  0.19879224071E+01  0.13091667976E+02  0.27176109961E+02  0.00000000000E+00 0. -1.
</event>
<event>
 7    1  0.6624035E-013  0.5052886E+02  0.7816164E-02  0.1300439E+00
        -11   -1    0    0    0    0  0.00000000000E+00  0.00000000000E+00  0.45593999997E+02  0.45594000000E+02  0.51100000000E-03 0. -1.
         11   -1    0    0    0    0 -0.00000000000E+00 -0.00000000000E+00 -0.45593999997E+02  0.45594000000E+02  0.51100000000E-03 0.  1.
    9900012    2    1    2    0    0  0.28873043077E+02 -0.63037361287E+01 -0.27924467830E+02  0.50528860692E+02  0.30000002558E+02 0.  0.
         12    1    1    2    0    0 -0.28873043077E+02  0.63037361287E+01  0.27924467830E+02  0.40659139308E+02  0.00000000000E+00 0. -1.
         11    1    3    3    0    0  0.77606836052E+01 -0.93153572869E+01 -0.15139059260E+02  0.19395752291E+02  0.51100000000E-03 0. -1.
        -11    1    3    3    0    0  0.55645989933E+01 -0.53261571865E-01 -0.14172178895E+02  0.15225578927E+02  0.51100000000E-03 0.  1.
         12    1    3    3    0    0  0.15547760478E+02  0.30648827300E+01  0.13867703245E+01  0.15907529474E+02  0.00000000000E+00 0. -1.
</event>
<event>
 7    1  0.6624035E-013  0.5052886E+02  0.7816164E-02  0.1300439E+00
        -11   -1    0    0    0    0  0.00000000000E+00  0.00000000000E+00  0.45593999997E+02  0.45594000000E+02  0.51100000000E-03 0. -1.
         11   -1    0    0    0    0 -0.00000000000E+00 -0.00000000000E+00 -0.45593999997E+02  0.45594000000E+02  0.51100000000E-03 0.  1.
    9900012    2    1    2    0    0 -0.38589973704E+02  0.54551894390E+01 -0.11585347017E+02  0.50528862924E+02  0.30000009343E+02 0.  0.
         12    1    1    2    0    0  0.38589973704E+02 -0.54551894390E+01  0.11585347017E+02  0.40659137076E+02  0.00000000000E+00 0. -1.
         11    1    3    3    0    0 -0.17314523410E+02 -0.38156309986E+01  0.13114187751E+00  0.17730452879E+02  0.51100000000E-03 0. -1.
        -11    1    3    3    0    0 -0.95168444146E+01 -0.55755636203E+01 -0.76633250184E+01  0.13430703179E+02  0.51100000000E-03 0.  1.
        -12    1    3    3    0    0 -0.11758605879E+02  0.14846384058E+02 -0.40531638765E+01  0.19367706865E+02  0.00000000000E+00 0.  1.
</event>
<event>
 7    1  0.6624035E-013  0.5052885E+02  0.7816164E-02  0.1300439E+00
        -11   -1    0    0    0    0  0.00000000000E+00  0.00000000000E+00  0.45593999997E+02  0.45594000000E+02  0.51100000000E-03 0.  1.
         11   -1    0    0    0    0 -0.00000000000E+00 -0.00000000000E+00 -0.45593999997E+02  0.45594000000E+02  0.51100000000E-03 0. -1.
    9900012    2    1    2    0    0  0.22804916447E+02 -0.15497581819E+02  0.29881882096E+02  0.50528854239E+02  0.29999982946E+02 0.  0.
         12    1    1    2    0    0 -0.22804916447E+02  0.15497581819E+02 -0.29881882096E+02  0.40659145761E+02  0.00000000000E+00 0. -1.
         11    1    3    3    0    0  0.11085659648E+00  0.41746172232E+00  0.10456847831E+02  0.10465764678E+02  0.51100000000E-03 0. -1.
        -11    1    3    3    0    0  0.17226826180E+02 -0.14286413435E+02  0.23951954658E+02  0.32780501541E+02  0.51100000000E-03 0.  1.
         12    1    3    3    0    0  0.54672336709E+01 -0.16286301058E+01 -0.45269203931E+01  0.72825880206E+01  0.00000000000E+00 0. -1.
</event>
<event>
 7    1  0.6624035E-013  0.5052885E+02  0.7816164E-02  0.1300439E+00
        -11   -1    0    0    0    0  0.00000000000E+00  0.00000000000E+00  0.45593999997E+02  0.45594000000E+02  0.51100000000E-03 0.  1.
         11   -1    0    0    0    0 -0.00000000000E+00 -0.00000000000E+00 -0.45593999997E+02  0.45594000000E+02  0.51100000000E-03 0. -1.
    9900012    2    1    2    0    0  0.10621931933E+02 -0.25889507173E+02  0.29497019854E+02  0.50528853428E+02  0.29999980480E+02 0.  0.
         12    1    1    2    0    0 -0.10621931933E+02  0.25889507173E+02 -0.29497019854E+02  0.40659146572E+02  0.00000000000E+00 0. -1.
         11    1    3    3    0    0 -0.70197869048E+00 -0.14496371747E+02  0.24513876700E+01  0.14718928958E+02  0.51100000000E-03 0. -1.
        -11    1    3    3    0    0  0.25891758161E+01 -0.13778803218E+02  0.13133041103E+02  0.19210310211E+02  0.51100000000E-03 0.  1.
        -12    1    3    3    0    0  0.87347348079E+01  0.23856677913E+01  0.13912591081E+02  0.16599614259E+02  0.00000000000E+00 0.  1.
</event>
<event>
 7    1  0.6624035E-013  0.5052887E+02  0.7816164E-02  0.1300439E+00
        -11   -1    0    0    0    0  0.00000000000E+00  0.00000000000E+00  0.45593999997E+02  0.45594000000E+02  0.51100000000E-03 0. -1.
         11   -1    0    0    0    0 -0.00000000000E+00 -0.00000000000E+00 -0.45593999997E+02  0.45594000000E+02  0.51100000000E-03 0.  1.
    9900012    2    1    2    0    0  0.20980673366E+02 -0.32792403961E+02 -0.11731778505E+02  0.50528867701E+02  0.30000023864E+02 0.  0.
         12    1    1    2    0    0 -0.20980673366E+02  0.32792403961E+02  0.11731778505E+02  0.40659132299E+02  0.00000000000E+00 0. -1.
         11    1    3    3    0    0  0.10320506112E+01  0.15317994642E+01 -0.13498683781E+00  0.18519610606E+01  0.51100000000E-03 0. -1.
        -11    1    3    3    0    0 -0.41407220903E+01 -0.54339297207E+01 -0.85410915903E+01  0.10937249081E+02  0.51100000000E-03 0.  1.
        -12    1    3    3    0    0  0.24089344845E+02 -0.28890273704E+02 -0.30557000768E+01  0.37739657560E+02  0.00000000000E+00 0.  1.
</event>
<event>
 7    1  0.6624035E-013  0.5052885E+02  0.7816164E-02  0.1300439E+00
        -11   -1    0    0    0    0  0.00000000000E+00  0.00000000000E+00  0.45593999997E+02  0.45594000000E+02  0.51100000000E-03 0.  1.
         11   -1    0    0    0    0 -0.00000000000E+00 -0.00000000000E+00 -0.45593999997E+02  0.45594000000E+02  0.51100000000E-03 0. -1.
    9900012    2    1    2    0    0 -0.31565181772E+02  0.17194604413E+02  0.19003990955E+02  0.50528846130E+02  0.29999958298E+02 0.  0.
         12    1    1    2    0    0  0.31565181772E+02 -0.17194604413E+02 -0.19003990955E+02  0.40659153870E+02  0.00000000000E+00 0. -1.
         11    1    3    3    0    0 -0.11489736944E+02 -0.24979794365E+01  0.65013844526E+01  0.13435845949E+02  0.51100000000E-03 0. -1.
        -11    1    3    3    0    0 -0.17208807101E+02  0.35582014179E+01  0.10779566320E+02  0.20615598208E+02  0.51100000000E-03 0.  1.
        -12    1    3    3    0    0 -0.28666377260E+01  0.16134382432E+02  0.17230401821E+01  0.16477401973E+02  0.00000000000E+00 0.  1.
</event>
<event>
 7    1  0.6624035E-013  0.5052886E+02  0.7816164E-02  0.1300439E+00
        -11   -1    0    0    0    0  0.00000000000E+00  0.00000000000E+00  0.45593999997E+02  0.45594000000E+02  0.51100000000E-03 0. -1.
         11   -1    0    0    0    0 -0.00000000000E+00 -0.00000000000E+00 -0.45593999997E+02  0.45594000000E+02  0.51100000000E-03 0.  1.
    9900012    2    1    2    0    0 -0.20208753483E+02  0.34512850537E+02 -0.73235960794E+01  0.50528860448E+02  0.30000001819E+02 0.  0.
         12    1    1    2    0    0  0.20208753483E+02 -0.34512850537E+02  0.73235960794E+01  0.40659139552E+02  0.00000000000E+00 0. -1.
         11    1    3    3    0    0 -0.10049705453E+02  0.56950620807E+01  0.68654561483E+01  0.13437440239E+02  0.51100000000E-03 0. -1.
        -11    1    3    3    0    0 -0.67175306965E+00 -0.19480982805E+01 -0.11113032185E+01  0.23412249361E+01  0.51100000000E-03 0.  1.
        -12    1    3    3    0    0 -0.94872949602E+01  0.30765886737E+02 -0.13077749009E+02  0.34750195273E+02  0.00000000000E+00 0.  1.
</event>
<event>
 7    1  0.6624035E-013  0.5052881E+02  0.7816164E-02  0.1300439E+00
        -11   -1    0    0    0    0  0.00000000000E+00  0.00000000000E+00  0.45593999997E+02  0.45594000000E+02  0.51100000000E-03 0.  1.
         11   -1    0    0    0    0 -0.00000000000E+00 -0.00000000000E+00 -0.45593999997E+02  0.45594000000E+02  0.51100000000E-03 0. -1.
    9900012    2    1    2    0    0  0.96972533478E+01  0.12113892673E+02  0.37581729775E+02  0.50528812464E+02  0.29999855967E+02 0.  0.
         12    1    1    2    0    0 -0.96972533478E+01 -0.12113892673E+02 -0.37581729775E+02  0.40659187536E+02  0.00000000000E+00 0. -1.
         11    1    3    3    0    0  0.38357991139E+01  0.44968956893E+01  0.34302070831E+01  0.68338676148E+01  0.51100000000E-03 0. -1.
        -11    1    3    3    0    0  0.82865123290E+01  0.15693770017E+02  0.28393766336E+02  0.33483827005E+02  0.51100000000E-03 0.  1.
         12    1    3    3    0    0 -0.24250580951E+01 -0.80767730326E+01  0.57577563560E+01  0.10211117845E+02  0.00000000000E+00 0. -1.
</event>
<event>
 7    1  0.6624035E-013  0.5052887E+02  0.7816164E-02  0.1300439E+00
        -11   -1    0    0    0    0  0.00000000000E+00  0.00000000000E+00  0.45593999997E+02  0.45594000000E+02  0.51100000000E-03 0.  1.
         11   -1    0    0    0    0 -0.00000000000E+00 -0.00000000000E+00 -0.45593999997E+02  0.45594000000E+02  0.51100000000E-03 0. -1.
    9900012    2    1    2    0    0  0.15937243655E+02  0.34532670144E+02 -0.14375807467E+02  0.50528869624E+02  0.30000029710E+02 0.  0.
         12    1    1    2    0    0 -0.15937243655E+02 -0.34532670144E+02  0.14375807467E+02  0.40659130376E+02  0.00000000000E+00 0. -1.
         11    1    3    3    0    0  0.58189600311E+01 -0.20743687209E+01 -0.52751556688E+01  0.81234579475E+01  0.51100000000E-03 0. -1.
        -11    1    3    3    0    0  0.48480863294E+01  0.27620133483E+01  0.26712094804E+01  0.61861150283E+01  0.51100000000E-03 0.  1.
         12    1    3    3    0    0  0.52701972942E+01  0.33845025517E+02 -0.11771861278E+02  0.36219296648E+02  0.00000000000E+00 0. -1.
</event>
<event>
 7    1  0.6624035E-013  0.5052886E+02  0.7816164E-02  0.1300439E+00
        -11   -1    0    0    0    0  0.00000000000E+00  0.00000000000E+00  0.45593999997E+02  0.45594000000E+02  0.51100000000E-03 0.  1.
         11   -1    0    0    0    0 -0.00000000000E+00 -0.00000000000E+00 -0.45593999997E+02  0.45594000000E+02  0.51100000000E-03 0. -1.
    9900012    2    1    2    0    0 -0.34757344291E+02 -0.10708628583E+02  0.18177401577E+02  0.50528860359E+02  0.30000001547E+02 0.  0.
         12    1    1    2    0    0  0.34757344291E+02  0.10708628583E+02 -0.18177401577E+02  0.40659139641E+02  0.00000000000E+00 0. -1.
         11    1    3    3    0    0 -0.87256738363E+00  0.75793510144E+00 -0.30759122912E+01  0.32858904640E+01  0.51100000000E-03 0. -1.
        -11    1    3    3    0    0 -0.18040620177E+02 -0.21806616078E+01 -0.12288650101E+01  0.18213439293E+02  0.51100000000E-03 0.  1.
        -12    1    3    3    0    0 -0.15844156730E+02 -0.92859020766E+01  0.22482178878E+02  0.29029530602E+02  0.00000000000E+00 0.  1.
</event>
<event>
 7    1  0.6624035E-013  0.5052885E+02  0.7816164E-02  0.1300439E+00
        -11   -1    0    0    0    0  0.00000000000E+00  0.00000000000E+00  0.45593999997E+02  0.45594000000E+02  0.51100000000E-03 0. -1.
         11   -1    0    0    0    0 -0.00000000000E+00 -0.00000000000E+00 -0.45593999997E+02  0.45594000000E+02  0.51100000000E-03 0.  1.
    9900012    2    1    2    0    0 -0.24276748688E+02  0.93743057873E+01  0.31239848031E+02  0.50528852925E+02  0.29999978952E+02 0.  0.
         12    1    1    2    0    0  0.24276748688E+02 -0.93743057873E+01 -0.31239848031E+02  0.40659147075E+02  0.00000000000E+00 0. -1.
         11    1    3    3    0    0 -0.10113740687E+02  0.81244654957E+01  0.15788893990E+02  0.20434868827E+02  0.51100000000E-03 0. -1.
        -11    1    3    3    0    0 -0.32853499059E+01  0.10833616756E+02  0.71126818509E+01  0.13369780080E+02  0.51100000000E-03 0.  1.
        -12    1    3    3    0    0 -0.10877658095E+02 -0.95837764642E+01  0.83382721896E+01  0.16724204019E+02  0.00000000000E+00 0.  1.
</event>
<event>
 7    1  0.6624035E-013  0.5052887E+02  0.7816164E-02  0.1300439E+00
        -11   -1    0    0    0    0  0.00000000000E+00  0.00000000000E+00  0.45593999997E+02  0.45594000000E+02  0.51100000000E-03 0.  1.
         11   -1    0    0    0    0 -0.00000000000E+00 -0.00000000000E+00 -0.45593999997E+02  0.45594000000E+02  0.51100000000E-03 0. -1.
    9900012    2    1    2    0    0 -0.24937933053E+02 -0.31065216487E+02 -0.81373779214E+01  0.50528866957E+02  0.30000021604E+02 0.  0.
         12    1    1    2    0    0  0.24937933053E+02  0.31065216487E+02  0.81373779214E+01  0.40659133043E+02  0.00000000000E+00 0. -1.
         11    1    3    3    0    0  0.26375904011E+01 -0.51639751754E+01 -0.58337769582E+01  0.82253557124E+01  0.51100000000E-03 0. -1.
        -11    1    3    3    0    0 -0.14675053562E+01 -0.13062974313E+02 -0.53666025066E+00  0.13156096471E+02  0.51100000000E-03 0.  1.
         12    1    3    3    0    0 -0.26108018098E+02 -0.12838266999E+02 -0.17669407125E+01  0.29147414774E+02  0.00000000000E+00 0. -1.
</event>
<event>
 7    1  0.6624035E-013  0.5052886E+02  0.7816164E-02  0.1300439E+00
        -11   -1    0    0    0    0  0.00000000000E+00  0.00000000000E+00  0.45593999997E+02  0.45594000000E+02  0.51100000000E-03 0.  1.
         11   -1    0    0    0    0 -0.00000000000E+00 -0.00000000000E+00 -0.45593999997E+02  0.45594000000E+02  0.51100000000E-03 0. -1.
    9900012    2    1    2    0    0 -0.35877876117E+02 -0.87897477587E+01  0.16990705603E+02  0.50528859119E+02  0.29999997779E+02 0.  0.
         12    1    1    2    0    0  0.35877876117E+02  0.87897477587E+01 -0.16990705603E+02  0.40659140881E+02  0.00000000000E+00 0. -1.
         11    1    3    3    0    0  0.79839326772E+00 -0.49171895686E+01 -0.14797926194E+01  0.51967270008E+01  0.51100000000E-03 0.  1.
        -11    1    3    3    0    0 -0.13400337045E+00  0.37850403137E+01  0.27226166764E+00  0.37971849779E+01  0.51100000000E-03 0. -1.
        -12    1    3    3    0    0 -0.36542266014E+02 -0.76575985039E+01  0.18198236554E+02  0.41534947140E+02  0.00000000000E+00 0.  1.
</event>
<event>
 7    1  0.6624035E-013  0.5052886E+02  0.7816164E-02  0.1300439E+00
        -11   -1    0    0    0    0  0.00000000000E+00  0.00000000000E+00  0.45593999997E+02  0.45594000000E+02  0.51100000000E-03 0.  1.
         11   -1    0    0    0    0 -0.00000000000E+00 -0.00000000000E+00 -0.45593999997E+02  0.45594000000E+02  0.51100000000E-03 0. -1.
    9900012    2    1    2    0    0 -0.10180394529E+02  0.15442720778E+02  0.36208386672E+02  0.50528864210E+02  0.30000013253E+02 0.  0.
         12    1    1    2    0    0  0.10180394529E+02 -0.15442720778E+02 -0.36208386672E+02  0.40659135790E+02  0.00000000000E+00 0. -1.
         11    1    3    3    0    0  0.12216050743E+00  0.90362576377E+01  0.51493649980E+01  0.10401193942E+02  0.51100000000E-03 0. -1.
        -11    1    3    3    0    0 -0.81019267738E+01  0.13950618989E+02  0.14058367338E+02  0.21398567244E+02  0.51100000000E-03 0.  1.
        -12    1    3    3    0    0 -0.22006282625E+01 -0.75441558484E+01  0.17000654336E+02  0.18729103024E+02  0.00000000000E+00 0.  1.
</event>
<event>
 7    1  0.6624035E-013  0.5052885E+02  0.7816164E-02  0.1300439E+00
        -11   -1    0    0    0    0  0.00000000000E+00  0.00000000000E+00  0.45593999997E+02  0.45594000000E+02  0.51100000000E-03 0.  1.
         11   -1    0    0    0    0 -0.00000000000E+00 -0.00000000000E+00 -0.45593999997E+02  0.45594000000E+02  0.51100000000E-03 0. -1.
    9900012    2    1    2    0    0  0.11166110158E+01 -0.13571385723E+02  0.38311056746E+02  0.50528850973E+02  0.29999973019E+02 0.  0.
         12    1    1    2    0    0 -0.11166110158E+01  0.13571385723E+02 -0.38311056746E+02  0.40659149027E+02  0.00000000000E+00 0. -1.
         11    1    3    3    0    0 -0.14797444438E+00  0.77649178048E+00 -0.26447130372E+01  0.27603157847E+01  0.51100000000E-03 0. -1.
        -11    1    3    3    0    0 -0.45116819655E+01  0.33918086747E+00  0.76301345717E+00  0.45883011688E+01  0.51100000000E-03 0.  1.
        -12    1    3    3    0    0  0.57762674257E+01 -0.14687058371E+02  0.40192756326E+02  0.43180234020E+02  0.00000000000E+00 0.  1.
</event>
<event>
 7    1  0.6624035E-013  0.5052886E+02  0.7816164E-02  0.1300439E+00
        -11   -1    0    0    0    0  0.00000000000E+00  0.00000000000E+00  0.45593999997E+02  0.45594000000E+02  0.51100000000E-03 0.  1.
         11   -1    0    0    0    0 -0.00000000000E+00 -0.00000000000E+00 -0.45593999997E+02  0.45594000000E+02  0.51100000000E-03 0. -1.
    9900012    2    1    2    0    0 -0.14060656965E+02 -0.33363274599E+01  0.38004378866E+02  0.50528856278E+02  0.29999989142E+02 0.  0.
         12    1    1    2    0    0  0.14060656965E+02  0.33363274599E+01 -0.38004378866E+02  0.40659143722E+02  0.00000000000E+00 0. -1.
         11    1    3    3    0    0  0.12364995724E+01 -0.75440258015E+01  0.90856398316E-01  0.76452280302E+01  0.51100000000E-03 0. -1.
        -11    1    3    3    0    0 -0.12968249717E+02 -0.10162817225E+01  0.18292926957E+02  0.22446369555E+02  0.51100000000E-03 0.  1.
        -12    1    3    3    0    0 -0.23289068205E+01  0.52239800641E+01  0.19620595511E+02  0.20437258693E+02  0.00000000000E+00 0.  1.
</event>
<event>
 7    1  0.6624035E-013  0.5052886E+02  0.7816164E-02  0.1300439E+00
        -11   -1    0    0    0    0  0.00000000000E+00  0.00000000000E+00  0.45593999997E+02  0.45594000000E+02  0.51100000000E-03 0. -1.
         11   -1    0    0    0    0 -0.00000000000E+00 -0.00000000000E+00 -0.45593999997E+02  0.45594000000E+02  0.51100000000E-03 0.  1.
    9900012    2    1    2    0    0  0.79880401799E+01  0.14070713987E+02 -0.37301093820E+02  0.50528863534E+02  0.30000011197E+02 0.  0.
         12    1    1    2    0    0 -0.79880401799E+01 -0.14070713987E+02  0.37301093820E+02  0.40659136466E+02  0.00000000000E+00 0. -1.
         11    1    3    3    0    0  0.44539259238E+01  0.31949504262E+01  0.41397901859E+01  0.68689902755E+01  0.51100000000E-03 0. -1.
        -11    1    3    3    0    0  0.37190029688E+00 -0.12007474238E+01 -0.36316179394E+01  0.38430135734E+01  0.51100000000E-03 0.  1.
        -12    1    3    3    0    0  0.31622139592E+01  0.12076510984E+02 -0.37809266067E+02  0.39816859685E+02  0.00000000000E+00 0.  1.
</event>
<event>
 7    1  0.6624035E-013  0.5052885E+02  0.7816164E-02  0.1300439E+00
        -11   -1    0    0    0    0  0.00000000000E+00  0.00000000000E+00  0.45593999997E+02  0.45594000000E+02  0.51100000000E-03 0. -1.
         11   -1    0    0    0    0 -0.00000000000E+00 -0.00000000000E+00 -0.45593999997E+02  0.45594000000E+02  0.51100000000E-03 0.  1.
    9900012    2    1    2    0    0  0.25915649049E+02  0.18796233319E+02  0.25064858380E+02  0.50528851236E+02  0.29999973816E+02 0.  0.
         12    1    1    2    0    0 -0.25915649049E+02 -0.18796233319E+02 -0.25064858380E+02  0.40659148764E+02  0.00000000000E+00 0. -1.
         11    1    3    3    0    0  0.19612894697E+02  0.52595145103E+01  0.77926812385E+01  0.21749804882E+02  0.51100000000E-03 0. -1.
        -11    1    3    3    0    0  0.69674092773E+01 -0.21527023115E+01  0.60926775474E+01  0.95026122323E+01  0.51100000000E-03 0.  1.
         12    1    3    3    0    0 -0.66465492486E+00  0.15689421120E+02  0.11179499594E+02  0.19276434121E+02  0.00000000000E+00 0. -1.
</event>
<event>
 7    1  0.6624035E-013  0.5052886E+02  0.7816164E-02  0.1300439E+00
        -11   -1    0    0    0    0  0.00000000000E+00  0.00000000000E+00  0.45593999997E+02  0.45594000000E+02  0.51100000000E-03 0.  1.
         11   -1    0    0    0    0 -0.00000000000E+00 -0.00000000000E+00 -0.45593999997E+02  0.45594000000E+02  0.51100000000E-03 0. -1.
    9900012    2    1    2    0    0 -0.38114186687E+02  0.53922625429E+01  0.13091909690E+02  0.50528858083E+02  0.29999994629E+02 0.  0.
         12    1    1    2    0    0  0.38114186687E+02 -0.53922625429E+01 -0.13091909690E+02  0.40659141917E+02  0.00000000000E+00 0. -1.
         11    1    3    3    0    0 -0.17299259403E+02  0.27010802346E+01 -0.14755976697E+01  0.17570930513E+02  0.51100000000E-03 0. -1.
        -11    1    3    3    0    0 -0.21970592741E+02 -0.43625699546E+01  0.11509173772E+02  0.25183328676E+02  0.51100000000E-03 0.  1.
        -12    1    3    3    0    0  0.11556654581E+01  0.70537522629E+01  0.30583335877E+01  0.77745988945E+01  0.00000000000E+00 0.  1.
</event>
<event>
 7    1  0.6624035E-013  0.5052886E+02  0.7816164E-02  0.1300439E+00
        -11   -1    0    0    0    0  0.00000000000E+00  0.00000000000E+00  0.45593999997E+02  0.45594000000E+02  0.51100000000E-03 0. -1.
         11   -1    0    0    0    0 -0.00000000000E+00 -0.00000000000E+00 -0.45593999997E+02  0.45594000000E+02  0.51100000000E-03 0.  1.
    9900012    2    1    2    0    0  0.16332193604E+02 -0.33358567785E+02 -0.16541794617E+02  0.50528861277E+02  0.30000004336E+02 0.  0.
         12    1    1    2    0    0 -0.16332193604E+02  0.33358567785E+02  0.16541794617E+02  0.40659138723E+02  0.00000000000E+00 0. -1.
         11    1    3    3    0    0 -0.20233299890E+01 -0.12874176384E+02 -0.30544117666E+01  0.13385354433E+02  0.51100000000E-03 0. -1.
        -11    1    3    3    0    0  0.79125799490E+00 -0.11499857388E+02 -0.13047161641E+02  0.17409802879E+02  0.51100000000E-03 0.  1.
         12    1    3    3    0    0  0.17564265598E+02 -0.89845340134E+01 -0.44022120942E+00  0.19733703964E+02  0.00000000000E+00 0. -1.
</event>
<event>
 7    1  0.6624035E-013  0.5052886E+02  0.7816164E-02  0.1300439E+00
        -11   -1    0    0    0    0  0.00000000000E+00  0.00000000000E+00  0.45593999997E+02  0.45594000000E+02  0.51100000000E-03 0.  1.
         11   -1    0    0    0    0 -0.00000000000E+00 -0.00000000000E+00 -0.45593999997E+02  0.45594000000E+02  0.51100000000E-03 0. -1.
    9900012    2    1    2    0    0 -0.26313471875E+01 -0.37497385890E+02  0.15497983980E+02  0.50528862724E+02  0.30000008736E+02 0.  0.
         12    1    1    2    0    0  0.26313471875E+01  0.37497385890E+02 -0.15497983980E+02  0.40659137276E+02  0.00000000000E+00 0. -1.
         11    1    3    3    0    0 -0.89393795795E+01 -0.57372013466E+01  0.79539290119E+01  0.13270002771E+02  0.51100000000E-03 0. -1.
        -11    1    3    3    0    0 -0.43332338946E+01 -0.22442648715E+01 -0.39061635924E+00  0.48955308394E+01  0.51100000000E-03 0.  1.
        -12    1    3    3    0    0  0.10641266287E+02 -0.29515919672E+02  0.79346713273E+01  0.32363329114E+02  0.00000000000E+00 0.  1.
</event>
<event>
 7    1  0.6624035E-013  0.5052887E+02  0.7816164E-02  0.1300439E+00
        -11   -1    0    0    0    0  0.00000000000E+00  0.00000000000E+00  0.45593999997E+02  0.45594000000E+02  0.51100000000E-03 0.  1.
         11   -1    0    0    0    0 -0.00000000000E+00 -0.00000000000E+00 -0.45593999997E+02  0.45594000000E+02  0.51100000000E-03 0. -1.
    9900012    2    1    2    0    0 -0.38280265237E+02  0.13064551829E+02  0.41356298336E+01  0.50528872424E+02  0.30000038219E+02 0.  0.
         12    1    1    2    0    0  0.38280265237E+02 -0.13064551829E+02 -0.41356298336E+01  0.40659127576E+02  0.00000000000E+00 0. -1.
         11    1    3    3    0    0 -0.73139379042E+01 -0.19508666923E-01  0.89648040936E+01  0.11569865209E+02  0.51100000000E-03 0. -1.
        -11    1    3    3    0    0 -0.25318364191E+01  0.52204241927E+01  0.52079422477E+01  0.77965176279E+01  0.51100000000E-03 0.  1.
         12    1    3    3    0    0 -0.28434490914E+02  0.78636363036E+01 -0.10037116508E+02  0.31162489587E+02  0.00000000000E+00 0. -1.
</event>
<event>
 7    1  0.6624035E-013  0.5052886E+02  0.7816164E-02  0.1300439E+00
        -11   -1    0    0    0    0  0.00000000000E+00  0.00000000000E+00  0.45593999997E+02  0.45594000000E+02  0.51100000000E-03 0. -1.
         11   -1    0    0    0    0 -0.00000000000E+00 -0.00000000000E+00 -0.45593999997E+02  0.45594000000E+02  0.51100000000E-03 0.  1.
    9900012    2    1    2    0    0  0.10852404878E+02 -0.39066386563E+02  0.30345396509E+01  0.50528859802E+02  0.29999999853E+02 0.  0.
         12    1    1    2    0    0 -0.10852404878E+02  0.39066386563E+02 -0.30345396509E+01  0.40659140198E+02  0.00000000000E+00 0. -1.
         11    1    3    3    0    0  0.37424697360E+01 -0.29803318806E+02 -0.80978965893E+01  0.31109802652E+02  0.51100000000E-03 0. -1.
        -11    1    3    3    0    0 -0.86366795120E+00 -0.50729160122E+01  0.61001659191E-01  0.51462725015E+01  0.51100000000E-03 0.  1.
         12    1    3    3    0    0  0.79736030936E+01 -0.41901517449E+01  0.11071434581E+02  0.14272784648E+02  0.00000000000E+00 0. -1.
</event>
<event>
 7    1  0.6624035E-013  0.5052884E+02  0.7816164E-02  0.1300439E+00
        -11   -1    0    0    0    0  0.00000000000E+00  0.00000000000E+00  0.45593999997E+02  0.45594000000E+02  0.51100000000E-03 0.  1.
         11   -1    0    0    0    0 -0.00000000000E+00 -0.00000000000E+00 -0.45593999997E+02  0.45594000000E+02  0.51100000000E-03 0. -1.
    9900012    2    1    2    0    0 -0.43606797175E+01  0.11650951553E+02  0.38709259864E+02  0.50528843603E+02  0.29999950617E+02 0.  0.
         12    1    1    2    0    0  0.43606797175E+01 -0.11650951553E+02 -0.38709259864E+02  0.40659156397E+02  0.00000000000E+00 0. -1.
         11    1    3    3    0    0 -0.66065608933E+01  0.44477201034E+01  0.75605907479E+00  0.80000304087E+01  0.51100000000E-03 0.  1.
        -11    1    3    3    0    0 -0.72264365984E+01  0.49177166315E+01  0.23723285630E+02  0.25282397120E+02  0.51100000000E-03 0. -1.
         12    1    3    3    0    0  0.94723177742E+01  0.22855148177E+01  0.14229915159E+02  0.17246416075E+02  0.00000000000E+00 0. -1.
</event>
<event>
 7    1  0.6624035E-013  0.5052885E+02  0.7816164E-02  0.1300439E+00
        -11   -1    0    0    0    0  0.00000000000E+00  0.00000000000E+00  0.45593999997E+02  0.45594000000E+02  0.51100000000E-03 0. -1.
         11   -1    0    0    0    0 -0.00000000000E+00 -0.00000000000E+00 -0.45593999997E+02  0.45594000000E+02  0.51100000000E-03 0.  1.
    9900012    2    1    2    0    0  0.40902640025E+01 -0.99963680168E+01 -0.39198326371E+02  0.50528850680E+02  0.29999972128E+02 0.  0.
         12    1    1    2    0    0 -0.40902640025E+01  0.99963680168E+01  0.39198326371E+02  0.40659149320E+02  0.00000000000E+00 0. -1.
         11    1    3    3    0    0 -0.39732833378E+01 -0.77366984820E+01 -0.10081926819E+02  0.13314981507E+02  0.51100000000E-03 0. -1.
        -11    1    3    3    0    0 -0.49623591387E+01  0.16329027858E+01 -0.20414485343E+02  0.21072318140E+02  0.51100000000E-03 0.  1.
         12    1    3    3    0    0  0.13025906479E+02 -0.38925723206E+01 -0.87019142095E+01  0.16141551034E+02  0.00000000000E+00 0. -1.
</event>
<event>
 7    1  0.6624035E-013  0.5052886E+02  0.7816164E-02  0.1300439E+00
        -11   -1    0    0    0    0  0.00000000000E+00  0.00000000000E+00  0.45593999997E+02  0.45594000000E+02  0.51100000000E-03 0.  1.
         11   -1    0    0    0    0 -0.00000000000E+00 -0.00000000000E+00 -0.45593999997E+02  0.45594000000E+02  0.51100000000E-03 0. -1.
    9900012    2    1    2    0    0  0.16052202942E+02 -0.19748772725E+02  0.31709282132E+02  0.50528858141E+02  0.29999994804E+02 0.  0.
         12    1    1    2    0    0 -0.16052202942E+02  0.19748772725E+02 -0.31709282132E+02  0.40659141859E+02  0.00000000000E+00 0. -1.
         11    1    3    3    0    0  0.72499957998E+01  0.46930155871E+01  0.56607530553E+01  0.10326226795E+02  0.51100000000E-03 0. -1.
        -11    1    3    3    0    0  0.45552077034E+01 -0.35561310712E+01 -0.89580037541E+00  0.58479435694E+01  0.51100000000E-03 0.  1.
        -12    1    3    3    0    0  0.42469994387E+01 -0.20885657241E+02  0.26944329452E+02  0.34354687777E+02  0.00000000000E+00 0.  1.
</event>
<event>
 7    1  0.6624035E-013  0.5052885E+02  0.7816164E-02  0.1300439E+00
        -11   -1    0    0    0    0  0.00000000000E+00  0.00000000000E+00  0.45593999997E+02  0.45594000000E+02  0.51100000000E-03 0.  1.
         11   -1    0    0    0    0 -0.00000000000E+00 -0.00000000000E+00 -0.45593999997E+02  0.45594000000E+02  0.51100000000E-03 0. -1.
    9900012    2    1    2    0    0  0.37702572656E+02  0.68727076052E+01 -0.13581171669E+02  0.50528851969E+02  0.29999976044E+02 0.  0.
         12    1    1    2    0    0 -0.37702572656E+02 -0.68727076052E+01  0.13581171669E+02  0.40659148031E+02  0.00000000000E+00 0. -1.
         11    1    3    3    0    0  0.31650407168E+00 -0.17855803188E+01 -0.39038557624E+01  0.43044816154E+01  0.51100000000E-03 0. -1.
        -11    1    3    3    0    0  0.27137215746E+02  0.88276446223E+01  0.43337742597E+01  0.28864119380E+02  0.51100000000E-03 0.  1.
         12    1    3    3    0    0  0.10248852839E+02 -0.16935669834E+00 -0.14011090166E+02  0.17360250973E+02  0.00000000000E+00 0. -1.
</event>
<event>
 7    1  0.6624035E-013  0.5052886E+02  0.7816164E-02  0.1300439E+00
        -11   -1    0    0    0    0  0.00000000000E+00  0.00000000000E+00  0.45593999997E+02  0.45594000000E+02  0.51100000000E-03 0. -1.
         11   -1    0    0    0    0 -0.00000000000E+00 -0.00000000000E+00 -0.45593999997E+02  0.45594000000E+02  0.51100000000E-03 0.  1.
    9900012    2    1    2    0    0 -0.20086291723E+02  0.27281333973E+02 -0.22481894265E+02  0.50528857507E+02  0.29999992878E+02 0.  0.
         12    1    1    2    0    0  0.20086291723E+02 -0.27281333973E+02  0.22481894265E+02  0.40659142493E+02  0.00000000000E+00 0. -1.
         11    1    3    3    0    0 -0.31533900753E+01  0.45890840118E+01 -0.19405658249E+01  0.58965546734E+01  0.51100000000E-03 0. -1.
        -11    1    3    3    0    0 -0.98130948142E+01 -0.22978182438E+01 -0.14987217469E+02  0.18060827396E+02  0.51100000000E-03 0.  1.
        -12    1    3    3    0    0 -0.71198068339E+01  0.24990068205E+02 -0.55541109713E+01  0.26571475437E+02  0.00000000000E+00 0.  1.
</event>
<event>
 7    1  0.6624035E-013  0.5052886E+02  0.7816164E-02  0.1300439E+00
        -11   -1    0    0    0    0  0.00000000000E+00  0.00000000000E+00  0.45593999997E+02  0.45594000000E+02  0.51100000000E-03 0. -1.
         11   -1    0    0    0    0 -0.00000000000E+00 -0.00000000000E+00 -0.45593999997E+02  0.45594000000E+02  0.51100000000E-03 0.  1.
    9900012    2    1    2    0    0  0.76062728029E+01 -0.35917784345E+02  0.17470645208E+02  0.50528855122E+02  0.29999985630E+02 0.  0.
         12    1    1    2    0    0 -0.76062728029E+01  0.35917784345E+02 -0.17470645208E+02  0.40659144878E+02  0.00000000000E+00 0. -1.
         11    1    3    3    0    0  0.14231450928E+02 -0.20892982007E+02 -0.59496550028E+00  0.25286456392E+02  0.51100000000E-03 0. -1.
        -11    1    3    3    0    0 -0.13645453129E+01 -0.66261956280E+01  0.34778807555E+01  0.76068460759E+01  0.51100000000E-03 0.  1.
         12    1    3    3    0    0 -0.52606328125E+01 -0.83986067101E+01  0.14587729953E+02  0.17635552655E+02  0.00000000000E+00 0. -1.
</event>
<event>
 7    1  0.6624035E-013  0.5052890E+02  0.7816164E-02  0.1300439E+00
        -11   -1    0    0    0    0  0.00000000000E+00  0.00000000000E+00  0.45593999997E+02  0.45594000000E+02  0.51100000000E-03 0.  1.
         11   -1    0    0    0    0 -0.00000000000E+00 -0.00000000000E+00 -0.45593999997E+02  0.45594000000E+02  0.51100000000E-03 0. -1.
    9900012    2    1    2    0    0  0.29476916020E+02 -0.13722706406E+02  0.24412318148E+02  0.50528898602E+02  0.30000117791E+02 0.  0.
         12    1    1    2    0    0 -0.29476916020E+02  0.13722706406E+02 -0.24412318148E+02  0.40659101398E+02  0.00000000000E+00 0. -1.
         11    1    3    3    0    0  0.16846451039E+02 -0.85740012156E+01  0.21224220586E+02  0.28421540233E+02  0.51100000000E-03 0.  1.
        -11    1    3    3    0    0 -0.16965982459E+01 -0.64997219952E+01  0.37735423639E+01  0.77048331491E+01  0.51100000000E-03 0. -1.
        -12    1    3    3    0    0  0.14327063226E+02  0.13510168053E+01 -0.58544480260E+00  0.14402525220E+02  0.00000000000E+00 0.  1.
</event>
<event>
 7    1  0.6624035E-013  0.5052886E+02  0.7816164E-02  0.1300439E+00
        -11   -1    0    0    0    0  0.00000000000E+00  0.00000000000E+00  0.45593999997E+02  0.45594000000E+02  0.51100000000E-03 0.  1.
         11   -1    0    0    0    0 -0.00000000000E+00 -0.00000000000E+00 -0.45593999997E+02  0.45594000000E+02  0.51100000000E-03 0. -1.
    9900012    2    1    2    0    0  0.86043721626E+01 -0.31238940983E+02  0.24561327721E+02  0.50528862362E+02  0.30000007634E+02 0.  0.
         12    1    1    2    0    0 -0.86043721626E+01  0.31238940983E+02 -0.24561327721E+02  0.40659137638E+02  0.00000000000E+00 0. -1.
         11    1    3    3    0    0  0.30773332376E+01 -0.26326528412E+01  0.38977388607E+01  0.56207836931E+01  0.51100000000E-03 0. -1.
        -11    1    3    3    0    0  0.74229540677E+01 -0.31571875587E+02  0.23772279963E+02  0.40211999081E+02  0.51100000000E-03 0.  1.
         12    1    3    3    0    0 -0.18959151428E+01  0.29655874448E+01 -0.31086911028E+01  0.46960795876E+01  0.00000000000E+00 0. -1.
</event>
<event>
 7    1  0.6624035E-013  0.5052886E+02  0.7816164E-02  0.1300439E+00
        -11   -1    0    0    0    0  0.00000000000E+00  0.00000000000E+00  0.45593999997E+02  0.45594000000E+02  0.51100000000E-03 0.  1.
         11   -1    0    0    0    0 -0.00000000000E+00 -0.00000000000E+00 -0.45593999997E+02  0.45594000000E+02  0.51100000000E-03 0. -1.
    9900012    2    1    2    0    0 -0.51942769554E+01  0.35853795396E+02  0.18457792721E+02  0.50528864870E+02  0.30000015259E+02 0.  0.
         12    1    1    2    0    0  0.51942769554E+01 -0.35853795396E+02 -0.18457792721E+02  0.40659135130E+02  0.00000000000E+00 0. -1.
         11    1    3    3    0    0  0.83211647882E+00 -0.14776044888E+01 -0.12318627149E+01  0.20960006845E+01  0.51100000000E-03 0. -1.
        -11    1    3    3    0    0 -0.71273578539E+00  0.49989740710E+01 -0.52280219242E+01  0.72684212566E+01  0.51100000000E-03 0.  1.
        -12    1    3    3    0    0 -0.53136576488E+01  0.32332425814E+02  0.24917677360E+02  0.41164442929E+02  0.00000000000E+00 0.  1.
</event>
<event>
 7    1  0.6624035E-013  0.5052884E+02  0.7816164E-02  0.1300439E+00
        -11   -1    0    0    0    0  0.00000000000E+00  0.00000000000E+00  0.45593999997E+02  0.45594000000E+02  0.51100000000E-03 0.  1.
         11   -1    0    0    0    0 -0.00000000000E+00 -0.00000000000E+00 -0.45593999997E+02  0.45594000000E+02  0.51100000000E-03 0. -1.
    9900012    2    1    2    0    0 -0.10125292963E+02  0.11701134572E+02  0.37599593658E+02  0.50528836812E+02  0.29999929974E+02 0.  0.
         12    1    1    2    0    0  0.10125292963E+02 -0.11701134572E+02 -0.37599593658E+02  0.40659163188E+02  0.00000000000E+00 0. -1.
         11    1    3    3    0    0 -0.47444483153E+00 -0.14878911615E+01  0.32578208534E+01  0.36127987739E+01  0.51100000000E-03 0. -1.
        -11    1    3    3    0    0 -0.98915981914E+01  0.11259085103E+02  0.39047167455E+02  0.41824538236E+02  0.51100000000E-03 0.  1.
         12    1    3    3    0    0  0.24075006004E+00  0.19299406308E+01 -0.47053946497E+01  0.50914998026E+01  0.00000000000E+00 0. -1.
</event>
<event>
 7    1  0.6624035E-013  0.5052886E+02  0.7816164E-02  0.1300439E+00
        -11   -1    0    0    0    0  0.00000000000E+00  0.00000000000E+00  0.45593999997E+02  0.45594000000E+02  0.51100000000E-03 0. -1.
         11   -1    0    0    0    0 -0.00000000000E+00 -0.00000000000E+00 -0.45593999997E+02  0.45594000000E+02  0.51100000000E-03 0.  1.
    9900012    2    1    2    0    0 -0.17240576783E+02  0.35806743993E+02  0.85910150688E+01  0.50528856587E+02  0.29999990081E+02 0.  0.
         12    1    1    2    0    0  0.17240576783E+02 -0.35806743993E+02 -0.85910150688E+01  0.40659143413E+02  0.00000000000E+00 0. -1.
         11    1    3    3    0    0  0.55182800258E+01  0.73708650525E+00  0.10064666487E+01  0.56575335912E+01  0.51100000000E-03 0. -1.
        -11    1    3    3    0    0 -0.68760204074E+01  0.15621099126E+02  0.97707318788E+01  0.19666356965E+02  0.51100000000E-03 0.  1.
         12    1    3    3    0    0 -0.15882836402E+02  0.19448558362E+02 -0.21861834588E+01  0.25204966031E+02  0.00000000000E+00 0. -1.
</event>
<event>
 7    1  0.6624035E-013  0.5052886E+02  0.7816164E-02  0.1300439E+00
        -11   -1    0    0    0    0  0.00000000000E+00  0.00000000000E+00  0.45593999997E+02  0.45594000000E+02  0.51100000000E-03 0. -1.
         11   -1    0    0    0    0 -0.00000000000E+00 -0.00000000000E+00 -0.45593999997E+02  0.45594000000E+02  0.51100000000E-03 0.  1.
    9900012    2    1    2    0    0 -0.33053020110E+02  0.22297065322E+02 -0.79689546604E+01  0.50528862051E+02  0.30000006691E+02 0.  0.
         12    1    1    2    0    0  0.33053020110E+02 -0.22297065322E+02  0.79689546604E+01  0.40659137949E+02  0.00000000000E+00 0. -1.
         11    1    3    3    0    0 -0.41868323868E+01 -0.23056022355E+01 -0.86154040432E+00  0.48567086831E+01  0.51100000000E-03 0. -1.
        -11    1    3    3    0    0 -0.16598231529E+02 -0.10900189891E+01 -0.21478376141E+01  0.16772079119E+02  0.51100000000E-03 0.  1.
         12    1    3    3    0    0 -0.12267956194E+02  0.25692686547E+02 -0.49595766420E+01  0.28900074250E+02  0.00000000000E+00 0. -1.
</event>
<event>
 7    1  0.6624035E-013  0.5052886E+02  0.7816164E-02  0.1300439E+00
        -11   -1    0    0    0    0  0.00000000000E+00  0.00000000000E+00  0.45593999997E+02  0.45594000000E+02  0.51100000000E-03 0.  1.
         11   -1    0    0    0    0 -0.00000000000E+00 -0.00000000000E+00 -0.45593999997E+02  0.45594000000E+02  0.51100000000E-03 0. -1.
    9900012    2    1    2    0    0 -0.11704071535E+02  0.27218356571E+02  0.27844956782E+02  0.50528857816E+02  0.29999993818E+02 0.  0.
         12    1    1    2    0    0  0.11704071535E+02 -0.27218356571E+02 -0.27844956782E+02  0.40659142184E+02  0.00000000000E+00 0. -1.
         11    1    3    3    0    0  0.62341182883E+00  0.11459568447E+02  0.27524883843E+02  0.29821629434E+02  0.51100000000E-03 0. -1.
        -11    1    3    3    0    0 -0.43353687666E+01  0.19664386662E+01  0.23744422675E+00  0.47664120040E+01  0.51100000000E-03 0.  1.
        -12    1    3    3    0    0 -0.79921145970E+01  0.13792349458E+02  0.82628712913E-01  0.15940816378E+02  0.00000000000E+00 0.  1.
</event>
<event>
 7    1  0.6624035E-013  0.5052886E+02  0.7816164E-02  0.1300439E+00
        -11   -1    0    0    0    0  0.00000000000E+00  0.00000000000E+00  0.45593999997E+02  0.45594000000E+02  0.51100000000E-03 0.  1.
         11   -1    0    0    0    0 -0.00000000000E+00 -0.00000000000E+00 -0.45593999997E+02  0.45594000000E+02  0.51100000000E-03 0. -1.
    9900012    2    1    2    0    0  0.20521178258E+02 -0.22338073465E+01  0.35029372622E+02  0.50528860822E+02  0.30000002956E+02 0.  0.
         12    1    1    2    0    0 -0.20521178258E+02  0.22338073465E+01 -0.35029372622E+02  0.40659139178E+02  0.00000000000E+00 0. -1.
         11    1    3    3    0    0  0.92484941680E+01  0.87145208712E+01  0.12046741961E+02  0.17510040278E+02  0.51100000000E-03 0. -1.
        -11    1    3    3    0    0 -0.18833271909E+01  0.27455446336E+01  0.16566203418E+00  0.33335237833E+01  0.51100000000E-03 0.  1.
         12    1    3    3    0    0  0.13156011281E+02 -0.13693872851E+02  0.22816968627E+02  0.29685296761E+02  0.00000000000E+00 0. -1.
</event>
<event>
 7    1  0.6624035E-013  0.5052886E+02  0.7816164E-02  0.1300439E+00
        -11   -1    0    0    0    0  0.00000000000E+00  0.00000000000E+00  0.45593999997E+02  0.45594000000E+02  0.51100000000E-03 0.  1.
         11   -1    0    0    0    0 -0.00000000000E+00 -0.00000000000E+00 -0.45593999997E+02  0.45594000000E+02  0.51100000000E-03 0. -1.
    9900012    2    1    2    0    0 -0.28600841211E+02  0.10448061288E+02  0.26944307826E+02  0.50528858016E+02  0.29999994424E+02 0.  0.
         12    1    1    2    0    0  0.28600841211E+02 -0.10448061288E+02 -0.26944307826E+02  0.40659141984E+02  0.00000000000E+00 0. -1.
         11    1    3    3    0    0 -0.12948437921E+02 -0.64755202030E+01  0.14964074007E+01  0.14554505895E+02  0.51100000000E-03 0. -1.
        -11    1    3    3    0    0 -0.67480548339E+01  0.53455658170E+00  0.64178780754E+01  0.93279769528E+01  0.51100000000E-03 0.  1.
         12    1    3    3    0    0 -0.89043484567E+01  0.16389024910E+02  0.19030022350E+02  0.26646375167E+02  0.00000000000E+00 0. -1.
</event>
<event>
 7    1  0.6624035E-013  0.5052880E+02  0.7816164E-02  0.1300439E+00
        -11   -1    0    0    0    0  0.00000000000E+00  0.00000000000E+00  0.45593999997E+02  0.45594000000E+02  0.51100000000E-03 0.  1.
         11   -1    0    0    0    0 -0.00000000000E+00 -0.00000000000E+00 -0.45593999997E+02  0.45594000000E+02  0.51100000000E-03 0. -1.
    9900012    2    1    2    0    0 -0.36026486670E+02 -0.17868047202E+01  0.18763525261E+02  0.50528803093E+02  0.29999827482E+02 0.  0.
         12    1    1    2    0    0  0.36026486670E+02  0.17868047202E+01 -0.18763525261E+02  0.40659196907E+02  0.00000000000E+00 0. -1.
         11    1    3    3    0    0 -0.23625619327E+01  0.10828124283E+01  0.98613550366E+01  0.10198063790E+02  0.51100000000E-03 0. -1.
        -11    1    3    3    0    0 -0.13774787402E+02 -0.43647296352E+01  0.13596087232E+02  0.19840595279E+02  0.51100000000E-03 0.  1.
         12    1    3    3    0    0 -0.19889137335E+02  0.14951124868E+01 -0.46939170072E+01  0.20490144024E+02  0.00000000000E+00 0. -1.
</event>
<event>
 7    1  0.6624035E-013  0.5052886E+02  0.7816164E-02  0.1300439E+00
        -11   -1    0    0    0    0  0.00000000000E+00  0.00000000000E+00  0.45593999997E+02  0.45594000000E+02  0.51100000000E-03 0.  1.
         11   -1    0    0    0    0 -0.00000000000E+00 -0.00000000000E+00 -0.45593999997E+02  0.45594000000E+02  0.51100000000E-03 0. -1.
    9900012    2    1    2    0    0  0.14739764408E+02  0.23974746705E+02  0.29344788068E+02  0.50528859316E+02  0.29999998377E+02 0.  0.
         12    1    1    2    0    0 -0.14739764408E+02 -0.23974746705E+02 -0.29344788068E+02  0.40659140684E+02  0.00000000000E+00 0. -1.
         11    1    3    3    0    0  0.14340573009E+02  0.11594722436E+02  0.17575132762E+02  0.25474986054E+02  0.51100000000E-03 0. -1.
        -11    1    3    3    0    0  0.75686169343E+01 -0.25399382521E+00  0.45138737796E+01  0.88160950495E+01  0.51100000000E-03 0.  1.
         12    1    3    3    0    0 -0.71694255353E+01  0.12634018094E+02  0.72557815264E+01  0.16237778212E+02  0.00000000000E+00 0. -1.
</event>
<event>
 7    1  0.6624035E-013  0.5052886E+02  0.7816164E-02  0.1300439E+00
        -11   -1    0    0    0    0  0.00000000000E+00  0.00000000000E+00  0.45593999997E+02  0.45594000000E+02  0.51100000000E-03 0.  1.
         11   -1    0    0    0    0 -0.00000000000E+00 -0.00000000000E+00 -0.45593999997E+02  0.45594000000E+02  0.51100000000E-03 0. -1.
    9900012    2    1    2    0    0  0.33692895790E+02  0.53493618040E+01  0.22120997660E+02  0.50528862824E+02  0.30000009039E+02 0.  0.
         12    1    1    2    0    0 -0.33692895790E+02 -0.53493618040E+01 -0.22120997660E+02  0.40659137176E+02  0.00000000000E+00 0. -1.
         11    1    3    3    0    0 -0.50542396069E+00  0.12239829749E+01  0.51536448980E-01  0.13252335528E+01  0.51100000000E-03 0. -1.
        -11    1    3    3    0    0  0.12938231025E+02 -0.18776267066E+01  0.23684573467E+02  0.27053323727E+02  0.51100000000E-03 0.  1.
         12    1    3    3    0    0  0.21260088726E+02  0.60030055357E+01 -0.16151122557E+01  0.22150305544E+02  0.00000000000E+00 0. -1.
</event>
<event>
 7    1  0.6624035E-013  0.5052890E+02  0.7816164E-02  0.1300439E+00
        -11   -1    0    0    0    0  0.00000000000E+00  0.00000000000E+00  0.45593999997E+02  0.45594000000E+02  0.51100000000E-03 0.  1.
         11   -1    0    0    0    0 -0.00000000000E+00 -0.00000000000E+00 -0.45593999997E+02  0.45594000000E+02  0.51100000000E-03 0. -1.
    9900012    2    1    2    0    0  0.31701679334E+02  0.18188090573E+02  0.17814592282E+02  0.50528895122E+02  0.30000107213E+02 0.  0.
         12    1    1    2    0    0 -0.31701679334E+02 -0.18188090573E+02 -0.17814592282E+02  0.40659104878E+02  0.00000000000E+00 0. -1.
         11    1    3    3    0    0  0.29306502109E+02  0.16457573446E+02  0.17995974392E+02  0.38125816504E+02  0.51100000000E-03 0.  1.
        -11    1    3    3    0    0  0.10266480413E+01  0.69336880661E+01  0.17152961212E+00  0.70113806820E+01  0.51100000000E-03 0. -1.
        -12    1    3    3    0    0  0.13685291845E+01 -0.52031709386E+01 -0.35291172217E+00  0.53916979356E+01  0.00000000000E+00 0.  1.
</event>
<event>
 7    1  0.6624035E-013  0.5052886E+02  0.7816164E-02  0.1300439E+00
        -11   -1    0    0    0    0  0.00000000000E+00  0.00000000000E+00  0.45593999997E+02  0.45594000000E+02  0.51100000000E-03 0.  1.
         11   -1    0    0    0    0 -0.00000000000E+00 -0.00000000000E+00 -0.45593999997E+02  0.45594000000E+02  0.51100000000E-03 0. -1.
    9900012    2    1    2    0    0 -0.37683939482E+02 -0.15012751300E+02  0.27754919346E+01  0.50528863856E+02  0.30000012177E+02 0.  0.
         12    1    1    2    0    0  0.37683939482E+02  0.15012751300E+02 -0.27754919346E+01  0.40659136144E+02  0.00000000000E+00 0. -1.
         11    1    3    3    0    0 -0.61559973092E+01  0.35658371775E+01 -0.67695235647E+00  0.71463111044E+01  0.51100000000E-03 0. -1.
        -11    1    3    3    0    0 -0.10840254294E+02 -0.74667394100E+00 -0.82758626666E+01  0.13658643354E+02  0.51100000000E-03 0.  1.
         12    1    3    3    0    0 -0.20687687880E+02 -0.17831914536E+02  0.11728306958E+02  0.29723909398E+02  0.00000000000E+00 0. -1.
</event>
<event>
 7    1  0.6624035E-013  0.5052887E+02  0.7816164E-02  0.1300439E+00
        -11   -1    0    0    0    0  0.00000000000E+00  0.00000000000E+00  0.45593999997E+02  0.45594000000E+02  0.51100000000E-03 0.  1.
         11   -1    0    0    0    0 -0.00000000000E+00 -0.00000000000E+00 -0.45593999997E+02  0.45594000000E+02  0.51100000000E-03 0. -1.
    9900012    2    1    2    0    0 -0.24160867586E+02 -0.29332205927E+02  0.14458191731E+02  0.50528866522E+02  0.30000020280E+02 0.  0.
         12    1    1    2    0    0  0.24160867586E+02  0.29332205927E+02 -0.14458191731E+02  0.40659133478E+02  0.00000000000E+00 0. -1.
         11    1    3    3    0    0  0.26295473288E+01 -0.17818958646E+01  0.27311560632E+01  0.41891390201E+01  0.51100000000E-03 0. -1.
        -11    1    3    3    0    0 -0.17700342272E+02 -0.24866626151E+02  0.17557073269E+02  0.35212242682E+02  0.51100000000E-03 0.  1.
         12    1    3    3    0    0 -0.90900726423E+01 -0.26836839119E+01 -0.58300376014E+01  0.11127484820E+02  0.00000000000E+00 0. -1.
</event>
<event>
 7    1  0.6624035E-013  0.5052886E+02  0.7816164E-02  0.1300439E+00
        -11   -1    0    0    0    0  0.00000000000E+00  0.00000000000E+00  0.45593999997E+02  0.45594000000E+02  0.51100000000E-03 0. -1.
         11   -1    0    0    0    0 -0.00000000000E+00 -0.00000000000E+00 -0.45593999997E+02  0.45594000000E+02  0.51100000000E-03 0.  1.
    9900012    2    1    2    0    0  0.27343582615E+02  0.14885847381E+01 -0.30054586882E+02  0.50528860961E+02  0.30000003377E+02 0.  0.
         12    1    1    2    0    0 -0.27343582615E+02 -0.14885847381E+01  0.30054586882E+02  0.40659139039E+02  0.00000000000E+00 0. -1.
         11    1    3    3    0    0  0.12401452895E+02 -0.10548429622E+02 -0.97389216222E+01  0.18971346711E+02  0.51100000000E-03 0. -1.
        -11    1    3    3    0    0  0.44654154695E+01 -0.24131909853E+01 -0.92669984142E+01  0.10566015612E+02  0.51100000000E-03 0.  1.
        -12    1    3    3    0    0  0.10476714250E+02  0.14450205345E+02 -0.11048666846E+02  0.20991498638E+02  0.00000000000E+00 0.  1.
</event>
<event>
 7    1  0.7584710E-013  0.5052886E+02  0.7816164E-02  0.1300439E+00
        -11   -1    0    0    0    0  0.00000000000E+00  0.00000000000E+00  0.45593999997E+02  0.45594000000E+02  0.51100000000E-03 0.  1.
         11   -1    0    0    0    0 -0.00000000000E+00 -0.00000000000E+00 -0.45593999997E+02  0.45594000000E+02  0.51100000000E-03 0. -1.
    9900012    2    1    2    0    0 -0.19615646794E+02  0.31417567978E+02  0.16772848629E+02  0.50528860462E+02  0.30000001862E+02 0.  0.
         12    1    1    2    0    0  0.19615646794E+02 -0.31417567978E+02 -0.16772848629E+02  0.40659139538E+02  0.00000000000E+00 0. -1.
         11    1    3    3    0    0  0.22312594771E+01  0.89665649669E+01  0.10298582601E+02  0.13836134215E+02  0.51100000000E-03 0. -1.
        -11    1    3    3    0    0 -0.97224629828E+01  0.21570556469E+02  0.64974259047E+01  0.24536335025E+02  0.51100000000E-03 0.  1.
         12    1    3    3    0    0 -0.12124443288E+02  0.88044654259E+00 -0.23159877469E-01  0.12156391222E+02  0.00000000000E+00 0. -1.
</event>
<event>
 7    1  0.6624035E-013  0.5052886E+02  0.7816164E-02  0.1300439E+00
        -11   -1    0    0    0    0  0.00000000000E+00  0.00000000000E+00  0.45593999997E+02  0.45594000000E+02  0.51100000000E-03 0.  1.
         11   -1    0    0    0    0 -0.00000000000E+00 -0.00000000000E+00 -0.45593999997E+02  0.45594000000E+02  0.51100000000E-03 0. -1.
    9900012    2    1    2    0    0 -0.31750110762E+02 -0.98001020229E+01  0.23431907269E+02  0.50528858207E+02  0.29999995006E+02 0.  0.
         12    1    1    2    0    0  0.31750110762E+02  0.98001020229E+01 -0.23431907269E+02  0.40659141793E+02  0.00000000000E+00 0. -1.
         11    1    3    3    0    0  0.12880094135E+00  0.28039198718E+01 -0.30513287943E+01  0.41459816693E+01  0.51100000000E-03 0. -1.
        -11    1    3    3    0    0 -0.12072107002E+02 -0.20055293984E+00  0.14895015594E+01  0.12165303289E+02  0.51100000000E-03 0.  1.
        -12    1    3    3    0    0 -0.19806804701E+02 -0.12403468955E+02  0.24993734504E+02  0.34217573249E+02  0.00000000000E+00 0.  1.
</event>
<event>
 7    1  0.6624035E-013  0.5052882E+02  0.7816164E-02  0.1300439E+00
        -11   -1    0    0    0    0  0.00000000000E+00  0.00000000000E+00  0.45593999997E+02  0.45594000000E+02  0.51100000000E-03 0. -1.
         11   -1    0    0    0    0 -0.00000000000E+00 -0.00000000000E+00 -0.45593999997E+02  0.45594000000E+02  0.51100000000E-03 0.  1.
    9900012    2    1    2    0    0  0.18940748151E+02 -0.13614471325E+02 -0.33302593650E+02  0.50528824974E+02  0.29999893991E+02 0.  0.
         12    1    1    2    0    0 -0.18940748151E+02  0.13614471325E+02  0.33302593650E+02  0.40659175026E+02  0.00000000000E+00 0. -1.
         11    1    3    3    0    0 -0.29305670635E+01  0.10657575113E+01  0.78207485512E+00  0.32149189301E+01  0.51100000000E-03 0. -1.
        -11    1    3    3    0    0  0.25272245838E+02 -0.14866600393E+02 -0.29399157816E+02  0.41521231888E+02  0.51100000000E-03 0.  1.
         12    1    3    3    0    0 -0.34009306232E+01  0.18637155733E+00 -0.46855106890E+01  0.57926741561E+01  0.00000000000E+00 0. -1.
</event>
<event>
 7    1  0.6624035E-013  0.5052888E+02  0.7816164E-02  0.1300439E+00
        -11   -1    0    0    0    0  0.00000000000E+00  0.00000000000E+00  0.45593999997E+02  0.45594000000E+02  0.51100000000E-03 0. -1.
         11   -1    0    0    0    0 -0.00000000000E+00 -0.00000000000E+00 -0.45593999997E+02  0.45594000000E+02  0.51100000000E-03 0.  1.
    9900012    2    1    2    0    0 -0.33229895598E+02 -0.12348102576E+02 -0.19911368140E+02  0.50528878269E+02  0.30000055987E+02 0.  0.
         12    1    1    2    0    0  0.33229895598E+02  0.12348102576E+02  0.19911368140E+02  0.40659121731E+02  0.00000000000E+00 0. -1.
         11    1    3    3    0    0 -0.21994237287E+00  0.65713671276E+00  0.31516345006E+01  0.32269185911E+01  0.51100000000E-03 0. -1.
        -11    1    3    3    0    0  0.19930262888E+01  0.63776606694E+00  0.13577267290E+01  0.24944581528E+01  0.51100000000E-03 0.  1.
        -12    1    3    3    0    0 -0.35002979514E+02 -0.13643005356E+02 -0.24420729369E+02  0.44807501525E+02  0.00000000000E+00 0.  1.
</event>
<event>
 7    1  0.6624035E-013  0.5052886E+02  0.7816164E-02  0.1300439E+00
        -11   -1    0    0    0    0  0.00000000000E+00  0.00000000000E+00  0.45593999997E+02  0.45594000000E+02  0.51100000000E-03 0. -1.
         11   -1    0    0    0    0 -0.00000000000E+00 -0.00000000000E+00 -0.45593999997E+02  0.45594000000E+02  0.51100000000E-03 0.  1.
    9900012    2    1    2    0    0 -0.28841946604E+02  0.26814130856E+02 -0.10114845282E+02  0.50528860898E+02  0.30000003185E+02 0.  0.
         12    1    1    2    0    0  0.28841946604E+02 -0.26814130856E+02  0.10114845282E+02  0.40659139102E+02  0.00000000000E+00 0. -1.
         11    1    3    3    0    0 -0.14819634350E+01  0.38884531713E+01 -0.47091247631E+01  0.62842772046E+01  0.51100000000E-03 0. -1.
        -11    1    3    3    0    0 -0.23133748534E+02  0.21411631987E+02 -0.14044429248E+02  0.34509046622E+02  0.51100000000E-03 0.  1.
         12    1    3    3    0    0 -0.42262346354E+01  0.15140456972E+01  0.86387087290E+01  0.97355370716E+01  0.00000000000E+00 0. -1.
</event>
<event>
 7    1  0.6624035E-013  0.5052888E+02  0.7816164E-02  0.1300439E+00
        -11   -1    0    0    0    0  0.00000000000E+00  0.00000000000E+00  0.45593999997E+02  0.45594000000E+02  0.51100000000E-03 0. -1.
         11   -1    0    0    0    0 -0.00000000000E+00 -0.00000000000E+00 -0.45593999997E+02  0.45594000000E+02  0.51100000000E-03 0.  1.
    9900012    2    1    2    0    0 -0.70139231086E+01  0.61975259728E+00 -0.40044788486E+02  0.50528876847E+02  0.30000051664E+02 0.  0.
         12    1    1    2    0    0  0.70139231086E+01 -0.61975259728E+00  0.40044788486E+02  0.40659123153E+02  0.00000000000E+00 0. -1.
         11    1    3    3    0    0 -0.73530597044E+01  0.12418694067E+01 -0.22101506222E+01  0.77778205606E+01  0.51100000000E-03 0. -1.
        -11    1    3    3    0    0 -0.77495601826E+01  0.10696732465E+01 -0.59934881409E+01  0.98550385202E+01  0.51100000000E-03 0.  1.
         12    1    3    3    0    0  0.80886967784E+01 -0.16917900559E+01 -0.31841149723E+02  0.32896017766E+02  0.00000000000E+00 0. -1.
</event>
<event>
 7    1  0.6624035E-013  0.5052885E+02  0.7816164E-02  0.1300439E+00
        -11   -1    0    0    0    0  0.00000000000E+00  0.00000000000E+00  0.45593999997E+02  0.45594000000E+02  0.51100000000E-03 0.  1.
         11   -1    0    0    0    0 -0.00000000000E+00 -0.00000000000E+00 -0.45593999997E+02  0.45594000000E+02  0.51100000000E-03 0. -1.
    9900012    2    1    2    0    0  0.36245286340E+02  0.26553183456E+01  0.18231698116E+02  0.50528852031E+02  0.29999976233E+02 0.  0.
         12    1    1    2    0    0 -0.36245286340E+02 -0.26553183456E+01 -0.18231698116E+02  0.40659147969E+02  0.00000000000E+00 0. -1.
         11    1    3    3    0    0  0.17764172902E+02  0.16211444926E+01 -0.31555524971E+01  0.18114951288E+02  0.51100000000E-03 0. -1.
        -11    1    3    3    0    0  0.10046876445E+02 -0.17421677652E+01  0.10844708607E+01  0.10254313831E+02  0.51100000000E-03 0.  1.
        -12    1    3    3    0    0  0.84342369928E+01  0.27763416181E+01  0.20302779753E+02  0.22159586912E+02  0.00000000000E+00 0.  1.
</event>
<event>
 7    1  0.6624035E-013  0.5052887E+02  0.7816164E-02  0.1300439E+00
        -11   -1    0    0    0    0  0.00000000000E+00  0.00000000000E+00  0.45593999997E+02  0.45594000000E+02  0.51100000000E-03 0.  1.
         11   -1    0    0    0    0 -0.00000000000E+00 -0.00000000000E+00 -0.45593999997E+02  0.45594000000E+02  0.51100000000E-03 0. -1.
    9900012    2    1    2    0    0  0.25929234954E+02  0.19042572431E+01  0.31260407413E+02  0.50528874424E+02  0.30000044298E+02 0.  0.
         12    1    1    2    0    0 -0.25929234954E+02 -0.19042572431E+01 -0.31260407413E+02  0.40659125576E+02  0.00000000000E+00 0. -1.
         11    1    3    3    0    0  0.50864358731E+01 -0.36038471462E+00 -0.28268921530E+01  0.58303538949E+01  0.51100000000E-03 0. -1.
        -11    1    3    3    0    0  0.11888491614E+02 -0.43586306576E+01  0.51100420750E+01  0.13654538599E+02  0.51100000000E-03 0.  1.
        -12    1    3    3    0    0  0.89543074670E+01  0.66232726153E+01  0.28977257492E+02  0.31043981930E+02  0.00000000000E+00 0.  1.
</event>
<event>
 7    1  0.6624035E-013  0.5052887E+02  0.7816164E-02  0.1300439E+00
        -11   -1    0    0    0    0  0.00000000000E+00  0.00000000000E+00  0.45593999997E+02  0.45594000000E+02  0.51100000000E-03 0.  1.
         11   -1    0    0    0    0 -0.00000000000E+00 -0.00000000000E+00 -0.45593999997E+02  0.45594000000E+02  0.51100000000E-03 0. -1.
    9900012    2    1    2    0    0 -0.19238527077E+02 -0.13331108972E+02  0.33246434084E+02  0.50528871015E+02  0.30000033938E+02 0.  0.
         12    1    1    2    0    0  0.19238527077E+02  0.13331108972E+02 -0.33246434084E+02  0.40659128985E+02  0.00000000000E+00 0. -1.
         11    1    3    3    0    0 -0.11517089842E+02 -0.13010566528E+00  0.42910630108E+01  0.12291196359E+02  0.51100000000E-03 0. -1.
        -11    1    3    3    0    0 -0.52125734201E+01  0.46019261765E+01  0.90907610466E+01  0.11445111745E+02  0.51100000000E-03 0.  1.
        -12    1    3    3    0    0 -0.25088638147E+01 -0.17802929483E+02  0.19864610027E+02  0.26792562911E+02  0.00000000000E+00 0.  1.
</event>
<event>
 7    1  0.6624035E-013  0.5052886E+02  0.7816164E-02  0.1300439E+00
        -11   -1    0    0    0    0  0.00000000000E+00  0.00000000000E+00  0.45593999997E+02  0.45594000000E+02  0.51100000000E-03 0.  1.
         11   -1    0    0    0    0 -0.00000000000E+00 -0.00000000000E+00 -0.45593999997E+02  0.45594000000E+02  0.51100000000E-03 0. -1.
    9900012    2    1    2    0    0 -0.87137580372E+01  0.24287684451E+02  0.31422042408E+02  0.50528856573E+02  0.29999990041E+02 0.  0.
         12    1    1    2    0    0  0.87137580372E+01 -0.24287684451E+02 -0.31422042408E+02  0.40659143427E+02  0.00000000000E+00 0. -1.
         11    1    3    3    0    0 -0.71800789783E+01 -0.10513151430E+01 -0.90246252533E+00  0.73125396776E+01  0.51100000000E-03 0. -1.
        -11    1    3    3    0    0  0.86057576676E+00  0.29881001401E+01 -0.77568830904E+00  0.32048441010E+01  0.51100000000E-03 0.  1.
        -12    1    3    3    0    0 -0.23942548256E+01  0.22350899454E+02  0.33100193242E+02  0.40011472795E+02  0.00000000000E+00 0.  1.
</event>
<event>
 7    1  0.6624035E-013  0.5052878E+02  0.7816164E-02  0.1300439E+00
        -11   -1    0    0    0    0  0.00000000000E+00  0.00000000000E+00  0.45593999997E+02  0.45594000000E+02  0.51100000000E-03 0. -1.
         11   -1    0    0    0    0 -0.00000000000E+00 -0.00000000000E+00 -0.45593999997E+02  0.45594000000E+02  0.51100000000E-03 0.  1.
    9900012    2    1    2    0    0 -0.30153101524E+02  0.23535746541E+02 -0.13785192155E+02  0.50528776944E+02  0.29999747997E+02 0.  0.
         12    1    1    2    0    0  0.30153101524E+02 -0.23535746541E+02  0.13785192155E+02  0.40659223056E+02  0.00000000000E+00 0. -1.
         11    1    3    3    0    0 -0.16792524211E+01  0.15315763259E+01  0.46338577846E+01  0.51612259169E+01  0.51100000000E-03 0. -1.
        -11    1    3    3    0    0 -0.88320687727E+01  0.88669167077E+01  0.36478690740E+01  0.13035896584E+02  0.51100000000E-03 0.  1.
        -12    1    3    3    0    0 -0.19641780331E+02  0.13137253508E+02 -0.22066919013E+02  0.32331654443E+02  0.00000000000E+00 0.  1.
</event>
<event>
 7    1  0.6624035E-013  0.5052885E+02  0.7816164E-02  0.1300439E+00
        -11   -1    0    0    0    0  0.00000000000E+00  0.00000000000E+00  0.45593999997E+02  0.45594000000E+02  0.51100000000E-03 0.  1.
         11   -1    0    0    0    0 -0.00000000000E+00 -0.00000000000E+00 -0.45593999997E+02  0.45594000000E+02  0.51100000000E-03 0. -1.
    9900012    2    1    2    0    0  0.87108550433E+01  0.32262758818E+01  0.39583814534E+02  0.50528853124E+02  0.29999979555E+02 0.  0.
         12    1    1    2    0    0 -0.87108550433E+01 -0.32262758818E+01 -0.39583814534E+02  0.40659146876E+02  0.00000000000E+00 0. -1.
         11    1    3    3    0    0  0.66003612785E+00  0.23514479936E+00 -0.28579323581E+01  0.29425700317E+01  0.51100000000E-03 0. -1.
        -11    1    3    3    0    0 -0.65834346214E+01  0.62307476207E+00  0.15090685196E+02  0.16476001138E+02  0.51100000000E-03 0.  1.
         12    1    3    3    0    0  0.14634253537E+02  0.23680563204E+01  0.27351061696E+02  0.31110281954E+02  0.00000000000E+00 0. -1.
</event>
<event>
 7    1  0.6624035E-013  0.5052886E+02  0.7816164E-02  0.1300439E+00
        -11   -1    0    0    0    0  0.00000000000E+00  0.00000000000E+00  0.45593999997E+02  0.45594000000E+02  0.51100000000E-03 0. -1.
         11   -1    0    0    0    0 -0.00000000000E+00 -0.00000000000E+00 -0.45593999997E+02  0.45594000000E+02  0.51100000000E-03 0.  1.
    9900012    2    1    2    0    0  0.35713818492E+02 -0.17697084463E+02 -0.80313121906E+01  0.50528860741E+02  0.30000002709E+02 0.  0.
         12    1    1    2    0    0 -0.35713818492E+02  0.17697084463E+02  0.80313121906E+01  0.40659139259E+02  0.00000000000E+00 0. -1.
         11    1    3    3    0    0  0.24664841661E+00 -0.53249806201E+01 -0.46112008078E+01  0.70483634410E+01  0.51100000000E-03 0. -1.
        -11    1    3    3    0    0  0.68962641438E+01 -0.21778920219E+01 -0.10096504045E+02  0.12419382714E+02  0.51100000000E-03 0.  1.
        -12    1    3    3    0    0  0.28570905931E+02 -0.10194211821E+02  0.66763926619E+01  0.31061114587E+02  0.00000000000E+00 0.  1.
</event>
<event>
 7    1  0.6624035E-013  0.5052881E+02  0.7816164E-02  0.1300439E+00
        -11   -1    0    0    0    0  0.00000000000E+00  0.00000000000E+00  0.45593999997E+02  0.45594000000E+02  0.51100000000E-03 0.  1.
         11   -1    0    0    0    0 -0.00000000000E+00 -0.00000000000E+00 -0.45593999997E+02  0.45594000000E+02  0.51100000000E-03 0. -1.
    9900012    2    1    2    0    0 -0.31661320481E+02 -0.19440608022E+02  0.16516443294E+02  0.50528814642E+02  0.29999862587E+02 0.  0.
         12    1    1    2    0    0  0.31661320481E+02  0.19440608022E+02 -0.16516443294E+02  0.40659185358E+02  0.00000000000E+00 0. -1.
         11    1    3    3    0    0 -0.20051030693E+02 -0.39997567249E+01  0.14767675066E+02  0.25221540651E+02  0.51100000000E-03 0. -1.
        -11    1    3    3    0    0 -0.87485981539E+01 -0.10695013071E+01  0.52263441954E+01  0.10246778841E+02  0.51100000000E-03 0.  1.
         12    1    3    3    0    0 -0.28616916339E+01 -0.14371349990E+02 -0.34775759679E+01  0.15060495150E+02  0.00000000000E+00 0. -1.
</event>
<event>
 7    1  0.6624035E-013  0.5052886E+02  0.7816164E-02  0.1300439E+00
        -11   -1    0    0    0    0  0.00000000000E+00  0.00000000000E+00  0.45593999997E+02  0.45594000000E+02  0.51100000000E-03 0.  1.
         11   -1    0    0    0    0 -0.00000000000E+00 -0.00000000000E+00 -0.45593999997E+02  0.45594000000E+02  0.51100000000E-03 0. -1.
    9900012    2    1    2    0    0  0.35429496633E+02  0.19944762019E+02 -0.35103615421E+00  0.50528856009E+02  0.29999988326E+02 0.  0.
         12    1    1    2    0    0 -0.35429496633E+02 -0.19944762019E+02  0.35103615421E+00  0.40659143991E+02  0.00000000000E+00 0. -1.
         11    1    3    3    0    0  0.16266030675E+02 -0.15053247690E+01  0.42231744485E+00  0.16340994733E+02  0.51100000000E-03 0. -1.
        -11    1    3    3    0    0  0.20013866070E+02  0.10159868605E+02  0.19908623730E+01  0.22533115594E+02  0.51100000000E-03 0.  1.
         12    1    3    3    0    0 -0.85040011203E+00  0.11290218183E+02 -0.27642159720E+01  0.11654745682E+02  0.00000000000E+00 0. -1.
</event>
<event>
 7    1  0.6624035E-013  0.5052887E+02  0.7816164E-02  0.1300439E+00
        -11   -1    0    0    0    0  0.00000000000E+00  0.00000000000E+00  0.45593999997E+02  0.45594000000E+02  0.51100000000E-03 0.  1.
         11   -1    0    0    0    0 -0.00000000000E+00 -0.00000000000E+00 -0.45593999997E+02  0.45594000000E+02  0.51100000000E-03 0. -1.
    9900012    2    1    2    0    0 -0.13347836624E+02 -0.26954964079E+02  0.27357454752E+02  0.50528866198E+02  0.30000019295E+02 0.  0.
         12    1    1    2    0    0  0.13347836624E+02  0.26954964079E+02 -0.27357454752E+02  0.40659133802E+02  0.00000000000E+00 0. -1.
         11    1    3    3    0    0  0.17578183523E+01 -0.19803305582E+01  0.50044352349E+01  0.56618024304E+01  0.51100000000E-03 0. -1.
        -11    1    3    3    0    0 -0.83455708861E+01 -0.29206888215E+02  0.14445023524E+02  0.33635540392E+02  0.51100000000E-03 0.  1.
         12    1    3    3    0    0 -0.67600840901E+01  0.42322546941E+01  0.79079959927E+01  0.11231523375E+02  0.00000000000E+00 0. -1.
</event>
<event>
 7    1  0.6624035E-013  0.5052886E+02  0.7816164E-02  0.1300439E+00
        -11   -1    0    0    0    0  0.00000000000E+00  0.00000000000E+00  0.45593999997E+02  0.45594000000E+02  0.51100000000E-03 0.  1.
         11   -1    0    0    0    0 -0.00000000000E+00 -0.00000000000E+00 -0.45593999997E+02  0.45594000000E+02  0.51100000000E-03 0. -1.
    9900012    2    1    2    0    0  0.15301016452E+02 -0.82542516295E+00  0.37661160998E+02  0.50528862296E+02  0.30000007434E+02 0.  0.
         12    1    1    2    0    0 -0.15301016452E+02  0.82542516295E+00 -0.37661160998E+02  0.40659137704E+02  0.00000000000E+00 0. -1.
         11    1    3    3    0    0  0.22729944025E+01 -0.41513598803E+01  0.31981450824E+02  0.32329761667E+02  0.51100000000E-03 0. -1.
        -11    1    3    3    0    0 -0.59779341913E+00 -0.20822194626E+01  0.22903062235E+01  0.31525382981E+01  0.51100000000E-03 0.  1.
         12    1    3    3    0    0  0.13625815469E+02  0.54081541800E+01  0.33894039501E+01  0.15046562330E+02  0.00000000000E+00 0. -1.
</event>
<event>
 7    1  0.6624035E-013  0.5052885E+02  0.7816164E-02  0.1300439E+00
        -11   -1    0    0    0    0  0.00000000000E+00  0.00000000000E+00  0.45593999997E+02  0.45594000000E+02  0.51100000000E-03 0.  1.
         11   -1    0    0    0    0 -0.00000000000E+00 -0.00000000000E+00 -0.45593999997E+02  0.45594000000E+02  0.51100000000E-03 0. -1.
    9900012    2    1    2    0    0  0.31932957839E+02 -0.22478748544E+02  0.11320707045E+02  0.50528851701E+02  0.29999975230E+02 0.  0.
         12    1    1    2    0    0 -0.31932957839E+02  0.22478748544E+02 -0.11320707045E+02  0.40659148299E+02  0.00000000000E+00 0. -1.
         11    1    3    3    0    0  0.16208160634E+02 -0.96985901810E+01  0.29551996847E-01  0.18888303159E+02  0.51100000000E-03 0. -1.
        -11    1    3    3    0    0  0.50340109443E+01 -0.14919739859E+02 -0.27121047875E+00  0.15748443067E+02  0.51100000000E-03 0.  1.
         12    1    3    3    0    0  0.10690786260E+02  0.21395814968E+01  0.11562365527E+02  0.15892105475E+02  0.00000000000E+00 0. -1.
</event>
<event>
 7    1  0.6624035E-013  0.5052886E+02  0.7816164E-02  0.1300439E+00
        -11   -1    0    0    0    0  0.00000000000E+00  0.00000000000E+00  0.45593999997E+02  0.45594000000E+02  0.51100000000E-03 0.  1.
         11   -1    0    0    0    0 -0.00000000000E+00 -0.00000000000E+00 -0.45593999997E+02  0.45594000000E+02  0.51100000000E-03 0. -1.
    9900012    2    1    2    0    0 -0.27482785746E+02 -0.16569747881E+02  0.24966089320E+02  0.50528859907E+02  0.30000000173E+02 0.  0.
         12    1    1    2    0    0  0.27482785746E+02  0.16569747881E+02 -0.24966089320E+02  0.40659140093E+02  0.00000000000E+00 0. -1.
         11    1    3    3    0    0 -0.75847349734E+01 -0.61521032902E+01 -0.10170951568E+01  0.98189135004E+01  0.51100000000E-03 0. -1.
        -11    1    3    3    0    0 -0.98582873961E+01 -0.13883498993E+02  0.59533127636E+01  0.18038273415E+02  0.51100000000E-03 0.  1.
         12    1    3    3    0    0 -0.10039763376E+02  0.34658544023E+01  0.20029871713E+02  0.22671672991E+02  0.00000000000E+00 0. -1.
</event>
<event>
 7    1  0.6624035E-013  0.5052886E+02  0.7816164E-02  0.1300439E+00
        -11   -1    0    0    0    0  0.00000000000E+00  0.00000000000E+00  0.45593999997E+02  0.45594000000E+02  0.51100000000E-03 0. -1.
         11   -1    0    0    0    0 -0.00000000000E+00 -0.00000000000E+00 -0.45593999997E+02  0.45594000000E+02  0.51100000000E-03 0.  1.
    9900012    2    1    2    0    0 -0.12822814835E+02 -0.65611980694E+01 -0.38022250518E+02  0.50528862837E+02  0.30000009079E+02 0.  0.
         12    1    1    2    0    0  0.12822814835E+02  0.65611980694E+01  0.38022250518E+02  0.40659137163E+02  0.00000000000E+00 0. -1.
         11    1    3    3    0    0 -0.18018614650E+01 -0.11954208298E+02 -0.96918860818E+01  0.15494594440E+02  0.51100000000E-03 0. -1.
        -11    1    3    3    0    0 -0.58683953786E+01 -0.35781419162E+01 -0.26819233005E+01  0.73779317389E+01  0.51100000000E-03 0.  1.
        -12    1    3    3    0    0 -0.51525579916E+01  0.89711521449E+01 -0.25648441136E+02  0.27656336658E+02  0.00000000000E+00 0.  1.
</event>
<event>
 7    1  0.6624035E-013  0.5052886E+02  0.7816164E-02  0.1300439E+00
        -11   -1    0    0    0    0  0.00000000000E+00  0.00000000000E+00  0.45593999997E+02  0.45594000000E+02  0.51100000000E-03 0.  1.
         11   -1    0    0    0    0 -0.00000000000E+00 -0.00000000000E+00 -0.45593999997E+02  0.45594000000E+02  0.51100000000E-03 0. -1.
    9900012    2    1    2    0    0 -0.33592134557E+02 -0.22116454211E+02 -0.59662578653E+01  0.50528864694E+02  0.30000014723E+02 0.  0.
         12    1    1    2    0    0  0.33592134557E+02  0.22116454211E+02  0.59662578653E+01  0.40659135306E+02  0.00000000000E+00 0. -1.
         11    1    3    3    0    0 -0.22066148587E+02 -0.59979048995E+01 -0.33787942671E+01  0.23115060623E+02  0.51100000000E-03 0.  1.
        -11    1    3    3    0    0 -0.10718614433E+02  0.27964191814E+00  0.38344517517E+00  0.10729115781E+02  0.51100000000E-03 0. -1.
        -12    1    3    3    0    0 -0.80737153608E+00 -0.16398191229E+02 -0.29709087734E+01  0.16684688290E+02  0.00000000000E+00 0.  1.
</event>
<event>
 7    1  0.6624035E-013  0.5052886E+02  0.7816164E-02  0.1300439E+00
        -11   -1    0    0    0    0  0.00000000000E+00  0.00000000000E+00  0.45593999997E+02  0.45594000000E+02  0.51100000000E-03 0.  1.
         11   -1    0    0    0    0 -0.00000000000E+00 -0.00000000000E+00 -0.45593999997E+02  0.45594000000E+02  0.51100000000E-03 0. -1.
    9900012    2    1    2    0    0 -0.19271387227E+02 -0.19308877822E+02  0.30148744665E+02  0.50528856708E+02  0.29999990448E+02 0.  0.
         12    1    1    2    0    0  0.19271387227E+02  0.19308877822E+02 -0.30148744665E+02  0.40659143292E+02  0.00000000000E+00 0. -1.
         11    1    3    3    0    0  0.41224048645E+01 -0.18211915212E+01  0.21684313964E+01  0.50013053702E+01  0.51100000000E-03 0. -1.
        -11    1    3    3    0    0 -0.43316127847E+00  0.29241035910E+01 -0.11679397157E+01  0.31783791380E+01  0.51100000000E-03 0.  1.
        -12    1    3    3    0    0 -0.22960630813E+02 -0.20411789892E+02  0.29148252985E+02  0.42349172199E+02  0.00000000000E+00 0.  1.
</event>
<event>
 7    1  0.6624035E-013  0.5052886E+02  0.7816164E-02  0.1300439E+00
        -11   -1    0    0    0    0  0.00000000000E+00  0.00000000000E+00  0.45593999997E+02  0.45594000000E+02  0.51100000000E-03 0.  1.
         11   -1    0    0    0    0 -0.00000000000E+00 -0.00000000000E+00 -0.45593999997E+02  0.45594000000E+02  0.51100000000E-03 0. -1.
    9900012    2    1    2    0    0  0.20520354832E+02 -0.24142847463E+02  0.25479475296E+02  0.50528859485E+02  0.29999998890E+02 0.  0.
         12    1    1    2    0    0 -0.20520354832E+02  0.24142847463E+02 -0.25479475296E+02  0.40659140515E+02  0.00000000000E+00 0. -1.
         11    1    3    3    0    0  0.98274843477E+01 -0.38846402593E+01  0.20699388088E+02  0.23240794867E+02  0.51100000000E-03 0. -1.
        -11    1    3    3    0    0 -0.18260311535E+01  0.16172898797E+00  0.26762282289E+01  0.32438779005E+01  0.51100000000E-03 0.  1.
         12    1    3    3    0    0  0.12518901638E+02 -0.20419936192E+02  0.21038589792E+01  0.24044186718E+02  0.00000000000E+00 0. -1.
</event>
<event>
 7    1  0.6624035E-013  0.5052886E+02  0.7816164E-02  0.1300439E+00
        -11   -1    0    0    0    0  0.00000000000E+00  0.00000000000E+00  0.45593999997E+02  0.45594000000E+02  0.51100000000E-03 0.  1.
         11   -1    0    0    0    0 -0.00000000000E+00 -0.00000000000E+00 -0.45593999997E+02  0.45594000000E+02  0.51100000000E-03 0. -1.
    9900012    2    1    2    0    0 -0.16921767151E+02  0.62639615355E+01  0.36435999762E+02  0.50528862081E+02  0.30000006781E+02 0.  0.
         12    1    1    2    0    0  0.16921767151E+02 -0.62639615355E+01 -0.36435999762E+02  0.40659137919E+02  0.00000000000E+00 0. -1.
         11    1    3    3    0    0 -0.45347057015E+01  0.10664248727E+01  0.12475569907E+02  0.13316931424E+02  0.51100000000E-03 0. -1.
        -11    1    3    3    0    0  0.36990379400E+01  0.25193954633E+01  0.19912863399E+02  0.20409614504E+02  0.51100000000E-03 0.  1.
         12    1    3    3    0    0 -0.16086099390E+02  0.26781411995E+01  0.40475664564E+01  0.16802316152E+02  0.00000000000E+00 0. -1.
</event>
<event>
 7    1  0.6624035E-013  0.5052885E+02  0.7816164E-02  0.1300439E+00
        -11   -1    0    0    0    0  0.00000000000E+00  0.00000000000E+00  0.45593999997E+02  0.45594000000E+02  0.51100000000E-03 0.  1.
         11   -1    0    0    0    0 -0.00000000000E+00 -0.00000000000E+00 -0.45593999997E+02  0.45594000000E+02  0.51100000000E-03 0. -1.
    9900012    2    1    2    0    0 -0.93183152110E+01 -0.24817348388E+02  0.30829121977E+02  0.50528849231E+02  0.29999967722E+02 0.  0.
         12    1    1    2    0    0  0.93183152110E+01  0.24817348388E+02 -0.30829121977E+02  0.40659150769E+02  0.00000000000E+00 0. -1.
         11    1    3    3    0    0  0.61211766409E+01 -0.61412616407E+01  0.33716757888E+01  0.93033378900E+01  0.51100000000E-03 0. -1.
        -11    1    3    3    0    0 -0.95654112244E+01  0.70297974549E+00  0.44418452925E+01  0.10569827921E+02  0.51100000000E-03 0.  1.
        -12    1    3    3    0    0 -0.58740806274E+01 -0.19379066493E+02  0.23015600896E+02  0.30655683420E+02  0.00000000000E+00 0.  1.
</event>
<event>
 7    1  0.6624035E-013  0.5052886E+02  0.7816164E-02  0.1300439E+00
        -11   -1    0    0    0    0  0.00000000000E+00  0.00000000000E+00  0.45593999997E+02  0.45594000000E+02  0.51100000000E-03 0.  1.
         11   -1    0    0    0    0 -0.00000000000E+00 -0.00000000000E+00 -0.45593999997E+02  0.45594000000E+02  0.51100000000E-03 0. -1.
    9900012    2    1    2    0    0 -0.26589361120E+02  0.19384518210E+02  0.23883300412E+02  0.50528859458E+02  0.29999998809E+02 0.  0.
         12    1    1    2    0    0  0.26589361120E+02 -0.19384518210E+02 -0.23883300412E+02  0.40659140542E+02  0.00000000000E+00 0. -1.
         11    1    3    3    0    0 -0.39691481906E+01  0.19658433422E+01  0.10190308031E+02  0.11111303049E+02  0.51100000000E-03 0. -1.
        -11    1    3    3    0    0 -0.27134948626E+02  0.13886956566E+02  0.84065709773E+01  0.31619984748E+02  0.51100000000E-03 0.  1.
         12    1    3    3    0    0  0.45147356959E+01  0.35317183013E+01  0.52864214037E+01  0.77975716618E+01  0.00000000000E+00 0. -1.
</event>
<event>
 7    1  0.6624035E-013  0.5052886E+02  0.7816164E-02  0.1300439E+00
        -11   -1    0    0    0    0  0.00000000000E+00  0.00000000000E+00  0.45593999997E+02  0.45594000000E+02  0.51100000000E-03 0.  1.
         11   -1    0    0    0    0 -0.00000000000E+00 -0.00000000000E+00 -0.45593999997E+02  0.45594000000E+02  0.51100000000E-03 0. -1.
    9900012    2    1    2    0    0 -0.37965507937E+02  0.14004608955E+02 -0.39569015865E+01  0.50528856686E+02  0.29999990383E+02 0.  0.
         12    1    1    2    0    0  0.37965507937E+02 -0.14004608955E+02  0.39569015865E+01  0.40659143314E+02  0.00000000000E+00 0. -1.
         11    1    3    3    0    0 -0.52450323207E-01 -0.26704900175E+01  0.28685391034E+01  0.39195388529E+01  0.51100000000E-03 0. -1.
        -11    1    3    3    0    0  0.11346672073E+01 -0.20097093201E+01 -0.19987612000E+01  0.30531046196E+01  0.51100000000E-03 0.  1.
        -12    1    3    3    0    0 -0.39047724821E+02  0.18684808293E+02 -0.48266794899E+01  0.43556213213E+02  0.00000000000E+00 0.  1.
</event>
<event>
 7    1  0.6624035E-013  0.5052885E+02  0.7816164E-02  0.1300439E+00
        -11   -1    0    0    0    0  0.00000000000E+00  0.00000000000E+00  0.45593999997E+02  0.45594000000E+02  0.51100000000E-03 0. -1.
         11   -1    0    0    0    0 -0.00000000000E+00 -0.00000000000E+00 -0.45593999997E+02  0.45594000000E+02  0.51100000000E-03 0.  1.
    9900012    2    1    2    0    0  0.87846602747E+01  0.22960430498E+01 -0.39632362233E+02  0.50528853354E+02  0.29999980254E+02 0.  0.
         12    1    1    2    0    0 -0.87846602747E+01 -0.22960430498E+01  0.39632362233E+02  0.40659146646E+02  0.00000000000E+00 0. -1.
         11    1    3    3    0    0 -0.38902964809E+01 -0.47407615452E+01 -0.41224299243E+01  0.73894286301E+01  0.51100000000E-03 0. -1.
        -11    1    3    3    0    0  0.17610170608E+02  0.27277117038E+01 -0.23955289153E+02  0.29856563745E+02  0.51100000000E-03 0.  1.
         12    1    3    3    0    0 -0.49352138525E+01  0.43090928913E+01 -0.11554643156E+02  0.13282860978E+02  0.00000000000E+00 0. -1.
</event>
<event>
 7    1  0.7575681E-013  0.5052886E+02  0.7816164E-02  0.1300439E+00
        -11   -1    0    0    0    0  0.00000000000E+00  0.00000000000E+00  0.45593999997E+02  0.45594000000E+02  0.51100000000E-03 0. -1.
         11   -1    0    0    0    0 -0.00000000000E+00 -0.00000000000E+00 -0.45593999997E+02  0.45594000000E+02  0.51100000000E-03 0.  1.
    9900012    2    1    2    0    0  0.56335452275E+01 -0.35922697580E+02 -0.18193093617E+02  0.50528859716E+02  0.29999999593E+02 0.  0.
         12    1    1    2    0    0 -0.56335452275E+01  0.35922697580E+02  0.18193093617E+02  0.40659140284E+02  0.00000000000E+00 0. -1.
         11    1    3    3    0    0 -0.45301765751E+01 -0.17612128816E+02 -0.13998747764E+02  0.22949390416E+02  0.51100000000E-03 0. -1.
        -11    1    3    3    0    0  0.24883741444E+01 -0.50527385104E+01 -0.97698802537E+01  0.11277088843E+02  0.51100000000E-03 0.  1.
         12    1    3    3    0    0  0.76753476581E+01 -0.13257830254E+02  0.55755344012E+01  0.16302380457E+02  0.00000000000E+00 0. -1.
</event>
<event>
 7    1  0.6624035E-013  0.5052887E+02  0.7816164E-02  0.1300439E+00
        -11   -1    0    0    0    0  0.00000000000E+00  0.00000000000E+00  0.45593999997E+02  0.45594000000E+02  0.51100000000E-03 0. -1.
         11   -1    0    0    0    0 -0.00000000000E+00 -0.00000000000E+00 -0.45593999997E+02  0.45594000000E+02  0.51100000000E-03 0.  1.
    9900012    2    1    2    0    0  0.34178066506E+02 -0.12935363762E+02 -0.17824171618E+02  0.50528868682E+02  0.30000026845E+02 0.  0.
         12    1    1    2    0    0 -0.34178066506E+02  0.12935363762E+02  0.17824171618E+02  0.40659131318E+02  0.00000000000E+00 0. -1.
         11    1    3    3    0    0  0.91357317504E+01 -0.58283352475E+01 -0.14174383450E+02  0.17842203699E+02  0.51100000000E-03 0. -1.
        -11    1    3    3    0    0  0.15709688765E+02 -0.51091610251E+01 -0.11665307687E+02  0.20223185980E+02  0.51100000000E-03 0.  1.
         12    1    3    3    0    0  0.93326459900E+01 -0.19978674890E+01  0.80155195200E+01  0.12463479003E+02  0.00000000000E+00 0. -1.
</event>
<event>
 7    1  0.6624035E-013  0.5052888E+02  0.7816164E-02  0.1300439E+00
        -11   -1    0    0    0    0  0.00000000000E+00  0.00000000000E+00  0.45593999997E+02  0.45594000000E+02  0.51100000000E-03 0. -1.
         11   -1    0    0    0    0 -0.00000000000E+00 -0.00000000000E+00 -0.45593999997E+02  0.45594000000E+02  0.51100000000E-03 0.  1.
    9900012    2    1    2    0    0 -0.24581620977E+02 -0.19260474940E+02 -0.26037318372E+02  0.50528881308E+02  0.30000065224E+02 0.  0.
         12    1    1    2    0    0  0.24581620977E+02  0.19260474940E+02  0.26037318372E+02  0.40659118692E+02  0.00000000000E+00 0. -1.
         11    1    3    3    0    0 -0.67091633156E+01 -0.63877253445E+01 -0.12761900110E+02  0.15769654471E+02  0.51100000000E-03 0. -1.
        -11    1    3    3    0    0 -0.11106084639E+02 -0.16838277992E+02 -0.16713761675E+02  0.26195849888E+02  0.51100000000E-03 0.  1.
         12    1    3    3    0    0 -0.67663730226E+01  0.39655283969E+01  0.34383434125E+01  0.85633769490E+01  0.00000000000E+00 0. -1.
</event>
<event>
 7    1  0.6624035E-013  0.5052886E+02  0.7816164E-02  0.1300439E+00
        -11   -1    0    0    0    0  0.00000000000E+00  0.00000000000E+00  0.45593999997E+02  0.45594000000E+02  0.51100000000E-03 0.  1.
         11   -1    0    0    0    0 -0.00000000000E+00 -0.00000000000E+00 -0.45593999997E+02  0.45594000000E+02  0.51100000000E-03 0. -1.
    9900012    2    1    2    0    0 -0.27645807042E+02 -0.31222634492E+01  0.29650074041E+02  0.50528855067E+02  0.29999985461E+02 0.  0.
         12    1    1    2    0    0  0.27645807042E+02  0.31222634492E+01 -0.29650074041E+02  0.40659144933E+02  0.00000000000E+00 0. -1.
         11    1    3    3    0    0 -0.13789409618E+02 -0.39093249235E+01  0.18369774793E+02  0.23299769638E+02  0.51100000000E-03 0.  1.
        -11    1    3    3    0    0 -0.14304692223E+02  0.80316133141E+01  0.11387076959E+02  0.19969891186E+02  0.51100000000E-03 0. -1.
         12    1    3    3    0    0  0.44829479865E+00 -0.72445518398E+01 -0.10677771106E+00  0.72591942435E+01  0.00000000000E+00 0. -1.
</event>
<event>
 7    1  0.6624035E-013  0.5052886E+02  0.7816164E-02  0.1300439E+00
        -11   -1    0    0    0    0  0.00000000000E+00  0.00000000000E+00  0.45593999997E+02  0.45594000000E+02  0.51100000000E-03 0. -1.
         11   -1    0    0    0    0 -0.00000000000E+00 -0.00000000000E+00 -0.45593999997E+02  0.45594000000E+02  0.51100000000E-03 0.  1.
    9900012    2    1    2    0    0 -0.74180483017E+01 -0.13966462922E+02 -0.37457659773E+02  0.50528858312E+02  0.29999995325E+02 0.  0.
         12    1    1    2    0    0  0.74180483017E+01  0.13966462922E+02  0.37457659773E+02  0.40659141688E+02  0.00000000000E+00 0. -1.
         11    1    3    3    0    0 -0.30367285534E+00 -0.86407457823E+01 -0.23713270406E+02  0.25240322868E+02  0.51100000000E-03 0. -1.
        -11    1    3    3    0    0  0.62503354834E+01  0.11097921547E+01 -0.33698273489E+01  0.71870765200E+01  0.51100000000E-03 0.  1.
         12    1    3    3    0    0 -0.13364710930E+02 -0.64355092943E+01 -0.10374562018E+02  0.18101458924E+02  0.00000000000E+00 0. -1.
</event>
<event>
 7    1  0.6624035E-013  0.5052889E+02  0.7816164E-02  0.1300439E+00
        -11   -1    0    0    0    0  0.00000000000E+00  0.00000000000E+00  0.45593999997E+02  0.45594000000E+02  0.51100000000E-03 0.  1.
         11   -1    0    0    0    0 -0.00000000000E+00 -0.00000000000E+00 -0.45593999997E+02  0.45594000000E+02  0.51100000000E-03 0. -1.
    9900012    2    1    2    0    0 -0.21560760640E+02 -0.97082968579E+00  0.34458010141E+02  0.50528888198E+02  0.30000086168E+02 0.  0.
         12    1    1    2    0    0  0.21560760640E+02  0.97082968579E+00 -0.34458010141E+02  0.40659111802E+02  0.00000000000E+00 0. -1.
         11    1    3    3    0    0 -0.83098443365E+01  0.69951844235E+01  0.23342807639E+01  0.11110129835E+02  0.51100000000E-03 0. -1.
        -11    1    3    3    0    0 -0.71290511011E+01  0.20625233063E+01  0.29829118893E+01  0.79984458235E+01  0.51100000000E-03 0.  1.
         12    1    3    3    0    0 -0.61218652022E+01 -0.10028537416E+02  0.29140817487E+02  0.31420312540E+02  0.00000000000E+00 0. -1.
</event>
<event>
 7    1  0.6624035E-013  0.5052881E+02  0.7816164E-02  0.1300439E+00
        -11   -1    0    0    0    0  0.00000000000E+00  0.00000000000E+00  0.45593999997E+02  0.45594000000E+02  0.51100000000E-03 0. -1.
         11   -1    0    0    0    0 -0.00000000000E+00 -0.00000000000E+00 -0.45593999997E+02  0.45594000000E+02  0.51100000000E-03 0.  1.
    9900012    2    1    2    0    0  0.37146782617E+02  0.11481911804E+02 -0.11893371697E+02  0.50528806110E+02  0.29999836652E+02 0.  0.
         12    1    1    2    0    0 -0.37146782617E+02 -0.11481911804E+02  0.11893371697E+02  0.40659193890E+02  0.00000000000E+00 0. -1.
         11    1    3    3    0    0  0.10719771641E+01 -0.18777853034E+01  0.19001123473E-01  0.21623075613E+01  0.51100000000E-03 0. -1.
        -11    1    3    3    0    0  0.33936790568E+02  0.10767656834E+01 -0.11647416036E+02  0.35896064951E+02  0.51100000000E-03 0.  1.
         12    1    3    3    0    0  0.21380148853E+01  0.12282931424E+02 -0.26495678397E+00  0.12470433598E+02  0.00000000000E+00 0. -1.
</event>
<event>
 7    1  0.6624035E-013  0.5052886E+02  0.7816164E-02  0.1300439E+00
        -11   -1    0    0    0    0  0.00000000000E+00  0.00000000000E+00  0.45593999997E+02  0.45594000000E+02  0.51100000000E-03 0.  1.
         11   -1    0    0    0    0 -0.00000000000E+00 -0.00000000000E+00 -0.45593999997E+02  0.45594000000E+02  0.51100000000E-03 0. -1.
    9900012    2    1    2    0    0 -0.33104063742E+01  0.40039224861E+02 -0.62503740295E+01  0.50528862118E+02  0.30000006893E+02 0.  0.
         12    1    1    2    0    0  0.33104063742E+01 -0.40039224861E+02  0.62503740295E+01  0.40659137882E+02  0.00000000000E+00 0. -1.
         11    1    3    3    0    0  0.15760104446E+01  0.20607706968E+02  0.39464239139E+00  0.20671650594E+02  0.51100000000E-03 0. -1.
        -11    1    3    3    0    0 -0.10889279513E+02  0.10344769778E+02  0.29922661373E+01  0.15314840089E+02  0.51100000000E-03 0.  1.
         12    1    3    3    0    0  0.60028626939E+01  0.90867481148E+01 -0.96372825582E+01  0.14542371434E+02  0.00000000000E+00 0. -1.
</event>
<event>
 7    1  0.6624035E-013  0.5052886E+02  0.7816164E-02  0.1300439E+00
        -11   -1    0    0    0    0  0.00000000000E+00  0.00000000000E+00  0.45593999997E+02  0.45594000000E+02  0.51100000000E-03 0.  1.
         11   -1    0    0    0    0 -0.00000000000E+00 -0.00000000000E+00 -0.45593999997E+02  0.45594000000E+02  0.51100000000E-03 0. -1.
    9900012    2    1    2    0    0  0.64282368587E+01 -0.39600626561E+02 -0.66055832016E+01  0.50528861021E+02  0.30000003559E+02 0.  0.
         12    1    1    2    0    0 -0.64282368587E+01  0.39600626561E+02  0.66055832016E+01  0.40659138979E+02  0.00000000000E+00 0. -1.
         11    1    3    3    0    0 -0.17907883656E+01 -0.15352525817E+01  0.28242593964E+01  0.36797234759E+01  0.51100000000E-03 0. -1.
        -11    1    3    3    0    0 -0.58872378749E+00 -0.23146486341E+02  0.57028256212E+01  0.23845935628E+02  0.51100000000E-03 0.  1.
        -12    1    3    3    0    0  0.88077490117E+01 -0.14918887638E+02 -0.15132668219E+02  0.23003201917E+02  0.00000000000E+00 0.  1.
</event>
<event>
 7    1  0.6624035E-013  0.5052881E+02  0.7816164E-02  0.1300439E+00
        -11   -1    0    0    0    0  0.00000000000E+00  0.00000000000E+00  0.45593999997E+02  0.45594000000E+02  0.51100000000E-03 0.  1.
         11   -1    0    0    0    0 -0.00000000000E+00 -0.00000000000E+00 -0.45593999997E+02  0.45594000000E+02  0.51100000000E-03 0. -1.
    9900012    2    1    2    0    0 -0.30450477200E+02  0.24774857779E+02  0.10589837601E+02  0.50528809156E+02  0.29999845909E+02 0.  0.
         12    1    1    2    0    0  0.30450477200E+02 -0.24774857779E+02 -0.10589837601E+02  0.40659190844E+02  0.00000000000E+00 0. -1.
         11    1    3    3    0    0 -0.13935944749E+02  0.17343598180E+01 -0.19492052659E+01  0.14178080316E+02  0.51100000000E-03 0. -1.
        -11    1    3    3    0    0 -0.80108410816E+01  0.37337190870E+01 -0.38458976738E+01  0.96387323976E+01  0.51100000000E-03 0.  1.
        -12    1    3    3    0    0 -0.85036913703E+01  0.19306778874E+02  0.16384940541E+02  0.26711996442E+02  0.00000000000E+00 0.  1.
</event>
<event>
 7    1  0.6624035E-013  0.5052885E+02  0.7816164E-02  0.1300439E+00
        -11   -1    0    0    0    0  0.00000000000E+00  0.00000000000E+00  0.45593999997E+02  0.45594000000E+02  0.51100000000E-03 0.  1.
         11   -1    0    0    0    0 -0.00000000000E+00 -0.00000000000E+00 -0.45593999997E+02  0.45594000000E+02  0.51100000000E-03 0. -1.
    9900012    2    1    2    0    0 -0.10945334604E+02 -0.34960104137E+02  0.17639641473E+02  0.50528853647E+02  0.29999981145E+02 0.  0.
         12    1    1    2    0    0  0.10945334604E+02  0.34960104137E+02 -0.17639641473E+02  0.40659146353E+02  0.00000000000E+00 0. -1.
         11    1    3    3    0    0 -0.21134459784E+01 -0.25176267271E+01 -0.12130202919E+01  0.35037860566E+01  0.51100000000E-03 0. -1.
        -11    1    3    3    0    0  0.82600449243E+01 -0.83114575793E+01 -0.42463673660E+00  0.11725569746E+02  0.51100000000E-03 0.  1.
        -12    1    3    3    0    0 -0.17091933550E+02 -0.24131019831E+02  0.19277298502E+02  0.35299497844E+02  0.00000000000E+00 0.  1.
</event>
<event>
 7    1  0.6624035E-013  0.5052887E+02  0.7816164E-02  0.1300439E+00
        -11   -1    0    0    0    0  0.00000000000E+00  0.00000000000E+00  0.45593999997E+02  0.45594000000E+02  0.51100000000E-03 0.  1.
         11   -1    0    0    0    0 -0.00000000000E+00 -0.00000000000E+00 -0.45593999997E+02  0.45594000000E+02  0.51100000000E-03 0. -1.
    9900012    2    1    2    0    0 -0.31166066168E+02 -0.32644802915E+01  0.25907221869E+02  0.50528872403E+02  0.30000038157E+02 0.  0.
         12    1    1    2    0    0  0.31166066168E+02  0.32644802915E+01 -0.25907221869E+02  0.40659127597E+02  0.00000000000E+00 0. -1.
         11    1    3    3    0    0 -0.21638658753E+02  0.52601036078E+00  0.14676880635E+02  0.26151846301E+02  0.51100000000E-03 0. -1.
        -11    1    3    3    0    0 -0.14179646779E+02  0.75266253427E+00  0.10837078908E+02  0.17862563175E+02  0.51100000000E-03 0.  1.
         12    1    3    3    0    0  0.46522393640E+01 -0.45431531866E+01  0.39326232651E+00  0.65144629275E+01  0.00000000000E+00 0. -1.
</event>
<event>
 7    1  0.6624035E-013  0.5052887E+02  0.7816164E-02  0.1300439E+00
        -11   -1    0    0    0    0  0.00000000000E+00  0.00000000000E+00  0.45593999997E+02  0.45594000000E+02  0.51100000000E-03 0.  1.
         11   -1    0    0    0    0 -0.00000000000E+00 -0.00000000000E+00 -0.45593999997E+02  0.45594000000E+02  0.51100000000E-03 0. -1.
    9900012    2    1    2    0    0 -0.11407238864E+02 -0.29963596796E+01  0.38910948843E+02  0.50528865605E+02  0.30000017494E+02 0.  0.
         12    1    1    2    0    0  0.11407238864E+02  0.29963596796E+01 -0.38910948843E+02  0.40659134395E+02  0.00000000000E+00 0. -1.
         11    1    3    3    0    0  0.41785249611E+01  0.14846775076E+01  0.14753471851E+02  0.15405494801E+02  0.51100000000E-03 0. -1.
        -11    1    3    3    0    0  0.79921174604E+00 -0.22629763373E+01  0.16894441653E+02  0.17064054628E+02  0.51100000000E-03 0.  1.
         12    1    3    3    0    0 -0.16384975571E+02 -0.22180608499E+01  0.72630353399E+01  0.18059316176E+02  0.00000000000E+00 0. -1.
</event>
<event>
 7    1  0.6624035E-013  0.5052885E+02  0.7816164E-02  0.1300439E+00
        -11   -1    0    0    0    0  0.00000000000E+00  0.00000000000E+00  0.45593999997E+02  0.45594000000E+02  0.51100000000E-03 0.  1.
         11   -1    0    0    0    0 -0.00000000000E+00 -0.00000000000E+00 -0.45593999997E+02  0.45594000000E+02  0.51100000000E-03 0. -1.
    9900012    2    1    2    0    0 -0.38741847447E+02  0.45166749137E+01  0.11481945310E+02  0.50528853870E+02  0.29999981824E+02 0.  0.
         12    1    1    2    0    0  0.38741847447E+02 -0.45166749137E+01 -0.11481945310E+02  0.40659146130E+02  0.00000000000E+00 0. -1.
         11    1    3    3    0    0 -0.52235033609E+01  0.42382980178E+00  0.63331877692E+01  0.82203337306E+01  0.51100000000E-03 0. -1.
        -11    1    3    3    0    0 -0.45125596306E+01 -0.11415701216E+01  0.11280535566E+02  0.12203149581E+02  0.51100000000E-03 0.  1.
         12    1    3    3    0    0 -0.29005784456E+02  0.52344152335E+01 -0.61317780254E+01  0.30105370559E+02  0.00000000000E+00 0. -1.
</event>
<event>
 7    1  0.6624035E-013  0.5052886E+02  0.7816164E-02  0.1300439E+00
        -11   -1    0    0    0    0  0.00000000000E+00  0.00000000000E+00  0.45593999997E+02  0.45594000000E+02  0.51100000000E-03 0.  1.
         11   -1    0    0    0    0 -0.00000000000E+00 -0.00000000000E+00 -0.45593999997E+02  0.45594000000E+02  0.51100000000E-03 0. -1.
    9900012    2    1    2    0    0  0.11618817463E+02 -0.37042984328E+02 -0.12082469613E+02  0.50528859833E+02  0.29999999950E+02 0.  0.
         12    1    1    2    0    0 -0.11618817463E+02  0.37042984328E+02  0.12082469613E+02  0.40659140167E+02  0.00000000000E+00 0. -1.
         11    1    3    3    0    0 -0.16387125446E+01 -0.26942186878E+02 -0.17035933837E+02  0.31918487661E+02  0.51100000000E-03 0. -1.
        -11    1    3    3    0    0 -0.39397629143E+00 -0.13460815429E+00 -0.67711661209E+00  0.79487347477E+00  0.51100000000E-03 0.  1.
        -12    1    3    3    0    0  0.13651506299E+02 -0.99661892955E+01  0.56305808366E+01  0.17815498698E+02  0.00000000000E+00 0.  1.
</event>
<event>
 7    1  0.6624035E-013  0.5052886E+02  0.7816164E-02  0.1300439E+00
        -11   -1    0    0    0    0  0.00000000000E+00  0.00000000000E+00  0.45593999997E+02  0.45594000000E+02  0.51100000000E-03 0. -1.
         11   -1    0    0    0    0 -0.00000000000E+00 -0.00000000000E+00 -0.45593999997E+02  0.45594000000E+02  0.51100000000E-03 0.  1.
    9900012    2    1    2    0    0  0.59874716005E+01 -0.32533591840E+02 -0.23640677654E+02  0.50528855222E+02  0.29999985932E+02 0.  0.
         12    1    1    2    0    0 -0.59874716005E+01  0.32533591840E+02  0.23640677654E+02  0.40659144778E+02  0.00000000000E+00 0. -1.
         11    1    3    3    0    0  0.51178856025E+01 -0.31311881654E+01  0.81955227528E+00  0.60554734381E+01  0.51100000000E-03 0. -1.
        -11    1    3    3    0    0  0.10693935353E+02 -0.20180645386E+02 -0.10722948152E+02  0.25230939714E+02  0.51100000000E-03 0.  1.
        -12    1    3    3    0    0 -0.98243493545E+01 -0.92217582881E+01 -0.13737281777E+02  0.19242442069E+02  0.00000000000E+00 0.  1.
</event>
<event>
 7    1  0.6624035E-013  0.5052886E+02  0.7816164E-02  0.1300439E+00
        -11   -1    0    0    0    0  0.00000000000E+00  0.00000000000E+00  0.45593999997E+02  0.45594000000E+02  0.51100000000E-03 0.  1.
         11   -1    0    0    0    0 -0.00000000000E+00 -0.00000000000E+00 -0.45593999997E+02  0.45594000000E+02  0.51100000000E-03 0. -1.
    9900012    2    1    2    0    0 -0.20307195636E+02 -0.29644936001E+02  0.19025274944E+02  0.50528861891E+02  0.30000006203E+02 0.  0.
         12    1    1    2    0    0  0.20307195636E+02  0.29644936001E+02 -0.19025274944E+02  0.40659138109E+02  0.00000000000E+00 0. -1.
         11    1    3    3    0    0 -0.10269592631E+02 -0.12238152781E+02  0.45440152131E+01  0.16609785995E+02  0.51100000000E-03 0. -1.
        -11    1    3    3    0    0  0.38092080839E+01 -0.16165127801E+02  0.61410463691E+01  0.17706887751E+02  0.51100000000E-03 0.  1.
         12    1    3    3    0    0 -0.13846811089E+02 -0.12416554194E+01  0.83402133619E+01  0.16212188145E+02  0.00000000000E+00 0. -1.
</event>
<event>
 7    1  0.6624035E-013  0.5052885E+02  0.7816164E-02  0.1300439E+00
        -11   -1    0    0    0    0  0.00000000000E+00  0.00000000000E+00  0.45593999997E+02  0.45594000000E+02  0.51100000000E-03 0.  1.
         11   -1    0    0    0    0 -0.00000000000E+00 -0.00000000000E+00 -0.45593999997E+02  0.45594000000E+02  0.51100000000E-03 0. -1.
    9900012    2    1    2    0    0  0.17082794470E+02  0.76710453099E+01  0.36090156194E+02  0.50528853709E+02  0.29999981334E+02 0.  0.
         12    1    1    2    0    0 -0.17082794470E+02 -0.76710453099E+01 -0.36090156194E+02  0.40659146291E+02  0.00000000000E+00 0. -1.
         11    1    3    3    0    0  0.18321763098E+01  0.12370834405E+02  0.11392354858E+02  0.16916860329E+02  0.51100000000E-03 0. -1.
        -11    1    3    3    0    0  0.56677617222E+01 -0.16178504507E+01 -0.10314151624E+01  0.59837095951E+01  0.51100000000E-03 0.  1.
        -12    1    3    3    0    0  0.95828564377E+01 -0.30819386444E+01  0.25729216498E+02  0.27628283785E+02  0.00000000000E+00 0.  1.
</event>
<event>
 7    1  0.1075505E-012  0.5052886E+02  0.7816164E-02  0.1300439E+00
        -11   -1    0    0    0    0  0.00000000000E+00  0.00000000000E+00  0.45593999997E+02  0.45594000000E+02  0.51100000000E-03 0. -1.
         11   -1    0    0    0    0 -0.00000000000E+00 -0.00000000000E+00 -0.45593999997E+02  0.45594000000E+02  0.51100000000E-03 0.  1.
    9900012    2    1    2    0    0  0.17271200951E+02  0.24434218272E+02 -0.27528892980E+02  0.50528863837E+02  0.30000012117E+02 0.  0.
         12    1    1    2    0    0 -0.17271200951E+02 -0.24434218272E+02  0.27528892980E+02  0.40659136163E+02  0.00000000000E+00 0. -1.
         11    1    3    3    0    0  0.93194105870E+01  0.57459062616E+01 -0.25152181523E+01  0.11233573566E+02  0.51100000000E-03 0. -1.
        -11    1    3    3    0    0  0.15748556829E+02  0.10715668035E+02 -0.17339095976E+02  0.25758238160E+02  0.51100000000E-03 0.  1.
         12    1    3    3    0    0 -0.77967664644E+01  0.79726439762E+01 -0.76745788516E+01  0.13537052110E+02  0.00000000000E+00 0. -1.
</event>
<event>
 7    1  0.6624035E-013  0.5052884E+02  0.7816164E-02  0.1300439E+00
        -11   -1    0    0    0    0  0.00000000000E+00  0.00000000000E+00  0.45593999997E+02  0.45594000000E+02  0.51100000000E-03 0. -1.
         11   -1    0    0    0    0 -0.00000000000E+00 -0.00000000000E+00 -0.45593999997E+02  0.45594000000E+02  0.51100000000E-03 0.  1.
    9900012    2    1    2    0    0  0.26094188296E+02 -0.23607792258E+02 -0.20369895819E+02  0.50528841453E+02  0.29999944079E+02 0.  0.
         12    1    1    2    0    0 -0.26094188296E+02  0.23607792258E+02  0.20369895819E+02  0.40659158547E+02  0.00000000000E+00 0. -1.
         11    1    3    3    0    0 -0.24884928941E+01 -0.32238265199E+01  0.12417975922E+01  0.42576655383E+01  0.51100000000E-03 0. -1.
        -11    1    3    3    0    0  0.11677147618E+02  0.28794655856E+00  0.36514609644E+00  0.11686403281E+02  0.51100000000E-03 0.  1.
        -12    1    3    3    0    0  0.16905533572E+02 -0.20671912297E+02 -0.21976839508E+02  0.34584772633E+02  0.00000000000E+00 0.  1.
</event>
<event>
 7    1  0.6624035E-013  0.5052886E+02  0.7816164E-02  0.1300439E+00
        -11   -1    0    0    0    0  0.00000000000E+00  0.00000000000E+00  0.45593999997E+02  0.45594000000E+02  0.51100000000E-03 0.  1.
         11   -1    0    0    0    0 -0.00000000000E+00 -0.00000000000E+00 -0.45593999997E+02  0.45594000000E+02  0.51100000000E-03 0. -1.
    9900012    2    1    2    0    0  0.22725925710E+02  0.33704149586E+02 -0.85355360482E+00  0.50528856471E+02  0.29999989730E+02 0.  0.
         12    1    1    2    0    0 -0.22725925710E+02 -0.33704149586E+02  0.85355360482E+00  0.40659143529E+02  0.00000000000E+00 0. -1.
         11    1    3    3    0    0  0.13071411558E+02  0.14828887301E+02  0.62068117309E+01  0.20719126691E+02  0.51100000000E-03 0. -1.
        -11    1    3    3    0    0  0.73301514781E+01  0.16080211685E+02  0.40410483711E+01  0.18128276276E+02  0.51100000000E-03 0.  1.
         12    1    3    3    0    0  0.23243626736E+01  0.27950506008E+01 -0.11101413707E+02  0.11681453505E+02  0.00000000000E+00 0. -1.
</event>
<event>
 7    1  0.6624035E-013  0.5052887E+02  0.7816164E-02  0.1300439E+00
        -11   -1    0    0    0    0  0.00000000000E+00  0.00000000000E+00  0.45593999997E+02  0.45594000000E+02  0.51100000000E-03 0.  1.
         11   -1    0    0    0    0 -0.00000000000E+00 -0.00000000000E+00 -0.45593999997E+02  0.45594000000E+02  0.51100000000E-03 0. -1.
    9900012    2    1    2    0    0  0.72917588314E+01  0.26728452724E+02  0.29758784009E+02  0.50528866247E+02  0.30000019443E+02 0.  0.
         12    1    1    2    0    0 -0.72917588314E+01 -0.26728452724E+02 -0.29758784009E+02  0.40659133753E+02  0.00000000000E+00 0. -1.
         11    1    3    3    0    0  0.25830152928E+01  0.71376922696E+00  0.52623281287E+01  0.59053816225E+01  0.51100000000E-03 0. -1.
        -11    1    3    3    0    0  0.68991824032E+01 -0.31880100252E+01  0.25102251893E+01  0.80039588027E+01  0.51100000000E-03 0.  1.
        -12    1    3    3    0    0 -0.21904388646E+01  0.29202693523E+02  0.21986230691E+02  0.36619525821E+02  0.00000000000E+00 0.  1.
</event>
<event>
 7    1  0.6624035E-013  0.5052886E+02  0.7816164E-02  0.1300439E+00
        -11   -1    0    0    0    0  0.00000000000E+00  0.00000000000E+00  0.45593999997E+02  0.45594000000E+02  0.51100000000E-03 0. -1.
         11   -1    0    0    0    0 -0.00000000000E+00 -0.00000000000E+00 -0.45593999997E+02  0.45594000000E+02  0.51100000000E-03 0.  1.
    9900012    2    1    2    0    0  0.26492635541E+02  0.25064342078E+02 -0.17974549717E+02  0.50528863029E+02  0.30000009663E+02 0.  0.
         12    1    1    2    0    0 -0.26492635541E+02 -0.25064342078E+02  0.17974549717E+02  0.40659136971E+02  0.00000000000E+00 0. -1.
         11    1    3    3    0    0  0.28075308535E+01  0.43026511891E+00 -0.33240981563E+01  0.43722976088E+01  0.51100000000E-03 0. -1.
        -11    1    3    3    0    0  0.28489556199E+02  0.14336003926E+02 -0.76095861057E+01  0.32788437321E+02  0.51100000000E-03 0.  1.
         12    1    3    3    0    0 -0.48044515120E+01  0.10298073033E+02 -0.70408654551E+01  0.13368128100E+02  0.00000000000E+00 0. -1.
</event>
<event>
 7    1  0.6624035E-013  0.5052886E+02  0.7816164E-02  0.1300439E+00
        -11   -1    0    0    0    0  0.00000000000E+00  0.00000000000E+00  0.45593999997E+02  0.45594000000E+02  0.51100000000E-03 0.  1.
         11   -1    0    0    0    0 -0.00000000000E+00 -0.00000000000E+00 -0.45593999997E+02  0.45594000000E+02  0.51100000000E-03 0. -1.
    9900012    2    1    2    0    0  0.37502149868E+01  0.34700917455E+01  0.40336831822E+02  0.50528860184E+02  0.30000001015E+02 0.  0.
         12    1    1    2    0    0 -0.37502149868E+01 -0.34700917455E+01 -0.40336831822E+02  0.40659139816E+02  0.00000000000E+00 0. -1.
         11    1    3    3    0    0  0.55238415947E+01 -0.42622871918E+01  0.69576772383E+01  0.98533847424E+01  0.51100000000E-03 0. -1.
        -11    1    3    3    0    0  0.94996532795E+01 -0.11762037057E+00  0.13144461222E+02  0.16218326302E+02  0.51100000000E-03 0.  1.
         12    1    3    3    0    0 -0.11273279887E+02  0.78499993079E+01  0.20234693362E+02  0.24457149139E+02  0.00000000000E+00 0. -1.
</event>
<event>
 7    1  0.6624035E-013  0.5052886E+02  0.7816164E-02  0.1300439E+00
        -11   -1    0    0    0    0  0.00000000000E+00  0.00000000000E+00  0.45593999997E+02  0.45594000000E+02  0.51100000000E-03 0.  1.
         11   -1    0    0    0    0 -0.00000000000E+00 -0.00000000000E+00 -0.45593999997E+02  0.45594000000E+02  0.51100000000E-03 0. -1.
    9900012    2    1    2    0    0  0.39959423751E+02  0.29546768830E+01  0.69050665455E+01  0.50528860732E+02  0.30000002681E+02 0.  0.
         12    1    1    2    0    0 -0.39959423751E+02 -0.29546768830E+01 -0.69050665455E+01  0.40659139268E+02  0.00000000000E+00 0. -1.
         11    1    3    3    0    0  0.12061097242E+01 -0.78160982968E+01 -0.14777747782E+01  0.80454901534E+01  0.51100000000E-03 0. -1.
        -11    1    3    3    0    0  0.26948762315E+02  0.63669516521E+01  0.64593412284E+00  0.27698214650E+02  0.51100000000E-03 0.  1.
        -12    1    3    3    0    0  0.11804551712E+02  0.44038235278E+01  0.77369072009E+01  0.14785155928E+02  0.00000000000E+00 0.  1.
</event>
<event>
 7    1  0.6624035E-013  0.5052886E+02  0.7816164E-02  0.1300439E+00
        -11   -1    0    0    0    0  0.00000000000E+00  0.00000000000E+00  0.45593999997E+02  0.45594000000E+02  0.51100000000E-03 0. -1.
         11   -1    0    0    0    0 -0.00000000000E+00 -0.00000000000E+00 -0.45593999997E+02  0.45594000000E+02  0.51100000000E-03 0.  1.
    9900012    2    1    2    0    0 -0.11878752116E+02  0.40953169250E+01 -0.38668970436E+02  0.50528860227E+02  0.30000001145E+02 0.  0.
         12    1    1    2    0    0  0.11878752116E+02 -0.40953169250E+01  0.38668970436E+02  0.40659139773E+02  0.00000000000E+00 0. -1.
         11    1    3    3    0    0 -0.48610462478E+01 -0.41550503429E+00 -0.37470182986E+02  0.37786466206E+02  0.51100000000E-03 0. -1.
        -11    1    3    3    0    0 -0.16724675971E+01  0.28130703682E+01 -0.49938311296E+01  0.59706668281E+01  0.51100000000E-03 0.  1.
         12    1    3    3    0    0 -0.53452382714E+01  0.16977515911E+01  0.37950436799E+01  0.67717271930E+01  0.00000000000E+00 0. -1.
</event>
<event>
 7    1  0.6624035E-013  0.5052886E+02  0.7816164E-02  0.1300439E+00
        -11   -1    0    0    0    0  0.00000000000E+00  0.00000000000E+00  0.45593999997E+02  0.45594000000E+02  0.51100000000E-03 0.  1.
         11   -1    0    0    0    0 -0.00000000000E+00 -0.00000000000E+00 -0.45593999997E+02  0.45594000000E+02  0.51100000000E-03 0. -1.
    9900012    2    1    2    0    0  0.28810760487E+02  0.25316990230E+02 -0.13496505877E+02  0.50528860989E+02  0.30000003463E+02 0.  0.
         12    1    1    2    0    0 -0.28810760487E+02 -0.25316990230E+02  0.13496505877E+02  0.40659139011E+02  0.00000000000E+00 0. -1.
         11    1    3    3    0    0  0.11218756133E+02  0.10964052505E+01 -0.15227914123E+02  0.18946027616E+02  0.51100000000E-03 0. -1.
        -11    1    3    3    0    0  0.16544936648E+02  0.15389784147E+02  0.20146789895E+01  0.22685663236E+02  0.51100000000E-03 0.  1.
        -12    1    3    3    0    0  0.10470677063E+01  0.88308008330E+01 -0.28327074427E+00  0.88971701371E+01  0.00000000000E+00 0.  1.
</event>
<event>
 7    1  0.6624035E-013  0.5052886E+02  0.7816164E-02  0.1300439E+00
        -11   -1    0    0    0    0  0.00000000000E+00  0.00000000000E+00  0.45593999997E+02  0.45594000000E+02  0.51100000000E-03 0. -1.
         11   -1    0    0    0    0 -0.00000000000E+00 -0.00000000000E+00 -0.45593999997E+02  0.45594000000E+02  0.51100000000E-03 0.  1.
    9900012    2    1    2    0    0 -0.38539667640E+02  0.44488710971E+01 -0.12168286096E+02  0.50528860531E+02  0.30000002071E+02 0.  0.
         12    1    1    2    0    0  0.38539667640E+02 -0.44488710971E+01  0.12168286096E+02  0.40659139469E+02  0.00000000000E+00 0. -1.
         11    1    3    3    0    0 -0.16037765462E+02  0.13466207530E+01 -0.14083206113E+02  0.21385976787E+02  0.51100000000E-03 0. -1.
        -11    1    3    3    0    0 -0.21672601566E+01  0.14639430559E+01 -0.65522972261E+01  0.70549801600E+01  0.51100000000E-03 0.  1.
         12    1    3    3    0    0 -0.20334642021E+02  0.16383072883E+01  0.84672172429E+01  0.22087903584E+02  0.00000000000E+00 0. -1.
</event>
<event>
 7    1  0.6680868E-013  0.5052887E+02  0.7816164E-02  0.1300439E+00
        -11   -1    0    0    0    0  0.00000000000E+00  0.00000000000E+00  0.45593999997E+02  0.45594000000E+02  0.51100000000E-03 0. -1.
         11   -1    0    0    0    0 -0.00000000000E+00 -0.00000000000E+00 -0.45593999997E+02  0.45594000000E+02  0.51100000000E-03 0.  1.
    9900012    2    1    2    0    0  0.89276479221E+01  0.35280308600E+02 -0.18131799424E+02  0.50528865446E+02  0.30000017008E+02 0.  0.
         12    1    1    2    0    0 -0.89276479221E+01 -0.35280308600E+02  0.18131799424E+02  0.40659134554E+02  0.00000000000E+00 0. -1.
         11    1    3    3    0    0  0.31723422719E+01  0.65311992237E+00  0.26391166137E+01  0.41779490046E+01  0.51100000000E-03 0. -1.
        -11    1    3    3    0    0 -0.66720726038E+01  0.13687159415E+02 -0.14897877171E+02  0.21302620265E+02  0.51100000000E-03 0.  1.
         12    1    3    3    0    0  0.12427378254E+02  0.20940029263E+02 -0.58730388668E+01  0.25048296176E+02  0.00000000000E+00 0. -1.
</event>
<event>
 7    1  0.6624035E-013  0.5052886E+02  0.7816164E-02  0.1300439E+00
        -11   -1    0    0    0    0  0.00000000000E+00  0.00000000000E+00  0.45593999997E+02  0.45594000000E+02  0.51100000000E-03 0.  1.
         11   -1    0    0    0    0 -0.00000000000E+00 -0.00000000000E+00 -0.45593999997E+02  0.45594000000E+02  0.51100000000E-03 0. -1.
    9900012    2    1    2    0    0 -0.23744382687E+01  0.35851783488E+02  0.19030955561E+02  0.50528860733E+02  0.30000002685E+02 0.  0.
         12    1    1    2    0    0  0.23744382687E+01 -0.35851783488E+02 -0.19030955561E+02  0.40659139267E+02  0.00000000000E+00 0. -1.
         11    1    3    3    0    0  0.21133585340E+01  0.10988463628E+02  0.22794392108E+01  0.11419652384E+02  0.51100000000E-03 0. -1.
        -11    1    3    3    0    0  0.36759544579E+00  0.28646223672E+02  0.16243576255E+02  0.32933190354E+02  0.51100000000E-03 0.  1.
         12    1    3    3    0    0 -0.48553922485E+01 -0.37829038118E+01  0.50794009455E+00  0.61760179951E+01  0.00000000000E+00 0. -1.
</event>
<event>
 7    1  0.6624035E-013  0.5052885E+02  0.7816164E-02  0.1300439E+00
        -11   -1    0    0    0    0  0.00000000000E+00  0.00000000000E+00  0.45593999997E+02  0.45594000000E+02  0.51100000000E-03 0.  1.
         11   -1    0    0    0    0 -0.00000000000E+00 -0.00000000000E+00 -0.45593999997E+02  0.45594000000E+02  0.51100000000E-03 0. -1.
    9900012    2    1    2    0    0  0.32229122134E+01 -0.31651212413E+02  0.25317582215E+02  0.50528851219E+02  0.29999973766E+02 0.  0.
         12    1    1    2    0    0 -0.32229122134E+01  0.31651212413E+02 -0.25317582215E+02  0.40659148781E+02  0.00000000000E+00 0. -1.
         11    1    3    3    0    0 -0.27922254853E+01 -0.40324345830E+01  0.12230058250E+02  0.13176925927E+02  0.51100000000E-03 0. -1.
        -11    1    3    3    0    0 -0.21813139201E+01  0.17483533607E+01  0.51281697984E+01  0.58406331535E+01  0.51100000000E-03 0.  1.
         12    1    3    3    0    0  0.81964516187E+01 -0.29367131190E+02  0.79593541668E+01  0.31511292139E+02  0.00000000000E+00 0. -1.
</event>
<event>
 7    1  0.6624035E-013  0.5052887E+02  0.7816164E-02  0.1300439E+00
        -11   -1    0    0    0    0  0.00000000000E+00  0.00000000000E+00  0.45593999997E+02  0.45594000000E+02  0.51100000000E-03 0.  1.
         11   -1    0    0    0    0 -0.00000000000E+00 -0.00000000000E+00 -0.45593999997E+02  0.45594000000E+02  0.51100000000E-03 0. -1.
    9900012    2    1    2    0    0 -0.26898800345E+02 -0.30175745801E+02  0.43638881177E+01  0.50528872930E+02  0.30000039758E+02 0.  0.
         12    1    1    2    0    0  0.26898800345E+02  0.30175745801E+02 -0.43638881177E+01  0.40659127070E+02  0.00000000000E+00 0. -1.
         11    1    3    3    0    0  0.27685088865E+01 -0.30928008885E+01  0.41753611778E+01  0.58875886419E+01  0.51100000000E-03 0. -1.
        -11    1    3    3    0    0 -0.10928115412E+01 -0.12400912663E+02 -0.10376381262E+01  0.12492140132E+02  0.51100000000E-03 0.  1.
        -12    1    3    3    0    0 -0.28574497690E+02 -0.14682032250E+02  0.12261650660E+01  0.32149144156E+02  0.00000000000E+00 0.  1.
</event>
<event>
 7    1  0.6624035E-013  0.5052885E+02  0.7816164E-02  0.1300439E+00
        -11   -1    0    0    0    0  0.00000000000E+00  0.00000000000E+00  0.45593999997E+02  0.45594000000E+02  0.51100000000E-03 0.  1.
         11   -1    0    0    0    0 -0.00000000000E+00 -0.00000000000E+00 -0.45593999997E+02  0.45594000000E+02  0.51100000000E-03 0. -1.
    9900012    2    1    2    0    0  0.16535248621E+02  0.36217631566E+02  0.82483278934E+01  0.50528853474E+02  0.29999980620E+02 0.  0.
         12    1    1    2    0    0 -0.16535248621E+02 -0.36217631566E+02 -0.82483278934E+01  0.40659146526E+02  0.00000000000E+00 0. -1.
         11    1    3    3    0    0  0.12609690355E+01  0.19526173229E+02  0.59372810804E+01  0.20447806502E+02  0.51100000000E-03 0. -1.
        -11    1    3    3    0    0  0.19008632349E+01  0.15051363461E+02  0.56686500603E+01  0.16195382578E+02  0.51100000000E-03 0.  1.
        -12    1    3    3    0    0  0.13373416350E+02  0.16400948754E+01 -0.33576032473E+01  0.13885664394E+02  0.00000000000E+00 0.  1.
</event>
<event>
 7    1  0.6624035E-013  0.5052886E+02  0.7816164E-02  0.1300439E+00
        -11   -1    0    0    0    0  0.00000000000E+00  0.00000000000E+00  0.45593999997E+02  0.45594000000E+02  0.51100000000E-03 0.  1.
         11   -1    0    0    0    0 -0.00000000000E+00 -0.00000000000E+00 -0.45593999997E+02  0.45594000000E+02  0.51100000000E-03 0. -1.
    9900012    2    1    2    0    0 -0.32641961780E+02  0.18932434187E+02  0.15140384949E+02  0.50528856016E+02  0.29999988346E+02 0.  0.
         12    1    1    2    0    0  0.32641961780E+02 -0.18932434187E+02 -0.15140384949E+02  0.40659143984E+02  0.00000000000E+00 0. -1.
         11    1    3    3    0    0 -0.14416018704E+02  0.74957560850E+01 -0.91182344508E+00  0.16273886347E+02  0.51100000000E-03 0.  1.
        -11    1    3    3    0    0 -0.15934779025E+02 -0.39704596476E-01  0.21443478171E+01  0.16078463448E+02  0.51100000000E-03 0. -1.
         12    1    3    3    0    0 -0.22911640504E+01  0.11476382699E+02  0.13907860577E+02  0.18176506221E+02  0.00000000000E+00 0. -1.
</event>
<event>
 7    1  0.6624035E-013  0.5052886E+02  0.7816164E-02  0.1300439E+00
        -11   -1    0    0    0    0  0.00000000000E+00  0.00000000000E+00  0.45593999997E+02  0.45594000000E+02  0.51100000000E-03 0.  1.
         11   -1    0    0    0    0 -0.00000000000E+00 -0.00000000000E+00 -0.45593999997E+02  0.45594000000E+02  0.51100000000E-03 0. -1.
    9900012    2    1    2    0    0  0.16433265352E+02 -0.79214314896E+01  0.36336818345E+02  0.50528860137E+02  0.30000000874E+02 0.  0.
         12    1    1    2    0    0 -0.16433265352E+02  0.79214314896E+01 -0.36336818345E+02  0.40659139863E+02  0.00000000000E+00 0. -1.
         11    1    3    3    0    0  0.12360166365E+02  0.19871896629E+01  0.47687854453E+01  0.13396415573E+02  0.51100000000E-03 0. -1.
        -11    1    3    3    0    0  0.16990696598E+01  0.36046643255E+01  0.18365025962E+01  0.43878451039E+01  0.51100000000E-03 0.  1.
        -12    1    3    3    0    0  0.23740293268E+01 -0.13513285478E+02  0.29731530303E+02  0.32744599460E+02  0.00000000000E+00 0.  1.
</event>
<event>
 7    1  0.6624035E-013  0.5052887E+02  0.7816164E-02  0.1300439E+00
        -11   -1    0    0    0    0  0.00000000000E+00  0.00000000000E+00  0.45593999997E+02  0.45594000000E+02  0.51100000000E-03 0.  1.
         11   -1    0    0    0    0 -0.00000000000E+00 -0.00000000000E+00 -0.45593999997E+02  0.45594000000E+02  0.51100000000E-03 0. -1.
    9900012    2    1    2    0    0  0.31153815423E+02 -0.13397206942E+02  0.22430331098E+02  0.50528866679E+02  0.30000020757E+02 0.  0.
         12    1    1    2    0    0 -0.31153815423E+02  0.13397206942E+02 -0.22430331098E+02  0.40659133321E+02  0.00000000000E+00 0. -1.
         11    1    3    3    0    0  0.34176842008E+01  0.60317479121E+01  0.65708230394E+01  0.95518722692E+01  0.51100000000E-03 0. -1.
        -11    1    3    3    0    0  0.15686013580E+01  0.28490607860E+01  0.25124495623E+01  0.41097518960E+01  0.51100000000E-03 0.  1.
        -12    1    3    3    0    0  0.26167529864E+02 -0.22278015641E+02  0.13347058496E+02  0.36867242514E+02  0.00000000000E+00 0.  1.
</event>
<event>
 7    1  0.6624035E-013  0.5052889E+02  0.7816164E-02  0.1300439E+00
        -11   -1    0    0    0    0  0.00000000000E+00  0.00000000000E+00  0.45593999997E+02  0.45594000000E+02  0.51100000000E-03 0. -1.
         11   -1    0    0    0    0 -0.00000000000E+00 -0.00000000000E+00 -0.45593999997E+02  0.45594000000E+02  0.51100000000E-03 0.  1.
    9900012    2    1    2    0    0 -0.24096799684E+02  0.31210377245E+02 -0.99206773688E+01  0.50528889800E+02  0.30000091035E+02 0.  0.
         12    1    1    2    0    0  0.24096799684E+02 -0.31210377245E+02  0.99206773688E+01  0.40659110200E+02  0.00000000000E+00 0. -1.
         11    1    3    3    0    0  0.16646007811E+01  0.44905847464E+01  0.34521391763E+01  0.59036863296E+01  0.51100000000E-03 0. -1.
        -11    1    3    3    0    0 -0.43510981651E+01 -0.16152419531E+01 -0.72179608360E+01  0.85813763873E+01  0.51100000000E-03 0.  1.
        -12    1    3    3    0    0 -0.21410302300E+02  0.28335034452E+02 -0.61548557091E+01  0.36043827083E+02  0.00000000000E+00 0.  1.
</event>
<event>
 7    1  0.6624035E-013  0.5052887E+02  0.7816164E-02  0.1300439E+00
        -11   -1    0    0    0    0  0.00000000000E+00  0.00000000000E+00  0.45593999997E+02  0.45594000000E+02  0.51100000000E-03 0. -1.
         11   -1    0    0    0    0 -0.00000000000E+00 -0.00000000000E+00 -0.45593999997E+02  0.45594000000E+02  0.51100000000E-03 0.  1.
    9900012    2    1    2    0    0  0.10638843827E+02 -0.37675307586E+02  0.10979585402E+02  0.50528867013E+02  0.30000021772E+02 0.  0.
         12    1    1    2    0    0 -0.10638843827E+02  0.37675307586E+02 -0.10979585402E+02  0.40659132987E+02  0.00000000000E+00 0. -1.
         11    1    3    3    0    0  0.12861811038E+01 -0.13318916515E+02  0.95002707389E+01  0.16410452259E+02  0.51100000000E-03 0. -1.
        -11    1    3    3    0    0 -0.70515238547E+01 -0.72105410665E+01  0.24156572535E+01  0.10370693871E+02  0.51100000000E-03 0.  1.
        -12    1    3    3    0    0  0.16404186578E+02 -0.17145850005E+02 -0.93634259069E+00  0.23747720882E+02  0.00000000000E+00 0.  1.
</event>
<event>
 7    1  0.6624035E-013  0.5052885E+02  0.7816164E-02  0.1300439E+00
        -11   -1    0    0    0    0  0.00000000000E+00  0.00000000000E+00  0.45593999997E+02  0.45594000000E+02  0.51100000000E-03 0.  1.
         11   -1    0    0    0    0 -0.00000000000E+00 -0.00000000000E+00 -0.45593999997E+02  0.45594000000E+02  0.51100000000E-03 0. -1.
    9900012    2    1    2    0    0 -0.21862471380E+01  0.10791838166E+02  0.39139783355E+02  0.50528854798E+02  0.29999984643E+02 0.  0.
         12    1    1    2    0    0  0.21862471380E+01 -0.10791838166E+02 -0.39139783355E+02  0.40659145202E+02  0.00000000000E+00 0. -1.
         11    1    3    3    0    0 -0.54968416644E+01  0.39542528786E+01  0.34117314737E+01  0.75823014989E+01  0.51100000000E-03 0. -1.
        -11    1    3    3    0    0 -0.44881107594E+01 -0.53825573546E+01  0.21583016848E+02  0.22692326421E+02  0.51100000000E-03 0.  1.
         12    1    3    3    0    0  0.77987052858E+01  0.12220142642E+02  0.14145035033E+02  0.20254226877E+02  0.00000000000E+00 0. -1.
</event>
<event>
 7    1  0.6624035E-013  0.5052885E+02  0.7816164E-02  0.1300439E+00
        -11   -1    0    0    0    0  0.00000000000E+00  0.00000000000E+00  0.45593999997E+02  0.45594000000E+02  0.51100000000E-03 0. -1.
         11   -1    0    0    0    0 -0.00000000000E+00 -0.00000000000E+00 -0.45593999997E+02  0.45594000000E+02  0.51100000000E-03 0.  1.
    9900012    2    1    2    0    0  0.34452652478E+01 -0.66702489659E+01 -0.39960035264E+02  0.50528849834E+02  0.29999969555E+02 0.  0.
         12    1    1    2    0    0 -0.34452652478E+01  0.66702489659E+01  0.39960035264E+02  0.40659150166E+02  0.00000000000E+00 0. -1.
         11    1    3    3    0    0  0.12847924345E+01 -0.67752394223E+01  0.21564217616E+01  0.72252831020E+01  0.51100000000E-03 0. -1.
        -11    1    3    3    0    0 -0.18772975924E+01  0.40172243831E+01 -0.17465274946E+02  0.18019383097E+02  0.51100000000E-03 0.  1.
        -12    1    3    3    0    0  0.40377704057E+01 -0.39122339267E+01 -0.24651182080E+02  0.25284183635E+02  0.00000000000E+00 0.  1.
</event>
<event>
 7    1  0.6624035E-013  0.5052886E+02  0.7816164E-02  0.1300439E+00
        -11   -1    0    0    0    0  0.00000000000E+00  0.00000000000E+00  0.45593999997E+02  0.45594000000E+02  0.51100000000E-03 0.  1.
         11   -1    0    0    0    0 -0.00000000000E+00 -0.00000000000E+00 -0.45593999997E+02  0.45594000000E+02  0.51100000000E-03 0. -1.
    9900012    2    1    2    0    0 -0.27716997229E+02  0.12353814937E+02  0.27061352076E+02  0.50528862588E+02  0.30000008323E+02 0.  0.
         12    1    1    2    0    0  0.27716997229E+02 -0.12353814937E+02 -0.27061352076E+02  0.40659137412E+02  0.00000000000E+00 0. -1.
         11    1    3    3    0    0 -0.10303092845E+02  0.97805825380E+01  0.21755419051E+02  0.25982913141E+02  0.51100000000E-03 0.  1.
        -11    1    3    3    0    0 -0.18518708939E+02  0.65605257664E+01  0.32069779818E+01  0.19906476010E+02  0.51100000000E-03 0. -1.
         12    1    3    3    0    0  0.11048045548E+01 -0.39872933670E+01  0.20989550429E+01  0.46394734368E+01  0.00000000000E+00 0. -1.
</event>
<event>
 7    1  0.6624035E-013  0.5052886E+02  0.7816164E-02  0.1300439E+00
        -11   -1    0    0    0    0  0.00000000000E+00  0.00000000000E+00  0.45593999997E+02  0.45594000000E+02  0.51100000000E-03 0.  1.
         11   -1    0    0    0    0 -0.00000000000E+00 -0.00000000000E+00 -0.45593999997E+02  0.45594000000E+02  0.51100000000E-03 0. -1.
    9900012    2    1    2    0    0 -0.30731669890E+02 -0.51694015765E+00  0.26616970910E+02  0.50528857095E+02  0.29999991627E+02 0.  0.
         12    1    1    2    0    0  0.30731669890E+02  0.51694015765E+00 -0.26616970910E+02  0.40659142905E+02  0.00000000000E+00 0. -1.
         11    1    3    3    0    0 -0.14338984003E+02 -0.88311150687E+01  0.84205303870E+01  0.18828180684E+02  0.51100000000E-03 0. -1.
        -11    1    3    3    0    0 -0.12169123889E+02  0.60709009098E+01  0.76034721731E+00  0.13620629289E+02  0.51100000000E-03 0.  1.
        -12    1    3    3    0    0 -0.42235619976E+01  0.22432740013E+01  0.17436093306E+02  0.18080047122E+02  0.00000000000E+00 0.  1.
</event>
<event>
 7    1  0.6624035E-013  0.5052886E+02  0.7816164E-02  0.1300439E+00
        -11   -1    0    0    0    0  0.00000000000E+00  0.00000000000E+00  0.45593999997E+02  0.45594000000E+02  0.51100000000E-03 0.  1.
         11   -1    0    0    0    0 -0.00000000000E+00 -0.00000000000E+00 -0.45593999997E+02  0.45594000000E+02  0.51100000000E-03 0. -1.
    9900012    2    1    2    0    0  0.27357146447E+02  0.23807681442E+01  0.29984730623E+02  0.50528860939E+02  0.30000003310E+02 0.  0.
         12    1    1    2    0    0 -0.27357146447E+02 -0.23807681442E+01 -0.29984730623E+02  0.40659139061E+02  0.00000000000E+00 0. -1.
         11    1    3    3    0    0 -0.36164012212E+00  0.67744956656E+00 -0.35555198292E+01  0.36375050529E+01  0.51100000000E-03 0. -1.
        -11    1    3    3    0    0 -0.17295494098E+01 -0.21742472613E+01  0.13421921251E+01  0.30854776415E+01  0.51100000000E-03 0.  1.
        -12    1    3    3    0    0  0.29448335979E+02  0.38775658390E+01  0.32198058327E+02  0.43805878244E+02  0.00000000000E+00 0.  1.
</event>
<event>
 7    1  0.6624035E-013  0.5052886E+02  0.7816164E-02  0.1300439E+00
        -11   -1    0    0    0    0  0.00000000000E+00  0.00000000000E+00  0.45593999997E+02  0.45594000000E+02  0.51100000000E-03 0.  1.
         11   -1    0    0    0    0 -0.00000000000E+00 -0.00000000000E+00 -0.45593999997E+02  0.45594000000E+02  0.51100000000E-03 0. -1.
    9900012    2    1    2    0    0  0.18539125223E+02 -0.13173868510E+02  0.33703351941E+02  0.50528857023E+02  0.29999991407E+02 0.  0.
         12    1    1    2    0    0 -0.18539125223E+02  0.13173868510E+02 -0.33703351941E+02  0.40659142977E+02  0.00000000000E+00 0. -1.
         11    1    3    3    0    0  0.36305527843E+01 -0.31823223116E+00  0.14522090268E+01  0.39231488107E+01  0.51100000000E-03 0. -1.
        -11    1    3    3    0    0  0.12907102688E+02 -0.14294865362E+02  0.36741347577E+02  0.41483286966E+02  0.51100000000E-03 0.  1.
         12    1    3    3    0    0  0.20014697507E+01  0.14392290829E+01 -0.44902046621E+01  0.51224212463E+01  0.00000000000E+00 0. -1.
</event>
<event>
 7    1  0.6624035E-013  0.5052886E+02  0.7816164E-02  0.1300439E+00
        -11   -1    0    0    0    0  0.00000000000E+00  0.00000000000E+00  0.45593999997E+02  0.45594000000E+02  0.51100000000E-03 0.  1.
         11   -1    0    0    0    0 -0.00000000000E+00 -0.00000000000E+00 -0.45593999997E+02  0.45594000000E+02  0.51100000000E-03 0. -1.
    9900012    2    1    2    0    0 -0.28408458643E+02  0.22509534690E+01  0.29001008710E+02  0.50528858098E+02  0.29999994674E+02 0.  0.
         12    1    1    2    0    0  0.28408458643E+02 -0.22509534690E+01 -0.29001008710E+02  0.40659141902E+02  0.00000000000E+00 0. -1.
         11    1    3    3    0    0 -0.11191355519E+02  0.95395337987E+00  0.60136767478E+01  0.12740517010E+02  0.51100000000E-03 0. -1.
        -11    1    3    3    0    0 -0.17186487109E+02 -0.83644096815E+01  0.99127878479E+01  0.21531420103E+02  0.51100000000E-03 0.  1.
         12    1    3    3    0    0 -0.30616015247E-01  0.96614097707E+01  0.13074544114E+02  0.16256920985E+02  0.00000000000E+00 0. -1.
</event>
<event>
 7    1  0.6624035E-013  0.5052885E+02  0.7816164E-02  0.1300439E+00
        -11   -1    0    0    0    0  0.00000000000E+00  0.00000000000E+00  0.45593999997E+02  0.45594000000E+02  0.51100000000E-03 0.  1.
         11   -1    0    0    0    0 -0.00000000000E+00 -0.00000000000E+00 -0.45593999997E+02  0.45594000000E+02  0.51100000000E-03 0. -1.
    9900012    2    1    2    0    0  0.29825922795E+01  0.84764466508E+01  0.39653757996E+02  0.50528849397E+02  0.29999968227E+02 0.  0.
         12    1    1    2    0    0 -0.29825922795E+01 -0.84764466508E+01 -0.39653757996E+02  0.40659150603E+02  0.00000000000E+00 0. -1.
         11    1    3    3    0    0  0.51864859360E+01  0.12226082785E+02  0.21127101986E+02  0.24954582249E+02  0.51100000000E-03 0. -1.
        -11    1    3    3    0    0  0.30246255094E+01  0.45557123945E+01  0.13462312561E+02  0.14530544884E+02  0.51100000000E-03 0.  1.
        -12    1    3    3    0    0 -0.52285191659E+01 -0.83053485291E+01  0.50643434498E+01  0.11043722264E+02  0.00000000000E+00 0.  1.
</event>
<event>
 7    1  0.6624035E-013  0.5052886E+02  0.7816164E-02  0.1300439E+00
        -11   -1    0    0    0    0  0.00000000000E+00  0.00000000000E+00  0.45593999997E+02  0.45594000000E+02  0.51100000000E-03 0.  1.
         11   -1    0    0    0    0 -0.00000000000E+00 -0.00000000000E+00 -0.45593999997E+02  0.45594000000E+02  0.51100000000E-03 0. -1.
    9900012    2    1    2    0    0  0.14093288937E+01  0.38749790036E+02  0.12232468415E+02  0.50528859339E+02  0.29999998447E+02 0.  0.
         12    1    1    2    0    0 -0.14093288937E+01 -0.38749790036E+02 -0.12232468415E+02  0.40659140661E+02  0.00000000000E+00 0. -1.
         11    1    3    3    0    0  0.49831068207E+01  0.17612353590E+02  0.57177056327E+01  0.19175987863E+02  0.51100000000E-03 0. -1.
        -11    1    3    3    0    0 -0.56709683774E+00  0.25049465974E+02  0.78223822543E+01  0.26248562033E+02  0.51100000000E-03 0.  1.
         12    1    3    3    0    0 -0.30066810892E+01 -0.39120295283E+01 -0.13076194717E+01  0.51043094425E+01  0.00000000000E+00 0. -1.
</event>
<event>
 7    1  0.6624035E-013  0.5052886E+02  0.7816164E-02  0.1300439E+00
        -11   -1    0    0    0    0  0.00000000000E+00  0.00000000000E+00  0.45593999997E+02  0.45594000000E+02  0.51100000000E-03 0.  1.
         11   -1    0    0    0    0 -0.00000000000E+00 -0.00000000000E+00 -0.45593999997E+02  0.45594000000E+02  0.51100000000E-03 0. -1.
    9900012    2    1    2    0    0  0.54661325617E+01 -0.11641195775E+02  0.38571613556E+02  0.50528863062E+02  0.30000009763E+02 0.  0.
         12    1    1    2    0    0 -0.54661325617E+01  0.11641195775E+02 -0.38571613556E+02  0.40659136938E+02  0.00000000000E+00 0. -1.
         11    1    3    3    0    0 -0.64003445328E+01 -0.17110443048E+01  0.85691048224E+01  0.10831511458E+02  0.51100000000E-03 0. -1.
        -11    1    3    3    0    0 -0.28195031798E+01  0.27944817496E+01  0.13915502784E+02  0.14470658050E+02  0.51100000000E-03 0.  1.
        -12    1    3    3    0    0  0.14685980274E+02 -0.12724633220E+02  0.16087005950E+02  0.25226693553E+02  0.00000000000E+00 0.  1.
</event>
<event>
 7    1  0.6624035E-013  0.5052892E+02  0.7816164E-02  0.1300439E+00
        -11   -1    0    0    0    0  0.00000000000E+00  0.00000000000E+00  0.45593999997E+02  0.45594000000E+02  0.51100000000E-03 0. -1.
         11   -1    0    0    0    0 -0.00000000000E+00 -0.00000000000E+00 -0.45593999997E+02  0.45594000000E+02  0.51100000000E-03 0.  1.
    9900012    2    1    2    0    0  0.24330237417E+02 -0.79140361441E+01 -0.31600133345E+02  0.50528919239E+02  0.30000180520E+02 0.  0.
         12    1    1    2    0    0 -0.24330237417E+02  0.79140361441E+01  0.31600133345E+02  0.40659080761E+02  0.00000000000E+00 0. -1.
         11    1    3    3    0    0  0.90336499035E+01  0.90724035053E+01 -0.18189973617E+02  0.22243886270E+02  0.51100000000E-03 0. -1.
        -11    1    3    3    0    0  0.17377724140E+01 -0.13866091619E+01 -0.58818000255E+01  0.62879336616E+01  0.51100000000E-03 0.  1.
        -12    1    3    3    0    0  0.13558815100E+02 -0.15599830488E+02 -0.75283597025E+01  0.21997099308E+02  0.00000000000E+00 0.  1.
</event>
<event>
 7    1  0.6624035E-013  0.5052887E+02  0.7816164E-02  0.1300439E+00
        -11   -1    0    0    0    0  0.00000000000E+00  0.00000000000E+00  0.45593999997E+02  0.45594000000E+02  0.51100000000E-03 0.  1.
         11   -1    0    0    0    0 -0.00000000000E+00 -0.00000000000E+00 -0.45593999997E+02  0.45594000000E+02  0.51100000000E-03 0. -1.
    9900012    2    1    2    0    0  0.20410761240E+02 -0.34409761485E+02  0.72480255280E+01  0.50528871457E+02  0.30000035279E+02 0.  0.
         12    1    1    2    0    0 -0.20410761240E+02  0.34409761485E+02 -0.72480255280E+01  0.40659128543E+02  0.00000000000E+00 0. -1.
         11    1    3    3    0    0 -0.24525669066E+01 -0.90621477065E+01 -0.41881430971E+01  0.10279987760E+02  0.51100000000E-03 0. -1.
        -11    1    3    3    0    0 -0.10865410460E+01  0.19422663988E+01  0.11814267465E+01  0.25196705394E+01  0.51100000000E-03 0.  1.
        -12    1    3    3    0    0  0.23949869193E+02 -0.27289880177E+02  0.10254741879E+02  0.37729213157E+02  0.00000000000E+00 0.  1.
</event>
<event>
 7    1  0.6624035E-013  0.5052886E+02  0.7816164E-02  0.1300439E+00
        -11   -1    0    0    0    0  0.00000000000E+00  0.00000000000E+00  0.45593999997E+02  0.45594000000E+02  0.51100000000E-03 0. -1.
         11   -1    0    0    0    0 -0.00000000000E+00 -0.00000000000E+00 -0.45593999997E+02  0.45594000000E+02  0.51100000000E-03 0.  1.
    9900012    2    1    2    0    0  0.39380534392E+02 -0.91078835607E+01 -0.44029229050E+01  0.50528858813E+02  0.29999996847E+02 0.  0.
         12    1    1    2    0    0 -0.39380534392E+02  0.91078835607E+01  0.44029229050E+01  0.40659141187E+02  0.00000000000E+00 0. -1.
         11    1    3    3    0    0  0.15141265324E+02 -0.68472961379E+01  0.10176130811E+02  0.19485815830E+02  0.51100000000E-03 0. -1.
        -11    1    3    3    0    0  0.15559038972E+01 -0.24993390248E+01 -0.61944301134E+01  0.68584617218E+01  0.51100000000E-03 0.  1.
        -12    1    3    3    0    0  0.22683365171E+02  0.23875160198E+00 -0.83846236028E+01  0.24184581261E+02  0.00000000000E+00 0.  1.
</event>
<event>
 7    1  0.6624035E-013  0.5052886E+02  0.7816164E-02  0.1300439E+00
        -11   -1    0    0    0    0  0.00000000000E+00  0.00000000000E+00  0.45593999997E+02  0.45594000000E+02  0.51100000000E-03 0.  1.
         11   -1    0    0    0    0 -0.00000000000E+00 -0.00000000000E+00 -0.45593999997E+02  0.45594000000E+02  0.51100000000E-03 0. -1.
    9900012    2    1    2    0    0 -0.22944772293E+01  0.36208799011E+02  0.18352765394E+02  0.50528858971E+02  0.29999997330E+02 0.  0.
         12    1    1    2    0    0  0.22944772293E+01 -0.36208799011E+02 -0.18352765394E+02  0.40659141029E+02  0.00000000000E+00 0. -1.
         11    1    3    3    0    0  0.23346071694E+01 -0.23577128474E+01  0.28774626319E+01  0.43919234926E+01  0.51100000000E-03 0. -1.
        -11    1    3    3    0    0  0.54717662737E+01  0.44291778979E+01  0.61196176004E+01  0.93277844551E+01  0.51100000000E-03 0.  1.
         12    1    3    3    0    0 -0.10100850672E+02  0.34137333961E+02  0.93556851615E+01  0.36809151024E+02  0.00000000000E+00 0. -1.
</event>
<event>
 7    1  0.6624035E-013  0.5052890E+02  0.7816164E-02  0.1300439E+00
        -11   -1    0    0    0    0  0.00000000000E+00  0.00000000000E+00  0.45593999997E+02  0.45594000000E+02  0.51100000000E-03 0. -1.
         11   -1    0    0    0    0 -0.00000000000E+00 -0.00000000000E+00 -0.45593999997E+02  0.45594000000E+02  0.51100000000E-03 0.  1.
    9900012    2    1    2    0    0  0.17491352848E+02  0.16024349536E+02 -0.33021744011E+02  0.50528895484E+02  0.30000108313E+02 0.  0.
         12    1    1    2    0    0 -0.17491352848E+02 -0.16024349536E+02  0.33021744011E+02  0.40659104516E+02  0.00000000000E+00 0. -1.
         11    1    3    3    0    0  0.49199539389E+01  0.13633471730E+02 -0.20895649140E+02  0.25430408007E+02  0.51100000000E-03 0. -1.
        -11    1    3    3    0    0  0.25010476866E+01  0.71766209464E+01 -0.11686243978E+02  0.13940137242E+02  0.51100000000E-03 0.  1.
         12    1    3    3    0    0  0.10070351223E+02 -0.47857431407E+01 -0.43985089300E+00  0.11158350235E+02  0.00000000000E+00 0. -1.
</event>
<event>
 7    1  0.6624035E-013  0.5052886E+02  0.7816164E-02  0.1300439E+00
        -11   -1    0    0    0    0  0.00000000000E+00  0.00000000000E+00  0.45593999997E+02  0.45594000000E+02  0.51100000000E-03 0.  1.
         11   -1    0    0    0    0 -0.00000000000E+00 -0.00000000000E+00 -0.45593999997E+02  0.45594000000E+02  0.51100000000E-03 0. -1.
    9900012    2    1    2    0    0  0.27383079568E+02  0.98673180866E+00  0.30039292055E+02  0.50528858919E+02  0.29999997171E+02 0.  0.
         12    1    1    2    0    0 -0.27383079568E+02 -0.98673180866E+00 -0.30039292055E+02  0.40659141081E+02  0.00000000000E+00 0. -1.
         11    1    3    3    0    0  0.63543462014E+00  0.39892754251E+00 -0.32837460202E+01  0.33683688229E+01  0.51100000000E-03 0. -1.
        -11    1    3    3    0    0  0.67389379473E+01 -0.88292204445E+01  0.13304988214E+02  0.17331795347E+02  0.51100000000E-03 0.  1.
        -12    1    3    3    0    0  0.20008707000E+02  0.94170247106E+01  0.20018049861E+02  0.29828694750E+02  0.00000000000E+00 0.  1.
</event>
<event>
 7    1  0.7171419E-013  0.5052885E+02  0.7816164E-02  0.1300439E+00
        -11   -1    0    0    0    0  0.00000000000E+00  0.00000000000E+00  0.45593999997E+02  0.45594000000E+02  0.51100000000E-03 0. -1.
         11   -1    0    0    0    0 -0.00000000000E+00 -0.00000000000E+00 -0.45593999997E+02  0.45594000000E+02  0.51100000000E-03 0.  1.
    9900012    2    1    2    0    0  0.23785685676E+02 -0.26383415025E+02 -0.19781882059E+02  0.50528852330E+02  0.29999977142E+02 0.  0.
         12    1    1    2    0    0 -0.23785685676E+02  0.26383415025E+02  0.19781882059E+02  0.40659147670E+02  0.00000000000E+00 0. -1.
         11    1    3    3    0    0  0.98593740692E+01 -0.83127920412E+00 -0.78562949371E+01  0.12634067142E+02  0.51100000000E-03 0.  1.
        -11    1    3    3    0    0  0.55671321329E+01 -0.49700227271E+01 -0.13708785530E+02  0.15608487661E+02  0.51100000000E-03 0. -1.
         12    1    3    3    0    0  0.83591794737E+01 -0.20582113094E+02  0.17831984078E+01  0.22286297527E+02  0.00000000000E+00 0. -1.
</event>
<event>
 7    1  0.6624035E-013  0.5052886E+02  0.7816164E-02  0.1300439E+00
        -11   -1    0    0    0    0  0.00000000000E+00  0.00000000000E+00  0.45593999997E+02  0.45594000000E+02  0.51100000000E-03 0.  1.
         11   -1    0    0    0    0 -0.00000000000E+00 -0.00000000000E+00 -0.45593999997E+02  0.45594000000E+02  0.51100000000E-03 0. -1.
    9900012    2    1    2    0    0  0.13692436809E+02 -0.17220618331E+02  0.34192589247E+02  0.50528859811E+02  0.29999999882E+02 0.  0.
         12    1    1    2    0    0 -0.13692436809E+02  0.17220618331E+02 -0.34192589247E+02  0.40659140189E+02  0.00000000000E+00 0. -1.
         11    1    3    3    0    0  0.36861108177E+00 -0.12498317337E+02  0.68583488906E+01  0.14261162651E+02  0.51100000000E-03 0. -1.
        -11    1    3    3    0    0 -0.34843414777E+01  0.25698625315E+01  0.10615062755E+02  0.11464047563E+02  0.51100000000E-03 0.  1.
         12    1    3    3    0    0  0.16808167205E+02 -0.72921635256E+01  0.16719177601E+02  0.24803649597E+02  0.00000000000E+00 0. -1.
</event>
<event>
 7    1  0.6624035E-013  0.5052884E+02  0.7816164E-02  0.1300439E+00
        -11   -1    0    0    0    0  0.00000000000E+00  0.00000000000E+00  0.45593999997E+02  0.45594000000E+02  0.51100000000E-03 0.  1.
         11   -1    0    0    0    0 -0.00000000000E+00 -0.00000000000E+00 -0.45593999997E+02  0.45594000000E+02  0.51100000000E-03 0. -1.
    9900012    2    1    2    0    0 -0.19553119268E+02  0.34366196574E+02  0.94766620657E+01  0.50528842802E+02  0.29999948182E+02 0.  0.
         12    1    1    2    0    0  0.19553119268E+02 -0.34366196574E+02 -0.94766620657E+01  0.40659157198E+02  0.00000000000E+00 0. -1.
         11    1    3    3    0    0 -0.20026203771E+02  0.57692689375E+01  0.49303557730E+01  0.21415921877E+02  0.51100000000E-03 0. -1.
        -11    1    3    3    0    0 -0.38077844819E+00  0.24185653826E+01  0.11376794138E+01  0.26997713693E+01  0.51100000000E-03 0.  1.
         12    1    3    3    0    0  0.85386295071E+00  0.26178362254E+02  0.34086268788E+01  0.26413149556E+02  0.00000000000E+00 0. -1.
</event>
<event>
 7    1  0.6624035E-013  0.5052886E+02  0.7816164E-02  0.1300439E+00
        -11   -1    0    0    0    0  0.00000000000E+00  0.00000000000E+00  0.45593999997E+02  0.45594000000E+02  0.51100000000E-03 0.  1.
         11   -1    0    0    0    0 -0.00000000000E+00 -0.00000000000E+00 -0.45593999997E+02  0.45594000000E+02  0.51100000000E-03 0. -1.
    9900012    2    1    2    0    0  0.19914940260E+02 -0.13953307183E+02  0.32586283817E+02  0.50528861791E+02  0.30000005900E+02 0.  0.
         12    1    1    2    0    0 -0.19914940260E+02  0.13953307183E+02 -0.32586283817E+02  0.40659138209E+02  0.00000000000E+00 0. -1.
         11    1    3    3    0    0  0.17152030387E+02 -0.44496726193E+01  0.13003557435E+02  0.21979177396E+02  0.51100000000E-03 0. -1.
        -11    1    3    3    0    0  0.67715704810E+01 -0.11606977514E+02  0.19899340957E+02  0.24011661012E+02  0.51100000000E-03 0.  1.
         12    1    3    3    0    0 -0.40086606074E+01  0.21033429498E+01 -0.31661457517E+00  0.45380233824E+01  0.00000000000E+00 0. -1.
</event>
<event>
 7    1  0.6624035E-013  0.5052887E+02  0.7816164E-02  0.1300439E+00
        -11   -1    0    0    0    0  0.00000000000E+00  0.00000000000E+00  0.45593999997E+02  0.45594000000E+02  0.51100000000E-03 0.  1.
         11   -1    0    0    0    0 -0.00000000000E+00 -0.00000000000E+00 -0.45593999997E+02  0.45594000000E+02  0.51100000000E-03 0. -1.
    9900012    2    1    2    0    0 -0.39648986534E+02  0.89715390845E+01 -0.79621681480E+00  0.50528873006E+02  0.30000039989E+02 0.  0.
         12    1    1    2    0    0  0.39648986534E+02 -0.89715390845E+01  0.79621681480E+00  0.40659126994E+02  0.00000000000E+00 0. -1.
         11    1    3    3    0    0 -0.43407898713E+01  0.18526023956E+01 -0.68177272981E+01  0.82919236680E+01  0.51100000000E-03 0. -1.
        -11    1    3    3    0    0 -0.27762637879E+01  0.80628475565E+01 -0.19101570973E+01  0.87387557316E+01  0.51100000000E-03 0.  1.
        -12    1    3    3    0    0 -0.32531932875E+02 -0.94391086763E+00  0.79316675806E+01  0.33498193606E+02  0.00000000000E+00 0.  1.
</event>
<event>
 7    1  0.6624035E-013  0.5052883E+02  0.7816164E-02  0.1300439E+00
        -11   -1    0    0    0    0  0.00000000000E+00  0.00000000000E+00  0.45593999997E+02  0.45594000000E+02  0.51100000000E-03 0.  1.
         11   -1    0    0    0    0 -0.00000000000E+00 -0.00000000000E+00 -0.45593999997E+02  0.45594000000E+02  0.51100000000E-03 0. -1.
    9900012    2    1    2    0    0 -0.17276283501E+02  0.52329191467E+00  0.36802507292E+02  0.50528827001E+02  0.29999900151E+02 0.  0.
         12    1    1    2    0    0  0.17276283501E+02 -0.52329191467E+00 -0.36802507292E+02  0.40659172999E+02  0.00000000000E+00 0. -1.
         11    1    3    3    0    0 -0.18798433888E+01  0.30380464761E+00  0.12216194627E+02  0.12363717881E+02  0.51100000000E-03 0. -1.
        -11    1    3    3    0    0 -0.12120853921E+02  0.29137980099E+01  0.29289440543E+02  0.31832006632E+02  0.51100000000E-03 0.  1.
         12    1    3    3    0    0 -0.32755861915E+01 -0.26943107429E+01 -0.47031278782E+01  0.63331024874E+01  0.00000000000E+00 0. -1.
</event>
<event>
 7    1  0.6624035E-013  0.5052886E+02  0.7816164E-02  0.1300439E+00
        -11   -1    0    0    0    0  0.00000000000E+00  0.00000000000E+00  0.45593999997E+02  0.45594000000E+02  0.51100000000E-03 0. -1.
         11   -1    0    0    0    0 -0.00000000000E+00 -0.00000000000E+00 -0.45593999997E+02  0.45594000000E+02  0.51100000000E-03 0.  1.
    9900012    2    1    2    0    0  0.37439768410E+02 -0.74349232889E+01 -0.14005392619E+02  0.50528863692E+02  0.30000011678E+02 0.  0.
         12    1    1    2    0    0 -0.37439768410E+02  0.74349232889E+01  0.14005392619E+02  0.40659136308E+02  0.00000000000E+00 0. -1.
         11    1    3    3    0    0  0.20763791303E+01 -0.21305029120E+01 -0.64464109380E+01  0.70997610660E+01  0.51100000000E-03 0. -1.
        -11    1    3    3    0    0  0.61867632474E+01 -0.17665273965E+01 -0.12086248333E+02  0.13692116621E+02  0.51100000000E-03 0.  1.
        -12    1    3    3    0    0  0.29176626032E+02 -0.35378929804E+01  0.45272666520E+01  0.29736986006E+02  0.00000000000E+00 0.  1.
</event>
<event>
 7    1  0.6624035E-013  0.5052885E+02  0.7816164E-02  0.1300439E+00
        -11   -1    0    0    0    0  0.00000000000E+00  0.00000000000E+00  0.45593999997E+02  0.45594000000E+02  0.51100000000E-03 0. -1.
         11   -1    0    0    0    0 -0.00000000000E+00 -0.00000000000E+00 -0.45593999997E+02  0.45594000000E+02  0.51100000000E-03 0.  1.
    9900012    2    1    2    0    0  0.22854926100E+02 -0.19236781039E+02 -0.27581963035E+02  0.50528854945E+02  0.29999985090E+02 0.  0.
         12    1    1    2    0    0 -0.22854926100E+02  0.19236781039E+02  0.27581963035E+02  0.40659145055E+02  0.00000000000E+00 0. -1.
         11    1    3    3    0    0 -0.24457053588E+01 -0.10274457410E+01  0.21329844711E+00  0.26613184592E+01  0.51100000000E-03 0. -1.
        -11    1    3    3    0    0  0.54581599601E+01 -0.17860357483E+02 -0.98621916027E+01  0.21119817779E+02  0.51100000000E-03 0.  1.
        -12    1    3    3    0    0  0.19842471498E+02 -0.34897781488E+00 -0.17933069879E+02  0.26747718706E+02  0.00000000000E+00 0.  1.
</event>
<event>
 7    1  0.6624035E-013  0.5052887E+02  0.7816164E-02  0.1300439E+00
        -11   -1    0    0    0    0  0.00000000000E+00  0.00000000000E+00  0.45593999997E+02  0.45594000000E+02  0.51100000000E-03 0.  1.
         11   -1    0    0    0    0 -0.00000000000E+00 -0.00000000000E+00 -0.45593999997E+02  0.45594000000E+02  0.51100000000E-03 0. -1.
    9900012    2    1    2    0    0  0.32438503029E+02  0.16026796988E+02  0.18548593040E+02  0.50528868132E+02  0.30000025175E+02 0.  0.
         12    1    1    2    0    0 -0.32438503029E+02 -0.16026796988E+02 -0.18548593040E+02  0.40659131868E+02  0.00000000000E+00 0. -1.
         11    1    3    3    0    0  0.14581195827E+01  0.13559898136E+02  0.34862990575E+01  0.14076620033E+02  0.51100000000E-03 0. -1.
        -11    1    3    3    0    0 -0.84640955665E+00 -0.75132354302E+00  0.97771904964E-01  0.11359823108E+01  0.51100000000E-03 0.  1.
        -12    1    3    3    0    0  0.31826793003E+02  0.32182223949E+01  0.14964522078E+02  0.35316265789E+02  0.00000000000E+00 0.  1.
</event>
<event>
 7    1  0.6624035E-013  0.5052886E+02  0.7816164E-02  0.1300439E+00
        -11   -1    0    0    0    0  0.00000000000E+00  0.00000000000E+00  0.45593999997E+02  0.45594000000E+02  0.51100000000E-03 0.  1.
         11   -1    0    0    0    0 -0.00000000000E+00 -0.00000000000E+00 -0.45593999997E+02  0.45594000000E+02  0.51100000000E-03 0. -1.
    9900012    2    1    2    0    0  0.12954206267E+02  0.12955974131E+02  0.36297342631E+02  0.50528858250E+02  0.29999995138E+02 0.  0.
         12    1    1    2    0    0 -0.12954206267E+02 -0.12955974131E+02 -0.36297342631E+02  0.40659141750E+02  0.00000000000E+00 0. -1.
         11    1    3    3    0    0  0.14797716692E+01 -0.28313160216E+00 -0.20784480058E+01  0.25670672120E+01  0.51100000000E-03 0. -1.
        -11    1    3    3    0    0  0.83356030543E+01  0.45074280996E+01  0.10898888247E+01  0.95387129248E+01  0.51100000000E-03 0.  1.
        -12    1    3    3    0    0  0.31388315440E+01  0.87316776337E+01  0.37285901812E+02  0.38423078114E+02  0.00000000000E+00 0.  1.
</event>
<event>
 7    1  0.6624035E-013  0.5052887E+02  0.7816164E-02  0.1300439E+00
        -11   -1    0    0    0    0  0.00000000000E+00  0.00000000000E+00  0.45593999997E+02  0.45594000000E+02  0.51100000000E-03 0. -1.
         11   -1    0    0    0    0 -0.00000000000E+00 -0.00000000000E+00 -0.45593999997E+02  0.45594000000E+02  0.51100000000E-03 0.  1.
    9900012    2    1    2    0    0 -0.15408371599E+01  0.18909460156E+02 -0.35961414715E+02  0.50528865591E+02  0.30000017452E+02 0.  0.
         12    1    1    2    0    0  0.15408371599E+01 -0.18909460156E+02  0.35961414715E+02  0.40659134409E+02  0.00000000000E+00 0. -1.
         11    1    3    3    0    0 -0.21257687959E+01  0.65751807467E+01 -0.31228772935E+01  0.75831561817E+01  0.51100000000E-03 0. -1.
        -11    1    3    3    0    0  0.42534440273E+01  0.15688934794E+02 -0.89719539123E+01  0.18566917309E+02  0.51100000000E-03 0.  1.
        -12    1    3    3    0    0 -0.36685123913E+01 -0.33546553847E+01 -0.23866583509E+02  0.24378792101E+02  0.00000000000E+00 0.  1.
</event>
<event>
 7    1  0.6624035E-013  0.5052883E+02  0.7816164E-02  0.1300439E+00
        -11   -1    0    0    0    0  0.00000000000E+00  0.00000000000E+00  0.45593999997E+02  0.45594000000E+02  0.51100000000E-03 0.  1.
         11   -1    0    0    0    0 -0.00000000000E+00 -0.00000000000E+00 -0.45593999997E+02  0.45594000000E+02  0.51100000000E-03 0. -1.
    9900012    2    1    2    0    0  0.27857411040E+02 -0.15460664404E+02  0.25260646883E+02  0.50528834064E+02  0.29999921622E+02 0.  0.
         12    1    1    2    0    0 -0.27857411040E+02  0.15460664404E+02 -0.25260646883E+02  0.40659165936E+02  0.00000000000E+00 0. -1.
         11    1    3    3    0    0  0.13244492035E+01  0.33820560611E+01  0.43745949430E+01  0.56859080251E+01  0.51100000000E-03 0. -1.
        -11    1    3    3    0    0  0.19683824242E+02 -0.15562954320E+01  0.16516941823E+02  0.25742656423E+02  0.51100000000E-03 0.  1.
        -12    1    3    3    0    0  0.68491375944E+01 -0.17286425033E+02  0.43691101171E+01  0.19100269617E+02  0.00000000000E+00 0.  1.
</event>
<event>
 7    1  0.6624035E-013  0.5052886E+02  0.7816164E-02  0.1300439E+00
        -11   -1    0    0    0    0  0.00000000000E+00  0.00000000000E+00  0.45593999997E+02  0.45594000000E+02  0.51100000000E-03 0.  1.
         11   -1    0    0    0    0 -0.00000000000E+00 -0.00000000000E+00 -0.45593999997E+02  0.45594000000E+02  0.51100000000E-03 0. -1.
    9900012    2    1    2    0    0  0.17822246010E+02 -0.73878005413E+01  0.35790408016E+02  0.50528863811E+02  0.30000012039E+02 0.  0.
         12    1    1    2    0    0 -0.17822246010E+02  0.73878005413E+01 -0.35790408016E+02  0.40659136189E+02  0.00000000000E+00 0. -1.
         11    1    3    3    0    0 -0.11560850800E+01 -0.66473101892E+00  0.12846522088E+02  0.12915553803E+02  0.51100000000E-03 0. -1.
        -11    1    3    3    0    0 -0.21501283798E+01 -0.69906590609E+01  0.11375005283E+02  0.13523428249E+02  0.51100000000E-03 0.  1.
        -12    1    3    3    0    0  0.21128459470E+02  0.26758953852E+00  0.11568880646E+02  0.24089881759E+02  0.00000000000E+00 0.  1.
</event>
<event>
 7    1  0.6624035E-013  0.5052886E+02  0.7816164E-02  0.1300439E+00
        -11   -1    0    0    0    0  0.00000000000E+00  0.00000000000E+00  0.45593999997E+02  0.45594000000E+02  0.51100000000E-03 0.  1.
         11   -1    0    0    0    0 -0.00000000000E+00 -0.00000000000E+00 -0.45593999997E+02  0.45594000000E+02  0.51100000000E-03 0. -1.
    9900012    2    1    2    0    0 -0.65000650074E+01  0.13619911904E+02  0.37754636280E+02  0.50528863191E+02  0.30000010157E+02 0.  0.
         12    1    1    2    0    0  0.65000650074E+01 -0.13619911904E+02 -0.37754636280E+02  0.40659136809E+02  0.00000000000E+00 0. -1.
         11    1    3    3    0    0  0.19671021043E+01 -0.26085404924E+01  0.10887361712E+02  0.11366996943E+02  0.51100000000E-03 0. -1.
        -11    1    3    3    0    0 -0.14460739805E+02  0.42103792624E+01  0.14023151844E+02  0.20578850238E+02  0.51100000000E-03 0.  1.
         12    1    3    3    0    0  0.59935726932E+01  0.12018073134E+02  0.12844122724E+02  0.18583016010E+02  0.00000000000E+00 0. -1.
</event>
<event>
 7    1  0.6624035E-013  0.5052886E+02  0.7816164E-02  0.1300439E+00
        -11   -1    0    0    0    0  0.00000000000E+00  0.00000000000E+00  0.45593999997E+02  0.45594000000E+02  0.51100000000E-03 0.  1.
         11   -1    0    0    0    0 -0.00000000000E+00 -0.00000000000E+00 -0.45593999997E+02  0.45594000000E+02  0.51100000000E-03 0. -1.
    9900012    2    1    2    0    0 -0.10630367402E+02  0.17876743906E+02  0.34936841587E+02  0.50528861004E+02  0.30000003509E+02 0.  0.
         12    1    1    2    0    0  0.10630367402E+02 -0.17876743906E+02 -0.34936841587E+02  0.40659138996E+02  0.00000000000E+00 0. -1.
         11    1    3    3    0    0 -0.57173861754E+01  0.31706310262E+01  0.34509938998E+01  0.73926155683E+01  0.51100000000E-03 0. -1.
        -11    1    3    3    0    0 -0.14891758368E+02  0.78635166480E+01  0.14152233440E+02  0.21997387867E+02  0.51100000000E-03 0.  1.
         12    1    3    3    0    0  0.99787771418E+01  0.68425962314E+01  0.17333614248E+02  0.21138857569E+02  0.00000000000E+00 0. -1.
</event>
<event>
 7    1  0.6624035E-013  0.5052886E+02  0.7816164E-02  0.1300439E+00
        -11   -1    0    0    0    0  0.00000000000E+00  0.00000000000E+00  0.45593999997E+02  0.45594000000E+02  0.51100000000E-03 0.  1.
         11   -1    0    0    0    0 -0.00000000000E+00 -0.00000000000E+00 -0.45593999997E+02  0.45594000000E+02  0.51100000000E-03 0. -1.
    9900012    2    1    2    0    0  0.13220072627E+02  0.23821712415E+02  0.30181468956E+02  0.50528863622E+02  0.30000011466E+02 0.  0.
         12    1    1    2    0    0 -0.13220072627E+02 -0.23821712415E+02 -0.30181468956E+02  0.40659136378E+02  0.00000000000E+00 0. -1.
         11    1    3    3    0    0  0.51874438926E+01 -0.35570496867E+01  0.97665909052E+00  0.63652211158E+01  0.51100000000E-03 0. -1.
        -11    1    3    3    0    0  0.53439531815E+01  0.95913229149E+00  0.10041213541E+02  0.11415066360E+02  0.51100000000E-03 0.  1.
        -12    1    3    3    0    0  0.26886755525E+01  0.26419629810E+02  0.19163596324E+02  0.32748576147E+02  0.00000000000E+00 0.  1.
</event>
<event>
 7    1  0.6624035E-013  0.5052885E+02  0.7816164E-02  0.1300439E+00
        -11   -1    0    0    0    0  0.00000000000E+00  0.00000000000E+00  0.45593999997E+02  0.45594000000E+02  0.51100000000E-03 0.  1.
         11   -1    0    0    0    0 -0.00000000000E+00 -0.00000000000E+00 -0.45593999997E+02  0.45594000000E+02  0.51100000000E-03 0. -1.
    9900012    2    1    2    0    0 -0.14028811394E+02  0.53691961502E+01  0.37782673426E+02  0.50528853088E+02  0.29999979446E+02 0.  0.
         12    1    1    2    0    0  0.14028811394E+02 -0.53691961502E+01 -0.37782673426E+02  0.40659146912E+02  0.00000000000E+00 0. -1.
         11    1    3    3    0    0 -0.37636130627E-01  0.56249817084E+01  0.50391198707E+01  0.75521232134E+01  0.51100000000E-03 0. -1.
        -11    1    3    3    0    0  0.41919228600E+01  0.21466033433E+01  0.20236056615E+02  0.20776864796E+02  0.51100000000E-03 0.  1.
         12    1    3    3    0    0 -0.18183098123E+02 -0.24023889015E+01  0.12507496941E+02  0.22199865078E+02  0.00000000000E+00 0. -1.
</event>
<event>
 7    1  0.6624035E-013  0.5052886E+02  0.7816164E-02  0.1300439E+00
        -11   -1    0    0    0    0  0.00000000000E+00  0.00000000000E+00  0.45593999997E+02  0.45594000000E+02  0.51100000000E-03 0.  1.
         11   -1    0    0    0    0 -0.00000000000E+00 -0.00000000000E+00 -0.45593999997E+02  0.45594000000E+02  0.51100000000E-03 0. -1.
    9900012    2    1    2    0    0 -0.13126751736E+02 -0.37146958728E+02  0.10047763786E+02  0.50528859442E+02  0.29999998759E+02 0.  0.
         12    1    1    2    0    0  0.13126751736E+02  0.37146958728E+02 -0.10047763786E+02  0.40659140558E+02  0.00000000000E+00 0. -1.
         11    1    3    3    0    0 -0.10472139093E+01  0.32431957233E+01  0.16290570325E+01  0.37774068549E+01  0.51100000000E-03 0. -1.
        -11    1    3    3    0    0 -0.86710206620E+01 -0.19119155887E+02  0.13047069846E+02  0.24717498922E+02  0.51100000000E-03 0.  1.
        -12    1    3    3    0    0 -0.34085171645E+01 -0.21270998564E+02 -0.46283630923E+01  0.22033953665E+02  0.00000000000E+00 0.  1.
</event>
<event>
 7    1  0.6624035E-013  0.5052886E+02  0.7816164E-02  0.1300439E+00
        -11   -1    0    0    0    0  0.00000000000E+00  0.00000000000E+00  0.45593999997E+02  0.45594000000E+02  0.51100000000E-03 0.  1.
         11   -1    0    0    0    0 -0.00000000000E+00 -0.00000000000E+00 -0.45593999997E+02  0.45594000000E+02  0.51100000000E-03 0. -1.
    9900012    2    1    2    0    0  0.77545188321E+01 -0.85022841230E+01  0.38996718906E+02  0.50528862244E+02  0.30000007276E+02 0.  0.
         12    1    1    2    0    0 -0.77545188321E+01  0.85022841230E+01 -0.38996718906E+02  0.40659137756E+02  0.00000000000E+00 0. -1.
         11    1    3    3    0    0 -0.53391340051E-01  0.76537437219E+00 -0.37532623174E+01  0.38308780781E+01  0.51100000000E-03 0. -1.
        -11    1    3    3    0    0 -0.56236971979E+00 -0.26635826764E+01  0.87812763429E-01  0.27237187297E+01  0.51100000000E-03 0.  1.
        -12    1    3    3    0    0  0.83702798920E+01 -0.66040758188E+01  0.42662168460E+02  0.43974265436E+02  0.00000000000E+00 0.  1.
</event>
<event>
 7    1  0.6624035E-013  0.5052886E+02  0.7816164E-02  0.1300439E+00
        -11   -1    0    0    0    0  0.00000000000E+00  0.00000000000E+00  0.45593999997E+02  0.45594000000E+02  0.51100000000E-03 0.  1.
         11   -1    0    0    0    0 -0.00000000000E+00 -0.00000000000E+00 -0.45593999997E+02  0.45594000000E+02  0.51100000000E-03 0. -1.
    9900012    2    1    2    0    0 -0.99425227468E+01 -0.88503715463E+01  0.38418518597E+02  0.50528863188E+02  0.30000010146E+02 0.  0.
         12    1    1    2    0    0  0.99425227468E+01  0.88503715463E+01 -0.38418518597E+02  0.40659136812E+02  0.00000000000E+00 0. -1.
         11    1    3    3    0    0 -0.22738469898E+01  0.61477069273E+01  0.14040359302E+02  0.15495043407E+02  0.51100000000E-03 0.  1.
        -11    1    3    3    0    0 -0.13798798302E+02 -0.90293978112E+01  0.14431089887E+02  0.21913311365E+02  0.51100000000E-03 0. -1.
         12    1    3    3    0    0  0.61301225448E+01 -0.59686806624E+01  0.99470694082E+01  0.13120508415E+02  0.00000000000E+00 0. -1.
</event>
<event>
 7    1  0.6624035E-013  0.5052886E+02  0.7816164E-02  0.1300439E+00
        -11   -1    0    0    0    0  0.00000000000E+00  0.00000000000E+00  0.45593999997E+02  0.45594000000E+02  0.51100000000E-03 0.  1.
         11   -1    0    0    0    0 -0.00000000000E+00 -0.00000000000E+00 -0.45593999997E+02  0.45594000000E+02  0.51100000000E-03 0. -1.
    9900012    2    1    2    0    0 -0.29188461056E+02  0.27802861104E+02 -0.53103680271E+01  0.50528863844E+02  0.30000012141E+02 0.  0.
         12    1    1    2    0    0  0.29188461056E+02 -0.27802861104E+02  0.53103680271E+01  0.40659136156E+02  0.00000000000E+00 0. -1.
         11    1    3    3    0    0 -0.28105558452E+01  0.11537352919E+02  0.56073129533E-01  0.11874884463E+02  0.51100000000E-03 0. -1.
        -11    1    3    3    0    0 -0.38917700472E+01  0.14499192398E+02  0.14727915542E+01  0.15084481082E+02  0.51100000000E-03 0.  1.
         12    1    3    3    0    0 -0.22486135163E+02  0.17663157868E+01 -0.68392327109E+01  0.23569498300E+02  0.00000000000E+00 0. -1.
</event>
<event>
 7    1  0.6624035E-013  0.5052886E+02  0.7816164E-02  0.1300439E+00
        -11   -1    0    0    0    0  0.00000000000E+00  0.00000000000E+00  0.45593999997E+02  0.45594000000E+02  0.51100000000E-03 0.  1.
         11   -1    0    0    0    0 -0.00000000000E+00 -0.00000000000E+00 -0.45593999997E+02  0.45594000000E+02  0.51100000000E-03 0. -1.
    9900012    2    1    2    0    0  0.38335885109E+02 -0.11841483697E+02 -0.65806164429E+01  0.50528864052E+02  0.30000012774E+02 0.  0.
         12    1    1    2    0    0 -0.38335885109E+02  0.11841483697E+02  0.65806164429E+01  0.40659135948E+02  0.00000000000E+00 0. -1.
         11    1    3    3    0    0  0.18746666188E+01 -0.64904024486E+01  0.98869903397E+00  0.68276807861E+01  0.51100000000E-03 0. -1.
        -11    1    3    3    0    0 -0.29804969028E+00 -0.25305574490E+01 -0.63181910790E+01  0.68126421741E+01  0.51100000000E-03 0.  1.
        -12    1    3    3    0    0  0.36759268180E+02 -0.28205237998E+01 -0.12511243979E+01  0.36888541092E+02  0.00000000000E+00 0.  1.
</event>
<event>
 7    1  0.6624035E-013  0.5052885E+02  0.7816164E-02  0.1300439E+00
        -11   -1    0    0    0    0  0.00000000000E+00  0.00000000000E+00  0.45593999997E+02  0.45594000000E+02  0.51100000000E-03 0.  1.
         11   -1    0    0    0    0 -0.00000000000E+00 -0.00000000000E+00 -0.45593999997E+02  0.45594000000E+02  0.51100000000E-03 0. -1.
    9900012    2    1    2    0    0  0.19202233492E+02  0.11996960363E+02  0.33771486315E+02  0.50528854449E+02  0.29999983583E+02 0.  0.
         12    1    1    2    0    0 -0.19202233492E+02 -0.11996960363E+02 -0.33771486315E+02  0.40659145551E+02  0.00000000000E+00 0. -1.
         11    1    3    3    0    0  0.54920714296E+01  0.77916828236E+01  0.25834458751E+02  0.27537110034E+02  0.51100000000E-03 0. -1.
        -11    1    3    3    0    0  0.80614567606E+01  0.96405339495E+01  0.84377091673E+01  0.15136773639E+02  0.51100000000E-03 0.  1.
         12    1    3    3    0    0  0.56487053018E+01 -0.54352564105E+01 -0.50068160319E+00  0.78549707767E+01  0.00000000000E+00 0. -1.
</event>
<event>
 7    1  0.6624035E-013  0.5052881E+02  0.7816164E-02  0.1300439E+00
        -11   -1    0    0    0    0  0.00000000000E+00  0.00000000000E+00  0.45593999997E+02  0.45594000000E+02  0.51100000000E-03 0.  1.
         11   -1    0    0    0    0 -0.00000000000E+00 -0.00000000000E+00 -0.45593999997E+02  0.45594000000E+02  0.51100000000E-03 0. -1.
    9900012    2    1    2    0    0  0.94839335026E+01 -0.17113146732E+02  0.35642175793E+02  0.50528813080E+02  0.29999857838E+02 0.  0.
         12    1    1    2    0    0 -0.94839335026E+01  0.17113146732E+02 -0.35642175793E+02  0.40659186920E+02  0.00000000000E+00 0. -1.
         11    1    3    3    0    0 -0.40760062204E+01  0.44223009437E+01  0.56709770780E+01  0.82662297105E+01  0.51100000000E-03 0. -1.
        -11    1    3    3    0    0 -0.32947517158E+01 -0.27626836280E+01  0.65681526784E+01  0.78503783071E+01  0.51100000000E-03 0.  1.
        -12    1    3    3    0    0  0.16854691439E+02 -0.18772764048E+02  0.23403046036E+02  0.34412205063E+02  0.00000000000E+00 0.  1.
</event>
<event>
 7    1  0.6624035E-013  0.5052885E+02  0.7816164E-02  0.1300439E+00
        -11   -1    0    0    0    0  0.00000000000E+00  0.00000000000E+00  0.45593999997E+02  0.45594000000E+02  0.51100000000E-03 0.  1.
         11   -1    0    0    0    0 -0.00000000000E+00 -0.00000000000E+00 -0.45593999997E+02  0.45594000000E+02  0.51100000000E-03 0. -1.
    9900012    2    1    2    0    0  0.18291851125E+02 -0.14680143080E+02  0.33212463537E+02  0.50528854010E+02  0.29999982249E+02 0.  0.
         12    1    1    2    0    0 -0.18291851125E+02  0.14680143080E+02 -0.33212463537E+02  0.40659145990E+02  0.00000000000E+00 0. -1.
         11    1    3    3    0    0  0.18669920485E+02 -0.18520572105E+02  0.12040520883E+02  0.28923202890E+02  0.51100000000E-03 0. -1.
        -11    1    3    3    0    0 -0.34420862129E+00 -0.10643490481E+00  0.17899949411E+01  0.18258943327E+01  0.51100000000E-03 0.  1.
         12    1    3    3    0    0 -0.33860739060E-01  0.39468639295E+01  0.19381947712E+02  0.19779756787E+02  0.00000000000E+00 0. -1.
</event>
<event>
 7    1  0.6624035E-013  0.5052888E+02  0.7816164E-02  0.1300439E+00
        -11   -1    0    0    0    0  0.00000000000E+00  0.00000000000E+00  0.45593999997E+02  0.45594000000E+02  0.51100000000E-03 0.  1.
         11   -1    0    0    0    0 -0.00000000000E+00 -0.00000000000E+00 -0.45593999997E+02  0.45594000000E+02  0.51100000000E-03 0. -1.
    9900012    2    1    2    0    0 -0.95164219190E+01 -0.18661102058E+02  0.34847735119E+02  0.50528884674E+02  0.30000075455E+02 0.  0.
         12    1    1    2    0    0  0.95164219190E+01  0.18661102058E+02 -0.34847735119E+02  0.40659115326E+02  0.00000000000E+00 0. -1.
         11    1    3    3    0    0 -0.66033304080E-01 -0.25823767396E+00  0.51482678956E+00  0.57973612779E+00  0.51100000000E-03 0. -1.
        -11    1    3    3    0    0 -0.13474283044E+02 -0.18293615353E+02  0.38149115549E+02  0.44402338718E+02  0.51100000000E-03 0.  1.
         12    1    3    3    0    0  0.40238944286E+01 -0.10924903090E+00 -0.38162072194E+01  0.55468098277E+01  0.00000000000E+00 0. -1.
</event>
<event>
 7    1  0.6624035E-013  0.5052886E+02  0.7816164E-02  0.1300439E+00
        -11   -1    0    0    0    0  0.00000000000E+00  0.00000000000E+00  0.45593999997E+02  0.45594000000E+02  0.51100000000E-03 0.  1.
         11   -1    0    0    0    0 -0.00000000000E+00 -0.00000000000E+00 -0.45593999997E+02  0.45594000000E+02  0.51100000000E-03 0. -1.
    9900012    2    1    2    0    0  0.18760254485E+02  0.32401273543E+02  0.15854845835E+02  0.50528858199E+02  0.29999994982E+02 0.  0.
         12    1    1    2    0    0 -0.18760254485E+02 -0.32401273543E+02 -0.15854845835E+02  0.40659141801E+02  0.00000000000E+00 0. -1.
         11    1    3    3    0    0  0.68706423005E+01  0.86952441988E+01 -0.86334850435E+01  0.14048133739E+02  0.51100000000E-03 0. -1.
        -11    1    3    3    0    0  0.23726505213E+01  0.74579997360E+01  0.45353174256E+01  0.90454593565E+01  0.51100000000E-03 0.  1.
        -12    1    3    3    0    0  0.95169616637E+01  0.16248029608E+02  0.19953013453E+02  0.27435265103E+02  0.00000000000E+00 0.  1.
</event>
<event>
 7    1  0.6624035E-013  0.5052886E+02  0.7816164E-02  0.1300439E+00
        -11   -1    0    0    0    0  0.00000000000E+00  0.00000000000E+00  0.45593999997E+02  0.45594000000E+02  0.51100000000E-03 0.  1.
         11   -1    0    0    0    0 -0.00000000000E+00 -0.00000000000E+00 -0.45593999997E+02  0.45594000000E+02  0.51100000000E-03 0. -1.
    9900012    2    1    2    0    0 -0.20690568945E+02 -0.13030241736E+02  0.32485059813E+02  0.50528856452E+02  0.29999989672E+02 0.  0.
         12    1    1    2    0    0  0.20690568945E+02  0.13030241736E+02 -0.32485059813E+02  0.40659143548E+02  0.00000000000E+00 0. -1.
         11    1    3    3    0    0 -0.72561132093E+01 -0.55434095291E+01 -0.11273446898E+01  0.92006235889E+01  0.51100000000E-03 0.  1.
        -11    1    3    3    0    0 -0.66326621879E+01 -0.24793962666E+01  0.43686008302E+00  0.70943964182E+01  0.51100000000E-03 0. -1.
        -12    1    3    3    0    0 -0.68017935475E+01 -0.50074359409E+01  0.33175544420E+02  0.34233836445E+02  0.00000000000E+00 0.  1.
</event>
<event>
 7    1  0.6624035E-013  0.5052885E+02  0.7816164E-02  0.1300439E+00
        -11   -1    0    0    0    0  0.00000000000E+00  0.00000000000E+00  0.45593999997E+02  0.45594000000E+02  0.51100000000E-03 0. -1.
         11   -1    0    0    0    0 -0.00000000000E+00 -0.00000000000E+00 -0.45593999997E+02  0.45594000000E+02  0.51100000000E-03 0.  1.
    9900012    2    1    2    0    0 -0.10447753661E+02  0.26054797437E+02 -0.29413571727E+02  0.50528853086E+02  0.29999979439E+02 0.  0.
         12    1    1    2    0    0  0.10447753661E+02 -0.26054797437E+02  0.29413571727E+02  0.40659146914E+02  0.00000000000E+00 0. -1.
         11    1    3    3    0    0 -0.40223151097E+00  0.20996244185E+01 -0.50375347148E+01  0.54723824017E+01  0.51100000000E-03 0. -1.
        -11    1    3    3    0    0 -0.22907413127E+01  0.26419255160E+02 -0.25563249173E+02  0.36833466406E+02  0.51100000000E-03 0.  1.
        -12    1    3    3    0    0 -0.77547808374E+01 -0.24640821410E+01  0.11872121610E+01  0.82230042776E+01  0.00000000000E+00 0.  1.
</event>
<event>
 7    1  0.6624035E-013  0.5052886E+02  0.7816164E-02  0.1300439E+00
        -11   -1    0    0    0    0  0.00000000000E+00  0.00000000000E+00  0.45593999997E+02  0.45594000000E+02  0.51100000000E-03 0.  1.
         11   -1    0    0    0    0 -0.00000000000E+00 -0.00000000000E+00 -0.45593999997E+02  0.45594000000E+02  0.51100000000E-03 0. -1.
    9900012    2    1    2    0    0  0.37666140048E+02 -0.12489600571E+02  0.88565039490E+01  0.50528857230E+02  0.29999992038E+02 0.  0.
         12    1    1    2    0    0 -0.37666140048E+02  0.12489600571E+02 -0.88565039490E+01  0.40659142770E+02  0.00000000000E+00 0. -1.
         11    1    3    3    0    0  0.10660321161E+02 -0.48787667639E+01  0.58110163388E+01  0.13084827991E+02  0.51100000000E-03 0.  1.
        -11    1    3    3    0    0  0.27912042243E+02 -0.12575839327E+02 -0.15011540167E+01  0.30651057087E+02  0.51100000000E-03 0. -1.
         12    1    3    3    0    0 -0.90622335613E+00  0.49650055191E+01  0.45466416270E+01  0.67929721522E+01  0.00000000000E+00 0. -1.
</event>
<event>
 7    1  0.6624035E-013  0.5052888E+02  0.7816164E-02  0.1300439E+00
        -11   -1    0    0    0    0  0.00000000000E+00  0.00000000000E+00  0.45593999997E+02  0.45594000000E+02  0.51100000000E-03 0.  1.
         11   -1    0    0    0    0 -0.00000000000E+00 -0.00000000000E+00 -0.45593999997E+02  0.45594000000E+02  0.51100000000E-03 0. -1.
    9900012    2    1    2    0    0  0.76698182512E+01 -0.36261356062E+02  0.16716814518E+02  0.50528881182E+02  0.30000064840E+02 0.  0.
         12    1    1    2    0    0 -0.76698182512E+01  0.36261356062E+02 -0.16716814518E+02  0.40659118818E+02  0.00000000000E+00 0. -1.
         11    1    3    3    0    0  0.25670449136E+01 -0.48009620293E+01  0.12697535423E+02  0.13815439264E+02  0.51100000000E-03 0. -1.
        -11    1    3    3    0    0 -0.13616848940E+01 -0.79936865679E+01  0.87365232391E+01  0.11919733607E+02  0.51100000000E-03 0.  1.
        -12    1    3    3    0    0  0.64644582315E+01 -0.23466707465E+02 -0.47172441436E+01  0.24793708310E+02  0.00000000000E+00 0.  1.
</event>
<event>
 7    1  0.6624035E-013  0.5052886E+02  0.7816164E-02  0.1300439E+00
        -11   -1    0    0    0    0  0.00000000000E+00  0.00000000000E+00  0.45593999997E+02  0.45594000000E+02  0.51100000000E-03 0.  1.
         11   -1    0    0    0    0 -0.00000000000E+00 -0.00000000000E+00 -0.45593999997E+02  0.45594000000E+02  0.51100000000E-03 0. -1.
    9900012    2    1    2    0    0 -0.30189625382E+02  0.27138533650E+02 -0.22917432969E+01  0.50528861092E+02  0.30000003776E+02 0.  0.
         12    1    1    2    0    0  0.30189625382E+02 -0.27138533650E+02  0.22917432969E+01  0.40659138908E+02  0.00000000000E+00 0. -1.
         11    1    3    3    0    0 -0.11884849497E+02  0.19988510941E+02 -0.89627632336E+01  0.24922306118E+02  0.51100000000E-03 0. -1.
        -11    1    3    3    0    0 -0.85042662289E+01  0.49609817748E+01 -0.42912401470E+01  0.10740047790E+02  0.51100000000E-03 0.  1.
         12    1    3    3    0    0 -0.98005096558E+01  0.21890409344E+01  0.10962260084E+02  0.14866507185E+02  0.00000000000E+00 0. -1.
</event>
<event>
 7    1  0.6624035E-013  0.5052886E+02  0.7816164E-02  0.1300439E+00
        -11   -1    0    0    0    0  0.00000000000E+00  0.00000000000E+00  0.45593999997E+02  0.45594000000E+02  0.51100000000E-03 0. -1.
         11   -1    0    0    0    0 -0.00000000000E+00 -0.00000000000E+00 -0.45593999997E+02  0.45594000000E+02  0.51100000000E-03 0.  1.
    9900012    2    1    2    0    0 -0.30672215982E+02 -0.25209990350E+02 -0.87656878172E+01  0.50528859212E+02  0.29999998062E+02 0.  0.
         12    1    1    2    0    0  0.30672215982E+02  0.25209990350E+02  0.87656878172E+01  0.40659140788E+02  0.00000000000E+00 0. -1.
         11    1    3    3    0    0  0.16881226936E+00 -0.33187625042E+01 -0.78360591867E+01  0.85115513263E+01  0.51100000000E-03 0. -1.
        -11    1    3    3    0    0 -0.15750138621E+02 -0.10702943928E+02 -0.96016703960E+01  0.21326320591E+02  0.51100000000E-03 0.  1.
         12    1    3    3    0    0 -0.15090889630E+02 -0.11188283917E+02  0.86720417655E+01  0.20690987295E+02  0.00000000000E+00 0. -1.
</event>
<event>
 7    1  0.6624035E-013  0.5052887E+02  0.7816164E-02  0.1300439E+00
        -11   -1    0    0    0    0  0.00000000000E+00  0.00000000000E+00  0.45593999997E+02  0.45594000000E+02  0.51100000000E-03 0.  1.
         11   -1    0    0    0    0 -0.00000000000E+00 -0.00000000000E+00 -0.45593999997E+02  0.45594000000E+02  0.51100000000E-03 0. -1.
    9900012    2    1    2    0    0 -0.20753203442E+01 -0.27349579860E+01  0.40513925400E+02  0.50528866942E+02  0.30000021557E+02 0.  0.
         12    1    1    2    0    0  0.20753203442E+01  0.27349579860E+01 -0.40513925400E+02  0.40659133058E+02  0.00000000000E+00 0. -1.
         11    1    3    3    0    0 -0.45772983840E+01  0.51289618445E+01  0.17433083159E+02  0.18739538382E+02  0.51100000000E-03 0. -1.
        -11    1    3    3    0    0 -0.68083530017E+01 -0.61721770283E+01  0.31299119625E+01  0.97080270404E+01  0.51100000000E-03 0.  1.
         12    1    3    3    0    0  0.93103310415E+01 -0.16917428022E+01  0.19950930278E+02  0.22081301519E+02  0.00000000000E+00 0. -1.
</event>
<event>
 7    1  0.6624035E-013  0.5052887E+02  0.7816164E-02  0.1300439E+00
        -11   -1    0    0    0    0  0.00000000000E+00  0.00000000000E+00  0.45593999997E+02  0.45594000000E+02  0.51100000000E-03 0.  1.
         11   -1    0    0    0    0 -0.00000000000E+00 -0.00000000000E+00 -0.45593999997E+02  0.45594000000E+02  0.51100000000E-03 0. -1.
    9900012    2    1    2    0    0  0.18627294568E+02 -0.92949560053E+01  0.34925533511E+02  0.50528865712E+02  0.30000017817E+02 0.  0.
         12    1    1    2    0    0 -0.18627294568E+02  0.92949560053E+01 -0.34925533511E+02  0.40659134288E+02  0.00000000000E+00 0. -1.
         11    1    3    3    0    0 -0.62999629930E+00  0.33721478404E+00 -0.45423515475E+01  0.45982134563E+01  0.51100000000E-03 0. -1.
        -11    1    3    3    0    0  0.88095932525E+01  0.59602524108E+00  0.13545275043E+02  0.16169064772E+02  0.51100000000E-03 0.  1.
        -12    1    3    3    0    0  0.10447697615E+02 -0.10228196030E+02  0.25922610016E+02  0.29761587483E+02  0.00000000000E+00 0.  1.
</event>
<event>
 7    1  0.6624035E-013  0.5052886E+02  0.7816164E-02  0.1300439E+00
        -11   -1    0    0    0    0  0.00000000000E+00  0.00000000000E+00  0.45593999997E+02  0.45594000000E+02  0.51100000000E-03 0. -1.
         11   -1    0    0    0    0 -0.00000000000E+00 -0.00000000000E+00 -0.45593999997E+02  0.45594000000E+02  0.51100000000E-03 0.  1.
    9900012    2    1    2    0    0 -0.34656639101E+02  0.82299546756E+01 -0.19604874392E+02  0.50528857269E+02  0.29999992154E+02 0.  0.
         12    1    1    2    0    0  0.34656639101E+02 -0.82299546756E+01  0.19604874392E+02  0.40659142731E+02  0.00000000000E+00 0. -1.
         11    1    3    3    0    0 -0.18184653437E+01  0.27684846871E+01 -0.10758631053E+00  0.33140456763E+01  0.51100000000E-03 0. -1.
        -11    1    3    3    0    0 -0.10863171484E+02  0.14697982995E+02 -0.13244482331E+02  0.22571121180E+02  0.51100000000E-03 0.  1.
         12    1    3    3    0    0 -0.21975002273E+02 -0.92365130066E+01 -0.62528057501E+01  0.24643690413E+02  0.00000000000E+00 0. -1.
</event>
<event>
 7    1  0.6624035E-013  0.5052886E+02  0.7816164E-02  0.1300439E+00
        -11   -1    0    0    0    0  0.00000000000E+00  0.00000000000E+00  0.45593999997E+02  0.45594000000E+02  0.51100000000E-03 0.  1.
         11   -1    0    0    0    0 -0.00000000000E+00 -0.00000000000E+00 -0.45593999997E+02  0.45594000000E+02  0.51100000000E-03 0. -1.
    9900012    2    1    2    0    0  0.20040201452E+02 -0.21642583287E+02  0.27984899446E+02  0.50528859791E+02  0.29999999820E+02 0.  0.
         12    1    1    2    0    0 -0.20040201452E+02  0.21642583287E+02 -0.27984899446E+02  0.40659140209E+02  0.00000000000E+00 0. -1.
         11    1    3    3    0    0  0.61286050334E+01 -0.16692302946E+02  0.18150162658E+02  0.25409076765E+02  0.51100000000E-03 0.  1.
        -11    1    3    3    0    0  0.16922054713E+02 -0.60946828707E+01  0.39551073633E+01  0.18415861900E+02  0.51100000000E-03 0. -1.
         12    1    3    3    0    0 -0.30104582946E+01  0.11444025293E+01  0.58796294246E+01  0.67039211260E+01  0.00000000000E+00 0. -1.
</event>
<event>
 7    1  0.6624035E-013  0.5052894E+02  0.7816164E-02  0.1300439E+00
        -11   -1    0    0    0    0  0.00000000000E+00  0.00000000000E+00  0.45593999997E+02  0.45594000000E+02  0.51100000000E-03 0.  1.
         11   -1    0    0    0    0 -0.00000000000E+00 -0.00000000000E+00 -0.45593999997E+02  0.45594000000E+02  0.51100000000E-03 0. -1.
    9900012    2    1    2    0    0 -0.30538381228E+02 -0.88298731332E+01  0.25349555282E+02  0.50528937780E+02  0.30000236876E+02 0.  0.
         12    1    1    2    0    0  0.30538381228E+02  0.88298731332E+01 -0.25349555282E+02  0.40659062220E+02  0.00000000000E+00 0. -1.
         11    1    3    3    0    0 -0.12253314277E+02 -0.90027501949E+01  0.12639093444E+01  0.15257479770E+02  0.51100000000E-03 0.  1.
        -11    1    3    3    0    0  0.36886499978E+01  0.94753449200E-01  0.24183969637E+01  0.44117752842E+01  0.51100000000E-03 0. -1.
        -12    1    3    3    0    0 -0.21973716949E+02  0.78123612508E-01  0.21667248974E+02  0.30859682726E+02  0.00000000000E+00 0.  1.
</event>
<event>
 7    1  0.6624035E-013  0.5052886E+02  0.7816164E-02  0.1300439E+00
        -11   -1    0    0    0    0  0.00000000000E+00  0.00000000000E+00  0.45593999997E+02  0.45594000000E+02  0.51100000000E-03 0. -1.
         11   -1    0    0    0    0 -0.00000000000E+00 -0.00000000000E+00 -0.45593999997E+02  0.45594000000E+02  0.51100000000E-03 0.  1.
    9900012    2    1    2    0    0  0.13489512826E+02 -0.27996503119E+02 -0.26218206353E+02  0.50528862189E+02  0.30000007110E+02 0.  0.
         12    1    1    2    0    0 -0.13489512826E+02  0.27996503119E+02  0.26218206353E+02  0.40659137811E+02  0.00000000000E+00 0. -1.
         11    1    3    3    0    0  0.49277843530E+00 -0.83032200800E+01 -0.16431020809E+01  0.84785658571E+01  0.51100000000E-03 0. -1.
        -11    1    3    3    0    0  0.82851863387E+01 -0.21896551288E+02 -0.27473765963E+02  0.36095859699E+02  0.51100000000E-03 0.  1.
         12    1    3    3    0    0  0.47115480518E+01  0.22032682484E+01  0.28986616911E+01  0.59544366331E+01  0.00000000000E+00 0. -1.
</event>
<event>
 7    1  0.6624035E-013  0.5052883E+02  0.7816164E-02  0.1300439E+00
        -11   -1    0    0    0    0  0.00000000000E+00  0.00000000000E+00  0.45593999997E+02  0.45594000000E+02  0.51100000000E-03 0. -1.
         11   -1    0    0    0    0 -0.00000000000E+00 -0.00000000000E+00 -0.45593999997E+02  0.45594000000E+02  0.51100000000E-03 0.  1.
    9900012    2    1    2    0    0 -0.33583533081E+01  0.87381608076E+01 -0.39566832936E+02  0.50528828097E+02  0.29999903485E+02 0.  0.
         12    1    1    2    0    0  0.33583533081E+01 -0.87381608076E+01  0.39566832936E+02  0.40659171903E+02  0.00000000000E+00 0. -1.
         11    1    3    3    0    0  0.36876412249E+01 -0.47334122719E+01 -0.80731513509E+01  0.10058810195E+02  0.51100000000E-03 0. -1.
        -11    1    3    3    0    0  0.37957304533E-01 -0.48296442752E+01 -0.11410833376E+02  0.12390884681E+02  0.51100000000E-03 0.  1.
        -12    1    3    3    0    0 -0.70839518376E+01  0.18301217355E+02 -0.20082848208E+02  0.28079133221E+02  0.00000000000E+00 0.  1.
</event>
<event>
 7    1  0.6624035E-013  0.5052882E+02  0.7816164E-02  0.1300439E+00
        -11   -1    0    0    0    0  0.00000000000E+00  0.00000000000E+00  0.45593999997E+02  0.45594000000E+02  0.51100000000E-03 0.  1.
         11   -1    0    0    0    0 -0.00000000000E+00 -0.00000000000E+00 -0.45593999997E+02  0.45594000000E+02  0.51100000000E-03 0. -1.
    9900012    2    1    2    0    0 -0.16915125364E+02  0.35664632840E+02  0.97509897480E+01  0.50528815272E+02  0.29999864501E+02 0.  0.
         12    1    1    2    0    0  0.16915125364E+02 -0.35664632840E+02 -0.97509897480E+01  0.40659184728E+02  0.00000000000E+00 0. -1.
         11    1    3    3    0    0 -0.19730301842E+01  0.15211430434E+02  0.23470884295E+01  0.15517386646E+02  0.51100000000E-03 0. -1.
        -11    1    3    3    0    0  0.45027538280E+01  0.11858352628E+02  0.63560006369E+00  0.12700366404E+02  0.51100000000E-03 0.  1.
        -12    1    3    3    0    0 -0.19444849008E+02  0.85948497773E+01  0.67683012548E+01  0.22311062223E+02  0.00000000000E+00 0.  1.
</event>
<event>
 7    1  0.6624035E-013  0.5052884E+02  0.7816164E-02  0.1300439E+00
        -11   -1    0    0    0    0  0.00000000000E+00  0.00000000000E+00  0.45593999997E+02  0.45594000000E+02  0.51100000000E-03 0.  1.
         11   -1    0    0    0    0 -0.00000000000E+00 -0.00000000000E+00 -0.45593999997E+02  0.45594000000E+02  0.51100000000E-03 0. -1.
    9900012    2    1    2    0    0  0.11528406614E+02  0.11009297889E+02  0.37403988609E+02  0.50528841586E+02  0.29999944486E+02 0.  0.
         12    1    1    2    0    0 -0.11528406614E+02 -0.11009297889E+02 -0.37403988609E+02  0.40659158414E+02  0.00000000000E+00 0. -1.
         11    1    3    3    0    0  0.10080937678E+02  0.63925296177E+01  0.10681104440E+02  0.16017981511E+02  0.51100000000E-03 0.  1.
        -11    1    3    3    0    0  0.10309503543E+02  0.67531030383E+01  0.18530452041E+02  0.22254615635E+02  0.51100000000E-03 0. -1.
         12    1    3    3    0    0 -0.88620346068E+01 -0.21363347673E+01  0.81924321281E+01  0.12256244440E+02  0.00000000000E+00 0. -1.
</event>
<event>
 7    1  0.6624035E-013  0.5052886E+02  0.7816164E-02  0.1300439E+00
        -11   -1    0    0    0    0  0.00000000000E+00  0.00000000000E+00  0.45593999997E+02  0.45594000000E+02  0.51100000000E-03 0. -1.
         11   -1    0    0    0    0 -0.00000000000E+00 -0.00000000000E+00 -0.45593999997E+02  0.45594000000E+02  0.51100000000E-03 0.  1.
    9900012    2    1    2    0    0 -0.25174040174E+02 -0.29755424272E+02 -0.11577928754E+02  0.50528855807E+02  0.29999987712E+02 0.  0.
         12    1    1    2    0    0  0.25174040174E+02  0.29755424272E+02  0.11577928754E+02  0.40659144193E+02  0.00000000000E+00 0. -1.
         11    1    3    3    0    0  0.26488677746E+01 -0.39114775532E+01 -0.63510611635E+01  0.79153101835E+01  0.51100000000E-03 0. -1.
        -11    1    3    3    0    0  0.18512468872E+01 -0.25840446230E+01  0.25991345629E+01  0.41060811473E+01  0.51100000000E-03 0.  1.
         12    1    3    3    0    0 -0.29674154836E+02 -0.23259902095E+02 -0.78260021533E+01  0.38507464476E+02  0.00000000000E+00 0. -1.
</event>
<event>
 7    1  0.6624035E-013  0.5052885E+02  0.7816164E-02  0.1300439E+00
        -11   -1    0    0    0    0  0.00000000000E+00  0.00000000000E+00  0.45593999997E+02  0.45594000000E+02  0.51100000000E-03 0.  1.
         11   -1    0    0    0    0 -0.00000000000E+00 -0.00000000000E+00 -0.45593999997E+02  0.45594000000E+02  0.51100000000E-03 0. -1.
    9900012    2    1    2    0    0 -0.56467957985E+01 -0.17050505130E+02  0.36476843945E+02  0.50528853770E+02  0.29999981520E+02 0.  0.
         12    1    1    2    0    0  0.56467957985E+01  0.17050505130E+02 -0.36476843945E+02  0.40659146230E+02  0.00000000000E+00 0. -1.
         11    1    3    3    0    0 -0.74728793202E+01 -0.99998634227E+01  0.19997339856E+02  0.23574027984E+02  0.51100000000E-03 0. -1.
        -11    1    3    3    0    0 -0.34140484056E+01 -0.17573088907E+01  0.18772742301E+02  0.19161412130E+02  0.51100000000E-03 0.  1.
         12    1    3    3    0    0  0.52401319273E+01 -0.52933328169E+01 -0.22932382121E+01  0.77934136566E+01  0.00000000000E+00 0. -1.
</event>
<event>
 7    1  0.6624035E-013  0.5052886E+02  0.7816164E-02  0.1300439E+00
        -11   -1    0    0    0    0  0.00000000000E+00  0.00000000000E+00  0.45593999997E+02  0.45594000000E+02  0.51100000000E-03 0.  1.
         11   -1    0    0    0    0 -0.00000000000E+00 -0.00000000000E+00 -0.45593999997E+02  0.45594000000E+02  0.51100000000E-03 0. -1.
    9900012    2    1    2    0    0  0.27992850751E+02  0.22444155010E+02  0.19126581425E+02  0.50528857064E+02  0.29999991533E+02 0.  0.
         12    1    1    2    0    0 -0.27992850751E+02 -0.22444155010E+02 -0.19126581425E+02  0.40659142936E+02  0.00000000000E+00 0. -1.
         11    1    3    3    0    0  0.25164505694E+01  0.91701807667E+00 -0.16848853506E+01  0.31642194183E+01  0.51100000000E-03 0. -1.
        -11    1    3    3    0    0  0.65806247859E+01  0.19004279374E+02  0.14037135534E+01  0.20160299331E+02  0.51100000000E-03 0.  1.
         12    1    3    3    0    0  0.18895775395E+02  0.25228575591E+01  0.19407753222E+02  0.27204338315E+02  0.00000000000E+00 0. -1.
</event>
<event>
 7    1  0.6624035E-013  0.5052886E+02  0.7816164E-02  0.1300439E+00
        -11   -1    0    0    0    0  0.00000000000E+00  0.00000000000E+00  0.45593999997E+02  0.45594000000E+02  0.51100000000E-03 0. -1.
         11   -1    0    0    0    0 -0.00000000000E+00 -0.00000000000E+00 -0.45593999997E+02  0.45594000000E+02  0.51100000000E-03 0.  1.
    9900012    2    1    2    0    0  0.97990922712E+01 -0.34484311876E+02 -0.19182696677E+02  0.50528858018E+02  0.29999994433E+02 0.  0.
         12    1    1    2    0    0 -0.97990922712E+01  0.34484311876E+02  0.19182696677E+02  0.40659141982E+02  0.00000000000E+00 0. -1.
         11    1    3    3    0    0  0.53893118282E+01 -0.58696305222E+00 -0.53498070188E+01  0.76164061739E+01  0.51100000000E-03 0. -1.
        -11    1    3    3    0    0  0.90429827871E+01 -0.14956860635E+02 -0.15475180904E+02  0.23344473479E+02  0.51100000000E-03 0.  1.
         12    1    3    3    0    0 -0.46332023440E+01 -0.18940488189E+02  0.16422912455E+01  0.19567978366E+02  0.00000000000E+00 0. -1.
</event>
<event>
 7    1  0.6624035E-013  0.5052884E+02  0.7816164E-02  0.1300439E+00
        -11   -1    0    0    0    0  0.00000000000E+00  0.00000000000E+00  0.45593999997E+02  0.45594000000E+02  0.51100000000E-03 0.  1.
         11   -1    0    0    0    0 -0.00000000000E+00 -0.00000000000E+00 -0.45593999997E+02  0.45594000000E+02  0.51100000000E-03 0. -1.
    9900012    2    1    2    0    0  0.34130610860E+02  0.39960164797E+00 -0.22093185995E+02  0.50528841787E+02  0.29999945097E+02 0.  0.
         12    1    1    2    0    0 -0.34130610860E+02 -0.39960164797E+00  0.22093185995E+02  0.40659158213E+02  0.00000000000E+00 0. -1.
         11    1    3    3    0    0  0.83660192490E+00  0.23427971385E+01 -0.76959487642E+01  0.80880299737E+01  0.51100000000E-03 0. -1.
        -11    1    3    3    0    0  0.21603884630E+01  0.61609528971E+01  0.12801967852E+01  0.66530837197E+01  0.51100000000E-03 0.  1.
         12    1    3    3    0    0  0.31133620472E+02 -0.81041483877E+01 -0.15677434016E+02  0.35787728094E+02  0.00000000000E+00 0. -1.
</event>
<event>
 7    1  0.6624035E-013  0.5052886E+02  0.7816164E-02  0.1300439E+00
        -11   -1    0    0    0    0  0.00000000000E+00  0.00000000000E+00  0.45593999997E+02  0.45594000000E+02  0.51100000000E-03 0. -1.
         11   -1    0    0    0    0 -0.00000000000E+00 -0.00000000000E+00 -0.45593999997E+02  0.45594000000E+02  0.51100000000E-03 0.  1.
    9900012    2    1    2    0    0 -0.15155674130E+02 -0.85942970946E+01 -0.36737033017E+02  0.50528855939E+02  0.29999988113E+02 0.  0.
         12    1    1    2    0    0  0.15155674130E+02  0.85942970946E+01  0.36737033017E+02  0.40659144061E+02  0.00000000000E+00 0. -1.
         11    1    3    3    0    0 -0.30547885756E+00 -0.12651969505E+01  0.11960922609E+01  0.17676757660E+01  0.51100000000E-03 0. -1.
        -11    1    3    3    0    0 -0.15691714536E+02  0.34305616924E+01 -0.10263990046E+02  0.19061693276E+02  0.51100000000E-03 0.  1.
        -12    1    3    3    0    0  0.84151926433E+00 -0.10759661837E+02 -0.27669135232E+02  0.29699486897E+02  0.00000000000E+00 0.  1.
</event>
<event>
 7    1  0.6624035E-013  0.5052886E+02  0.7816164E-02  0.1300439E+00
        -11   -1    0    0    0    0  0.00000000000E+00  0.00000000000E+00  0.45593999997E+02  0.45594000000E+02  0.51100000000E-03 0.  1.
         11   -1    0    0    0    0 -0.00000000000E+00 -0.00000000000E+00 -0.45593999997E+02  0.45594000000E+02  0.51100000000E-03 0. -1.
    9900012    2    1    2    0    0  0.60112436892E+01  0.12185943260E+02  0.38321447976E+02  0.50528860328E+02  0.30000001454E+02 0.  0.
         12    1    1    2    0    0 -0.60112436892E+01 -0.12185943260E+02 -0.38321447976E+02  0.40659139672E+02  0.00000000000E+00 0. -1.
         11    1    3    3    0    0 -0.45734966117E+01 -0.23733700539E+01 -0.16421205675E+01  0.54079863988E+01  0.51100000000E-03 0. -1.
        -11    1    3    3    0    0 -0.96652815235E+00  0.69026501583E+01  0.15718819843E+02  0.17194826355E+02  0.51100000000E-03 0.  1.
        -12    1    3    3    0    0  0.11551268453E+02  0.76566631558E+01  0.24244748701E+02  0.27926047574E+02  0.00000000000E+00 0.  1.
</event>
<event>
 7    1  0.1049803E-012  0.5052886E+02  0.7816164E-02  0.1300439E+00
        -11   -1    0    0    0    0  0.00000000000E+00  0.00000000000E+00  0.45593999997E+02  0.45594000000E+02  0.51100000000E-03 0. -1.
         11   -1    0    0    0    0 -0.00000000000E+00 -0.00000000000E+00 -0.45593999997E+02  0.45594000000E+02  0.51100000000E-03 0.  1.
    9900012    2    1    2    0    0  0.98501440928E+01  0.29091075339E+02 -0.26643002411E+02  0.50528861045E+02  0.30000003633E+02 0.  0.
         12    1    1    2    0    0 -0.98501440928E+01 -0.29091075339E+02  0.26643002411E+02  0.40659138955E+02  0.00000000000E+00 0. -1.
         11    1    3    3    0    0  0.10526536649E+02  0.53698021530E+01 -0.39565851954E+01  0.12461834362E+02  0.51100000000E-03 0. -1.
        -11    1    3    3    0    0 -0.21573342108E+01  0.93642642417E+01 -0.21542454976E+02  0.23588575674E+02  0.51100000000E-03 0.  1.
         12    1    3    3    0    0  0.14809416544E+01  0.14357008945E+02 -0.11439622401E+01  0.14478451009E+02  0.00000000000E+00 0. -1.
</event>
<event>
 7    1  0.6624035E-013  0.5052886E+02  0.7816164E-02  0.1300439E+00
        -11   -1    0    0    0    0  0.00000000000E+00  0.00000000000E+00  0.45593999997E+02  0.45594000000E+02  0.51100000000E-03 0. -1.
         11   -1    0    0    0    0 -0.00000000000E+00 -0.00000000000E+00 -0.45593999997E+02  0.45594000000E+02  0.51100000000E-03 0.  1.
    9900012    2    1    2    0    0 -0.38476170855E+02 -0.55943875271E+01  0.11893386773E+02  0.50528861490E+02  0.30000004985E+02 0.  0.
         12    1    1    2    0    0  0.38476170855E+02  0.55943875271E+01 -0.11893386773E+02  0.40659138510E+02  0.00000000000E+00 0. -1.
         11    1    3    3    0    0  0.13145248170E+00 -0.14660565608E+01  0.52123378137E+01  0.54161856818E+01  0.51100000000E-03 0. -1.
        -11    1    3    3    0    0 -0.11705712726E+02  0.84986971572E+01  0.51514391051E+01  0.15355418878E+02  0.51100000000E-03 0.  1.
         12    1    3    3    0    0 -0.26901910611E+02 -0.12627028123E+02  0.15296098540E+01  0.29757256931E+02  0.00000000000E+00 0. -1.
</event>
<event>
 7    1  0.6624035E-013  0.5052886E+02  0.7816164E-02  0.1300439E+00
        -11   -1    0    0    0    0  0.00000000000E+00  0.00000000000E+00  0.45593999997E+02  0.45594000000E+02  0.51100000000E-03 0.  1.
         11   -1    0    0    0    0 -0.00000000000E+00 -0.00000000000E+00 -0.45593999997E+02  0.45594000000E+02  0.51100000000E-03 0. -1.
    9900012    2    1    2    0    0 -0.34196646161E+01 -0.34097392262E+02  0.21882399122E+02  0.50528860111E+02  0.30000000794E+02 0.  0.
         12    1    1    2    0    0  0.34196646161E+01  0.34097392262E+02 -0.21882399122E+02  0.40659139889E+02  0.00000000000E+00 0. -1.
         11    1    3    3    0    0  0.61006544197E+00  0.17554151123E+01  0.43593235751E+01  0.47389201674E+01  0.51100000000E-03 0. -1.
        -11    1    3    3    0    0  0.91310239529E+01 -0.16246854028E+02  0.65848430870E+01  0.19766032050E+02  0.51100000000E-03 0.  1.
         12    1    3    3    0    0 -0.13160754011E+02 -0.19605953346E+02  0.10938232459E+02  0.26023907894E+02  0.00000000000E+00 0. -1.
</event>
<event>
 7    1  0.6624035E-013  0.5052886E+02  0.7816164E-02  0.1300439E+00
        -11   -1    0    0    0    0  0.00000000000E+00  0.00000000000E+00  0.45593999997E+02  0.45594000000E+02  0.51100000000E-03 0.  1.
         11   -1    0    0    0    0 -0.00000000000E+00 -0.00000000000E+00 -0.45593999997E+02  0.45594000000E+02  0.51100000000E-03 0. -1.
    9900012    2    1    2    0    0 -0.50937549393E+01  0.43482253796E+01  0.40103772648E+02  0.50528856084E+02  0.29999988554E+02 0.  0.
         12    1    1    2    0    0  0.50937549393E+01 -0.43482253796E+01 -0.40103772648E+02  0.40659143916E+02  0.00000000000E+00 0. -1.
         11    1    3    3    0    0  0.86845073972E+01  0.33622709178E+01  0.49340496188E+01  0.10538993328E+02  0.51100000000E-03 0.  1.
        -11    1    3    3    0    0  0.72942256938E+00  0.11136662176E+01 -0.54674295277E+00  0.14391795741E+01  0.51100000000E-03 0. -1.
        -12    1    3    3    0    0 -0.14507684906E+02 -0.12771175575E+00  0.35716465982E+02  0.38550683183E+02  0.00000000000E+00 0.  1.
</event>
<event>
 7    1  0.6624035E-013  0.5052887E+02  0.7816164E-02  0.1300439E+00
        -11   -1    0    0    0    0  0.00000000000E+00  0.00000000000E+00  0.45593999997E+02  0.45594000000E+02  0.51100000000E-03 0.  1.
         11   -1    0    0    0    0 -0.00000000000E+00 -0.00000000000E+00 -0.45593999997E+02  0.45594000000E+02  0.51100000000E-03 0. -1.
    9900012    2    1    2    0    0  0.33084661873E+01  0.41419500240E+01  0.40312076252E+02  0.50528865845E+02  0.30000018222E+02 0.  0.
         12    1    1    2    0    0 -0.33084661873E+01 -0.41419500240E+01 -0.40312076252E+02  0.40659134155E+02  0.00000000000E+00 0. -1.
         11    1    3    3    0    0  0.20637906629E+01  0.46916990527E+01  0.15944415447E+02  0.16748004541E+02  0.51100000000E-03 0. -1.
        -11    1    3    3    0    0  0.11120546512E-01  0.12726836062E+01  0.28802196615E+02  0.28830303109E+02  0.51100000000E-03 0.  1.
         12    1    3    3    0    0  0.12335549779E+01 -0.18224326349E+01 -0.44345358100E+01  0.49505581950E+01  0.00000000000E+00 0. -1.
</event>
<event>
 7    1  0.6624035E-013  0.5052891E+02  0.7816164E-02  0.1300439E+00
        -11   -1    0    0    0    0  0.00000000000E+00  0.00000000000E+00  0.45593999997E+02  0.45594000000E+02  0.51100000000E-03 0.  1.
         11   -1    0    0    0    0 -0.00000000000E+00 -0.00000000000E+00 -0.45593999997E+02  0.45594000000E+02  0.51100000000E-03 0. -1.
    9900012    2    1    2    0    0 -0.36530928434E+02 -0.16647130109E+01  0.17773065110E+02  0.50528906982E+02  0.30000143262E+02 0.  0.
         12    1    1    2    0    0  0.36530928434E+02  0.16647130109E+01 -0.17773065110E+02  0.40659093018E+02  0.00000000000E+00 0. -1.
         11    1    3    3    0    0 -0.15044545648E+02  0.71357215751E+01  0.10861471761E+01  0.16686419392E+02  0.51100000000E-03 0. -1.
        -11    1    3    3    0    0 -0.61022311448E+01 -0.37546118975E+00 -0.35440134273E+01  0.70666984854E+01  0.51100000000E-03 0.  1.
        -12    1    3    3    0    0 -0.15384151641E+02 -0.84249733963E+01  0.20230931362E+02  0.26775789105E+02  0.00000000000E+00 0.  1.
</event>
<event>
 7    1  0.1116560E-012  0.5052885E+02  0.7816164E-02  0.1300439E+00
        -11   -1    0    0    0    0  0.00000000000E+00  0.00000000000E+00  0.45593999997E+02  0.45594000000E+02  0.51100000000E-03 0.  1.
         11   -1    0    0    0    0 -0.00000000000E+00 -0.00000000000E+00 -0.45593999997E+02  0.45594000000E+02  0.51100000000E-03 0. -1.
    9900012    2    1    2    0    0  0.12646344227E+02  0.19462853539E+02 -0.33383131920E+02  0.50528853588E+02  0.29999980965E+02 0.  0.
         12    1    1    2    0    0 -0.12646344227E+02 -0.19462853539E+02  0.33383131920E+02  0.40659146412E+02  0.00000000000E+00 0. -1.
         11    1    3    3    0    0  0.14398154531E+01 -0.40621981158E+01 -0.12246516970E+01  0.44804345895E+01  0.51100000000E-03 0. -1.
        -11    1    3    3    0    0  0.10787910611E+02  0.76973641691E+01 -0.25764167534E+02  0.28972758921E+02  0.51100000000E-03 0.  1.
         12    1    3    3    0    0  0.41861816295E+00  0.15827687486E+02 -0.63943126895E+01  0.17075660077E+02  0.00000000000E+00 0. -1.
</event>
<event>
 7    1  0.6624035E-013  0.5052886E+02  0.7816164E-02  0.1300439E+00
        -11   -1    0    0    0    0  0.00000000000E+00  0.00000000000E+00  0.45593999997E+02  0.45594000000E+02  0.51100000000E-03 0.  1.
         11   -1    0    0    0    0 -0.00000000000E+00 -0.00000000000E+00 -0.45593999997E+02  0.45594000000E+02  0.51100000000E-03 0. -1.
    9900012    2    1    2    0    0 -0.25643606712E+02  0.96090722716E+01  0.30053905177E+02  0.50528855253E+02  0.29999986027E+02 0.  0.
         12    1    1    2    0    0  0.25643606712E+02 -0.96090722716E+01 -0.30053905177E+02  0.40659144747E+02  0.00000000000E+00 0. -1.
         11    1    3    3    0    0 -0.19702908509E+02  0.42925517063E+00  0.92342708933E+01  0.21763745608E+02  0.51100000000E-03 0. -1.
        -11    1    3    3    0    0 -0.55617663858E+01 -0.32018206937E+01  0.30539887213E+01  0.71071617721E+01  0.51100000000E-03 0.  1.
        -12    1    3    3    0    0 -0.37893181786E+00  0.12381637795E+02  0.17765645563E+02  0.21657947873E+02  0.00000000000E+00 0.  1.
</event>
<event>
 7    1  0.6624035E-013  0.5052885E+02  0.7816164E-02  0.1300439E+00
        -11   -1    0    0    0    0  0.00000000000E+00  0.00000000000E+00  0.45593999997E+02  0.45594000000E+02  0.51100000000E-03 0. -1.
         11   -1    0    0    0    0 -0.00000000000E+00 -0.00000000000E+00 -0.45593999997E+02  0.45594000000E+02  0.51100000000E-03 0.  1.
    9900012    2    1    2    0    0 -0.17321851903E+02  0.17870754196E+02 -0.32152073250E+02  0.50528853143E+02  0.29999979612E+02 0.  0.
         12    1    1    2    0    0  0.17321851903E+02 -0.17870754196E+02  0.32152073250E+02  0.40659146857E+02  0.00000000000E+00 0. -1.
         11    1    3    3    0    0 -0.16100414481E+01 -0.46969983272E+00 -0.50476278955E+01  0.53189659737E+01  0.51100000000E-03 0. -1.
        -11    1    3    3    0    0 -0.22010179065E+02  0.10620788428E+02 -0.25128663603E+02  0.35052801087E+02  0.51100000000E-03 0.  1.
         12    1    3    3    0    0  0.62983686102E+01  0.77196656014E+01 -0.19757817516E+01  0.10157086082E+02  0.00000000000E+00 0. -1.
</event>
<event>
 7    1  0.6624035E-013  0.5052886E+02  0.7816164E-02  0.1300439E+00
        -11   -1    0    0    0    0  0.00000000000E+00  0.00000000000E+00  0.45593999997E+02  0.45594000000E+02  0.51100000000E-03 0.  1.
         11   -1    0    0    0    0 -0.00000000000E+00 -0.00000000000E+00 -0.45593999997E+02  0.45594000000E+02  0.51100000000E-03 0. -1.
    9900012    2    1    2    0    0  0.12961298321E+02  0.37916574008E+02  0.68923021826E+01  0.50528859969E+02  0.30000000363E+02 0.  0.
         12    1    1    2    0    0 -0.12961298321E+02 -0.37916574008E+02 -0.68923021826E+01  0.40659140031E+02  0.00000000000E+00 0. -1.
         11    1    3    3    0    0 -0.47854563313E+01  0.78645207422E+01 -0.39745803947E+01  0.10027390906E+02  0.51100000000E-03 0. -1.
        -11    1    3    3    0    0 -0.87128619220E-01 -0.19440493983E+01 -0.73090080259E+00  0.20787341590E+01  0.51100000000E-03 0.  1.
        -12    1    3    3    0    0  0.17833883271E+02  0.31996102664E+02  0.11597783380E+02  0.38422734905E+02  0.00000000000E+00 0.  1.
</event>
<event>
 7    1  0.6624035E-013  0.5052885E+02  0.7816164E-02  0.1300439E+00
        -11   -1    0    0    0    0  0.00000000000E+00  0.00000000000E+00  0.45593999997E+02  0.45594000000E+02  0.51100000000E-03 0.  1.
         11   -1    0    0    0    0 -0.00000000000E+00 -0.00000000000E+00 -0.45593999997E+02  0.45594000000E+02  0.51100000000E-03 0. -1.
    9900012    2    1    2    0    0  0.21685249269E+02 -0.30855611863E+02  0.15193663689E+02  0.50528852990E+02  0.29999979147E+02 0.  0.
         12    1    1    2    0    0 -0.21685249269E+02  0.30855611863E+02 -0.15193663689E+02  0.40659147010E+02  0.00000000000E+00 0. -1.
         11    1    3    3    0    0  0.27679959878E+01 -0.24559332823E+02  0.11051184107E+02  0.27073073356E+02  0.51100000000E-03 0. -1.
        -11    1    3    3    0    0  0.47312714169E+01 -0.74239074708E+01  0.81359227934E+00  0.88408859292E+01  0.51100000000E-03 0.  1.
         12    1    3    3    0    0  0.14185981864E+02  0.11276284304E+01  0.33288873026E+01  0.14614893705E+02  0.00000000000E+00 0. -1.
</event>
<event>
 7    1  0.6624035E-013  0.5052888E+02  0.7816164E-02  0.1300439E+00
        -11   -1    0    0    0    0  0.00000000000E+00  0.00000000000E+00  0.45593999997E+02  0.45594000000E+02  0.51100000000E-03 0. -1.
         11   -1    0    0    0    0 -0.00000000000E+00 -0.00000000000E+00 -0.45593999997E+02  0.45594000000E+02  0.51100000000E-03 0.  1.
    9900012    2    1    2    0    0 -0.32094215738E+02 -0.21358143548E+02 -0.12921109016E+02  0.50528880017E+02  0.30000061299E+02 0.  0.
         12    1    1    2    0    0  0.32094215738E+02  0.21358143548E+02  0.12921109016E+02  0.40659119983E+02  0.00000000000E+00 0. -1.
         11    1    3    3    0    0  0.65264281994E+00  0.34217405464E+01  0.19196388239E+00  0.34887105656E+01  0.51100000000E-03 0. -1.
        -11    1    3    3    0    0 -0.20504614835E+02 -0.23953752487E+02 -0.40595727025E+01  0.31791533755E+02  0.51100000000E-03 0.  1.
         12    1    3    3    0    0 -0.12242243722E+02 -0.82613160728E+00 -0.90535001959E+01  0.15248635696E+02  0.00000000000E+00 0. -1.
</event>
<event>
 7    1  0.6624035E-013  0.5052885E+02  0.7816164E-02  0.1300439E+00
        -11   -1    0    0    0    0  0.00000000000E+00  0.00000000000E+00  0.45593999997E+02  0.45594000000E+02  0.51100000000E-03 0.  1.
         11   -1    0    0    0    0 -0.00000000000E+00 -0.00000000000E+00 -0.45593999997E+02  0.45594000000E+02  0.51100000000E-03 0. -1.
    9900012    2    1    2    0    0  0.43141100958E+01  0.11322397067E+02  0.38811826687E+02  0.50528854509E+02  0.29999983766E+02 0.  0.
         12    1    1    2    0    0 -0.43141100958E+01 -0.11322397067E+02 -0.38811826687E+02  0.40659145491E+02  0.00000000000E+00 0. -1.
         11    1    3    3    0    0 -0.90738291895E+01  0.27811034273E+01  0.89949744271E+01  0.13075873877E+02  0.51100000000E-03 0.  1.
        -11    1    3    3    0    0  0.16984955789E+02  0.81226337725E+01  0.26727840739E+02  0.32693170133E+02  0.51100000000E-03 0. -1.
         12    1    3    3    0    0 -0.35970165034E+01  0.41865986710E+00  0.30890115213E+01  0.47598104993E+01  0.00000000000E+00 0. -1.
</event>
<event>
 7    1  0.6624035E-013  0.5052885E+02  0.7816164E-02  0.1300439E+00
        -11   -1    0    0    0    0  0.00000000000E+00  0.00000000000E+00  0.45593999997E+02  0.45594000000E+02  0.51100000000E-03 0.  1.
         11   -1    0    0    0    0 -0.00000000000E+00 -0.00000000000E+00 -0.45593999997E+02  0.45594000000E+02  0.51100000000E-03 0. -1.
    9900012    2    1    2    0    0  0.28526577214E+02  0.29381287354E+01  0.28823049746E+02  0.50528850911E+02  0.29999972828E+02 0.  0.
         12    1    1    2    0    0 -0.28526577214E+02 -0.29381287354E+01 -0.28823049746E+02  0.40659149089E+02  0.00000000000E+00 0. -1.
         11    1    3    3    0    0  0.13305054406E+01 -0.18509138577E+01  0.29671542321E+01  0.37416749370E+01  0.51100000000E-03 0. -1.
        -11    1    3    3    0    0  0.32026513934E+02  0.43643959436E+00  0.24005306674E+02  0.40026776326E+02  0.51100000000E-03 0.  1.
         12    1    3    3    0    0 -0.48304421613E+01  0.43526029987E+01  0.18505888405E+01  0.67603996475E+01  0.00000000000E+00 0. -1.
</event>
<event>
 7    1  0.6624035E-013  0.5052885E+02  0.7816164E-02  0.1300439E+00
        -11   -1    0    0    0    0  0.00000000000E+00  0.00000000000E+00  0.45593999997E+02  0.45594000000E+02  0.51100000000E-03 0. -1.
         11   -1    0    0    0    0 -0.00000000000E+00 -0.00000000000E+00 -0.45593999997E+02  0.45594000000E+02  0.51100000000E-03 0.  1.
    9900012    2    1    2    0    0  0.88311361096E+01 -0.14623887527E+02 -0.36896057883E+02  0.50528854181E+02  0.29999982769E+02 0.  0.
         12    1    1    2    0    0 -0.88311361096E+01  0.14623887527E+02  0.36896057883E+02  0.40659145819E+02  0.00000000000E+00 0. -1.
         11    1    3    3    0    0  0.24305262877E+01 -0.13683748266E+02 -0.12137874107E+02  0.18452111335E+02  0.51100000000E-03 0.  1.
        -11    1    3    3    0    0 -0.59073742390E+01 -0.67625456832E+00 -0.15712600657E+02  0.16800006259E+02  0.51100000000E-03 0. -1.
        -12    1    3    3    0    0  0.12307984061E+02 -0.26388469265E+00 -0.90455831200E+01  0.15276736587E+02  0.00000000000E+00 0.  1.
</event>
<event>
 7    1  0.6624035E-013  0.5052886E+02  0.7816164E-02  0.1300439E+00
        -11   -1    0    0    0    0  0.00000000000E+00  0.00000000000E+00  0.45593999997E+02  0.45594000000E+02  0.51100000000E-03 0. -1.
         11   -1    0    0    0    0 -0.00000000000E+00 -0.00000000000E+00 -0.45593999997E+02  0.45594000000E+02  0.51100000000E-03 0.  1.
    9900012    2    1    2    0    0  0.17570456551E+02  0.35896188915E+02 -0.74772031638E+01  0.50528857250E+02  0.29999992096E+02 0.  0.
         12    1    1    2    0    0 -0.17570456551E+02 -0.35896188915E+02  0.74772031638E+01  0.40659142750E+02  0.00000000000E+00 0. -1.
         11    1    3    3    0    0  0.67756293207E+00 -0.19035492188E+01 -0.13854038835E+01  0.24498847599E+01  0.51100000000E-03 0. -1.
        -11    1    3    3    0    0  0.33231508920E+01  0.50963094815E+01 -0.10764645126E+02  0.12365002512E+02  0.51100000000E-03 0.  1.
        -12    1    3    3    0    0  0.13569742727E+02  0.32703428652E+02  0.46728458453E+01  0.35713969978E+02  0.00000000000E+00 0.  1.
</event>
<event>
 7    1  0.6624035E-013  0.5052887E+02  0.7816164E-02  0.1300439E+00
        -11   -1    0    0    0    0  0.00000000000E+00  0.00000000000E+00  0.45593999997E+02  0.45594000000E+02  0.51100000000E-03 0.  1.
         11   -1    0    0    0    0 -0.00000000000E+00 -0.00000000000E+00 -0.45593999997E+02  0.45594000000E+02  0.51100000000E-03 0. -1.
    9900012    2    1    2    0    0  0.19473052782E+02  0.67229790084E+01  0.35053769250E+02  0.50528868552E+02  0.30000026452E+02 0.  0.
         12    1    1    2    0    0 -0.19473052782E+02 -0.67229790084E+01 -0.35053769250E+02  0.40659131448E+02  0.00000000000E+00 0. -1.
         11    1    3    3    0    0  0.32835462127E+01  0.10395225866E+02  0.65049077626E+01  0.12694732049E+02  0.51100000000E-03 0. -1.
        -11    1    3    3    0    0  0.10458144289E+02  0.40015373063E+01  0.47186241409E+01  0.12151152078E+02  0.51100000000E-03 0.  1.
         12    1    3    3    0    0  0.57313622809E+01 -0.76737841639E+01  0.23830237347E+02  0.25682984425E+02  0.00000000000E+00 0. -1.
</event>
<event>
 7    1  0.6624035E-013  0.5052886E+02  0.7816164E-02  0.1300439E+00
        -11   -1    0    0    0    0  0.00000000000E+00  0.00000000000E+00  0.45593999997E+02  0.45594000000E+02  0.51100000000E-03 0. -1.
         11   -1    0    0    0    0 -0.00000000000E+00 -0.00000000000E+00 -0.45593999997E+02  0.45594000000E+02  0.51100000000E-03 0.  1.
    9900012    2    1    2    0    0  0.19422765752E+02 -0.34574212537E+02  0.89747300127E+01  0.50528858582E+02  0.29999996147E+02 0.  0.
         12    1    1    2    0    0 -0.19422765752E+02  0.34574212537E+02 -0.89747300127E+01  0.40659141418E+02  0.00000000000E+00 0. -1.
         11    1    3    3    0    0  0.42603896006E+01 -0.13715912257E+02  0.93249421110E+01  0.17124009876E+02  0.51100000000E-03 0. -1.
        -11    1    3    3    0    0  0.12881073400E+02 -0.24425693106E+02  0.33048098516E+01  0.27811118353E+02  0.51100000000E-03 0.  1.
         12    1    3    3    0    0  0.22813027513E+01  0.35673928254E+01 -0.36550219499E+01  0.55937303535E+01  0.00000000000E+00 0. -1.
</event>
<event>
 7    1  0.6624035E-013  0.5052886E+02  0.7816164E-02  0.1300439E+00
        -11   -1    0    0    0    0  0.00000000000E+00  0.00000000000E+00  0.45593999997E+02  0.45594000000E+02  0.51100000000E-03 0. -1.
         11   -1    0    0    0    0 -0.00000000000E+00 -0.00000000000E+00 -0.45593999997E+02  0.45594000000E+02  0.51100000000E-03 0.  1.
    9900012    2    1    2    0    0 -0.31496352850E+02 -0.16655320419E+02 -0.19589432299E+02  0.50528858360E+02  0.29999995471E+02 0.  0.
         12    1    1    2    0    0  0.31496352850E+02  0.16655320419E+02  0.19589432299E+02  0.40659141640E+02  0.00000000000E+00 0. -1.
         11    1    3    3    0    0 -0.12457410901E+02 -0.15632453963E+01  0.93642322665E+00  0.12589984561E+02  0.51100000000E-03 0. -1.
        -11    1    3    3    0    0 -0.16683655975E+01 -0.98260186136E+00  0.41785693964E+01  0.46053656365E+01  0.51100000000E-03 0.  1.
        -12    1    3    3    0    0 -0.17370576352E+02 -0.14109473161E+02 -0.24704424922E+02  0.33333508162E+02  0.00000000000E+00 0.  1.
</event>
<event>
 7    1  0.6624035E-013  0.5052887E+02  0.7816164E-02  0.1300439E+00
        -11   -1    0    0    0    0  0.00000000000E+00  0.00000000000E+00  0.45593999997E+02  0.45594000000E+02  0.51100000000E-03 0. -1.
         11   -1    0    0    0    0 -0.00000000000E+00 -0.00000000000E+00 -0.45593999997E+02  0.45594000000E+02  0.51100000000E-03 0.  1.
    9900012    2    1    2    0    0 -0.27209459189E+02  0.15806156866E+02 -0.25748311679E+02  0.50528870416E+02  0.30000032116E+02 0.  0.
         12    1    1    2    0    0  0.27209459189E+02 -0.15806156866E+02  0.25748311679E+02  0.40659129584E+02  0.00000000000E+00 0. -1.
         11    1    3    3    0    0  0.24344774830E+01  0.29687361577E+01 -0.77385059985E+01  0.86385502453E+01  0.51100000000E-03 0. -1.
        -11    1    3    3    0    0 -0.20658882365E+01 -0.19036398812E+01 -0.88807124858E+01  0.93144400540E+01  0.51100000000E-03 0.  1.
        -12    1    3    3    0    0 -0.27578048435E+02  0.14741060590E+02 -0.91290931944E+01  0.32575880117E+02  0.00000000000E+00 0.  1.
</event>
<event>
 7    1  0.6624035E-013  0.5052886E+02  0.7816164E-02  0.1300439E+00
        -11   -1    0    0    0    0  0.00000000000E+00  0.00000000000E+00  0.45593999997E+02  0.45594000000E+02  0.51100000000E-03 0.  1.
         11   -1    0    0    0    0 -0.00000000000E+00 -0.00000000000E+00 -0.45593999997E+02  0.45594000000E+02  0.51100000000E-03 0. -1.
    9900012    2    1    2    0    0 -0.79052077607E+01 -0.37344121647E+02 -0.14003217709E+02  0.50528857885E+02  0.29999994028E+02 0.  0.
         12    1    1    2    0    0  0.79052077607E+01  0.37344121647E+02  0.14003217709E+02  0.40659142115E+02  0.00000000000E+00 0. -1.
         11    1    3    3    0    0 -0.40817448776E+01 -0.13438015713E+02 -0.28864461584E+01  0.14337798967E+02  0.51100000000E-03 0. -1.
        -11    1    3    3    0    0 -0.14109491599E+02 -0.16617049882E+02 -0.78305520259E+01  0.23162936888E+02  0.51100000000E-03 0.  1.
         12    1    3    3    0    0  0.10286028716E+02 -0.72890560521E+01 -0.32862195242E+01  0.13028122030E+02  0.00000000000E+00 0. -1.
</event>
<event>
 7    1  0.6624035E-013  0.5052887E+02  0.7816164E-02  0.1300439E+00
        -11   -1    0    0    0    0  0.00000000000E+00  0.00000000000E+00  0.45593999997E+02  0.45594000000E+02  0.51100000000E-03 0. -1.
         11   -1    0    0    0    0 -0.00000000000E+00 -0.00000000000E+00 -0.45593999997E+02  0.45594000000E+02  0.51100000000E-03 0.  1.
    9900012    2    1    2    0    0 -0.33465064953E+02 -0.21569619404E+02  0.82465806142E+01  0.50528866397E+02  0.30000019901E+02 0.  0.
         12    1    1    2    0    0  0.33465064953E+02  0.21569619404E+02 -0.82465806142E+01  0.40659133603E+02  0.00000000000E+00 0. -1.
         11    1    3    3    0    0 -0.31246206549E+02 -0.60569056799E+01  0.88122145557E+01  0.33025242705E+02  0.51100000000E-03 0. -1.
        -11    1    3    3    0    0 -0.40941342103E+01 -0.41655304175E+01 -0.12838573329E+01  0.59801227833E+01  0.51100000000E-03 0.  1.
        -12    1    3    3    0    0  0.18752758067E+01 -0.11347183307E+02  0.71822339141E+00  0.11523500908E+02  0.00000000000E+00 0.  1.
</event>
<event>
 7    1  0.6624035E-013  0.5052886E+02  0.7816164E-02  0.1300439E+00
        -11   -1    0    0    0    0  0.00000000000E+00  0.00000000000E+00  0.45593999997E+02  0.45594000000E+02  0.51100000000E-03 0. -1.
         11   -1    0    0    0    0 -0.00000000000E+00 -0.00000000000E+00 -0.45593999997E+02  0.45594000000E+02  0.51100000000E-03 0.  1.
    9900012    2    1    2    0    0  0.22760786009E+02 -0.25625717086E+02 -0.21873154116E+02  0.50528860476E+02  0.30000001901E+02 0.  0.
         12    1    1    2    0    0 -0.22760786009E+02  0.25625717086E+02  0.21873154116E+02  0.40659139524E+02  0.00000000000E+00 0. -1.
         11    1    3    3    0    0  0.52336569521E+01 -0.35914533573E+01 -0.14437184909E+02  0.15770922950E+02  0.51100000000E-03 0. -1.
        -11    1    3    3    0    0  0.11622316205E+02 -0.49637482172E+01 -0.10507814410E+02  0.16435668354E+02  0.51100000000E-03 0.  1.
        -12    1    3    3    0    0  0.59048128516E+01 -0.17070515511E+02  0.30718452034E+01  0.18322269171E+02  0.00000000000E+00 0.  1.
</event>
<event>
 7    1  0.6624035E-013  0.5052886E+02  0.7816164E-02  0.1300439E+00
        -11   -1    0    0    0    0  0.00000000000E+00  0.00000000000E+00  0.45593999997E+02  0.45594000000E+02  0.51100000000E-03 0.  1.
         11   -1    0    0    0    0 -0.00000000000E+00 -0.00000000000E+00 -0.45593999997E+02  0.45594000000E+02  0.51100000000E-03 0. -1.
    9900012    2    1    2    0    0 -0.67099560690E+01  0.35125833143E+02  0.19347309462E+02  0.50528855298E+02  0.29999986164E+02 0.  0.
         12    1    1    2    0    0  0.67099560690E+01 -0.35125833143E+02 -0.19347309462E+02  0.40659144702E+02  0.00000000000E+00 0. -1.
         11    1    3    3    0    0 -0.13520551554E+01  0.10217011038E+02  0.16154736254E+01  0.10431928057E+02  0.51100000000E-03 0. -1.
        -11    1    3    3    0    0 -0.67167783906E+01  0.26612585444E+02  0.59103895084E+01  0.28076280387E+02  0.51100000000E-03 0.  1.
        -12    1    3    3    0    0  0.13588774771E+01 -0.17037633382E+01  0.11821446328E+02  0.12020646855E+02  0.00000000000E+00 0.  1.
</event>
<event>
 7    1  0.7315892E-013  0.5052886E+02  0.7816164E-02  0.1300439E+00
        -11   -1    0    0    0    0  0.00000000000E+00  0.00000000000E+00  0.45593999997E+02  0.45594000000E+02  0.51100000000E-03 0. -1.
         11   -1    0    0    0    0 -0.00000000000E+00 -0.00000000000E+00 -0.45593999997E+02  0.45594000000E+02  0.51100000000E-03 0.  1.
    9900012    2    1    2    0    0  0.35692566587E+02  0.11157852569E+02 -0.15959592067E+02  0.50528861268E+02  0.30000004309E+02 0.  0.
         12    1    1    2    0    0 -0.35692566587E+02 -0.11157852569E+02  0.15959592067E+02  0.40659138732E+02  0.00000000000E+00 0. -1.
         11    1    3    3    0    0  0.97906786074E+01 -0.34873287335E+01 -0.88046076442E+01  0.13621305566E+02  0.51100000000E-03 0. -1.
        -11    1    3    3    0    0  0.78619107247E+01  0.10318513212E+02 -0.12066632796E+02  0.17716799441E+02  0.51100000000E-03 0.  1.
         12    1    3    3    0    0  0.18039977255E+02  0.43266680897E+01  0.49116483727E+01  0.19190756260E+02  0.00000000000E+00 0. -1.
</event>
<event>
 7    1  0.6624035E-013  0.5052888E+02  0.7816164E-02  0.1300439E+00
        -11   -1    0    0    0    0  0.00000000000E+00  0.00000000000E+00  0.45593999997E+02  0.45594000000E+02  0.51100000000E-03 0.  1.
         11   -1    0    0    0    0 -0.00000000000E+00 -0.00000000000E+00 -0.45593999997E+02  0.45594000000E+02  0.51100000000E-03 0. -1.
    9900012    2    1    2    0    0 -0.14957100455E+02 -0.14821171197E+02  0.34781924473E+02  0.50528877534E+02  0.30000053752E+02 0.  0.
         12    1    1    2    0    0  0.14957100455E+02  0.14821171197E+02 -0.34781924473E+02  0.40659122466E+02  0.00000000000E+00 0. -1.
         11    1    3    3    0    0 -0.38199697072E+01  0.64107282509E+01  0.89662192025E+01  0.11665448655E+02  0.51100000000E-03 0. -1.
        -11    1    3    3    0    0 -0.64430250793E+01 -0.76900835492E+01  0.83996906211E+00  0.10067547142E+02  0.51100000000E-03 0.  1.
        -12    1    3    3    0    0 -0.46941056684E+01 -0.13541815899E+02  0.24975736209E+02  0.28795881737E+02  0.00000000000E+00 0.  1.
</event>
<event>
 7    1  0.6624035E-013  0.5052886E+02  0.7816164E-02  0.1300439E+00
        -11   -1    0    0    0    0  0.00000000000E+00  0.00000000000E+00  0.45593999997E+02  0.45594000000E+02  0.51100000000E-03 0.  1.
         11   -1    0    0    0    0 -0.00000000000E+00 -0.00000000000E+00 -0.45593999997E+02  0.45594000000E+02  0.51100000000E-03 0. -1.
    9900012    2    1    2    0    0 -0.11300909070E+02  0.25739891759E+02  0.29375383157E+02  0.50528859463E+02  0.29999998824E+02 0.  0.
         12    1    1    2    0    0  0.11300909070E+02 -0.25739891759E+02 -0.29375383157E+02  0.40659140537E+02  0.00000000000E+00 0. -1.
         11    1    3    3    0    0 -0.31745954323E+01 -0.13716685271E+00 -0.80475697552E+00  0.32778811685E+01  0.51100000000E-03 0. -1.
        -11    1    3    3    0    0 -0.11184070967E+02  0.32007351457E+01  0.35972504743E+01  0.12176549598E+02  0.51100000000E-03 0.  1.
        -12    1    3    3    0    0  0.30577573295E+01  0.22676323466E+02  0.26582889658E+02  0.35074428697E+02  0.00000000000E+00 0.  1.
</event>
<event>
 7    1  0.6624035E-013  0.5052885E+02  0.7816164E-02  0.1300439E+00
        -11   -1    0    0    0    0  0.00000000000E+00  0.00000000000E+00  0.45593999997E+02  0.45594000000E+02  0.51100000000E-03 0.  1.
         11   -1    0    0    0    0 -0.00000000000E+00 -0.00000000000E+00 -0.45593999997E+02  0.45594000000E+02  0.51100000000E-03 0. -1.
    9900012    2    1    2    0    0  0.15483790111E+02 -0.32074308467E+02  0.19612676879E+02  0.50528854483E+02  0.29999983686E+02 0.  0.
         12    1    1    2    0    0 -0.15483790111E+02  0.32074308467E+02 -0.19612676879E+02  0.40659145517E+02  0.00000000000E+00 0. -1.
         11    1    3    3    0    0  0.21345555528E+01 -0.15518981659E+02  0.26323535555E+00  0.15667303924E+02  0.51100000000E-03 0. -1.
        -11    1    3    3    0    0  0.83230274509E+01 -0.19909133922E+02  0.10129586854E+02  0.23838098279E+02  0.51100000000E-03 0.  1.
        -12    1    3    3    0    0  0.50262071073E+01  0.33538071140E+01  0.92198546690E+01  0.11023452280E+02  0.00000000000E+00 0.  1.
</event>
<event>
 7    1  0.6624035E-013  0.5052885E+02  0.7816164E-02  0.1300439E+00
        -11   -1    0    0    0    0  0.00000000000E+00  0.00000000000E+00  0.45593999997E+02  0.45594000000E+02  0.51100000000E-03 0.  1.
         11   -1    0    0    0    0 -0.00000000000E+00 -0.00000000000E+00 -0.45593999997E+02  0.45594000000E+02  0.51100000000E-03 0. -1.
    9900012    2    1    2    0    0 -0.27895758033E+02 -0.79380817168E+01  0.28495268729E+02  0.50528846079E+02  0.29999958143E+02 0.  0.
         12    1    1    2    0    0  0.27895758033E+02  0.79380817168E+01 -0.28495268729E+02  0.40659153921E+02  0.00000000000E+00 0. -1.
         11    1    3    3    0    0 -0.15381755981E+02 -0.60210479782E+01  0.39368399205E+01  0.16980875850E+02  0.51100000000E-03 0. -1.
        -11    1    3    3    0    0 -0.90941566036E+01 -0.84206321683E+01  0.63779904087E+01  0.13938776573E+02  0.51100000000E-03 0.  1.
         12    1    3    3    0    0 -0.34198454487E+01  0.65035984298E+01  0.18180438400E+02  0.19609193656E+02  0.00000000000E+00 0. -1.
</event>
<event>
 7    1  0.6624035E-013  0.5052885E+02  0.7816164E-02  0.1300439E+00
        -11   -1    0    0    0    0  0.00000000000E+00  0.00000000000E+00  0.45593999997E+02  0.45594000000E+02  0.51100000000E-03 0.  1.
         11   -1    0    0    0    0 -0.00000000000E+00 -0.00000000000E+00 -0.45593999997E+02  0.45594000000E+02  0.51100000000E-03 0. -1.
    9900012    2    1    2    0    0 -0.43077528189E+00 -0.11355006763E+02  0.39039010768E+02  0.50528854563E+02  0.29999983930E+02 0.  0.
         12    1    1    2    0    0  0.43077528189E+00  0.11355006763E+02 -0.39039010768E+02  0.40659145437E+02  0.00000000000E+00 0. -1.
         11    1    3    3    0    0  0.52682453950E+01 -0.82407996455E+00  0.70879832466E+01  0.88697815134E+01  0.51100000000E-03 0. -1.
        -11    1    3    3    0    0  0.60161504793E-01  0.74957446415E+01  0.63573894409E+01  0.98288457055E+01  0.51100000000E-03 0.  1.
         12    1    3    3    0    0 -0.57591821817E+01 -0.18026671440E+02  0.25593638080E+02  0.31830227344E+02  0.00000000000E+00 0. -1.
</event>
<event>
 7    1  0.7020784E-013  0.5052886E+02  0.7816164E-02  0.1300439E+00
        -11   -1    0    0    0    0  0.00000000000E+00  0.00000000000E+00  0.45593999997E+02  0.45594000000E+02  0.51100000000E-03 0. -1.
         11   -1    0    0    0    0 -0.00000000000E+00 -0.00000000000E+00 -0.45593999997E+02  0.45594000000E+02  0.51100000000E-03 0.  1.
    9900012    2    1    2    0    0 -0.35762474865E+02 -0.87063130713E+01 -0.17274582166E+02  0.50528859763E+02  0.29999999737E+02 0.  0.
         12    1    1    2    0    0  0.35762474865E+02  0.87063130713E+01  0.17274582166E+02  0.40659140237E+02  0.00000000000E+00 0. -1.
         11    1    3    3    0    0 -0.10494839598E+02 -0.99966415742E+01 -0.37145216979E+00  0.14498706078E+02  0.51100000000E-03 0.  1.
        -11    1    3    3    0    0 -0.16081473128E+02 -0.86229480746E+01 -0.86446442667E+01  0.20191554825E+02  0.51100000000E-03 0. -1.
         12    1    3    3    0    0 -0.91861621383E+01  0.99132765774E+01 -0.82584857297E+01  0.15838598861E+02  0.00000000000E+00 0. -1.
</event>
<event>
 7    1  0.6624035E-013  0.5052885E+02  0.7816164E-02  0.1300439E+00
        -11   -1    0    0    0    0  0.00000000000E+00  0.00000000000E+00  0.45593999997E+02  0.45594000000E+02  0.51100000000E-03 0.  1.
         11   -1    0    0    0    0 -0.00000000000E+00 -0.00000000000E+00 -0.45593999997E+02  0.45594000000E+02  0.51100000000E-03 0. -1.
    9900012    2    1    2    0    0 -0.98260709024E+01 -0.31484364521E+02  0.23777083734E+02  0.50528848637E+02  0.29999965917E+02 0.  0.
         12    1    1    2    0    0  0.98260709024E+01  0.31484364521E+02 -0.23777083734E+02  0.40659151363E+02  0.00000000000E+00 0. -1.
         11    1    3    3    0    0  0.75504865981E+01 -0.10379206806E+02  0.85624452304E+01  0.15428974378E+02  0.51100000000E-03 0. -1.
        -11    1    3    3    0    0 -0.96508632104E+01 -0.18819654836E+02  0.43810508630E+01  0.21598892930E+02  0.51100000000E-03 0.  1.
        -12    1    3    3    0    0 -0.77256942901E+01 -0.22855028792E+01  0.10833587641E+02  0.13500981329E+02  0.00000000000E+00 0.  1.
</event>
<event>
 7    1  0.6624035E-013  0.5052886E+02  0.7816164E-02  0.1300439E+00
        -11   -1    0    0    0    0  0.00000000000E+00  0.00000000000E+00  0.45593999997E+02  0.45594000000E+02  0.51100000000E-03 0.  1.
         11   -1    0    0    0    0 -0.00000000000E+00 -0.00000000000E+00 -0.45593999997E+02  0.45594000000E+02  0.51100000000E-03 0. -1.
    9900012    2    1    2    0    0  0.17668321049E+01 -0.53868487951E+00  0.40617162634E+02  0.50528858623E+02  0.29999996270E+02 0.  0.
         12    1    1    2    0    0 -0.17668321049E+01  0.53868487951E+00 -0.40617162634E+02  0.40659141377E+02  0.00000000000E+00 0. -1.
         11    1    3    3    0    0 -0.72473596427E+00 -0.34467778479E+01  0.31721737582E+01  0.47400639620E+01  0.51100000000E-03 0. -1.
        -11    1    3    3    0    0  0.10893875706E+02 -0.68034555572E+01  0.13603834714E+02  0.18709031365E+02  0.51100000000E-03 0.  1.
        -12    1    3    3    0    0 -0.84023076371E+01  0.97115485255E+01  0.23841154162E+02  0.27079763296E+02  0.00000000000E+00 0.  1.
</event>
<event>
 7    1  0.7305896E-013  0.5052887E+02  0.7816164E-02  0.1300439E+00
        -11   -1    0    0    0    0  0.00000000000E+00  0.00000000000E+00  0.45593999997E+02  0.45594000000E+02  0.51100000000E-03 0.  1.
         11   -1    0    0    0    0 -0.00000000000E+00 -0.00000000000E+00 -0.45593999997E+02  0.45594000000E+02  0.51100000000E-03 0. -1.
    9900012    2    1    2    0    0 -0.33744866066E+02 -0.71446433088E+01  0.21526796991E+02  0.50528869383E+02  0.30000028977E+02 0.  0.
         12    1    1    2    0    0  0.33744866066E+02  0.71446433088E+01 -0.21526796991E+02  0.40659130617E+02  0.00000000000E+00 0. -1.
         11    1    3    3    0    0 -0.15203328253E+02  0.10455378058E+00  0.13745297361E+00  0.15204309094E+02  0.51100000000E-03 0. -1.
        -11    1    3    3    0    0 -0.18518905741E+02 -0.48238519073E+01  0.64574818208E+01  0.20196992073E+02  0.51100000000E-03 0.  1.
         12    1    3    3    0    0 -0.22632071988E-01 -0.24253451821E+01  0.14931862197E+02  0.15127568216E+02  0.00000000000E+00 0. -1.
</event>
<event>
 7    1  0.6624035E-013  0.5052885E+02  0.7816164E-02  0.1300439E+00
        -11   -1    0    0    0    0  0.00000000000E+00  0.00000000000E+00  0.45593999997E+02  0.45594000000E+02  0.51100000000E-03 0. -1.
         11   -1    0    0    0    0 -0.00000000000E+00 -0.00000000000E+00 -0.45593999997E+02  0.45594000000E+02  0.51100000000E-03 0.  1.
    9900012    2    1    2    0    0 -0.20139214308E+02  0.71917407867E+01 -0.34581168757E+02  0.50528851938E+02  0.29999975952E+02 0.  0.
         12    1    1    2    0    0  0.20139214308E+02 -0.71917407867E+01  0.34581168757E+02  0.40659148062E+02  0.00000000000E+00 0. -1.
         11    1    3    3    0    0  0.48323381595E+01  0.53332802706E+01 -0.40522342824E+01  0.82592961851E+01  0.51100000000E-03 0. -1.
        -11    1    3    3    0    0 -0.35701466756E+01  0.21839020290E+01  0.86484585242E+00  0.42735622105E+01  0.51100000000E-03 0.  1.
        -12    1    3    3    0    0 -0.21401405792E+02 -0.32544151290E+00 -0.31393780327E+02  0.37995993543E+02  0.00000000000E+00 0.  1.
</event>
<event>
 7    1  0.6624035E-013  0.5052884E+02  0.7816164E-02  0.1300439E+00
        -11   -1    0    0    0    0  0.00000000000E+00  0.00000000000E+00  0.45593999997E+02  0.45594000000E+02  0.51100000000E-03 0.  1.
         11   -1    0    0    0    0 -0.00000000000E+00 -0.00000000000E+00 -0.45593999997E+02  0.45594000000E+02  0.51100000000E-03 0. -1.
    9900012    2    1    2    0    0  0.19302698780E+01  0.40322288566E+00  0.40611312918E+02  0.50528840301E+02  0.29999940578E+02 0.  0.
         12    1    1    2    0    0 -0.19302698780E+01 -0.40322288566E+00 -0.40611312918E+02  0.40659159699E+02  0.00000000000E+00 0. -1.
         11    1    3    3    0    0  0.14872320974E+01  0.18352018805E+01  0.15936764073E+02  0.16110874422E+02  0.51100000000E-03 0. -1.
        -11    1    3    3    0    0  0.77276658701E+01 -0.65934538522E+01  0.23256433587E+02  0.25378182696E+02  0.51100000000E-03 0.  1.
         12    1    3    3    0    0 -0.72846280896E+01  0.51614748573E+01  0.14181152582E+01  0.90397831828E+01  0.00000000000E+00 0. -1.
</event>
<event>
 7    1  0.6624035E-013  0.5052886E+02  0.7816164E-02  0.1300439E+00
        -11   -1    0    0    0    0  0.00000000000E+00  0.00000000000E+00  0.45593999997E+02  0.45594000000E+02  0.51100000000E-03 0.  1.
         11   -1    0    0    0    0 -0.00000000000E+00 -0.00000000000E+00 -0.45593999997E+02  0.45594000000E+02  0.51100000000E-03 0. -1.
    9900012    2    1    2    0    0 -0.21894998620E+02  0.62263533131E+01  0.33689869067E+02  0.50528859356E+02  0.29999998500E+02 0.  0.
         12    1    1    2    0    0  0.21894998620E+02 -0.62263533131E+01 -0.33689869067E+02  0.40659140644E+02  0.00000000000E+00 0. -1.
         11    1    3    3    0    0 -0.24687556420E+02 -0.48430756906E-01  0.20422272429E+02  0.32039772143E+02  0.51100000000E-03 0. -1.
        -11    1    3    3    0    0 -0.12949472985E+00  0.16639923737E+01  0.12911307842E+02  0.13018736881E+02  0.51100000000E-03 0.  1.
        -12    1    3    3    0    0  0.29220525306E+01  0.46107916963E+01  0.35628879545E+00  0.54703503328E+01  0.00000000000E+00 0.  1.
</event>
<event>
 7    1  0.6624035E-013  0.5052886E+02  0.7816164E-02  0.1300439E+00
        -11   -1    0    0    0    0  0.00000000000E+00  0.00000000000E+00  0.45593999997E+02  0.45594000000E+02  0.51100000000E-03 0.  1.
         11   -1    0    0    0    0 -0.00000000000E+00 -0.00000000000E+00 -0.45593999997E+02  0.45594000000E+02  0.51100000000E-03 0. -1.
    9900012    2    1    2    0    0 -0.40203619541E+01 -0.37633546759E+02  0.14856608433E+02  0.50528856305E+02  0.29999989224E+02 0.  0.
         12    1    1    2    0    0  0.40203619541E+01  0.37633546759E+02 -0.14856608433E+02  0.40659143695E+02  0.00000000000E+00 0. -1.
         11    1    3    3    0    0  0.17486877936E+01 -0.71421796602E+01 -0.66384489264E+01  0.99064445544E+01  0.51100000000E-03 0. -1.
        -11    1    3    3    0    0  0.21495678244E+01 -0.82478152013E+01 -0.24533240021E+00  0.85268567288E+01  0.51100000000E-03 0.  1.
        -12    1    3    3    0    0 -0.79186175722E+01 -0.22243551897E+02  0.21740389759E+02  0.32095555022E+02  0.00000000000E+00 0.  1.
</event>
<event>
 7    1  0.6624035E-013  0.5052886E+02  0.7816164E-02  0.1300439E+00
        -11   -1    0    0    0    0  0.00000000000E+00  0.00000000000E+00  0.45593999997E+02  0.45594000000E+02  0.51100000000E-03 0.  1.
         11   -1    0    0    0    0 -0.00000000000E+00 -0.00000000000E+00 -0.45593999997E+02  0.45594000000E+02  0.51100000000E-03 0. -1.
    9900012    2    1    2    0    0 -0.21526276370E+02 -0.16980354908E+02  0.30024196864E+02  0.50528862964E+02  0.30000009467E+02 0.  0.
         12    1    1    2    0    0  0.21526276370E+02  0.16980354908E+02 -0.30024196864E+02  0.40659137036E+02  0.00000000000E+00 0. -1.
         11    1    3    3    0    0 -0.38154618715E+01 -0.10530894137E+01  0.19572752082E+02  0.19968960187E+02  0.51100000000E-03 0. -1.
        -11    1    3    3    0    0  0.27962600020E+01 -0.12240989356E+01  0.29257668133E+01  0.42281910920E+01  0.51100000000E-03 0.  1.
        -12    1    3    3    0    0 -0.20507074500E+02 -0.14703166559E+02  0.75256779684E+01  0.26331711686E+02  0.00000000000E+00 0.  1.
</event>
<event>
 7    1  0.6624035E-013  0.5052886E+02  0.7816164E-02  0.1300439E+00
        -11   -1    0    0    0    0  0.00000000000E+00  0.00000000000E+00  0.45593999997E+02  0.45594000000E+02  0.51100000000E-03 0. -1.
         11   -1    0    0    0    0 -0.00000000000E+00 -0.00000000000E+00 -0.45593999997E+02  0.45594000000E+02  0.51100000000E-03 0.  1.
    9900012    2    1    2    0    0  0.38705431823E+02 -0.60435505458E+01 -0.10887189185E+02  0.50528857803E+02  0.29999993779E+02 0.  0.
         12    1    1    2    0    0 -0.38705431823E+02  0.60435505458E+01  0.10887189185E+02  0.40659142197E+02  0.00000000000E+00 0. -1.
         11    1    3    3    0    0  0.53107210290E+00 -0.45446429544E+01  0.28998474440E+00  0.45847473839E+01  0.51100000000E-03 0. -1.
        -11    1    3    3    0    0  0.88960322145E+01 -0.92285809393E+01 -0.88434748214E+01  0.15572833477E+02  0.51100000000E-03 0.  1.
         12    1    3    3    0    0  0.29278327506E+02  0.77296733479E+01 -0.23336991082E+01  0.30371276943E+02  0.00000000000E+00 0. -1.
</event>
<event>
 7    1  0.6624035E-013  0.5052889E+02  0.7816164E-02  0.1300439E+00
        -11   -1    0    0    0    0  0.00000000000E+00  0.00000000000E+00  0.45593999997E+02  0.45594000000E+02  0.51100000000E-03 0.  1.
         11   -1    0    0    0    0 -0.00000000000E+00 -0.00000000000E+00 -0.45593999997E+02  0.45594000000E+02  0.51100000000E-03 0. -1.
    9900012    2    1    2    0    0 -0.38760209183E+02 -0.83139778850E+01  0.90381077227E+01  0.50528887425E+02  0.30000083816E+02 0.  0.
         12    1    1    2    0    0  0.38760209183E+02  0.83139778850E+01 -0.90381077227E+01  0.40659112575E+02  0.00000000000E+00 0. -1.
         11    1    3    3    0    0  0.25408706074E+00 -0.37741828512E+01  0.36888702502E+01  0.52836332587E+01  0.51100000000E-03 0. -1.
        -11    1    3    3    0    0 -0.29406317595E+02 -0.47208837805E+01  0.13447773941E+02  0.32678140743E+02  0.51100000000E-03 0.  1.
         12    1    3    3    0    0 -0.96079786486E+01  0.18108874677E+00 -0.80985364689E+01  0.12567113423E+02  0.00000000000E+00 0. -1.
</event>
<event>
 7    1  0.6624035E-013  0.5052886E+02  0.7816164E-02  0.1300439E+00
        -11   -1    0    0    0    0  0.00000000000E+00  0.00000000000E+00  0.45593999997E+02  0.45594000000E+02  0.51100000000E-03 0.  1.
         11   -1    0    0    0    0 -0.00000000000E+00 -0.00000000000E+00 -0.45593999997E+02  0.45594000000E+02  0.51100000000E-03 0. -1.
    9900012    2    1    2    0    0 -0.24918528759E+02 -0.17181348481E+02  0.27148366683E+02  0.50528860502E+02  0.30000001983E+02 0.  0.
         12    1    1    2    0    0  0.24918528759E+02  0.17181348481E+02 -0.27148366683E+02  0.40659139498E+02  0.00000000000E+00 0. -1.
         11    1    3    3    0    0  0.52653762645E+00  0.42074503616E+01  0.11331421811E+02  0.12098801632E+02  0.51100000000E-03 0. -1.
        -11    1    3    3    0    0 -0.68042657712E+01 -0.35079292908E+00  0.42808226751E+01  0.80465229386E+01  0.51100000000E-03 0.  1.
        -12    1    3    3    0    0 -0.18640800614E+02 -0.21038005913E+02  0.11536122197E+02  0.30383535932E+02  0.00000000000E+00 0.  1.
</event>
<event>
 7    1  0.6624035E-013  0.5052886E+02  0.7816164E-02  0.1300439E+00
        -11   -1    0    0    0    0  0.00000000000E+00  0.00000000000E+00  0.45593999997E+02  0.45594000000E+02  0.51100000000E-03 0.  1.
         11   -1    0    0    0    0 -0.00000000000E+00 -0.00000000000E+00 -0.45593999997E+02  0.45594000000E+02  0.51100000000E-03 0. -1.
    9900012    2    1    2    0    0  0.10816345012E+01  0.33139666356E+02  0.23532070686E+02  0.50528858714E+02  0.29999996547E+02 0.  0.
         12    1    1    2    0    0 -0.10816345012E+01 -0.33139666356E+02 -0.23532070686E+02  0.40659141286E+02  0.00000000000E+00 0. -1.
         11    1    3    3    0    0 -0.27592845045E+00 -0.19166589542E+01  0.34065788786E-01  0.19367185638E+01  0.51100000000E-03 0. -1.
        -11    1    3    3    0    0  0.85864903378E+01  0.26258863005E+01  0.26305975060E+01  0.93564490425E+01  0.51100000000E-03 0.  1.
        -12    1    3    3    0    0 -0.72289273862E+01  0.32430439009E+02  0.20867407391E+02  0.39235691108E+02  0.00000000000E+00 0.  1.
</event>
<event>
 7    1  0.6624035E-013  0.5052887E+02  0.7816164E-02  0.1300439E+00
        -11   -1    0    0    0    0  0.00000000000E+00  0.00000000000E+00  0.45593999997E+02  0.45594000000E+02  0.51100000000E-03 0.  1.
         11   -1    0    0    0    0 -0.00000000000E+00 -0.00000000000E+00 -0.45593999997E+02  0.45594000000E+02  0.51100000000E-03 0. -1.
    9900012    2    1    2    0    0 -0.23959439510E+02 -0.32060803478E+02  0.71564661510E+01  0.50528869795E+02  0.30000030228E+02 0.  0.
         12    1    1    2    0    0  0.23959439510E+02  0.32060803478E+02 -0.71564661510E+01  0.40659130205E+02  0.00000000000E+00 0. -1.
         11    1    3    3    0    0 -0.29577639177E+01 -0.10467144842E+02  0.50795507401E+01  0.12004637626E+02  0.51100000000E-03 0. -1.
        -11    1    3    3    0    0  0.14365709412E+01 -0.10896596617E+02  0.72065632317E+01  0.13142834845E+02  0.51100000000E-03 0.  1.
         12    1    3    3    0    0 -0.22438246534E+02 -0.10697062018E+02 -0.51296478208E+01  0.25381397324E+02  0.00000000000E+00 0. -1.
</event>
<event>
 7    1  0.6624035E-013  0.5052886E+02  0.7816164E-02  0.1300439E+00
        -11   -1    0    0    0    0  0.00000000000E+00  0.00000000000E+00  0.45593999997E+02  0.45594000000E+02  0.51100000000E-03 0. -1.
         11   -1    0    0    0    0 -0.00000000000E+00 -0.00000000000E+00 -0.45593999997E+02  0.45594000000E+02  0.51100000000E-03 0.  1.
    9900012    2    1    2    0    0 -0.30490259524E+02 -0.24248427051E+02 -0.11641454798E+02  0.50528860681E+02  0.30000002526E+02 0.  0.
         12    1    1    2    0    0  0.30490259524E+02  0.24248427051E+02  0.11641454798E+02  0.40659139319E+02  0.00000000000E+00 0. -1.
         11    1    3    3    0    0 -0.10407672194E+01  0.10364442526E+01 -0.27175197318E+01  0.30890656917E+01  0.51100000000E-03 0. -1.
        -11    1    3    3    0    0 -0.18726456375E+02 -0.13416994885E+02 -0.17831752332E+02  0.29131895091E+02  0.51100000000E-03 0.  1.
         12    1    3    3    0    0 -0.10723035930E+02 -0.11867876419E+02  0.89078172654E+01  0.18307899898E+02  0.00000000000E+00 0. -1.
</event>
<event>
 7    1  0.8595112E-013  0.5052885E+02  0.7816164E-02  0.1300439E+00
        -11   -1    0    0    0    0  0.00000000000E+00  0.00000000000E+00  0.45593999997E+02  0.45594000000E+02  0.51100000000E-03 0. -1.
         11   -1    0    0    0    0 -0.00000000000E+00 -0.00000000000E+00 -0.45593999997E+02  0.45594000000E+02  0.51100000000E-03 0.  1.
    9900012    2    1    2    0    0  0.25354122754E+02 -0.15043190941E+02 -0.28000674112E+02  0.50528845003E+02  0.29999954872E+02 0.  0.
         12    1    1    2    0    0 -0.25354122754E+02  0.15043190941E+02  0.28000674112E+02  0.40659154997E+02  0.00000000000E+00 0. -1.
         11    1    3    3    0    0 -0.44656339518E+01 -0.62175362649E+01 -0.77532900246E+01  0.10895556446E+02  0.51100000000E-03 0. -1.
        -11    1    3    3    0    0  0.83690742591E+01 -0.49970848683E+01 -0.13827034947E+02  0.16917421695E+02  0.51100000000E-03 0.  1.
         12    1    3    3    0    0  0.21450682447E+02 -0.38285698074E+01 -0.64203491405E+01  0.22715866862E+02  0.00000000000E+00 0. -1.
</event>
<event>
 7    1  0.6624035E-013  0.5052885E+02  0.7816164E-02  0.1300439E+00
        -11   -1    0    0    0    0  0.00000000000E+00  0.00000000000E+00  0.45593999997E+02  0.45594000000E+02  0.51100000000E-03 0.  1.
         11   -1    0    0    0    0 -0.00000000000E+00 -0.00000000000E+00 -0.45593999997E+02  0.45594000000E+02  0.51100000000E-03 0. -1.
    9900012    2    1    2    0    0 -0.78857234122E+00 -0.24300490163E+02  0.32588808323E+02  0.50528854702E+02  0.29999984351E+02 0.  0.
         12    1    1    2    0    0  0.78857234122E+00  0.24300490163E+02 -0.32588808323E+02  0.40659145298E+02  0.00000000000E+00 0. -1.
         11    1    3    3    0    0  0.50159640205E+01 -0.82855621797E+01 -0.75052840589E+00  0.97146141888E+01  0.51100000000E-03 0. -1.
        -11    1    3    3    0    0  0.49520001380E+01 -0.71210085073E+01  0.75906213486E+01  0.11525996714E+02  0.51100000000E-03 0.  1.
        -12    1    3    3    0    0 -0.10756536500E+02 -0.88939194761E+01  0.25748715380E+02  0.29288243799E+02  0.00000000000E+00 0.  1.
</event>
<event>
 7    1  0.6624035E-013  0.5052886E+02  0.7816164E-02  0.1300439E+00
        -11   -1    0    0    0    0  0.00000000000E+00  0.00000000000E+00  0.45593999997E+02  0.45594000000E+02  0.51100000000E-03 0. -1.
         11   -1    0    0    0    0 -0.00000000000E+00 -0.00000000000E+00 -0.45593999997E+02  0.45594000000E+02  0.51100000000E-03 0.  1.
    9900012    2    1    2    0    0  0.16073408410E+02  0.30555427950E+02 -0.21475035062E+02  0.50528858764E+02  0.29999996700E+02 0.  0.
         12    1    1    2    0    0 -0.16073408410E+02 -0.30555427950E+02  0.21475035062E+02  0.40659141236E+02  0.00000000000E+00 0. -1.
         11    1    3    3    0    0  0.24677108245E+00  0.68473622816E+01 -0.49889925696E+01  0.84756895474E+01  0.51100000000E-03 0. -1.
        -11    1    3    3    0    0  0.17380515648E+02  0.16247907338E+02 -0.22190307873E+02  0.32534390740E+02  0.51100000000E-03 0.  1.
        -12    1    3    3    0    0 -0.15538783201E+01  0.74601583309E+01  0.57042653814E+01  0.95187784771E+01  0.00000000000E+00 0.  1.
</event>
<event>
 7    1  0.6624035E-013  0.5052886E+02  0.7816164E-02  0.1300439E+00
        -11   -1    0    0    0    0  0.00000000000E+00  0.00000000000E+00  0.45593999997E+02  0.45594000000E+02  0.51100000000E-03 0. -1.
         11   -1    0    0    0    0 -0.00000000000E+00 -0.00000000000E+00 -0.45593999997E+02  0.45594000000E+02  0.51100000000E-03 0.  1.
    9900012    2    1    2    0    0 -0.32774519460E+02 -0.21912061644E+02  0.99427403013E+01  0.50528860117E+02  0.30000000810E+02 0.  0.
         12    1    1    2    0    0  0.32774519460E+02  0.21912061644E+02 -0.99427403013E+01  0.40659139883E+02  0.00000000000E+00 0. -1.
         11    1    3    3    0    0 -0.11687989516E+02 -0.75497057413E+01  0.10089852612E+02  0.17187561831E+02  0.51100000000E-03 0. -1.
        -11    1    3    3    0    0 -0.18421972866E+02 -0.17744012845E+02 -0.58084128227E+01  0.26228929370E+02  0.51100000000E-03 0.  1.
         12    1    3    3    0    0 -0.26645570792E+01  0.33816569426E+01  0.56613005120E+01  0.71123689156E+01  0.00000000000E+00 0. -1.
</event>
<event>
 7    1  0.6624035E-013  0.5052885E+02  0.7816164E-02  0.1300439E+00
        -11   -1    0    0    0    0  0.00000000000E+00  0.00000000000E+00  0.45593999997E+02  0.45594000000E+02  0.51100000000E-03 0. -1.
         11   -1    0    0    0    0 -0.00000000000E+00 -0.00000000000E+00 -0.45593999997E+02  0.45594000000E+02  0.51100000000E-03 0.  1.
    9900012    2    1    2    0    0  0.26672390243E+02  0.25822332602E+02  0.16581824013E+02  0.50528854044E+02  0.29999982352E+02 0.  0.
         12    1    1    2    0    0 -0.26672390243E+02 -0.25822332602E+02 -0.16581824013E+02  0.40659145956E+02  0.00000000000E+00 0. -1.
         11    1    3    3    0    0  0.27901597953E+01  0.83765367042E+01  0.63546069942E+01  0.10878069183E+02  0.51100000000E-03 0.  1.
        -11    1    3    3    0    0  0.56121818102E+01  0.18625837185E+02  0.19243461949E+01  0.19547928383E+02  0.51100000000E-03 0. -1.
        -12    1    3    3    0    0  0.18270048637E+02 -0.11800412878E+01  0.83028708243E+01  0.20102856478E+02  0.00000000000E+00 0.  1.
</event>
<event>
 7    1  0.6624035E-013  0.5052886E+02  0.7816164E-02  0.1300439E+00
        -11   -1    0    0    0    0  0.00000000000E+00  0.00000000000E+00  0.45593999997E+02  0.45594000000E+02  0.51100000000E-03 0.  1.
         11   -1    0    0    0    0 -0.00000000000E+00 -0.00000000000E+00 -0.45593999997E+02  0.45594000000E+02  0.51100000000E-03 0. -1.
    9900012    2    1    2    0    0 -0.95716641604E+01 -0.33032854386E+02  0.21688230931E+02  0.50528860996E+02  0.30000003483E+02 0.  0.
         12    1    1    2    0    0  0.95716641604E+01  0.33032854386E+02 -0.21688230931E+02  0.40659139004E+02  0.00000000000E+00 0. -1.
         11    1    3    3    0    0  0.16046133783E+01 -0.56782699909E+01 -0.35119158139E+01  0.68666649203E+01  0.51100000000E-03 0. -1.
        -11    1    3    3    0    0  0.48451967907E+01 -0.12107665918E+02  0.12953278402E+02  0.18380939245E+02  0.51100000000E-03 0.  1.
        -12    1    3    3    0    0 -0.16021474329E+02 -0.15246918476E+02  0.12246868343E+02  0.25281256830E+02  0.00000000000E+00 0.  1.
</event>
<event>
 7    1  0.6624035E-013  0.5052889E+02  0.7816164E-02  0.1300439E+00
        -11   -1    0    0    0    0  0.00000000000E+00  0.00000000000E+00  0.45593999997E+02  0.45594000000E+02  0.51100000000E-03 0.  1.
         11   -1    0    0    0    0 -0.00000000000E+00 -0.00000000000E+00 -0.45593999997E+02  0.45594000000E+02  0.51100000000E-03 0. -1.
    9900012    2    1    2    0    0  0.89801448360E+01 -0.76126473668E+01  0.38917453988E+02  0.50528885080E+02  0.30000076688E+02 0.  0.
         12    1    1    2    0    0 -0.89801448360E+01  0.76126473668E+01 -0.38917453988E+02  0.40659114920E+02  0.00000000000E+00 0. -1.
         11    1    3    3    0    0  0.81321956012E+01  0.29411341734E+01 -0.31960658943E+00  0.86536133583E+01  0.51100000000E-03 0. -1.
        -11    1    3    3    0    0 -0.26789697512E+00 -0.31478780609E+01  0.16789114278E+01  0.35776596987E+01  0.51100000000E-03 0.  1.
        -12    1    3    3    0    0  0.11158462100E+01 -0.74059034793E+01  0.37558149149E+02  0.38297612023E+02  0.00000000000E+00 0.  1.
</event>
<event>
 7    1  0.6624035E-013  0.5052885E+02  0.7816164E-02  0.1300439E+00
        -11   -1    0    0    0    0  0.00000000000E+00  0.00000000000E+00  0.45593999997E+02  0.45594000000E+02  0.51100000000E-03 0.  1.
         11   -1    0    0    0    0 -0.00000000000E+00 -0.00000000000E+00 -0.45593999997E+02  0.45594000000E+02  0.51100000000E-03 0. -1.
    9900012    2    1    2    0    0 -0.27916653590E+01 -0.25609618241E+02  0.31456645837E+02  0.50528849625E+02  0.29999968919E+02 0.  0.
         12    1    1    2    0    0  0.27916653590E+01  0.25609618241E+02 -0.31456645837E+02  0.40659150375E+02  0.00000000000E+00 0. -1.
         11    1    3    3    0    0  0.17438054978E+01 -0.98086648026E+01 -0.36181482189E+01  0.10599139570E+02  0.51100000000E-03 0. -1.
        -11    1    3    3    0    0 -0.27661852408E+01 -0.22525864662E+00  0.98262394930E+01  0.10210656447E+02  0.51100000000E-03 0.  1.
        -12    1    3    3    0    0 -0.17692856160E+01 -0.15575694792E+02  0.25248554563E+02  0.29719053608E+02  0.00000000000E+00 0.  1.
</event>
<event>
 7    1  0.6624035E-013  0.5052887E+02  0.7816164E-02  0.1300439E+00
        -11   -1    0    0    0    0  0.00000000000E+00  0.00000000000E+00  0.45593999997E+02  0.45594000000E+02  0.51100000000E-03 0. -1.
         11   -1    0    0    0    0 -0.00000000000E+00 -0.00000000000E+00 -0.45593999997E+02  0.45594000000E+02  0.51100000000E-03 0.  1.
    9900012    2    1    2    0    0  0.95547916877E+01  0.39311913707E+02  0.40552008565E+01  0.50528865018E+02  0.30000015708E+02 0.  0.
         12    1    1    2    0    0 -0.95547916877E+01 -0.39311913707E+02 -0.40552008565E+01  0.40659134982E+02  0.00000000000E+00 0. -1.
         11    1    3    3    0    0 -0.43111715771E+01  0.95585380050E+01  0.82525977576E+00  0.10518217678E+02  0.51100000000E-03 0. -1.
        -11    1    3    3    0    0  0.24660391030E+01  0.21299054594E+02 -0.69555380786E+01  0.22541308429E+02  0.51100000000E-03 0.  1.
        -12    1    3    3    0    0  0.11399924162E+02  0.84543211083E+01  0.10185479159E+02  0.17469338911E+02  0.00000000000E+00 0.  1.
</event>
<event>
 7    1  0.6624035E-013  0.5052886E+02  0.7816164E-02  0.1300439E+00
        -11   -1    0    0    0    0  0.00000000000E+00  0.00000000000E+00  0.45593999997E+02  0.45594000000E+02  0.51100000000E-03 0.  1.
         11   -1    0    0    0    0 -0.00000000000E+00 -0.00000000000E+00 -0.45593999997E+02  0.45594000000E+02  0.51100000000E-03 0. -1.
    9900012    2    1    2    0    0  0.33794292600E+02 -0.19051895909E+02  0.12171150792E+02  0.50528857588E+02  0.29999993124E+02 0.  0.
         12    1    1    2    0    0 -0.33794292600E+02  0.19051895909E+02 -0.12171150792E+02  0.40659142412E+02  0.00000000000E+00 0. -1.
         11    1    3    3    0    0  0.13457210993E+02 -0.14161037485E+02  0.63620786926E+01  0.20545256287E+02  0.51100000000E-03 0. -1.
        -11    1    3    3    0    0  0.12660153568E+02 -0.86814270752E+01  0.11944555142E+02  0.19450425760E+02  0.51100000000E-03 0.  1.
         12    1    3    3    0    0  0.76769280392E+01  0.37905686510E+01 -0.61354830419E+01  0.10533175541E+02  0.00000000000E+00 0. -1.
</event>
<event>
 7    1  0.6624035E-013  0.5052886E+02  0.7816164E-02  0.1300439E+00
        -11   -1    0    0    0    0  0.00000000000E+00  0.00000000000E+00  0.45593999997E+02  0.45594000000E+02  0.51100000000E-03 0.  1.
         11   -1    0    0    0    0 -0.00000000000E+00 -0.00000000000E+00 -0.45593999997E+02  0.45594000000E+02  0.51100000000E-03 0. -1.
    9900012    2    1    2    0    0  0.25278716935E+02  0.13485177110E+01  0.31817187005E+02  0.50528863034E+02  0.30000009679E+02 0.  0.
         12    1    1    2    0    0 -0.25278716935E+02 -0.13485177110E+01 -0.31817187005E+02  0.40659136966E+02  0.00000000000E+00 0. -1.
         11    1    3    3    0    0  0.46295564876E+01  0.87086106758E+01  0.10697076027E+02  0.14549918521E+02  0.51100000000E-03 0. -1.
        -11    1    3    3    0    0  0.12190800876E+02  0.57387811802E+01  0.10956826792E+02  0.17366671790E+02  0.51100000000E-03 0.  1.
         12    1    3    3    0    0  0.84583595707E+01 -0.13098874145E+02  0.10163284187E+02  0.18612272724E+02  0.00000000000E+00 0. -1.
</event>
<event>
 7    1  0.6624035E-013  0.5052886E+02  0.7816164E-02  0.1300439E+00
        -11   -1    0    0    0    0  0.00000000000E+00  0.00000000000E+00  0.45593999997E+02  0.45594000000E+02  0.51100000000E-03 0.  1.
         11   -1    0    0    0    0 -0.00000000000E+00 -0.00000000000E+00 -0.45593999997E+02  0.45594000000E+02  0.51100000000E-03 0. -1.
    9900012    2    1    2    0    0  0.34370255639E+02  0.19480042675E+02  0.96114066160E+01  0.50528859915E+02  0.30000000198E+02 0.  0.
         12    1    1    2    0    0 -0.34370255639E+02 -0.19480042675E+02 -0.96114066160E+01  0.40659140085E+02  0.00000000000E+00 0. -1.
         11    1    3    3    0    0  0.26084988062E+01 -0.71046694652E+01  0.44579846950E+01  0.87837476076E+01  0.51100000000E-03 0. -1.
        -11    1    3    3    0    0  0.29121147763E+01  0.22015658152E+01  0.55858402948E+00  0.36931451215E+01  0.51100000000E-03 0.  1.
         12    1    3    3    0    0  0.28849642057E+02  0.24383146325E+02  0.45948378915E+01  0.38051967186E+02  0.00000000000E+00 0. -1.
</event>
<event>
 7    1  0.6624035E-013  0.5052886E+02  0.7816164E-02  0.1300439E+00
        -11   -1    0    0    0    0  0.00000000000E+00  0.00000000000E+00  0.45593999997E+02  0.45594000000E+02  0.51100000000E-03 0.  1.
         11   -1    0    0    0    0 -0.00000000000E+00 -0.00000000000E+00 -0.45593999997E+02  0.45594000000E+02  0.51100000000E-03 0. -1.
    9900012    2    1    2    0    0 -0.40302688980E+02  0.79188194431E+00  0.53133717382E+01  0.50528859143E+02  0.29999997850E+02 0.  0.
         12    1    1    2    0    0  0.40302688980E+02 -0.79188194431E+00 -0.53133717382E+01  0.40659140857E+02  0.00000000000E+00 0. -1.
         11    1    3    3    0    0 -0.16293742382E+02  0.11202895391E+02 -0.17660541309E+01  0.19852200216E+02  0.51100000000E-03 0. -1.
        -11    1    3    3    0    0 -0.12844012791E+02 -0.17878526897E+01  0.98692026616E+01  0.16296203339E+02  0.51100000000E-03 0.  1.
         12    1    3    3    0    0 -0.11164933807E+02 -0.86231607574E+01 -0.27897767925E+01  0.14380455588E+02  0.00000000000E+00 0. -1.
</event>
<event>
 7    1  0.6624035E-013  0.5052885E+02  0.7816164E-02  0.1300439E+00
        -11   -1    0    0    0    0  0.00000000000E+00  0.00000000000E+00  0.45593999997E+02  0.45594000000E+02  0.51100000000E-03 0. -1.
         11   -1    0    0    0    0 -0.00000000000E+00 -0.00000000000E+00 -0.45593999997E+02  0.45594000000E+02  0.51100000000E-03 0.  1.
    9900012    2    1    2    0    0  0.40422096017E+02  0.40206634076E+01  0.17478207637E+01  0.50528850254E+02  0.29999970833E+02 0.  0.
         12    1    1    2    0    0 -0.40422096017E+02 -0.40206634076E+01 -0.17478207637E+01  0.40659149746E+02  0.00000000000E+00 0. -1.
         11    1    3    3    0    0  0.10323289989E+02  0.10262179255E+02 -0.27688853954E+01  0.14817198313E+02  0.51100000000E-03 0. -1.
        -11    1    3    3    0    0  0.37150960346E+01  0.35895794594E+01  0.54908273538E+01  0.75389790113E+01  0.51100000000E-03 0.  1.
        -12    1    3    3    0    0  0.26383709993E+02 -0.98310953064E+01 -0.97412119468E+00  0.28172672930E+02  0.00000000000E+00 0.  1.
</event>
<event>
 7    1  0.6624035E-013  0.5052887E+02  0.7816164E-02  0.1300439E+00
        -11   -1    0    0    0    0  0.00000000000E+00  0.00000000000E+00  0.45593999997E+02  0.45594000000E+02  0.51100000000E-03 0.  1.
         11   -1    0    0    0    0 -0.00000000000E+00 -0.00000000000E+00 -0.45593999997E+02  0.45594000000E+02  0.51100000000E-03 0. -1.
    9900012    2    1    2    0    0 -0.35240776432E+02 -0.19452087662E+02 -0.57331293093E+01  0.50528870525E+02  0.30000032449E+02 0.  0.
         12    1    1    2    0    0  0.35240776432E+02  0.19452087662E+02  0.57331293093E+01  0.40659129475E+02  0.00000000000E+00 0. -1.
         11    1    3    3    0    0 -0.15841121517E+02 -0.13466880143E+02  0.42503211273E+01  0.21221762925E+02  0.51100000000E-03 0. -1.
        -11    1    3    3    0    0 -0.21716154340E+02 -0.93386100190E+00 -0.62666894551E+01  0.22621557256E+02  0.51100000000E-03 0.  1.
         12    1    3    3    0    0  0.23164994246E+01 -0.50513465171E+01 -0.37167609815E+01  0.66855503448E+01  0.00000000000E+00 0. -1.
</event>
<event>
 7    1  0.6624035E-013  0.5052888E+02  0.7816164E-02  0.1300439E+00
        -11   -1    0    0    0    0  0.00000000000E+00  0.00000000000E+00  0.45593999997E+02  0.45594000000E+02  0.51100000000E-03 0. -1.
         11   -1    0    0    0    0 -0.00000000000E+00 -0.00000000000E+00 -0.45593999997E+02  0.45594000000E+02  0.51100000000E-03 0.  1.
    9900012    2    1    2    0    0 -0.32725477181E+02  0.13152269846E+02 -0.20229311513E+02  0.50528879214E+02  0.30000058858E+02 0.  0.
         12    1    1    2    0    0  0.32725477181E+02 -0.13152269846E+02  0.20229311513E+02  0.40659120786E+02  0.00000000000E+00 0. -1.
         11    1    3    3    0    0 -0.24294491468E+02  0.72190290974E+01 -0.19686898889E+02  0.32092221564E+02  0.51100000000E-03 0. -1.
        -11    1    3    3    0    0 -0.29488110973E+01  0.21745667911E+01 -0.77863118709E+01  0.86052821237E+01  0.51100000000E-03 0.  1.
         12    1    3    3    0    0 -0.54821746160E+01  0.37586739575E+01  0.72438992469E+01  0.98313755263E+01  0.00000000000E+00 0. -1.
</event>
<event>
 7    1  0.6624035E-013  0.5052886E+02  0.7816164E-02  0.1300439E+00
        -11   -1    0    0    0    0  0.00000000000E+00  0.00000000000E+00  0.45593999997E+02  0.45594000000E+02  0.51100000000E-03 0.  1.
         11   -1    0    0    0    0 -0.00000000000E+00 -0.00000000000E+00 -0.45593999997E+02  0.45594000000E+02  0.51100000000E-03 0. -1.
    9900012    2    1    2    0    0 -0.67298011633E-01  0.59408208619E+01  0.40222728168E+02  0.50528859050E+02  0.29999997569E+02 0.  0.
         12    1    1    2    0    0  0.67298011633E-01 -0.59408208619E+01 -0.40222728168E+02  0.40659140950E+02  0.00000000000E+00 0. -1.
         11    1    3    3    0    0  0.71185817175E+01  0.65334375628E+01  0.70214871186E+01  0.11944090324E+02  0.51100000000E-03 0. -1.
        -11    1    3    3    0    0  0.39384612726E+01 -0.55318189042E+01  0.73223707270E+01  0.99864713943E+01  0.51100000000E-03 0.  1.
        -12    1    3    3    0    0 -0.11124341002E+02  0.49392022033E+01  0.25878870322E+02  0.28598297332E+02  0.00000000000E+00 0.  1.
</event>
<event>
 7    1  0.6624035E-013  0.5052884E+02  0.7816164E-02  0.1300439E+00
        -11   -1    0    0    0    0  0.00000000000E+00  0.00000000000E+00  0.45593999997E+02  0.45594000000E+02  0.51100000000E-03 0.  1.
         11   -1    0    0    0    0 -0.00000000000E+00 -0.00000000000E+00 -0.45593999997E+02  0.45594000000E+02  0.51100000000E-03 0. -1.
    9900012    2    1    2    0    0  0.10263182948E+02 -0.33456405770E+02  0.20700327478E+02  0.50528836593E+02  0.29999929307E+02 0.  0.
         12    1    1    2    0    0 -0.10263182948E+02  0.33456405770E+02 -0.20700327478E+02  0.40659163407E+02  0.00000000000E+00 0. -1.
         11    1    3    3    0    0 -0.12407972552E+01 -0.69229353757E+00  0.36240385188E+01  0.38926216895E+01  0.51100000000E-03 0. -1.
        -11    1    3    3    0    0  0.86804132081E+01 -0.12744587723E+02  0.20987988230E+02  0.26043612266E+02  0.51100000000E-03 0.  1.
        -12    1    3    3    0    0  0.28235669954E+01 -0.20019524510E+02 -0.39116992704E+01  0.20592602637E+02  0.00000000000E+00 0.  1.
</event>
<event>
 7    1  0.6676365E-013  0.5052886E+02  0.7816164E-02  0.1300439E+00
        -11   -1    0    0    0    0  0.00000000000E+00  0.00000000000E+00  0.45593999997E+02  0.45594000000E+02  0.51100000000E-03 0. -1.
         11   -1    0    0    0    0 -0.00000000000E+00 -0.00000000000E+00 -0.45593999997E+02  0.45594000000E+02  0.51100000000E-03 0.  1.
    9900012    2    1    2    0    0 -0.28205217761E+02  0.14712737320E+02 -0.25321276145E+02  0.50528856207E+02  0.29999988926E+02 0.  0.
         12    1    1    2    0    0  0.28205217761E+02 -0.14712737320E+02  0.25321276145E+02  0.40659143793E+02  0.00000000000E+00 0. -1.
         11    1    3    3    0    0 -0.12957766790E+02 -0.14750891089E+01 -0.12922177630E+02  0.18359256059E+02  0.51100000000E-03 0. -1.
        -11    1    3    3    0    0 -0.44578830033E+01  0.17371520796E+01 -0.13278205755E+02  0.14113864338E+02  0.51100000000E-03 0.  1.
         12    1    3    3    0    0 -0.10789567968E+02  0.14450674350E+02  0.87910724113E+00  0.18055735810E+02  0.00000000000E+00 0. -1.
</event>
<event>
 7    1  0.6624035E-013  0.5052886E+02  0.7816164E-02  0.1300439E+00
        -11   -1    0    0    0    0  0.00000000000E+00  0.00000000000E+00  0.45593999997E+02  0.45594000000E+02  0.51100000000E-03 0.  1.
         11   -1    0    0    0    0 -0.00000000000E+00 -0.00000000000E+00 -0.45593999997E+02  0.45594000000E+02  0.51100000000E-03 0. -1.
    9900012    2    1    2    0    0  0.37360339266E+01 -0.24845808803E+01  0.40410825027E+02  0.50528857473E+02  0.29999992776E+02 0.  0.
         12    1    1    2    0    0 -0.37360339266E+01  0.24845808803E+01 -0.40410825027E+02  0.40659142527E+02  0.00000000000E+00 0. -1.
         11    1    3    3    0    0 -0.77027528998E+01 -0.38253458027E+01  0.28997496697E+01  0.90760245237E+01  0.51100000000E-03 0.  1.
        -11    1    3    3    0    0  0.80051021219E+01  0.53493750053E+01  0.11917747582E+02  0.15320906651E+02  0.51100000000E-03 0. -1.
        -12    1    3    3    0    0  0.34336847045E+01 -0.40086100829E+01  0.25593327776E+02  0.26131926299E+02  0.00000000000E+00 0.  1.
</event>
<event>
 7    1  0.6624035E-013  0.5052886E+02  0.7816164E-02  0.1300439E+00
        -11   -1    0    0    0    0  0.00000000000E+00  0.00000000000E+00  0.45593999997E+02  0.45594000000E+02  0.51100000000E-03 0. -1.
         11   -1    0    0    0    0 -0.00000000000E+00 -0.00000000000E+00 -0.45593999997E+02  0.45594000000E+02  0.51100000000E-03 0.  1.
    9900012    2    1    2    0    0  0.90213591596E+01 -0.42580442439E+01 -0.39416367712E+02  0.50528857050E+02  0.29999991488E+02 0.  0.
         12    1    1    2    0    0 -0.90213591596E+01  0.42580442439E+01  0.39416367712E+02  0.40659142950E+02  0.00000000000E+00 0. -1.
         11    1    3    3    0    0  0.57154307413E+01 -0.67794995267E+01 -0.29654835910E+01  0.93499655390E+01  0.51100000000E-03 0. -1.
        -11    1    3    3    0    0  0.77311774091E+01 -0.42599816844E+01 -0.91978273346E+01  0.12748277375E+02  0.51100000000E-03 0.  1.
         12    1    3    3    0    0 -0.44252489909E+01  0.67814369671E+01 -0.27253056786E+02  0.28430614136E+02  0.00000000000E+00 0. -1.
</event>
<event>
 7    1  0.6624035E-013  0.5052886E+02  0.7816164E-02  0.1300439E+00
        -11   -1    0    0    0    0  0.00000000000E+00  0.00000000000E+00  0.45593999997E+02  0.45594000000E+02  0.51100000000E-03 0.  1.
         11   -1    0    0    0    0 -0.00000000000E+00 -0.00000000000E+00 -0.45593999997E+02  0.45594000000E+02  0.51100000000E-03 0. -1.
    9900012    2    1    2    0    0  0.26446947544E+02  0.16457302581E+02  0.26132006835E+02  0.50528860513E+02  0.30000002014E+02 0.  0.
         12    1    1    2    0    0 -0.26446947544E+02 -0.16457302581E+02 -0.26132006835E+02  0.40659139487E+02  0.00000000000E+00 0. -1.
         11    1    3    3    0    0  0.18086135635E+02 -0.48115557054E-01  0.14039589410E+02  0.22895866185E+02  0.51100000000E-03 0. -1.
        -11    1    3    3    0    0  0.97087575653E+00 -0.27052861896E+01  0.51732600769E+01  0.59180903327E+01  0.51100000000E-03 0.  1.
         12    1    3    3    0    0  0.73899361525E+01  0.19210704327E+02  0.69191573483E+01  0.21714903995E+02  0.00000000000E+00 0. -1.
</event>
<event>
 7    1  0.6624035E-013  0.5052882E+02  0.7816164E-02  0.1300439E+00
        -11   -1    0    0    0    0  0.00000000000E+00  0.00000000000E+00  0.45593999997E+02  0.45594000000E+02  0.51100000000E-03 0.  1.
         11   -1    0    0    0    0 -0.00000000000E+00 -0.00000000000E+00 -0.45593999997E+02  0.45594000000E+02  0.51100000000E-03 0. -1.
    9900012    2    1    2    0    0  0.19063734609E+02  0.51826830820E+01  0.35537057722E+02  0.50528823266E+02  0.29999888798E+02 0.  0.
         12    1    1    2    0    0 -0.19063734609E+02 -0.51826830820E+01 -0.35537057722E+02  0.40659176734E+02  0.00000000000E+00 0. -1.
         11    1    3    3    0    0  0.48560210582E+01  0.72606294999E+01  0.30992977902E+02  0.32200347215E+02  0.51100000000E-03 0. -1.
        -11    1    3    3    0    0  0.61345971270E+01 -0.62753200692E+00  0.74095902660E+01  0.96399744035E+01  0.51100000000E-03 0.  1.
         12    1    3    3    0    0  0.80731164241E+01 -0.14504144110E+01 -0.28655104461E+01  0.86885016475E+01  0.00000000000E+00 0. -1.
</event>
<event>
 7    1  0.6624035E-013  0.5052886E+02  0.7816164E-02  0.1300439E+00
        -11   -1    0    0    0    0  0.00000000000E+00  0.00000000000E+00  0.45593999997E+02  0.45594000000E+02  0.51100000000E-03 0.  1.
         11   -1    0    0    0    0 -0.00000000000E+00 -0.00000000000E+00 -0.45593999997E+02  0.45594000000E+02  0.51100000000E-03 0. -1.
    9900012    2    1    2    0    0  0.91236952359E+00  0.98092041238E+01  0.39447594728E+02  0.50528860394E+02  0.30000001654E+02 0.  0.
         12    1    1    2    0    0 -0.91236952359E+00 -0.98092041238E+01 -0.39447594728E+02  0.40659139606E+02  0.00000000000E+00 0. -1.
         11    1    3    3    0    0  0.49664519674E+01 -0.73869596341E+01  0.21141732802E+02  0.22939173566E+02  0.51100000000E-03 0. -1.
        -11    1    3    3    0    0  0.21215682063E+01  0.23454792702E+01  0.76995246060E+01  0.83237614142E+01  0.51100000000E-03 0.  1.
         12    1    3    3    0    0 -0.61756506501E+01  0.14850684488E+02  0.10606337320E+02  0.19265925414E+02  0.00000000000E+00 0. -1.
</event>
<event>
 7    1  0.6624035E-013  0.5052886E+02  0.7816164E-02  0.1300439E+00
        -11   -1    0    0    0    0  0.00000000000E+00  0.00000000000E+00  0.45593999997E+02  0.45594000000E+02  0.51100000000E-03 0.  1.
         11   -1    0    0    0    0 -0.00000000000E+00 -0.00000000000E+00 -0.45593999997E+02  0.45594000000E+02  0.51100000000E-03 0. -1.
    9900012    2    1    2    0    0  0.10573938548E+02 -0.30216867080E+02  0.25065877131E+02  0.50528862910E+02  0.30000009301E+02 0.  0.
         12    1    1    2    0    0 -0.10573938548E+02  0.30216867080E+02 -0.25065877131E+02  0.40659137090E+02  0.00000000000E+00 0. -1.
         11    1    3    3    0    0  0.65064090901E+01 -0.69815557657E+00  0.12028522926E+02  0.13693288301E+02  0.51100000000E-03 0. -1.
        -11    1    3    3    0    0 -0.57397186311E+01 -0.50327617720E+01  0.55397253851E+00  0.76537537753E+01  0.51100000000E-03 0.  1.
         12    1    3    3    0    0  0.98072480886E+01 -0.24485949732E+02  0.12483381667E+02  0.29181820834E+02  0.00000000000E+00 0. -1.
</event>
<event>
 7    1  0.6624035E-013  0.5052887E+02  0.7816164E-02  0.1300439E+00
        -11   -1    0    0    0    0  0.00000000000E+00  0.00000000000E+00  0.45593999997E+02  0.45594000000E+02  0.51100000000E-03 0.  1.
         11   -1    0    0    0    0 -0.00000000000E+00 -0.00000000000E+00 -0.45593999997E+02  0.45594000000E+02  0.51100000000E-03 0. -1.
    9900012    2    1    2    0    0  0.20945803279E+02 -0.87210613606E+01  0.33739910540E+02  0.50528866346E+02  0.30000019745E+02 0.  0.
         12    1    1    2    0    0 -0.20945803279E+02  0.87210613606E+01 -0.33739910540E+02  0.40659133654E+02  0.00000000000E+00 0. -1.
         11    1    3    3    0    0  0.12669186874E+02 -0.54196702448E+01  0.22398957778E+02  0.26298183044E+02  0.51100000000E-03 0. -1.
        -11    1    3    3    0    0  0.10836019922E+02  0.33065091549E+01  0.12696155655E+02  0.17016013023E+02  0.51100000000E-03 0.  1.
         12    1    3    3    0    0 -0.25594035167E+01 -0.66079002707E+01 -0.13552028931E+01  0.72146702787E+01  0.00000000000E+00 0. -1.
</event>
<event>
 7    1  0.7382318E-013  0.5052886E+02  0.7816164E-02  0.1300439E+00
        -11   -1    0    0    0    0  0.00000000000E+00  0.00000000000E+00  0.45593999997E+02  0.45594000000E+02  0.51100000000E-03 0.  1.
         11   -1    0    0    0    0 -0.00000000000E+00 -0.00000000000E+00 -0.45593999997E+02  0.45594000000E+02  0.51100000000E-03 0. -1.
    9900012    2    1    2    0    0  0.54059953635E+00 -0.36246412715E+02  0.18413880320E+02  0.50528859932E+02  0.30000000250E+02 0.  0.
         12    1    1    2    0    0 -0.54059953635E+00  0.36246412715E+02 -0.18413880320E+02  0.40659140068E+02  0.00000000000E+00 0. -1.
         11    1    3    3    0    0  0.32542890785E+01  0.60231473545E+00 -0.17232879447E+01  0.37313405163E+01  0.51100000000E-03 0. -1.
        -11    1    3    3    0    0 -0.96363699588E+01 -0.21004763531E+02  0.18166518565E+02  0.29395273668E+02  0.51100000000E-03 0.  1.
         12    1    3    3    0    0  0.69226804167E+01 -0.15843963920E+02  0.19706496999E+01  0.17402245748E+02  0.00000000000E+00 0. -1.
</event>
<event>
 7    1  0.6624035E-013  0.5052886E+02  0.7816164E-02  0.1300439E+00
        -11   -1    0    0    0    0  0.00000000000E+00  0.00000000000E+00  0.45593999997E+02  0.45594000000E+02  0.51100000000E-03 0.  1.
         11   -1    0    0    0    0 -0.00000000000E+00 -0.00000000000E+00 -0.45593999997E+02  0.45594000000E+02  0.51100000000E-03 0. -1.
    9900012    2    1    2    0    0 -0.44989653447E+01  0.31807451367E+02  0.24924112622E+02  0.50528855375E+02  0.29999986398E+02 0.  0.
         12    1    1    2    0    0  0.44989653447E+01 -0.31807451367E+02 -0.24924112622E+02  0.40659144625E+02  0.00000000000E+00 0. -1.
         11    1    3    3    0    0 -0.48095130254E+01  0.13276285504E+02  0.73327155364E-01  0.14120784307E+02  0.51100000000E-03 0. -1.
        -11    1    3    3    0    0 -0.18160776395E+01  0.15976223628E+02  0.58368661826E+01  0.17105755362E+02  0.51100000000E-03 0.  1.
         12    1    3    3    0    0  0.21266253202E+01  0.25549422357E+01  0.19013919284E+02  0.19302315706E+02  0.00000000000E+00 0. -1.
</event>
<event>
 7    1  0.6624035E-013  0.5052884E+02  0.7816164E-02  0.1300439E+00
        -11   -1    0    0    0    0  0.00000000000E+00  0.00000000000E+00  0.45593999997E+02  0.45594000000E+02  0.51100000000E-03 0.  1.
         11   -1    0    0    0    0 -0.00000000000E+00 -0.00000000000E+00 -0.45593999997E+02  0.45594000000E+02  0.51100000000E-03 0. -1.
    9900012    2    1    2    0    0  0.36195333992E+02 -0.13873228677E+02  0.12271848777E+02  0.50528844215E+02  0.29999952476E+02 0.  0.
         12    1    1    2    0    0 -0.36195333992E+02  0.13873228677E+02 -0.12271848777E+02  0.40659155785E+02  0.00000000000E+00 0. -1.
         11    1    3    3    0    0  0.11549357797E+02 -0.11009120040E+02  0.15026650434E+02  0.21917769346E+02  0.51100000000E-03 0.  1.
        -11    1    3    3    0    0 -0.23040300671E+00  0.24735579198E+01 -0.19458869966E+01  0.31556379375E+01  0.51100000000E-03 0. -1.
        -12    1    3    3    0    0  0.24876379202E+02 -0.53376665574E+01 -0.80891465957E+00  0.25455436932E+02  0.00000000000E+00 0.  1.
</event>
<event>
 7    1  0.6624035E-013  0.5052896E+02  0.7816164E-02  0.1300438E+00
        -11   -1    0    0    0    0  0.00000000000E+00  0.00000000000E+00  0.45593999997E+02  0.45594000000E+02  0.51100000000E-03 0.  1.
         11   -1    0    0    0    0 -0.00000000000E+00 -0.00000000000E+00 -0.45593999997E+02  0.45594000000E+02  0.51100000000E-03 0. -1.
    9900012    2    1    2    0    0 -0.11861229842E+01 -0.37492033455E+02  0.15687520298E+02  0.50528957298E+02  0.30000296202E+02 0.  0.
         12    1    1    2    0    0  0.11861229842E+01  0.37492033455E+02 -0.15687520298E+02  0.40659042702E+02  0.00000000000E+00 0. -1.
         11    1    3    3    0    0  0.45644801618E+01 -0.55639110597E+01 -0.37330593750E+01  0.81072386166E+01  0.51100000000E-03 0. -1.
        -11    1    3    3    0    0  0.51588608434E+01 -0.14730994851E+01  0.28105716158E+01  0.60566641283E+01  0.51100000000E-03 0.  1.
        -12    1    3    3    0    0 -0.10909463989E+02 -0.30455022910E+02  0.16610008057E+02  0.36365054553E+02  0.00000000000E+00 0.  1.
</event>
<event>
 7    1  0.6624035E-013  0.5052887E+02  0.7816164E-02  0.1300439E+00
        -11   -1    0    0    0    0  0.00000000000E+00  0.00000000000E+00  0.45593999997E+02  0.45594000000E+02  0.51100000000E-03 0. -1.
         11   -1    0    0    0    0 -0.00000000000E+00 -0.00000000000E+00 -0.45593999997E+02  0.45594000000E+02  0.51100000000E-03 0.  1.
    9900012    2    1    2    0    0  0.21746046110E+02  0.25212627178E+02 -0.23336624069E+02  0.50528866788E+02  0.30000021088E+02 0.  0.
         12    1    1    2    0    0 -0.21746046110E+02 -0.25212627178E+02  0.23336624069E+02  0.40659133212E+02  0.00000000000E+00 0. -1.
         11    1    3    3    0    0  0.18052638183E+02  0.14032980714E+02 -0.19926414363E+02  0.30329594173E+02  0.51100000000E-03 0. -1.
        -11    1    3    3    0    0  0.53130990413E+01  0.11330102601E+02 -0.83197571818E+01  0.15027262099E+02  0.51100000000E-03 0.  1.
         12    1    3    3    0    0 -0.16196911137E+01 -0.15045613670E+00  0.49095474761E+01  0.51720105155E+01  0.00000000000E+00 0. -1.
</event>
<event>
 7    1  0.6624035E-013  0.5052887E+02  0.7816164E-02  0.1300439E+00
        -11   -1    0    0    0    0  0.00000000000E+00  0.00000000000E+00  0.45593999997E+02  0.45594000000E+02  0.51100000000E-03 0.  1.
         11   -1    0    0    0    0 -0.00000000000E+00 -0.00000000000E+00 -0.45593999997E+02  0.45594000000E+02  0.51100000000E-03 0. -1.
    9900012    2    1    2    0    0  0.67567551069E+01  0.20082486458E+02  0.34701659216E+02  0.50528866288E+02  0.30000019568E+02 0.  0.
         12    1    1    2    0    0 -0.67567551069E+01 -0.20082486458E+02 -0.34701659216E+02  0.40659133712E+02  0.00000000000E+00 0. -1.
         11    1    3    3    0    0 -0.27053549212E+01  0.11465595212E+02  0.18265175672E+02  0.21734660371E+02  0.51100000000E-03 0.  1.
        -11    1    3    3    0    0  0.54579538334E-01  0.13072684044E+02  0.10798694999E+02  0.16956115740E+02  0.51100000000E-03 0. -1.
         12    1    3    3    0    0  0.94075304898E+01 -0.44557927981E+01  0.56377885450E+01  0.11838090178E+02  0.00000000000E+00 0. -1.
</event>
<event>
 7    1  0.6624035E-013  0.5052880E+02  0.7816164E-02  0.1300439E+00
        -11   -1    0    0    0    0  0.00000000000E+00  0.00000000000E+00  0.45593999997E+02  0.45594000000E+02  0.51100000000E-03 0. -1.
         11   -1    0    0    0    0 -0.00000000000E+00 -0.00000000000E+00 -0.45593999997E+02  0.45594000000E+02  0.51100000000E-03 0.  1.
    9900012    2    1    2    0    0  0.18583128951E+02  0.32113590548E+02 -0.16629940124E+02  0.50528803156E+02  0.29999827672E+02 0.  0.
         12    1    1    2    0    0 -0.18583128951E+02 -0.32113590548E+02  0.16629940124E+02  0.40659196844E+02  0.00000000000E+00 0. -1.
         11    1    3    3    0    0  0.33976777506E+01 -0.31031961081E+01 -0.47257022892E+01  0.65959307584E+01  0.51100000000E-03 0. -1.
        -11    1    3    3    0    0 -0.14125859979E+00 -0.20182645102E+01 -0.55704304157E+00  0.20984858438E+01  0.51100000000E-03 0.  1.
        -12    1    3    3    0    0  0.15326709800E+02  0.37235051166E+02 -0.11347194793E+02  0.41834386554E+02  0.00000000000E+00 0.  1.
</event>
<event>
 7    1  0.6624035E-013  0.5052886E+02  0.7816164E-02  0.1300439E+00
        -11   -1    0    0    0    0  0.00000000000E+00  0.00000000000E+00  0.45593999997E+02  0.45594000000E+02  0.51100000000E-03 0. -1.
         11   -1    0    0    0    0 -0.00000000000E+00 -0.00000000000E+00 -0.45593999997E+02  0.45594000000E+02  0.51100000000E-03 0.  1.
    9900012    2    1    2    0    0  0.32356312195E+02 -0.23325743116E+02  0.78831487690E+01  0.50528864922E+02  0.30000015418E+02 0.  0.
         12    1    1    2    0    0 -0.32356312195E+02  0.23325743116E+02 -0.78831487690E+01  0.40659135078E+02  0.00000000000E+00 0. -1.
         11    1    3    3    0    0 -0.12663678340E+01 -0.72791438182E+01 -0.59580731088E+00  0.74124630744E+01  0.51100000000E-03 0. -1.
        -11    1    3    3    0    0  0.99766222728E+01  0.27594747352E+01  0.76870901029E+01  0.12893372224E+02  0.51100000000E-03 0.  1.
        -12    1    3    3    0    0  0.23646057756E+02 -0.18806074033E+02  0.79186597698E+00  0.30223029624E+02  0.00000000000E+00 0.  1.
</event>
<event>
 7    1  0.6624035E-013  0.5052886E+02  0.7816164E-02  0.1300439E+00
        -11   -1    0    0    0    0  0.00000000000E+00  0.00000000000E+00  0.45593999997E+02  0.45594000000E+02  0.51100000000E-03 0. -1.
         11   -1    0    0    0    0 -0.00000000000E+00 -0.00000000000E+00 -0.45593999997E+02  0.45594000000E+02  0.51100000000E-03 0.  1.
    9900012    2    1    2    0    0  0.31497199203E+02  0.25238934762E+02 -0.49079450051E+01  0.50528864376E+02  0.30000013756E+02 0.  0.
         12    1    1    2    0    0 -0.31497199203E+02 -0.25238934762E+02  0.49079450051E+01  0.40659135624E+02  0.00000000000E+00 0. -1.
         11    1    3    3    0    0  0.64140996189E+01  0.75487879594E+00  0.36378783925E+01  0.74124675633E+01  0.51100000000E-03 0. -1.
        -11    1    3    3    0    0  0.21506009435E+02  0.17508339668E+02  0.43042513290E+01  0.28063801943E+02  0.51100000000E-03 0.  1.
         12    1    3    3    0    0  0.35770901484E+01  0.69757162985E+01 -0.12850074727E+02  0.15052594869E+02  0.00000000000E+00 0. -1.
</event>
<event>
 7    1  0.6624035E-013  0.5052887E+02  0.7816164E-02  0.1300439E+00
        -11   -1    0    0    0    0  0.00000000000E+00  0.00000000000E+00  0.45593999997E+02  0.45594000000E+02  0.51100000000E-03 0.  1.
         11   -1    0    0    0    0 -0.00000000000E+00 -0.00000000000E+00 -0.45593999997E+02  0.45594000000E+02  0.51100000000E-03 0. -1.
    9900012    2    1    2    0    0  0.35064428266E+02  0.19732122975E+02  0.58561196321E+01  0.50528868875E+02  0.30000027431E+02 0.  0.
         12    1    1    2    0    0 -0.35064428266E+02 -0.19732122975E+02 -0.58561196321E+01  0.40659131125E+02  0.00000000000E+00 0. -1.
         11    1    3    3    0    0  0.22468308347E+01  0.15658559911E+01 -0.15409427275E+01  0.31423969411E+01  0.51100000000E-03 0. -1.
        -11    1    3    3    0    0  0.59169228593E+01  0.58973537339E+01  0.14721220984E+02  0.16926402592E+02  0.51100000000E-03 0.  1.
        -12    1    3    3    0    0  0.26900674572E+02  0.12268913250E+02 -0.73241586241E+01  0.30460069342E+02  0.00000000000E+00 0.  1.
</event>
<event>
 7    1  0.6942156E-013  0.5052886E+02  0.7816164E-02  0.1300439E+00
        -11   -1    0    0    0    0  0.00000000000E+00  0.00000000000E+00  0.45593999997E+02  0.45594000000E+02  0.51100000000E-03 0. -1.
         11   -1    0    0    0    0 -0.00000000000E+00 -0.00000000000E+00 -0.45593999997E+02  0.45594000000E+02  0.51100000000E-03 0.  1.
    9900012    2    1    2    0    0 -0.21911826166E+02 -0.10724070085E+02 -0.32527400818E+02  0.50528860694E+02  0.30000002565E+02 0.  0.
         12    1    1    2    0    0  0.21911826166E+02  0.10724070085E+02  0.32527400818E+02  0.40659139306E+02  0.00000000000E+00 0. -1.
         11    1    3    3    0    0 -0.60539387595E+01 -0.38367670850E+01 -0.37657250258E+01  0.80963968158E+01  0.51100000000E-03 0. -1.
        -11    1    3    3    0    0 -0.11425643452E+02 -0.16675681561E+02 -0.16220846059E+02  0.25917938401E+02  0.51100000000E-03 0.  1.
         12    1    3    3    0    0 -0.44322439551E+01  0.97883785611E+01 -0.12540829733E+02  0.16514525477E+02  0.00000000000E+00 0. -1.
</event>
<event>
 7    1  0.6624035E-013  0.5052886E+02  0.7816164E-02  0.1300439E+00
        -11   -1    0    0    0    0  0.00000000000E+00  0.00000000000E+00  0.45593999997E+02  0.45594000000E+02  0.51100000000E-03 0. -1.
         11   -1    0    0    0    0 -0.00000000000E+00 -0.00000000000E+00 -0.45593999997E+02  0.45594000000E+02  0.51100000000E-03 0.  1.
    9900012    2    1    2    0    0  0.38290178376E+02 -0.13400359260E+02  0.27309617015E+01  0.50528861541E+02  0.30000005142E+02 0.  0.
         12    1    1    2    0    0 -0.38290178376E+02  0.13400359260E+02 -0.27309617015E+01  0.40659138459E+02  0.00000000000E+00 0. -1.
         11    1    3    3    0    0  0.31293536017E+01  0.17495829015E+01  0.77371802934E+01  0.85274763822E+01  0.51100000000E-03 0. -1.
        -11    1    3    3    0    0  0.16918089183E+02 -0.16014791860E+02 -0.10796553008E+01  0.23320826652E+02  0.51100000000E-03 0.  1.
        -12    1    3    3    0    0  0.18242735591E+02  0.86484969810E+00 -0.39265632911E+01  0.18680558507E+02  0.00000000000E+00 0.  1.
</event>
<event>
 7    1  0.6624035E-013  0.5052889E+02  0.7816164E-02  0.1300439E+00
        -11   -1    0    0    0    0  0.00000000000E+00  0.00000000000E+00  0.45593999997E+02  0.45594000000E+02  0.51100000000E-03 0. -1.
         11   -1    0    0    0    0 -0.00000000000E+00 -0.00000000000E+00 -0.45593999997E+02  0.45594000000E+02  0.51100000000E-03 0.  1.
    9900012    2    1    2    0    0 -0.39430176831E+02  0.52470260732E+01 -0.84198017519E+01  0.50528890454E+02  0.30000093024E+02 0.  0.
         12    1    1    2    0    0  0.39430176831E+02 -0.52470260732E+01  0.84198017519E+01  0.40659109546E+02  0.00000000000E+00 0. -1.
         11    1    3    3    0    0 -0.22379471208E+02  0.75387491277E+00 -0.66884177999E+01  0.23369723830E+02  0.51100000000E-03 0. -1.
        -11    1    3    3    0    0 -0.21799866795E+02  0.45519366036E+01 -0.60669421437E+00  0.22278294308E+02  0.51100000000E-03 0.  1.
         12    1    3    3    0    0  0.47491611722E+01 -0.58785443152E-01 -0.11246897375E+01  0.48808723169E+01  0.00000000000E+00 0. -1.
</event>
<event>
 7    1  0.6624035E-013  0.5052886E+02  0.7816164E-02  0.1300439E+00
        -11   -1    0    0    0    0  0.00000000000E+00  0.00000000000E+00  0.45593999997E+02  0.45594000000E+02  0.51100000000E-03 0. -1.
         11   -1    0    0    0    0 -0.00000000000E+00 -0.00000000000E+00 -0.45593999997E+02  0.45594000000E+02  0.51100000000E-03 0.  1.
    9900012    2    1    2    0    0 -0.38544197982E+02 -0.36272949418E+01 -0.12423911457E+02  0.50528855364E+02  0.29999986364E+02 0.  0.
         12    1    1    2    0    0  0.38544197982E+02  0.36272949418E+01  0.12423911457E+02  0.40659144636E+02  0.00000000000E+00 0. -1.
         11    1    3    3    0    0 -0.60002895231E+00 -0.61521028348E+01 -0.82295810100E+01  0.10292444214E+02  0.51100000000E-03 0. -1.
        -11    1    3    3    0    0 -0.26548847043E+01  0.13616940436E+01 -0.39206833553E+01  0.49269038650E+01  0.51100000000E-03 0.  1.
         12    1    3    3    0    0 -0.35289284325E+02  0.11631138494E+01 -0.27364709200E+00  0.35309507285E+02  0.00000000000E+00 0. -1.
</event>
<event>
 7    1  0.6624035E-013  0.5052883E+02  0.7816164E-02  0.1300439E+00
        -11   -1    0    0    0    0  0.00000000000E+00  0.00000000000E+00  0.45593999997E+02  0.45594000000E+02  0.51100000000E-03 0. -1.
         11   -1    0    0    0    0 -0.00000000000E+00 -0.00000000000E+00 -0.45593999997E+02  0.45594000000E+02  0.51100000000E-03 0.  1.
    9900012    2    1    2    0    0 -0.81759891135E+01  0.23077723578E+02 -0.32461356797E+02  0.50528833646E+02  0.29999920350E+02 0.  0.
         12    1    1    2    0    0  0.81759891135E+01 -0.23077723578E+02  0.32461356797E+02  0.40659166354E+02  0.00000000000E+00 0. -1.
         11    1    3    3    0    0 -0.96545577872E+01  0.41554259517E+01 -0.17773141442E+02  0.20648549777E+02  0.51100000000E-03 0. -1.
        -11    1    3    3    0    0 -0.78129770411E+01  0.58917831112E+01 -0.36739843157E+01  0.10452458060E+02  0.51100000000E-03 0.  1.
        -12    1    3    3    0    0  0.92915457148E+01  0.13030514515E+02 -0.11014231039E+02  0.19427825809E+02  0.00000000000E+00 0.  1.
</event>
<event>
 7    1  0.6624035E-013  0.5052886E+02  0.7816164E-02  0.1300439E+00
        -11   -1    0    0    0    0  0.00000000000E+00  0.00000000000E+00  0.45593999997E+02  0.45594000000E+02  0.51100000000E-03 0.  1.
         11   -1    0    0    0    0 -0.00000000000E+00 -0.00000000000E+00 -0.45593999997E+02  0.45594000000E+02  0.51100000000E-03 0. -1.
    9900012    2    1    2    0    0 -0.18715048281E+01 -0.79922412665E+01  0.39821946298E+02  0.50528857636E+02  0.29999993271E+02 0.  0.
         12    1    1    2    0    0  0.18715048281E+01  0.79922412665E+01 -0.39821946298E+02  0.40659142364E+02  0.00000000000E+00 0. -1.
         11    1    3    3    0    0 -0.56118708936E+01 -0.57855813133E+00 -0.73643154148E+00  0.56894776662E+01  0.51100000000E-03 0. -1.
        -11    1    3    3    0    0  0.34593957297E+01  0.59628927298E+00  0.14046365166E-01  0.35104383307E+01  0.51100000000E-03 0.  1.
        -12    1    3    3    0    0  0.28097033571E+00 -0.80099724081E+01  0.40544331475E+02  0.41328941639E+02  0.00000000000E+00 0.  1.
</event>
<event>
 7    1  0.6624035E-013  0.5052885E+02  0.7816164E-02  0.1300439E+00
        -11   -1    0    0    0    0  0.00000000000E+00  0.00000000000E+00  0.45593999997E+02  0.45594000000E+02  0.51100000000E-03 0.  1.
         11   -1    0    0    0    0 -0.00000000000E+00 -0.00000000000E+00 -0.45593999997E+02  0.45594000000E+02  0.51100000000E-03 0. -1.
    9900012    2    1    2    0    0 -0.23812273242E+02  0.30581386103E+02  0.12285001081E+02  0.50528846240E+02  0.29999958631E+02 0.  0.
         12    1    1    2    0    0  0.23812273242E+02 -0.30581386103E+02 -0.12285001081E+02  0.40659153760E+02  0.00000000000E+00 0. -1.
         11    1    3    3    0    0 -0.91012987033E+01 -0.13130872431E+00  0.85319777686E+01  0.12475797569E+02  0.51100000000E-03 0. -1.
        -11    1    3    3    0    0 -0.33784570672E+01  0.85264255912E+01  0.87139218844E+01  0.12650942273E+02  0.51100000000E-03 0.  1.
         12    1    3    3    0    0 -0.11332517471E+02  0.22186269236E+02 -0.49608985720E+01  0.25402106399E+02  0.00000000000E+00 0. -1.
</event>
<event>
 7    1  0.6624035E-013  0.5052886E+02  0.7816164E-02  0.1300439E+00
        -11   -1    0    0    0    0  0.00000000000E+00  0.00000000000E+00  0.45593999997E+02  0.45594000000E+02  0.51100000000E-03 0.  1.
         11   -1    0    0    0    0 -0.00000000000E+00 -0.00000000000E+00 -0.45593999997E+02  0.45594000000E+02  0.51100000000E-03 0. -1.
    9900012    2    1    2    0    0 -0.22025960125E+02  0.28929169672E+02  0.18196870275E+02  0.50528857546E+02  0.29999992995E+02 0.  0.
         12    1    1    2    0    0  0.22025960125E+02 -0.28929169672E+02 -0.18196870275E+02  0.40659142454E+02  0.00000000000E+00 0. -1.
         11    1    3    3    0    0 -0.67819121886E+01  0.13451024523E+02 -0.26922593624E+00  0.15066415516E+02  0.51100000000E-03 0. -1.
        -11    1    3    3    0    0 -0.13065381330E+02  0.18858024670E+02  0.80768126809E+01  0.24322092572E+02  0.51100000000E-03 0.  1.
         12    1    3    3    0    0 -0.21786666054E+01 -0.33798795202E+01  0.10389283530E+02  0.11140349457E+02  0.00000000000E+00 0. -1.
</event>
<event>
 7    1  0.6624035E-013  0.5052886E+02  0.7816164E-02  0.1300439E+00
        -11   -1    0    0    0    0  0.00000000000E+00  0.00000000000E+00  0.45593999997E+02  0.45594000000E+02  0.51100000000E-03 0.  1.
         11   -1    0    0    0    0 -0.00000000000E+00 -0.00000000000E+00 -0.45593999997E+02  0.45594000000E+02  0.51100000000E-03 0. -1.
    9900012    2    1    2    0    0 -0.17566392914E+02  0.30855649426E+02  0.19812022946E+02  0.50528861855E+02  0.30000006094E+02 0.  0.
         12    1    1    2    0    0  0.17566392914E+02 -0.30855649426E+02 -0.19812022946E+02  0.40659138145E+02  0.00000000000E+00 0. -1.
         11    1    3    3    0    0 -0.13494461571E+01 -0.34995083563E+01  0.37268454471E+01  0.52874323556E+01  0.51100000000E-03 0. -1.
        -11    1    3    3    0    0 -0.82493385610E+01  0.33554640418E+01  0.85792813740E+01  0.12365872180E+02  0.51100000000E-03 0.  1.
         12    1    3    3    0    0 -0.79676081956E+01  0.30999693741E+02  0.75058961245E+01  0.32875557319E+02  0.00000000000E+00 0. -1.
</event>
<event>
 7    1  0.6624035E-013  0.5052888E+02  0.7816164E-02  0.1300439E+00
        -11   -1    0    0    0    0  0.00000000000E+00  0.00000000000E+00  0.45593999997E+02  0.45594000000E+02  0.51100000000E-03 0. -1.
         11   -1    0    0    0    0 -0.00000000000E+00 -0.00000000000E+00 -0.45593999997E+02  0.45594000000E+02  0.51100000000E-03 0.  1.
    9900012    2    1    2    0    0 -0.11937607648E+02 -0.38019909500E+02 -0.80711812232E+01  0.50528880960E+02  0.30000064167E+02 0.  0.
         12    1    1    2    0    0  0.11937607648E+02  0.38019909500E+02  0.80711812232E+01  0.40659119040E+02  0.00000000000E+00 0. -1.
         11    1    3    3    0    0 -0.15117314055E+02 -0.15150306877E+02  0.54016808081E+01  0.22073584632E+02  0.51100000000E-03 0. -1.
        -11    1    3    3    0    0 -0.31804066334E+01 -0.11206172224E+02 -0.48544986383E+01  0.12619803467E+02  0.51100000000E-03 0.  1.
        -12    1    3    3    0    0  0.63601130405E+01 -0.11663430399E+02 -0.86183633930E+01  0.15835492861E+02  0.00000000000E+00 0.  1.
</event>
<event>
 7    1  0.6624035E-013  0.5052885E+02  0.7816164E-02  0.1300439E+00
        -11   -1    0    0    0    0  0.00000000000E+00  0.00000000000E+00  0.45593999997E+02  0.45594000000E+02  0.51100000000E-03 0.  1.
         11   -1    0    0    0    0 -0.00000000000E+00 -0.00000000000E+00 -0.45593999997E+02  0.45594000000E+02  0.51100000000E-03 0. -1.
    9900012    2    1    2    0    0 -0.34139452083E+02  0.15453535365E+02  0.15775061183E+02  0.50528849750E+02  0.29999969299E+02 0.  0.
         12    1    1    2    0    0  0.34139452083E+02 -0.15453535365E+02 -0.15775061183E+02  0.40659150250E+02  0.00000000000E+00 0. -1.
         11    1    3    3    0    0 -0.25516936658E+02  0.10328273320E+01  0.48033689461E+01  0.25985633381E+02  0.51100000000E-03 0. -1.
        -11    1    3    3    0    0 -0.11694316132E+02  0.80362639699E+01  0.43387330207E+01  0.14837896511E+02  0.51100000000E-03 0.  1.
         12    1    3    3    0    0  0.30718007076E+01  0.63844440626E+01  0.66329592160E+01  0.97053198575E+01  0.00000000000E+00 0. -1.
</event>
<event>
 7    1  0.6624035E-013  0.5052873E+02  0.7816164E-02  0.1300439E+00
        -11   -1    0    0    0    0  0.00000000000E+00  0.00000000000E+00  0.45593999997E+02  0.45594000000E+02  0.51100000000E-03 0.  1.
         11   -1    0    0    0    0 -0.00000000000E+00 -0.00000000000E+00 -0.45593999997E+02  0.45594000000E+02  0.51100000000E-03 0. -1.
    9900012    2    1    2    0    0 -0.24098518035E+02  0.32747758054E+02  0.14958535960E+00  0.50528725476E+02  0.29999591555E+02 0.  0.
         12    1    1    2    0    0  0.24098518035E+02 -0.32747758054E+02 -0.14958535960E+00  0.40659274524E+02  0.00000000000E+00 0. -1.
         11    1    3    3    0    0 -0.11322126359E+02  0.29250061357E+02 -0.99523537218E+00  0.31380680814E+02  0.51100000000E-03 0. -1.
        -11    1    3    3    0    0 -0.19271346598E+01  0.63416571739E+01 -0.28871342400E+01  0.72295233653E+01  0.51100000000E-03 0.  1.
         12    1    3    3    0    0 -0.10849257017E+02 -0.28439604770E+01  0.40319549718E+01  0.11918521297E+02  0.00000000000E+00 0. -1.
</event>
<event>
 7    1  0.6624035E-013  0.5052887E+02  0.7816164E-02  0.1300439E+00
        -11   -1    0    0    0    0  0.00000000000E+00  0.00000000000E+00  0.45593999997E+02  0.45594000000E+02  0.51100000000E-03 0. -1.
         11   -1    0    0    0    0 -0.00000000000E+00 -0.00000000000E+00 -0.45593999997E+02  0.45594000000E+02  0.51100000000E-03 0.  1.
    9900012    2    1    2    0    0  0.30160818962E+02  0.25747675125E+02 -0.89748240595E+01  0.50528865212E+02  0.30000016299E+02 0.  0.
         12    1    1    2    0    0 -0.30160818962E+02 -0.25747675125E+02  0.89748240595E+01  0.40659134788E+02  0.00000000000E+00 0. -1.
         11    1    3    3    0    0 -0.18048549075E+01  0.18869215235E+01 -0.22601231085E+01  0.34534230554E+01  0.51100000000E-03 0. -1.
        -11    1    3    3    0    0  0.13541473971E+02  0.20200868275E+02 -0.12601269607E+02  0.27390483609E+02  0.51100000000E-03 0.  1.
         12    1    3    3    0    0  0.18424199898E+02  0.36598853268E+01  0.58865686559E+01  0.19684958548E+02  0.00000000000E+00 0. -1.
</event>
<event>
 7    1  0.6624035E-013  0.5052889E+02  0.7816164E-02  0.1300439E+00
        -11   -1    0    0    0    0  0.00000000000E+00  0.00000000000E+00  0.45593999997E+02  0.45594000000E+02  0.51100000000E-03 0. -1.
         11   -1    0    0    0    0 -0.00000000000E+00 -0.00000000000E+00 -0.45593999997E+02  0.45594000000E+02  0.51100000000E-03 0.  1.
    9900012    2    1    2    0    0 -0.19221390958E+02  0.31957118720E+02 -0.16200120737E+02  0.50528890084E+02  0.30000091900E+02 0.  0.
         12    1    1    2    0    0  0.19221390958E+02 -0.31957118720E+02  0.16200120737E+02  0.40659109916E+02  0.00000000000E+00 0. -1.
         11    1    3    3    0    0 -0.61712140060E+01  0.21098410641E+02 -0.63658468663E+01  0.22885602908E+02  0.51100000000E-03 0. -1.
        -11    1    3    3    0    0  0.17136923599E+01  0.10493482373E+02 -0.66333074342E+01  0.12531986339E+02  0.51100000000E-03 0.  1.
        -12    1    3    3    0    0 -0.14763869311E+02  0.36522570556E+00 -0.32009664368E+01  0.15111300837E+02  0.00000000000E+00 0.  1.
</event>
<event>
 7    1  0.6624035E-013  0.5052885E+02  0.7816164E-02  0.1300439E+00
        -11   -1    0    0    0    0  0.00000000000E+00  0.00000000000E+00  0.45593999997E+02  0.45594000000E+02  0.51100000000E-03 0.  1.
         11   -1    0    0    0    0 -0.00000000000E+00 -0.00000000000E+00 -0.45593999997E+02  0.45594000000E+02  0.51100000000E-03 0. -1.
    9900012    2    1    2    0    0  0.28961321872E+02  0.20346541597E+01  0.28465210069E+02  0.50528853841E+02  0.29999981734E+02 0.  0.
         12    1    1    2    0    0 -0.28961321872E+02 -0.20346541597E+01 -0.28465210069E+02  0.40659146159E+02  0.00000000000E+00 0. -1.
         11    1    3    3    0    0  0.14696934579E+02  0.11862484216E+02  0.17827342059E+02  0.25971764341E+02  0.51100000000E-03 0.  1.
        -11    1    3    3    0    0  0.17546470366E+01  0.31511148639E+01  0.39016560984E+01  0.53133070380E+01  0.51100000000E-03 0. -1.
        -12    1    3    3    0    0  0.12509740256E+02 -0.12978944921E+02  0.67362119115E+01  0.19243782462E+02  0.00000000000E+00 0.  1.
</event>
<event>
 7    1  0.6624035E-013  0.5052886E+02  0.7816164E-02  0.1300439E+00
        -11   -1    0    0    0    0  0.00000000000E+00  0.00000000000E+00  0.45593999997E+02  0.45594000000E+02  0.51100000000E-03 0. -1.
         11   -1    0    0    0    0 -0.00000000000E+00 -0.00000000000E+00 -0.45593999997E+02  0.45594000000E+02  0.51100000000E-03 0.  1.
    9900012    2    1    2    0    0  0.29422339893E+02 -0.27528770829E+02  0.54459507071E+01  0.50528859733E+02  0.29999999645E+02 0.  0.
         12    1    1    2    0    0 -0.29422339893E+02  0.27528770829E+02 -0.54459507071E+01  0.40659140267E+02  0.00000000000E+00 0. -1.
         11    1    3    3    0    0  0.23672345224E+01 -0.18750680292E+02 -0.34363488998E+01  0.19209380644E+02  0.51100000000E-03 0. -1.
        -11    1    3    3    0    0  0.66056754464E+01 -0.49939300451E+01 -0.91368580621E+00  0.83312128416E+01  0.51100000000E-03 0.  1.
        -12    1    3    3    0    0  0.20449429924E+02 -0.37841604915E+01  0.97959854131E+01  0.22988266248E+02  0.00000000000E+00 0.  1.
</event>
<event>
 7    1  0.6624035E-013  0.5052886E+02  0.7816164E-02  0.1300439E+00
        -11   -1    0    0    0    0  0.00000000000E+00  0.00000000000E+00  0.45593999997E+02  0.45594000000E+02  0.51100000000E-03 0.  1.
         11   -1    0    0    0    0 -0.00000000000E+00 -0.00000000000E+00 -0.45593999997E+02  0.45594000000E+02  0.51100000000E-03 0. -1.
    9900012    2    1    2    0    0 -0.12391749535E+02 -0.33750425304E+02  0.18987333111E+02  0.50528862240E+02  0.30000007264E+02 0.  0.
         12    1    1    2    0    0  0.12391749535E+02  0.33750425304E+02 -0.18987333111E+02  0.40659137760E+02  0.00000000000E+00 0. -1.
         11    1    3    3    0    0  0.26672298486E+01  0.62610971986E+00  0.49324129621E+01  0.56422359341E+01  0.51100000000E-03 0. -1.
        -11    1    3    3    0    0 -0.34895388890E+01 -0.83657495315E+00  0.81690060132E+01  0.89224099219E+01  0.51100000000E-03 0.  1.
         12    1    3    3    0    0 -0.11569440495E+02 -0.33539960070E+02  0.58859141358E+01  0.35964216384E+02  0.00000000000E+00 0. -1.
</event>
<event>
 7    1  0.6624035E-013  0.5052886E+02  0.7816164E-02  0.1300439E+00
        -11   -1    0    0    0    0  0.00000000000E+00  0.00000000000E+00  0.45593999997E+02  0.45594000000E+02  0.51100000000E-03 0.  1.
         11   -1    0    0    0    0 -0.00000000000E+00 -0.00000000000E+00 -0.45593999997E+02  0.45594000000E+02  0.51100000000E-03 0. -1.
    9900012    2    1    2    0    0 -0.17657478261E+02 -0.30781298345E+02  0.19846681252E+02  0.50528860522E+02  0.30000002043E+02 0.  0.
         12    1    1    2    0    0  0.17657478261E+02  0.30781298345E+02 -0.19846681252E+02  0.40659139478E+02  0.00000000000E+00 0. -1.
         11    1    3    3    0    0 -0.35118985810E+00 -0.12227749232E+02  0.39481389595E+01  0.12854142799E+02  0.51100000000E-03 0. -1.
        -11    1    3    3    0    0 -0.11716749465E+02 -0.17265963914E+02  0.99188017906E-01  0.20866374061E+02  0.51100000000E-03 0.  1.
        -12    1    3    3    0    0 -0.55895389381E+01 -0.12875851991E+01  0.15799354275E+02  0.16808343663E+02  0.00000000000E+00 0.  1.
</event>
<event>
 7    1  0.6624035E-013  0.5052885E+02  0.7816164E-02  0.1300439E+00
        -11   -1    0    0    0    0  0.00000000000E+00  0.00000000000E+00  0.45593999997E+02  0.45594000000E+02  0.51100000000E-03 0. -1.
         11   -1    0    0    0    0 -0.00000000000E+00 -0.00000000000E+00 -0.45593999997E+02  0.45594000000E+02  0.51100000000E-03 0.  1.
    9900012    2    1    2    0    0 -0.29495056315E+02  0.17133110386E+02  0.22128373486E+02  0.50528846890E+02  0.29999960606E+02 0.  0.
         12    1    1    2    0    0  0.29495056315E+02 -0.17133110386E+02 -0.22128373486E+02  0.40659153110E+02  0.00000000000E+00 0. -1.
         11    1    3    3    0    0 -0.10594879957E+02  0.16458122350E+02  0.98093112161E+01  0.21893922887E+02  0.51100000000E-03 0.  1.
        -11    1    3    3    0    0 -0.19574526643E+01 -0.24279164160E+01 -0.38880098784E+01  0.49842772928E+01  0.51100000000E-03 0. -1.
         12    1    3    3    0    0 -0.16942723693E+02  0.31029044523E+01  0.16207072148E+02  0.23650646710E+02  0.00000000000E+00 0. -1.
</event>
<event>
 7    1  0.6624035E-013  0.5052886E+02  0.7816164E-02  0.1300439E+00
        -11   -1    0    0    0    0  0.00000000000E+00  0.00000000000E+00  0.45593999997E+02  0.45594000000E+02  0.51100000000E-03 0.  1.
         11   -1    0    0    0    0 -0.00000000000E+00 -0.00000000000E+00 -0.45593999997E+02  0.45594000000E+02  0.51100000000E-03 0. -1.
    9900012    2    1    2    0    0  0.31200747392E+02 -0.15697410172E+02  0.20815149122E+02  0.50528858877E+02  0.29999997041E+02 0.  0.
         12    1    1    2    0    0 -0.31200747392E+02  0.15697410172E+02 -0.20815149122E+02  0.40659141123E+02  0.00000000000E+00 0. -1.
         11    1    3    3    0    0  0.33954809243E+01  0.59638980815E+01  0.81907875673E+01  0.10685802369E+02  0.51100000000E-03 0.  1.
        -11    1    3    3    0    0  0.43070101956E+01 -0.16398178066E+01 -0.27381492162E+01  0.53606716608E+01  0.51100000000E-03 0. -1.
        -12    1    3    3    0    0  0.23498256272E+02 -0.20021490447E+02  0.15362510771E+02  0.34482384847E+02  0.00000000000E+00 0.  1.
</event>
<event>
 7    1  0.6624035E-013  0.5052886E+02  0.7816164E-02  0.1300439E+00
        -11   -1    0    0    0    0  0.00000000000E+00  0.00000000000E+00  0.45593999997E+02  0.45594000000E+02  0.51100000000E-03 0.  1.
         11   -1    0    0    0    0 -0.00000000000E+00 -0.00000000000E+00 -0.45593999997E+02  0.45594000000E+02  0.51100000000E-03 0. -1.
    9900012    2    1    2    0    0 -0.11674961976E+02  0.72024213221E+01  0.38275140965E+02  0.50528855568E+02  0.29999986985E+02 0.  0.
         12    1    1    2    0    0  0.11674961976E+02 -0.72024213221E+01 -0.38275140965E+02  0.40659144432E+02  0.00000000000E+00 0. -1.
         11    1    3    3    0    0 -0.13820808082E+02 -0.39720782239E+01  0.20817412285E+02  0.25301320043E+02  0.51100000000E-03 0. -1.
        -11    1    3    3    0    0 -0.48350328577E+01  0.48380594648E+01  0.13233515088E+02  0.14896653449E+02  0.51100000000E-03 0.  1.
         12    1    3    3    0    0  0.69808789633E+01  0.63364400812E+01  0.42242135921E+01  0.10330882076E+02  0.00000000000E+00 0. -1.
</event>
<event>
 7    1  0.9904797E-013  0.5052883E+02  0.7816164E-02  0.1300439E+00
        -11   -1    0    0    0    0  0.00000000000E+00  0.00000000000E+00  0.45593999997E+02  0.45594000000E+02  0.51100000000E-03 0. -1.
         11   -1    0    0    0    0 -0.00000000000E+00 -0.00000000000E+00 -0.45593999997E+02  0.45594000000E+02  0.51100000000E-03 0.  1.
    9900012    2    1    2    0    0 -0.34327891153E+00 -0.20623955645E+02 -0.35038583217E+02  0.50528834973E+02  0.29999924384E+02 0.  0.
         12    1    1    2    0    0  0.34327891153E+00  0.20623955645E+02  0.35038583217E+02  0.40659165027E+02  0.00000000000E+00 0. -1.
         11    1    3    3    0    0  0.37910547309E+01 -0.55203652293E+01 -0.54874753704E+01  0.86578816369E+01  0.51100000000E-03 0. -1.
        -11    1    3    3    0    0 -0.33827980331E+01 -0.21936694224E+02 -0.25821295787E+02  0.34049980798E+02  0.51100000000E-03 0.  1.
         12    1    3    3    0    0 -0.75153560933E+00  0.68331038085E+01 -0.37298120599E+01  0.78209725375E+01  0.00000000000E+00 0. -1.
</event>
<event>
 7    1  0.6624035E-013  0.5052886E+02  0.7816164E-02  0.1300439E+00
        -11   -1    0    0    0    0  0.00000000000E+00  0.00000000000E+00  0.45593999997E+02  0.45594000000E+02  0.51100000000E-03 0. -1.
         11   -1    0    0    0    0 -0.00000000000E+00 -0.00000000000E+00 -0.45593999997E+02  0.45594000000E+02  0.51100000000E-03 0.  1.
    9900012    2    1    2    0    0  0.29629677728E+02 -0.19557027591E+02 -0.19818438694E+02  0.50528860280E+02  0.30000001308E+02 0.  0.
         12    1    1    2    0    0 -0.29629677728E+02  0.19557027591E+02  0.19818438694E+02  0.40659139720E+02  0.00000000000E+00 0. -1.
         11    1    3    3    0    0 -0.18686824447E+01 -0.11618912227E+02 -0.37993563955E+01  0.12366333519E+02  0.51100000000E-03 0. -1.
        -11    1    3    3    0    0  0.20813100665E+02 -0.99103865874E+01 -0.71466479157E+01  0.24134529171E+02  0.51100000000E-03 0.  1.
        -12    1    3    3    0    0  0.10685259507E+02  0.19722712235E+01 -0.88724343831E+01  0.14027997591E+02  0.00000000000E+00 0.  1.
</event>
<event>
 7    1  0.6624035E-013  0.5052882E+02  0.7816164E-02  0.1300439E+00
        -11   -1    0    0    0    0  0.00000000000E+00  0.00000000000E+00  0.45593999997E+02  0.45594000000E+02  0.51100000000E-03 0. -1.
         11   -1    0    0    0    0 -0.00000000000E+00 -0.00000000000E+00 -0.45593999997E+02  0.45594000000E+02  0.51100000000E-03 0.  1.
    9900012    2    1    2    0    0  0.26980315818E+02  0.27429818891E+02  0.13146723723E+02  0.50528822061E+02  0.29999885138E+02 0.  0.
         12    1    1    2    0    0 -0.26980315818E+02 -0.27429818891E+02 -0.13146723723E+02  0.40659177939E+02  0.00000000000E+00 0. -1.
         11    1    3    3    0    0  0.30653711410E+01  0.10832147488E+01  0.26285381989E+01  0.41807975014E+01  0.51100000000E-03 0. -1.
        -11    1    3    3    0    0  0.39180492465E+01  0.19150350465E+02  0.14986638744E+02  0.24631004322E+02  0.51100000000E-03 0.  1.
         12    1    3    3    0    0  0.19996895430E+02  0.71962536771E+01 -0.44684532199E+01  0.21717020238E+02  0.00000000000E+00 0. -1.
</event>
<event>
 7    1  0.6624035E-013  0.5052886E+02  0.7816164E-02  0.1300439E+00
        -11   -1    0    0    0    0  0.00000000000E+00  0.00000000000E+00  0.45593999997E+02  0.45594000000E+02  0.51100000000E-03 0.  1.
         11   -1    0    0    0    0 -0.00000000000E+00 -0.00000000000E+00 -0.45593999997E+02  0.45594000000E+02  0.51100000000E-03 0. -1.
    9900012    2    1    2    0    0 -0.46356022612E+01 -0.40168040233E+02  0.42667868324E+01  0.50528859154E+02  0.29999997883E+02 0.  0.
         12    1    1    2    0    0  0.46356022612E+01  0.40168040233E+02 -0.42667868324E+01  0.40659140846E+02  0.00000000000E+00 0. -1.
         11    1    3    3    0    0  0.14004542177E+01 -0.34104489500E+01  0.79552902987E+01  0.87680715128E+01  0.51100000000E-03 0. -1.
        -11    1    3    3    0    0 -0.35876969249E+01  0.95610594870E+00  0.45739549652E+00  0.37409783094E+01  0.51100000000E-03 0.  1.
         12    1    3    3    0    0 -0.24483595541E+01 -0.37713697232E+02 -0.41458989628E+01  0.38019809331E+02  0.00000000000E+00 0. -1.
</event>
<event>
 7    1  0.6624035E-013  0.5052887E+02  0.7816164E-02  0.1300439E+00
        -11   -1    0    0    0    0  0.00000000000E+00  0.00000000000E+00  0.45593999997E+02  0.45594000000E+02  0.51100000000E-03 0.  1.
         11   -1    0    0    0    0 -0.00000000000E+00 -0.00000000000E+00 -0.45593999997E+02  0.45594000000E+02  0.51100000000E-03 0. -1.
    9900012    2    1    2    0    0  0.38208332364E+02  0.60979823345E+00  0.13889445449E+02  0.50528865592E+02  0.30000017455E+02 0.  0.
         12    1    1    2    0    0 -0.38208332364E+02 -0.60979823345E+00 -0.13889445449E+02  0.40659134408E+02  0.00000000000E+00 0. -1.
         11    1    3    3    0    0  0.21185188930E+02 -0.58272000326E+01 -0.28448331969E+01  0.22155395875E+02  0.51100000000E-03 0.  1.
        -11    1    3    3    0    0  0.11542990021E+02  0.29787992465E+01  0.17511400613E+01  0.12049081100E+02  0.51100000000E-03 0. -1.
        -12    1    3    3    0    0  0.54801534129E+01  0.34581990195E+01  0.14983138585E+02  0.16324388617E+02  0.00000000000E+00 0.  1.
</event>
<event>
 7    1  0.6624035E-013  0.5052888E+02  0.7816164E-02  0.1300439E+00
        -11   -1    0    0    0    0  0.00000000000E+00  0.00000000000E+00  0.45593999997E+02  0.45594000000E+02  0.51100000000E-03 0.  1.
         11   -1    0    0    0    0 -0.00000000000E+00 -0.00000000000E+00 -0.45593999997E+02  0.45594000000E+02  0.51100000000E-03 0. -1.
    9900012    2    1    2    0    0 -0.38133488261E+02 -0.26235513788E+01  0.13860661673E+02  0.50528881824E+02  0.30000066793E+02 0.  0.
         12    1    1    2    0    0  0.38133488261E+02  0.26235513788E+01 -0.13860661673E+02  0.40659118176E+02  0.00000000000E+00 0. -1.
         11    1    3    3    0    0 -0.40584293264E+01 -0.36416406321E+01  0.37571045947E+01  0.66217996260E+01  0.51100000000E-03 0. -1.
        -11    1    3    3    0    0 -0.34791628201E+02 -0.29858629505E+01  0.14595571933E+02  0.37847106768E+02  0.51100000000E-03 0.  1.
         12    1    3    3    0    0  0.71656926624E+00  0.40039522038E+01 -0.44920148541E+01  0.60599754301E+01  0.00000000000E+00 0. -1.
</event>
<event>
 7    1  0.6624035E-013  0.5052886E+02  0.7816164E-02  0.1300439E+00
        -11   -1    0    0    0    0  0.00000000000E+00  0.00000000000E+00  0.45593999997E+02  0.45594000000E+02  0.51100000000E-03 0.  1.
         11   -1    0    0    0    0 -0.00000000000E+00 -0.00000000000E+00 -0.45593999997E+02  0.45594000000E+02  0.51100000000E-03 0. -1.
    9900012    2    1    2    0    0 -0.61442807543E+01 -0.31644787052E+01  0.40067437864E+02  0.50528859719E+02  0.29999999601E+02 0.  0.
         12    1    1    2    0    0  0.61442807543E+01  0.31644787052E+01 -0.40067437864E+02  0.40659140281E+02  0.00000000000E+00 0. -1.
         11    1    3    3    0    0  0.10335656340E+02 -0.37941739755E+01  0.16158881703E+02  0.19553286329E+02  0.51100000000E-03 0. -1.
        -11    1    3    3    0    0 -0.16881860442E+00  0.17104971989E+01 -0.31978676758E+00  0.17483032422E+01  0.51100000000E-03 0.  1.
         12    1    3    3    0    0 -0.16311118490E+02 -0.10808019286E+01  0.24228342929E+02  0.29227270147E+02  0.00000000000E+00 0. -1.
</event>
<event>
 7    1  0.6624035E-013  0.5052885E+02  0.7816164E-02  0.1300439E+00
        -11   -1    0    0    0    0  0.00000000000E+00  0.00000000000E+00  0.45593999997E+02  0.45594000000E+02  0.51100000000E-03 0. -1.
         11   -1    0    0    0    0 -0.00000000000E+00 -0.00000000000E+00 -0.45593999997E+02  0.45594000000E+02  0.51100000000E-03 0.  1.
    9900012    2    1    2    0    0  0.38299406888E+02  0.90851594860E+01 -0.10187342801E+02  0.50528847965E+02  0.29999963875E+02 0.  0.
         12    1    1    2    0    0 -0.38299406888E+02 -0.90851594860E+01  0.10187342801E+02  0.40659152035E+02  0.00000000000E+00 0. -1.
         11    1    3    3    0    0 -0.46696731874E+00  0.42425600157E+01  0.37305770323E+01  0.56687370038E+01  0.51100000000E-03 0. -1.
        -11    1    3    3    0    0  0.16783324142E+02 -0.40865413248E+01  0.15297654691E+00  0.17274350678E+02  0.51100000000E-03 0.  1.
        -12    1    3    3    0    0  0.21983050065E+02  0.89291407951E+01 -0.14070896380E+02  0.27585760284E+02  0.00000000000E+00 0.  1.
</event>
<event>
 7    1  0.6624035E-013  0.5052886E+02  0.7816164E-02  0.1300439E+00
        -11   -1    0    0    0    0  0.00000000000E+00  0.00000000000E+00  0.45593999997E+02  0.45594000000E+02  0.51100000000E-03 0.  1.
         11   -1    0    0    0    0 -0.00000000000E+00 -0.00000000000E+00 -0.45593999997E+02  0.45594000000E+02  0.51100000000E-03 0. -1.
    9900012    2    1    2    0    0  0.43365291678E+01  0.66071809489E+00  0.40421821384E+02  0.50528859851E+02  0.30000000004E+02 0.  0.
         12    1    1    2    0    0 -0.43365291678E+01 -0.66071809489E+00 -0.40421821384E+02  0.40659140149E+02  0.00000000000E+00 0. -1.
         11    1    3    3    0    0 -0.16565056395E+00 -0.33299438022E+01  0.76791065344E+01  0.83716571396E+01  0.51100000000E-03 0. -1.
        -11    1    3    3    0    0  0.99785036530E+01  0.13124363634E+01  0.34398151143E+02  0.35840282179E+02  0.51100000000E-03 0.  1.
         12    1    3    3    0    0 -0.54763239212E+01  0.26782255337E+01 -0.16554362929E+01  0.63169205329E+01  0.00000000000E+00 0. -1.
</event>
<event>
 7    1  0.1242764E-012  0.5052885E+02  0.7816164E-02  0.1300439E+00
        -11   -1    0    0    0    0  0.00000000000E+00  0.00000000000E+00  0.45593999997E+02  0.45594000000E+02  0.51100000000E-03 0. -1.
         11   -1    0    0    0    0 -0.00000000000E+00 -0.00000000000E+00 -0.45593999997E+02  0.45594000000E+02  0.51100000000E-03 0.  1.
    9900012    2    1    2    0    0  0.33158203832E+01  0.23306061645E+02 -0.33151152953E+02  0.50528854457E+02  0.29999983607E+02 0.  0.
         12    1    1    2    0    0 -0.33158203832E+01 -0.23306061645E+02  0.33151152953E+02  0.40659145543E+02  0.00000000000E+00 0. -1.
         11    1    3    3    0    0 -0.92253676628E+01  0.62888188858E+01 -0.84528772479E+01  0.14003848954E+02  0.51100000000E-03 0. -1.
        -11    1    3    3    0    0  0.37533664257E+01  0.17695197404E+02 -0.16959223883E+02  0.24795625535E+02  0.51100000000E-03 0.  1.
         12    1    3    3    0    0  0.87878216203E+01 -0.67795464561E+00 -0.77390518217E+01  0.11729379968E+02  0.00000000000E+00 0. -1.
</event>
<event>
 7    1  0.6624035E-013  0.5052886E+02  0.7816164E-02  0.1300439E+00
        -11   -1    0    0    0    0  0.00000000000E+00  0.00000000000E+00  0.45593999997E+02  0.45594000000E+02  0.51100000000E-03 0. -1.
         11   -1    0    0    0    0 -0.00000000000E+00 -0.00000000000E+00 -0.45593999997E+02  0.45594000000E+02  0.51100000000E-03 0.  1.
    9900012    2    1    2    0    0  0.65147156303E+01  0.49038818151E+01 -0.39833105505E+02  0.50528857477E+02  0.29999992786E+02 0.  0.
         12    1    1    2    0    0 -0.65147156303E+01 -0.49038818151E+01  0.39833105505E+02  0.40659142523E+02  0.00000000000E+00 0. -1.
         11    1    3    3    0    0  0.33687143425E+01  0.11034857771E+01 -0.10632926573E+02  0.11208257891E+02  0.51100000000E-03 0. -1.
        -11    1    3    3    0    0  0.12759501738E+02 -0.30774865744E+01 -0.89951926312E+01  0.15911923170E+02  0.51100000000E-03 0.  1.
         12    1    3    3    0    0 -0.96135004507E+01  0.68778826124E+01 -0.20204986301E+02  0.23408676416E+02  0.00000000000E+00 0. -1.
</event>
<event>
 7    1  0.6624035E-013  0.5052886E+02  0.7816164E-02  0.1300439E+00
        -11   -1    0    0    0    0  0.00000000000E+00  0.00000000000E+00  0.45593999997E+02  0.45594000000E+02  0.51100000000E-03 0. -1.
         11   -1    0    0    0    0 -0.00000000000E+00 -0.00000000000E+00 -0.45593999997E+02  0.45594000000E+02  0.51100000000E-03 0.  1.
    9900012    2    1    2    0    0 -0.18812786392E+02 -0.26251613487E+02 -0.24700152736E+02  0.50528859727E+02  0.29999999628E+02 0.  0.
         12    1    1    2    0    0  0.18812786392E+02  0.26251613487E+02  0.24700152736E+02  0.40659140273E+02  0.00000000000E+00 0. -1.
         11    1    3    3    0    0 -0.55754444656E+01 -0.21547386082E+02 -0.97707929673E+01  0.24307279227E+02  0.51100000000E-03 0. -1.
        -11    1    3    3    0    0 -0.12831868843E+02 -0.42699266030E+01 -0.24691489940E+01  0.13747211652E+02  0.51100000000E-03 0.  1.
        -12    1    3    3    0    0 -0.40547308366E+00 -0.43430080242E+00 -0.12460210775E+02  0.12474368848E+02  0.00000000000E+00 0.  1.
</event>
<event>
 7    1  0.6624035E-013  0.5052889E+02  0.7816164E-02  0.1300439E+00
        -11   -1    0    0    0    0  0.00000000000E+00  0.00000000000E+00  0.45593999997E+02  0.45594000000E+02  0.51100000000E-03 0.  1.
         11   -1    0    0    0    0 -0.00000000000E+00 -0.00000000000E+00 -0.45593999997E+02  0.45594000000E+02  0.51100000000E-03 0. -1.
    9900012    2    1    2    0    0 -0.15837676987E+02 -0.83472372394E+01  0.36505539872E+02  0.50528894953E+02  0.30000106700E+02 0.  0.
         12    1    1    2    0    0  0.15837676987E+02  0.83472372394E+01 -0.36505539872E+02  0.40659105047E+02  0.00000000000E+00 0. -1.
         11    1    3    3    0    0  0.56602632887E+00  0.66674622404E+01  0.86928582248E+01  0.10970014718E+02  0.51100000000E-03 0. -1.
        -11    1    3    3    0    0  0.32432960809E+01  0.24456092533E+00  0.30693588817E+01  0.44721073020E+01  0.51100000000E-03 0.  1.
         12    1    3    3    0    0 -0.19646999397E+02 -0.15259260405E+02  0.24743322765E+02  0.35086772933E+02  0.00000000000E+00 0. -1.
</event>
<event>
 7    1  0.6624035E-013  0.5052889E+02  0.7816164E-02  0.1300439E+00
        -11   -1    0    0    0    0  0.00000000000E+00  0.00000000000E+00  0.45593999997E+02  0.45594000000E+02  0.51100000000E-03 0.  1.
         11   -1    0    0    0    0 -0.00000000000E+00 -0.00000000000E+00 -0.45593999997E+02  0.45594000000E+02  0.51100000000E-03 0. -1.
    9900012    2    1    2    0    0  0.31221565688E+02 -0.13501596800E+02  0.22272938733E+02  0.50528891795E+02  0.30000097101E+02 0.  0.
         12    1    1    2    0    0 -0.31221565688E+02  0.13501596800E+02 -0.22272938733E+02  0.40659108205E+02  0.00000000000E+00 0. -1.
         11    1    3    3    0    0  0.87367698597E+01 -0.89249305329E+01 -0.36947448478E+01  0.13024464379E+02  0.51100000000E-03 0. -1.
        -11    1    3    3    0    0  0.11075070405E+02 -0.72909446553E+01  0.64762973635E+01  0.14756608223E+02  0.51100000000E-03 0.  1.
         12    1    3    3    0    0  0.11409725424E+02  0.27142783882E+01  0.19491386217E+02  0.22747819194E+02  0.00000000000E+00 0. -1.
</event>
<event>
 7    1  0.6624035E-013  0.5052886E+02  0.7816164E-02  0.1300439E+00
        -11   -1    0    0    0    0  0.00000000000E+00  0.00000000000E+00  0.45593999997E+02  0.45594000000E+02  0.51100000000E-03 0.  1.
         11   -1    0    0    0    0 -0.00000000000E+00 -0.00000000000E+00 -0.45593999997E+02  0.45594000000E+02  0.51100000000E-03 0. -1.
    9900012    2    1    2    0    0 -0.17531587327E+02 -0.17597895993E+02  0.32188868564E+02  0.50528858875E+02  0.29999997037E+02 0.  0.
         12    1    1    2    0    0  0.17531587327E+02  0.17597895993E+02 -0.32188868564E+02  0.40659141125E+02  0.00000000000E+00 0. -1.
         11    1    3    3    0    0 -0.58068392193E+01  0.32184604219E+01  0.24026801871E+01  0.70605057573E+01  0.51100000000E-03 0. -1.
        -11    1    3    3    0    0  0.39809576721E+01  0.14562667494E+01  0.56528128150E+01  0.70656231016E+01  0.51100000000E-03 0.  1.
         12    1    3    3    0    0 -0.15705705779E+02 -0.22272623164E+02  0.24133375562E+02  0.36402730016E+02  0.00000000000E+00 0. -1.
</event>
<event>
 7    1  0.6624035E-013  0.5052888E+02  0.7816164E-02  0.1300439E+00
        -11   -1    0    0    0    0  0.00000000000E+00  0.00000000000E+00  0.45593999997E+02  0.45594000000E+02  0.51100000000E-03 0. -1.
         11   -1    0    0    0    0 -0.00000000000E+00 -0.00000000000E+00 -0.45593999997E+02  0.45594000000E+02  0.51100000000E-03 0.  1.
    9900012    2    1    2    0    0  0.25102699674E+02 -0.31873677046E+02 -0.26622112498E+01  0.50528878168E+02  0.30000055680E+02 0.  0.
         12    1    1    2    0    0 -0.25102699674E+02  0.31873677046E+02  0.26622112498E+01  0.40659121832E+02  0.00000000000E+00 0. -1.
         11    1    3    3    0    0 -0.20583351289E+01 -0.46997674151E+01  0.55919389079E+00  0.51611292687E+01  0.51100000000E-03 0. -1.
        -11    1    3    3    0    0 -0.32788101980E+01 -0.18485981644E+01 -0.43523234399E+01  0.57541837887E+01  0.51100000000E-03 0.  1.
         12    1    3    3    0    0  0.30439845001E+02 -0.25325311467E+02  0.11309182993E+01  0.39613565111E+02  0.00000000000E+00 0. -1.
</event>
<event>
 7    1  0.6624035E-013  0.5052885E+02  0.7816164E-02  0.1300439E+00
        -11   -1    0    0    0    0  0.00000000000E+00  0.00000000000E+00  0.45593999997E+02  0.45594000000E+02  0.51100000000E-03 0.  1.
         11   -1    0    0    0    0 -0.00000000000E+00 -0.00000000000E+00 -0.45593999997E+02  0.45594000000E+02  0.51100000000E-03 0. -1.
    9900012    2    1    2    0    0 -0.31436638706E+01 -0.24798864370E+02  0.32067121751E+02  0.50528848582E+02  0.29999965751E+02 0.  0.
         12    1    1    2    0    0  0.31436638706E+01  0.24798864370E+02 -0.32067121751E+02  0.40659151418E+02  0.00000000000E+00 0. -1.
         11    1    3    3    0    0  0.50610395061E+01 -0.13522349689E+01  0.18062601349E+01  0.55412305700E+01  0.51100000000E-03 0. -1.
        -11    1    3    3    0    0 -0.14544902743E+01 -0.16952150454E+02  0.45335066895E+01  0.17608055831E+02  0.51100000000E-03 0.  1.
         12    1    3    3    0    0 -0.67502131024E+01 -0.64944789471E+01  0.25727354927E+02  0.27379562182E+02  0.00000000000E+00 0. -1.
</event>
<event>
 7    1  0.6624035E-013  0.5052883E+02  0.7816164E-02  0.1300439E+00
        -11   -1    0    0    0    0  0.00000000000E+00  0.00000000000E+00  0.45593999997E+02  0.45594000000E+02  0.51100000000E-03 0.  1.
         11   -1    0    0    0    0 -0.00000000000E+00 -0.00000000000E+00 -0.45593999997E+02  0.45594000000E+02  0.51100000000E-03 0. -1.
    9900012    2    1    2    0    0 -0.23093775722E+02  0.24183051515E+02  0.23130617499E+02  0.50528832233E+02  0.29999916054E+02 0.  0.
         12    1    1    2    0    0  0.23093775722E+02 -0.24183051515E+02 -0.23130617499E+02  0.40659167767E+02  0.00000000000E+00 0. -1.
         11    1    3    3    0    0 -0.45235612256E+01 -0.24101204023E+01  0.13875211633E+02  0.14791645772E+02  0.51100000000E-03 0. -1.
        -11    1    3    3    0    0  0.12627288293E+01  0.27292464055E+00  0.13037636423E+01  0.18354214372E+01  0.51100000000E-03 0.  1.
        -12    1    3    3    0    0 -0.19832943325E+02  0.26320247277E+02  0.79516422235E+01  0.33901765023E+02  0.00000000000E+00 0.  1.
</event>
<event>
 7    1  0.6624035E-013  0.5052886E+02  0.7816164E-02  0.1300439E+00
        -11   -1    0    0    0    0  0.00000000000E+00  0.00000000000E+00  0.45593999997E+02  0.45594000000E+02  0.51100000000E-03 0.  1.
         11   -1    0    0    0    0 -0.00000000000E+00 -0.00000000000E+00 -0.45593999997E+02  0.45594000000E+02  0.51100000000E-03 0. -1.
    9900012    2    1    2    0    0 -0.23308887364E+02 -0.30542214943E+02 -0.13305428808E+02  0.50528861304E+02  0.30000004419E+02 0.  0.
         12    1    1    2    0    0  0.23308887364E+02  0.30542214943E+02  0.13305428808E+02  0.40659138696E+02  0.00000000000E+00 0. -1.
         11    1    3    3    0    0 -0.13378501171E+02 -0.27555553306E+02 -0.12919088535E+02  0.33244483158E+02  0.51100000000E-03 0. -1.
        -11    1    3    3    0    0 -0.84000615517E+01 -0.55125320061E+01 -0.54441269904E+01  0.11427491507E+02  0.51100000000E-03 0.  1.
        -12    1    3    3    0    0 -0.15303246409E+01  0.25258703690E+01  0.50577867173E+01  0.58568866393E+01  0.00000000000E+00 0.  1.
</event>
<event>
 7    1  0.6624035E-013  0.5052887E+02  0.7816164E-02  0.1300439E+00
        -11   -1    0    0    0    0  0.00000000000E+00  0.00000000000E+00  0.45593999997E+02  0.45594000000E+02  0.51100000000E-03 0.  1.
         11   -1    0    0    0    0 -0.00000000000E+00 -0.00000000000E+00 -0.45593999997E+02  0.45594000000E+02  0.51100000000E-03 0. -1.
    9900012    2    1    2    0    0  0.18609812175E+02  0.35189595392E+02  0.82784254290E+01  0.50528867439E+02  0.30000023067E+02 0.  0.
         12    1    1    2    0    0 -0.18609812175E+02 -0.35189595392E+02 -0.82784254290E+01  0.40659132561E+02  0.00000000000E+00 0. -1.
         11    1    3    3    0    0  0.14585561519E+01 -0.24213452711E+00  0.19603619520E+01  0.24554092167E+01  0.51100000000E-03 0.  1.
        -11    1    3    3    0    0  0.14923047229E+02  0.18050871508E+02  0.15700699381E+02  0.28196511524E+02  0.51100000000E-03 0. -1.
         12    1    3    3    0    0  0.22282087946E+01  0.17380858411E+02 -0.93826359041E+01  0.19876946699E+02  0.00000000000E+00 0. -1.
</event>
<event>
 7    1  0.6624035E-013  0.5052886E+02  0.7816164E-02  0.1300439E+00
        -11   -1    0    0    0    0  0.00000000000E+00  0.00000000000E+00  0.45593999997E+02  0.45594000000E+02  0.51100000000E-03 0. -1.
         11   -1    0    0    0    0 -0.00000000000E+00 -0.00000000000E+00 -0.45593999997E+02  0.45594000000E+02  0.51100000000E-03 0.  1.
    9900012    2    1    2    0    0 -0.35358304146E+02 -0.17889020154E+02  0.91070709940E+01  0.50528862574E+02  0.30000008279E+02 0.  0.
         12    1    1    2    0    0  0.35358304146E+02  0.17889020154E+02 -0.91070709940E+01  0.40659137426E+02  0.00000000000E+00 0. -1.
         11    1    3    3    0    0 -0.20484712035E+00 -0.21409490281E+01  0.77509128018E-01  0.21521229077E+01  0.51100000000E-03 0. -1.
        -11    1    3    3    0    0 -0.31004313636E+01 -0.15139472554E+02  0.34897976680E+01  0.15842821462E+02  0.51100000000E-03 0.  1.
         12    1    3    3    0    0 -0.32053025662E+02 -0.60859857175E+00  0.55397641980E+01  0.32533918204E+02  0.00000000000E+00 0. -1.
</event>
<event>
 7    1  0.6624035E-013  0.5052882E+02  0.7816164E-02  0.1300439E+00
        -11   -1    0    0    0    0  0.00000000000E+00  0.00000000000E+00  0.45593999997E+02  0.45594000000E+02  0.51100000000E-03 0. -1.
         11   -1    0    0    0    0 -0.00000000000E+00 -0.00000000000E+00 -0.45593999997E+02  0.45594000000E+02  0.51100000000E-03 0.  1.
    9900012    2    1    2    0    0 -0.17353464637E+02 -0.28783851640E+02 -0.22880475002E+02  0.50528819162E+02  0.29999876324E+02 0.  0.
         12    1    1    2    0    0  0.17353464637E+02  0.28783851640E+02  0.22880475002E+02  0.40659180838E+02  0.00000000000E+00 0. -1.
         11    1    3    3    0    0 -0.76868577174E+01 -0.21010438463E+02 -0.81428261642E+01  0.23808232277E+02  0.51100000000E-03 0. -1.
        -11    1    3    3    0    0 -0.43815650169E+01 -0.11776494116E+02 -0.25133025570E+01  0.12814078807E+02  0.51100000000E-03 0.  1.
         12    1    3    3    0    0 -0.52850419027E+01  0.40030809393E+01 -0.12224346280E+02  0.13906508077E+02  0.00000000000E+00 0. -1.
</event>
<event>
 7    1  0.6624035E-013  0.5052886E+02  0.7816164E-02  0.1300439E+00
        -11   -1    0    0    0    0  0.00000000000E+00  0.00000000000E+00  0.45593999997E+02  0.45594000000E+02  0.51100000000E-03 0.  1.
         11   -1    0    0    0    0 -0.00000000000E+00 -0.00000000000E+00 -0.45593999997E+02  0.45594000000E+02  0.51100000000E-03 0. -1.
    9900012    2    1    2    0    0  0.29549886980E+02  0.27195259252E+02  0.63551100550E+01  0.50528863633E+02  0.30000011498E+02 0.  0.
         12    1    1    2    0    0 -0.29549886980E+02 -0.27195259252E+02 -0.63551100550E+01  0.40659136367E+02  0.00000000000E+00 0. -1.
         11    1    3    3    0    0  0.96622058730E+00  0.60937529021E+01  0.47701844454E+01  0.77988503358E+01  0.51100000000E-03 0. -1.
        -11    1    3    3    0    0  0.60642088079E+00 -0.85189119730E+00  0.67182312545E+01  0.67991246750E+01  0.51100000000E-03 0.  1.
        -12    1    3    3    0    0  0.27977245512E+02  0.21953397547E+02 -0.51333056450E+01  0.35930888622E+02  0.00000000000E+00 0.  1.
</event>
<event>
 7    1  0.6624035E-013  0.5052886E+02  0.7816164E-02  0.1300439E+00
        -11   -1    0    0    0    0  0.00000000000E+00  0.00000000000E+00  0.45593999997E+02  0.45594000000E+02  0.51100000000E-03 0.  1.
         11   -1    0    0    0    0 -0.00000000000E+00 -0.00000000000E+00 -0.45593999997E+02  0.45594000000E+02  0.51100000000E-03 0. -1.
    9900012    2    1    2    0    0 -0.28185569521E+02  0.29273761412E+02 -0.13364361312E+01  0.50528862061E+02  0.30000006720E+02 0.  0.
         12    1    1    2    0    0  0.28185569521E+02 -0.29273761412E+02  0.13364361312E+01  0.40659137939E+02  0.00000000000E+00 0. -1.
         11    1    3    3    0    0  0.22480183921E+01  0.24442250571E+01  0.37178952128E+01  0.49850343926E+01  0.51100000000E-03 0. -1.
        -11    1    3    3    0    0 -0.52972101366E+01  0.38710224790E+01  0.68445372844E+01  0.94811888054E+01  0.51100000000E-03 0.  1.
        -12    1    3    3    0    0 -0.25136377777E+02  0.22958513876E+02 -0.11898868628E+02  0.36062638863E+02  0.00000000000E+00 0.  1.
</event>
<event>
 7    1  0.6624035E-013  0.5052886E+02  0.7816164E-02  0.1300439E+00
        -11   -1    0    0    0    0  0.00000000000E+00  0.00000000000E+00  0.45593999997E+02  0.45594000000E+02  0.51100000000E-03 0.  1.
         11   -1    0    0    0    0 -0.00000000000E+00 -0.00000000000E+00 -0.45593999997E+02  0.45594000000E+02  0.51100000000E-03 0. -1.
    9900012    2    1    2    0    0  0.42750931493E+01  0.19065670704E+02  0.35656546098E+02  0.50528862030E+02  0.30000006626E+02 0.  0.
         12    1    1    2    0    0 -0.42750931493E+01 -0.19065670704E+02 -0.35656546098E+02  0.40659137970E+02  0.00000000000E+00 0. -1.
         11    1    3    3    0    0  0.29290828836E+01  0.86712587523E+01  0.12802245392E+02  0.15737463017E+02  0.51100000000E-03 0.  1.
        -11    1    3    3    0    0  0.33491899570E+01  0.18029348026E+02  0.15841040734E+02  0.24232478937E+02  0.51100000000E-03 0. -1.
         12    1    3    3    0    0 -0.20031796914E+01 -0.76349360743E+01  0.70132599725E+01  0.10558920076E+02  0.00000000000E+00 0. -1.
</event>
<event>
 7    1  0.6624035E-013  0.5052886E+02  0.7816164E-02  0.1300439E+00
        -11   -1    0    0    0    0  0.00000000000E+00  0.00000000000E+00  0.45593999997E+02  0.45594000000E+02  0.51100000000E-03 0.  1.
         11   -1    0    0    0    0 -0.00000000000E+00 -0.00000000000E+00 -0.45593999997E+02  0.45594000000E+02  0.51100000000E-03 0. -1.
    9900012    2    1    2    0    0 -0.32300146022E+02 -0.37138615951E+01  0.24414615569E+02  0.50528860137E+02  0.30000000873E+02 0.  0.
         12    1    1    2    0    0  0.32300146022E+02  0.37138615951E+01 -0.24414615569E+02  0.40659139863E+02  0.00000000000E+00 0. -1.
         11    1    3    3    0    0 -0.96672044157E+01 -0.10735911671E+02  0.32547168590E+01  0.14809045301E+02  0.51100000000E-03 0. -1.
        -11    1    3    3    0    0 -0.62209011857E+01 -0.49780176390E+01  0.31792954279E+01  0.85783559529E+01  0.51100000000E-03 0.  1.
         12    1    3    3    0    0 -0.16412040421E+02  0.12000067715E+02  0.17980603282E+02  0.27141458884E+02  0.00000000000E+00 0. -1.
</event>
<event>
 7    1  0.6624035E-013  0.5052885E+02  0.7816164E-02  0.1300439E+00
        -11   -1    0    0    0    0  0.00000000000E+00  0.00000000000E+00  0.45593999997E+02  0.45594000000E+02  0.51100000000E-03 0. -1.
         11   -1    0    0    0    0 -0.00000000000E+00 -0.00000000000E+00 -0.45593999997E+02  0.45594000000E+02  0.51100000000E-03 0.  1.
    9900012    2    1    2    0    0  0.87361767512E+01 -0.39252507582E+02 -0.60071717586E+01  0.50528852834E+02  0.29999978674E+02 0.  0.
         12    1    1    2    0    0 -0.87361767512E+01  0.39252507582E+02  0.60071717586E+01  0.40659147166E+02  0.00000000000E+00 0. -1.
         11    1    3    3    0    0  0.36886907299E+00  0.69981627653E+00 -0.47200593246E+01  0.47858925503E+01  0.51100000000E-03 0. -1.
        -11    1    3    3    0    0  0.74910091852E+01 -0.21399756942E+01  0.98268825827E+00  0.78524130723E+01  0.51100000000E-03 0.  1.
        -12    1    3    3    0    0  0.87629849304E+00 -0.37812348165E+02 -0.22698006922E+01  0.37890547211E+02  0.00000000000E+00 0.  1.
</event>
<event>
 7    1  0.6624035E-013  0.5052887E+02  0.7816164E-02  0.1300439E+00
        -11   -1    0    0    0    0  0.00000000000E+00  0.00000000000E+00  0.45593999997E+02  0.45594000000E+02  0.51100000000E-03 0. -1.
         11   -1    0    0    0    0 -0.00000000000E+00 -0.00000000000E+00 -0.45593999997E+02  0.45594000000E+02  0.51100000000E-03 0.  1.
    9900012    2    1    2    0    0  0.14759655542E+01  0.99236595706E+01 -0.39401868420E+02  0.50528871522E+02  0.30000035479E+02 0.  0.
         12    1    1    2    0    0 -0.14759655542E+01 -0.99236595706E+01  0.39401868420E+02  0.40659128478E+02  0.00000000000E+00 0. -1.
         11    1    3    3    0    0  0.23071728656E+01  0.60206357004E+01 -0.40290355175E+00  0.64601418252E+01  0.51100000000E-03 0. -1.
        -11    1    3    3    0    0  0.81121560740E+01  0.62125765969E+01 -0.27387637371E+02  0.29231590192E+02  0.51100000000E-03 0.  1.
        -12    1    3    3    0    0 -0.89433633854E+01 -0.23095527266E+01 -0.11611327498E+02  0.14837139505E+02  0.00000000000E+00 0.  1.
</event>
<event>
 7    1  0.6624035E-013  0.5052886E+02  0.7816164E-02  0.1300439E+00
        -11   -1    0    0    0    0  0.00000000000E+00  0.00000000000E+00  0.45593999997E+02  0.45594000000E+02  0.51100000000E-03 0.  1.
         11   -1    0    0    0    0 -0.00000000000E+00 -0.00000000000E+00 -0.45593999997E+02  0.45594000000E+02  0.51100000000E-03 0. -1.
    9900012    2    1    2    0    0  0.40884843240E+01  0.10701765057E+02  0.39011818778E+02  0.50528862235E+02  0.30000007251E+02 0.  0.
         12    1    1    2    0    0 -0.40884843240E+01 -0.10701765057E+02 -0.39011818778E+02  0.40659137765E+02  0.00000000000E+00 0. -1.
         11    1    3    3    0    0 -0.32913075581E+01  0.66885797683E+01  0.14972857780E+02  0.16725916272E+02  0.51100000000E-03 0. -1.
        -11    1    3    3    0    0 -0.28120577045E+01  0.24714590143E+01  0.23156790875E+02  0.23457466660E+02  0.51100000000E-03 0.  1.
        -12    1    3    3    0    0  0.10191849587E+02  0.15417262748E+01  0.88217012209E+00  0.10345479304E+02  0.00000000000E+00 0.  1.
</event>
<event>
 7    1  0.6624035E-013  0.5052887E+02  0.7816164E-02  0.1300439E+00
        -11   -1    0    0    0    0  0.00000000000E+00  0.00000000000E+00  0.45593999997E+02  0.45594000000E+02  0.51100000000E-03 0.  1.
         11   -1    0    0    0    0 -0.00000000000E+00 -0.00000000000E+00 -0.45593999997E+02  0.45594000000E+02  0.51100000000E-03 0. -1.
    9900012    2    1    2    0    0  0.33274489583E+02 -0.18208826516E+02 -0.14642820562E+02  0.50528865551E+02  0.30000017330E+02 0.  0.
         12    1    1    2    0    0 -0.33274489583E+02  0.18208826516E+02  0.14642820562E+02  0.40659134449E+02  0.00000000000E+00 0. -1.
         11    1    3    3    0    0  0.48291290671E+00 -0.15153819389E+01 -0.39621004532E+01  0.42694059960E+01  0.51100000000E-03 0. -1.
        -11    1    3    3    0    0 -0.36239646265E+01 -0.37410055572E+01  0.20040310480E+01  0.55807152674E+01  0.51100000000E-03 0.  1.
        -12    1    3    3    0    0  0.36415541303E+02 -0.12952439020E+02 -0.12684751157E+02  0.40678744288E+02  0.00000000000E+00 0.  1.
</event>
<event>
 7    1  0.6624035E-013  0.5052885E+02  0.7816164E-02  0.1300439E+00
        -11   -1    0    0    0    0  0.00000000000E+00  0.00000000000E+00  0.45593999997E+02  0.45594000000E+02  0.51100000000E-03 0.  1.
         11   -1    0    0    0    0 -0.00000000000E+00 -0.00000000000E+00 -0.45593999997E+02  0.45594000000E+02  0.51100000000E-03 0. -1.
    9900012    2    1    2    0    0  0.16505619844E+02 -0.20943424711E+02  0.30693706903E+02  0.50528853815E+02  0.29999981655E+02 0.  0.
         12    1    1    2    0    0 -0.16505619844E+02  0.20943424711E+02 -0.30693706903E+02  0.40659146185E+02  0.00000000000E+00 0. -1.
         11    1    3    3    0    0 -0.24621182601E+01  0.18399996033E-01  0.70343335855E+01  0.74527990809E+01  0.51100000000E-03 0. -1.
        -11    1    3    3    0    0  0.81322754877E+01 -0.68201422433E+00 -0.22204577158E+01  0.84575103156E+01  0.51100000000E-03 0.  1.
         12    1    3    3    0    0  0.10835462616E+02 -0.20279810482E+02  0.25879831034E+02  0.34618544418E+02  0.00000000000E+00 0. -1.
</event>
<event>
 7    1  0.6624035E-013  0.5052887E+02  0.7816164E-02  0.1300439E+00
        -11   -1    0    0    0    0  0.00000000000E+00  0.00000000000E+00  0.45593999997E+02  0.45594000000E+02  0.51100000000E-03 0.  1.
         11   -1    0    0    0    0 -0.00000000000E+00 -0.00000000000E+00 -0.45593999997E+02  0.45594000000E+02  0.51100000000E-03 0. -1.
    9900012    2    1    2    0    0 -0.37342955111E+02 -0.15734523780E+02  0.33306401052E+01  0.50528871892E+02  0.30000036602E+02 0.  0.
         12    1    1    2    0    0  0.37342955111E+02  0.15734523780E+02 -0.33306401052E+01  0.40659128108E+02  0.00000000000E+00 0. -1.
         11    1    3    3    0    0 -0.12746779475E+02 -0.61943497876E+01  0.10069042274E+02  0.17384935112E+02  0.51100000000E-03 0. -1.
        -11    1    3    3    0    0 -0.24447932351E+02 -0.11738061099E+02 -0.11580426310E+01  0.27144512109E+02  0.51100000000E-03 0.  1.
         12    1    3    3    0    0 -0.14824328522E+00  0.21978871073E+01 -0.55803595381E+01  0.59994246709E+01  0.00000000000E+00 0. -1.
</event>
<event>
 7    1  0.6624035E-013  0.5052885E+02  0.7816164E-02  0.1300439E+00
        -11   -1    0    0    0    0  0.00000000000E+00  0.00000000000E+00  0.45593999997E+02  0.45594000000E+02  0.51100000000E-03 0.  1.
         11   -1    0    0    0    0 -0.00000000000E+00 -0.00000000000E+00 -0.45593999997E+02  0.45594000000E+02  0.51100000000E-03 0. -1.
    9900012    2    1    2    0    0  0.13747224450E+02 -0.30505890960E+02  0.23099162615E+02  0.50528845104E+02  0.29999955179E+02 0.  0.
         12    1    1    2    0    0 -0.13747224450E+02  0.30505890960E+02 -0.23099162615E+02  0.40659154896E+02  0.00000000000E+00 0. -1.
         11    1    3    3    0    0  0.37842635595E+01 -0.11969719941E+02 -0.14544204437E+01  0.12637649514E+02  0.51100000000E-03 0.  1.
        -11    1    3    3    0    0  0.10148047203E+02 -0.73695503358E+00  0.13621305770E+02  0.17001939180E+02  0.51100000000E-03 0. -1.
         12    1    3    3    0    0 -0.18508631323E+00 -0.17799215985E+02  0.10932277289E+02  0.20889256410E+02  0.00000000000E+00 0. -1.
</event>
<event>
 7    1  0.6624035E-013  0.5052886E+02  0.7816164E-02  0.1300439E+00
        -11   -1    0    0    0    0  0.00000000000E+00  0.00000000000E+00  0.45593999997E+02  0.45594000000E+02  0.51100000000E-03 0.  1.
         11   -1    0    0    0    0 -0.00000000000E+00 -0.00000000000E+00 -0.45593999997E+02  0.45594000000E+02  0.51100000000E-03 0. -1.
    9900012    2    1    2    0    0 -0.27161649747E+01 -0.20984276452E+02  0.34719562417E+02  0.50528862960E+02  0.30000009454E+02 0.  0.
         12    1    1    2    0    0  0.27161649747E+01  0.20984276452E+02 -0.34719562417E+02  0.40659137040E+02  0.00000000000E+00 0. -1.
         11    1    3    3    0    0  0.91818026444E+00 -0.11657779204E+02  0.21210695459E+02  0.24220662111E+02  0.51100000000E-03 0. -1.
        -11    1    3    3    0    0 -0.16852266208E+01 -0.91532221974E+01  0.18630285730E+02  0.20825681550E+02  0.51100000000E-03 0.  1.
         12    1    3    3    0    0 -0.19491186183E+01 -0.17327505068E+00 -0.51214187722E+01  0.54825192997E+01  0.00000000000E+00 0. -1.
</event>
<event>
 7    1  0.9005951E-013  0.5052886E+02  0.7816164E-02  0.1300439E+00
        -11   -1    0    0    0    0  0.00000000000E+00  0.00000000000E+00  0.45593999997E+02  0.45594000000E+02  0.51100000000E-03 0. -1.
         11   -1    0    0    0    0 -0.00000000000E+00 -0.00000000000E+00 -0.45593999997E+02  0.45594000000E+02  0.51100000000E-03 0.  1.
    9900012    2    1    2    0    0  0.14579093335E+02 -0.10660543670E+02 -0.36427577370E+02  0.50528861459E+02  0.30000004891E+02 0.  0.
         12    1    1    2    0    0 -0.14579093335E+02  0.10660543670E+02  0.36427577370E+02  0.40659138541E+02  0.00000000000E+00 0. -1.
         11    1    3    3    0    0  0.11414028564E+01  0.36316430825E+01 -0.89419141826E+01  0.97185112784E+01  0.51100000000E-03 0. -1.
        -11    1    3    3    0    0  0.55104978439E+01 -0.51070681991E+01 -0.27674274449E+02  0.28676003881E+02  0.51100000000E-03 0.  1.
         12    1    3    3    0    0  0.79271926350E+01 -0.91851185531E+01  0.18861126060E+00  0.12134346299E+02  0.00000000000E+00 0. -1.
</event>
<event>
 7    1  0.6624035E-013  0.5052885E+02  0.7816164E-02  0.1300439E+00
        -11   -1    0    0    0    0  0.00000000000E+00  0.00000000000E+00  0.45593999997E+02  0.45594000000E+02  0.51100000000E-03 0.  1.
         11   -1    0    0    0    0 -0.00000000000E+00 -0.00000000000E+00 -0.45593999997E+02  0.45594000000E+02  0.51100000000E-03 0. -1.
    9900012    2    1    2    0    0  0.57666811265E+01 -0.11705366472E+02  0.38508394089E+02  0.50528848130E+02  0.29999964377E+02 0.  0.
         12    1    1    2    0    0 -0.57666811265E+01  0.11705366472E+02 -0.38508394089E+02  0.40659151870E+02  0.00000000000E+00 0. -1.
         11    1    3    3    0    0  0.17133526951E+02 -0.95977704771E+01  0.22790150282E+02  0.30084313089E+02  0.51100000000E-03 0. -1.
        -11    1    3    3    0    0 -0.50435941535E+00 -0.56075315119E+00 -0.46974633893E+00  0.88852934700E+00  0.51100000000E-03 0.  1.
        -12    1    3    3    0    0 -0.10862486409E+02 -0.15468428441E+01  0.16187990145E+02  0.19556005694E+02  0.00000000000E+00 0.  1.
</event>
<event>
 7    1  0.6624035E-013  0.5052885E+02  0.7816164E-02  0.1300439E+00
        -11   -1    0    0    0    0  0.00000000000E+00  0.00000000000E+00  0.45593999997E+02  0.45594000000E+02  0.51100000000E-03 0.  1.
         11   -1    0    0    0    0 -0.00000000000E+00 -0.00000000000E+00 -0.45593999997E+02  0.45594000000E+02  0.51100000000E-03 0. -1.
    9900012    2    1    2    0    0 -0.16453527221E+02  0.25810150376E+02  0.26763486819E+02  0.50528847928E+02  0.29999963763E+02 0.  0.
         12    1    1    2    0    0  0.16453527221E+02 -0.25810150376E+02 -0.26763486819E+02  0.40659152072E+02  0.00000000000E+00 0. -1.
         11    1    3    3    0    0 -0.10202768069E+02  0.16420708148E+02  0.83151723432E+01  0.21044672098E+02  0.51100000000E-03 0.  1.
        -11    1    3    3    0    0  0.45663747786E+00  0.13836871799E+02  0.70639595424E+01  0.15542427856E+02  0.51100000000E-03 0. -1.
        -12    1    3    3    0    0 -0.67073966307E+01 -0.44474295706E+01  0.11384354933E+02  0.13941747975E+02  0.00000000000E+00 0.  1.
</event>
<event>
 7    1  0.6624035E-013  0.5052886E+02  0.7816164E-02  0.1300439E+00
        -11   -1    0    0    0    0  0.00000000000E+00  0.00000000000E+00  0.45593999997E+02  0.45594000000E+02  0.51100000000E-03 0.  1.
         11   -1    0    0    0    0 -0.00000000000E+00 -0.00000000000E+00 -0.45593999997E+02  0.45594000000E+02  0.51100000000E-03 0. -1.
    9900012    2    1    2    0    0 -0.11686036348E+02 -0.59478889631E+01  0.38486687451E+02  0.50528856630E+02  0.29999990213E+02 0.  0.
         12    1    1    2    0    0  0.11686036348E+02  0.59478889631E+01 -0.38486687451E+02  0.40659143370E+02  0.00000000000E+00 0. -1.
         11    1    3    3    0    0  0.10391706717E+01 -0.67941802087E+01  0.65806801533E+01  0.95155720760E+01  0.51100000000E-03 0. -1.
        -11    1    3    3    0    0 -0.31134708910E+01 -0.67049403938E+01  0.61319420720E+00  0.74179467557E+01  0.51100000000E-03 0.  1.
         12    1    3    3    0    0 -0.96117361289E+01  0.75512316394E+01  0.31292813090E+02  0.33595337798E+02  0.00000000000E+00 0. -1.
</event>
<event>
 7    1  0.6624035E-013  0.5052885E+02  0.7816164E-02  0.1300439E+00
        -11   -1    0    0    0    0  0.00000000000E+00  0.00000000000E+00  0.45593999997E+02  0.45594000000E+02  0.51100000000E-03 0.  1.
         11   -1    0    0    0    0 -0.00000000000E+00 -0.00000000000E+00 -0.45593999997E+02  0.45594000000E+02  0.51100000000E-03 0. -1.
    9900012    2    1    2    0    0 -0.29123751928E+02  0.16064810215E+02  0.23385797544E+02  0.50528848750E+02  0.29999966259E+02 0.  0.
         12    1    1    2    0    0  0.29123751928E+02 -0.16064810215E+02 -0.23385797544E+02  0.40659151250E+02  0.00000000000E+00 0. -1.
         11    1    3    3    0    0 -0.18102604143E+02  0.82326138531E+01 -0.84607356752E+00  0.19904674033E+02  0.51100000000E-03 0. -1.
        -11    1    3    3    0    0 -0.26241322051E+00  0.57047751032E+01  0.24041978076E+01  0.61962478191E+01  0.51100000000E-03 0.  1.
         12    1    3    3    0    0 -0.10758734565E+02  0.21274212584E+01  0.21827673304E+02  0.24427926898E+02  0.00000000000E+00 0. -1.
</event>
<event>
 7    1  0.6624035E-013  0.5052889E+02  0.7816164E-02  0.1300439E+00
        -11   -1    0    0    0    0  0.00000000000E+00  0.00000000000E+00  0.45593999997E+02  0.45594000000E+02  0.51100000000E-03 0.  1.
         11   -1    0    0    0    0 -0.00000000000E+00 -0.00000000000E+00 -0.45593999997E+02  0.45594000000E+02  0.51100000000E-03 0. -1.
    9900012    2    1    2    0    0 -0.56839025758E+01 -0.12899936937E+02  0.38137227328E+02  0.50528889954E+02  0.30000091504E+02 0.  0.
         12    1    1    2    0    0  0.56839025758E+01  0.12899936937E+02 -0.38137227328E+02  0.40659110046E+02  0.00000000000E+00 0. -1.
         11    1    3    3    0    0  0.26404542876E+01 -0.41273144474E+01 -0.33311486982E+01  0.59248017101E+01  0.51100000000E-03 0. -1.
        -11    1    3    3    0    0  0.90451966594E+00 -0.67123228544E+01  0.20807921048E+02  0.21882481864E+02  0.51100000000E-03 0.  1.
        -12    1    3    3    0    0 -0.92288765294E+01 -0.20602996347E+01  0.20660454978E+02  0.22721606380E+02  0.00000000000E+00 0.  1.
</event>
<event>
 7    1  0.6624035E-013  0.5052886E+02  0.7816164E-02  0.1300439E+00
        -11   -1    0    0    0    0  0.00000000000E+00  0.00000000000E+00  0.45593999997E+02  0.45594000000E+02  0.51100000000E-03 0.  1.
         11   -1    0    0    0    0 -0.00000000000E+00 -0.00000000000E+00 -0.45593999997E+02  0.45594000000E+02  0.51100000000E-03 0. -1.
    9900012    2    1    2    0    0 -0.61921725455E+01 -0.33700346807E+02 -0.21888565995E+02  0.50528859612E+02  0.29999999278E+02 0.  0.
         12    1    1    2    0    0  0.61921725455E+01  0.33700346807E+02  0.21888565995E+02  0.40659140388E+02  0.00000000000E+00 0. -1.
         11    1    3    3    0    0  0.28551257692E+01  0.67082269682E+00  0.31387573720E+01  0.42957588794E+01  0.51100000000E-03 0. -1.
        -11    1    3    3    0    0  0.28625176910E+01 -0.11485381055E+01 -0.21657206562E+00  0.30919332192E+01  0.51100000000E-03 0.  1.
        -12    1    3    3    0    0 -0.11909816006E+02 -0.33222631398E+02 -0.24810751302E+02  0.43141167514E+02  0.00000000000E+00 0.  1.
</event>
<event>
 7    1  0.6624035E-013  0.5052886E+02  0.7816164E-02  0.1300439E+00
        -11   -1    0    0    0    0  0.00000000000E+00  0.00000000000E+00  0.45593999997E+02  0.45594000000E+02  0.51100000000E-03 0.  1.
         11   -1    0    0    0    0 -0.00000000000E+00 -0.00000000000E+00 -0.45593999997E+02  0.45594000000E+02  0.51100000000E-03 0. -1.
    9900012    2    1    2    0    0  0.23202223132E+02  0.23546438312E+02  0.23672510890E+02  0.50528859732E+02  0.29999999642E+02 0.  0.
         12    1    1    2    0    0 -0.23202223132E+02 -0.23546438312E+02 -0.23672510890E+02  0.40659140268E+02  0.00000000000E+00 0. -1.
         11    1    3    3    0    0 -0.67501795447E+00 -0.18973733375E+01  0.39615496029E+01  0.44440466174E+01  0.51100000000E-03 0.  1.
        -11    1    3    3    0    0  0.48217997606E+01  0.13064019824E+02 -0.26822699280E+01  0.14181429375E+02  0.51100000000E-03 0. -1.
         12    1    3    3    0    0  0.19055441326E+02  0.12379791825E+02  0.22393231216E+02  0.31903383740E+02  0.00000000000E+00 0. -1.
</event>
<event>
 7    1  0.6624035E-013  0.5052886E+02  0.7816164E-02  0.1300439E+00
        -11   -1    0    0    0    0  0.00000000000E+00  0.00000000000E+00  0.45593999997E+02  0.45594000000E+02  0.51100000000E-03 0.  1.
         11   -1    0    0    0    0 -0.00000000000E+00 -0.00000000000E+00 -0.45593999997E+02  0.45594000000E+02  0.51100000000E-03 0. -1.
    9900012    2    1    2    0    0 -0.35163585836E+02 -0.72114235833E+01  0.19096681909E+02  0.50528860082E+02  0.30000000704E+02 0.  0.
         12    1    1    2    0    0  0.35163585836E+02  0.72114235833E+01 -0.19096681909E+02  0.40659139918E+02  0.00000000000E+00 0. -1.
         11    1    3    3    0    0 -0.11154936912E+02 -0.87875164870E+01 -0.28275111900E+01  0.14479222469E+02  0.51100000000E-03 0. -1.
        -11    1    3    3    0    0 -0.14487969393E+02  0.30569143138E+01  0.34344987217E+01  0.15200058025E+02  0.51100000000E-03 0.  1.
        -12    1    3    3    0    0 -0.95206795317E+01 -0.14808214102E+01  0.18489694377E+02  0.20849579587E+02  0.00000000000E+00 0.  1.
</event>
<event>
 7    1  0.6624035E-013  0.5052888E+02  0.7816164E-02  0.1300439E+00
        -11   -1    0    0    0    0  0.00000000000E+00  0.00000000000E+00  0.45593999997E+02  0.45594000000E+02  0.51100000000E-03 0.  1.
         11   -1    0    0    0    0 -0.00000000000E+00 -0.00000000000E+00 -0.45593999997E+02  0.45594000000E+02  0.51100000000E-03 0. -1.
    9900012    2    1    2    0    0  0.14662339877E+01 -0.29857873345E+02  0.27559416380E+02  0.50528882031E+02  0.30000067422E+02 0.  0.
         12    1    1    2    0    0 -0.14662339877E+01  0.29857873345E+02 -0.27559416380E+02  0.40659117969E+02  0.00000000000E+00 0. -1.
         11    1    3    3    0    0  0.38121595882E+01 -0.11636004350E+02 -0.62485925995E+00  0.12260489685E+02  0.51100000000E-03 0. -1.
        -11    1    3    3    0    0 -0.45145302600E+01 -0.19368283341E+02  0.15137720550E+02  0.24993238421E+02  0.51100000000E-03 0.  1.
        -12    1    3    3    0    0  0.21686046595E+01  0.11464143465E+01  0.13046555090E+02  0.13275153925E+02  0.00000000000E+00 0.  1.
</event>
<event>
 7    1  0.8045018E-013  0.5052887E+02  0.7816164E-02  0.1300439E+00
        -11   -1    0    0    0    0  0.00000000000E+00  0.00000000000E+00  0.45593999997E+02  0.45594000000E+02  0.51100000000E-03 0. -1.
         11   -1    0    0    0    0 -0.00000000000E+00 -0.00000000000E+00 -0.45593999997E+02  0.45594000000E+02  0.51100000000E-03 0.  1.
    9900012    2    1    2    0    0  0.35860541228E+01  0.40175177514E+02  0.51244695951E+01  0.50528869892E+02  0.30000030525E+02 0.  0.
         12    1    1    2    0    0 -0.35860541228E+01 -0.40175177514E+02 -0.51244695951E+01  0.40659130108E+02  0.00000000000E+00 0. -1.
         11    1    3    3    0    0  0.54176541928E+01  0.20295168453E+02  0.29799880370E+01  0.21216153480E+02  0.51100000000E-03 0.  1.
        -11    1    3    3    0    0 -0.11227926224E+01  0.24514702953E+02  0.15976216472E+01  0.24592350830E+02  0.51100000000E-03 0. -1.
         12    1    3    3    0    0 -0.70880744765E+00 -0.46346938923E+01  0.54685991083E+00  0.47203655828E+01  0.00000000000E+00 0. -1.
</event>
<event>
 7    1  0.6624035E-013  0.5052886E+02  0.7816164E-02  0.1300439E+00
        -11   -1    0    0    0    0  0.00000000000E+00  0.00000000000E+00  0.45593999997E+02  0.45594000000E+02  0.51100000000E-03 0.  1.
         11   -1    0    0    0    0 -0.00000000000E+00 -0.00000000000E+00 -0.45593999997E+02  0.45594000000E+02  0.51100000000E-03 0. -1.
    9900012    2    1    2    0    0  0.91788295571E+01  0.38844649250E+02  0.77464830498E+01  0.50528859736E+02  0.29999999653E+02 0.  0.
         12    1    1    2    0    0 -0.91788295571E+01 -0.38844649250E+02 -0.77464830498E+01  0.40659140264E+02  0.00000000000E+00 0. -1.
         11    1    3    3    0    0 -0.24722243186E+01 -0.25870544695E+00  0.60642482714E+01  0.65539246980E+01  0.51100000000E-03 0. -1.
        -11    1    3    3    0    0  0.90261640936E+01  0.73483807779E+01  0.32142813791E+01  0.12074847550E+02  0.51100000000E-03 0.  1.
        -12    1    3    3    0    0  0.26248897821E+01  0.31754973919E+02 -0.15320466007E+01  0.31900087488E+02  0.00000000000E+00 0.  1.
</event>
<event>
 7    1  0.6624035E-013  0.5052884E+02  0.7816164E-02  0.1300439E+00
        -11   -1    0    0    0    0  0.00000000000E+00  0.00000000000E+00  0.45593999997E+02  0.45594000000E+02  0.51100000000E-03 0.  1.
         11   -1    0    0    0    0 -0.00000000000E+00 -0.00000000000E+00 -0.45593999997E+02  0.45594000000E+02  0.51100000000E-03 0. -1.
    9900012    2    1    2    0    0  0.29421488284E+02  0.10614364300E+02  0.25978431135E+02  0.50528836376E+02  0.29999928650E+02 0.  0.
         12    1    1    2    0    0 -0.29421488284E+02 -0.10614364300E+02 -0.25978431135E+02  0.40659163624E+02  0.00000000000E+00 0. -1.
         11    1    3    3    0    0  0.34215680100E+01  0.66970377371E+01  0.18756943816E+01  0.77508497453E+01  0.51100000000E-03 0. -1.
        -11    1    3    3    0    0  0.19070423011E+02  0.12538936114E+02  0.10165602851E+02  0.24984904127E+02  0.51100000000E-03 0.  1.
        -12    1    3    3    0    0  0.69294972630E+01 -0.86216095510E+01  0.13937133903E+02  0.17793082504E+02  0.00000000000E+00 0.  1.
</event>
<event>
 7    1  0.6624035E-013  0.5052886E+02  0.7816164E-02  0.1300439E+00
        -11   -1    0    0    0    0  0.00000000000E+00  0.00000000000E+00  0.45593999997E+02  0.45594000000E+02  0.51100000000E-03 0.  1.
         11   -1    0    0    0    0 -0.00000000000E+00 -0.00000000000E+00 -0.45593999997E+02  0.45594000000E+02  0.51100000000E-03 0. -1.
    9900012    2    1    2    0    0  0.30811801038E+02 -0.20961007445E+02  0.16261439368E+02  0.50528864168E+02  0.30000013125E+02 0.  0.
         12    1    1    2    0    0 -0.30811801038E+02  0.20961007445E+02 -0.16261439368E+02  0.40659135832E+02  0.00000000000E+00 0. -1.
         11    1    3    3    0    0  0.19122356475E+00  0.11052595267E+01 -0.43340655952E+01  0.44768616148E+01  0.51100000000E-03 0. -1.
        -11    1    3    3    0    0  0.93432314116E+01 -0.18066219791E+01  0.12245726470E+02  0.15508632217E+02  0.51100000000E-03 0.  1.
         12    1    3    3    0    0  0.21277346062E+02 -0.20259644992E+02  0.83497784929E+01  0.30543370337E+02  0.00000000000E+00 0. -1.
</event>
<event>
 7    1  0.6624035E-013  0.5052887E+02  0.7816164E-02  0.1300439E+00
        -11   -1    0    0    0    0  0.00000000000E+00  0.00000000000E+00  0.45593999997E+02  0.45594000000E+02  0.51100000000E-03 0.  1.
         11   -1    0    0    0    0 -0.00000000000E+00 -0.00000000000E+00 -0.45593999997E+02  0.45594000000E+02  0.51100000000E-03 0. -1.
    9900012    2    1    2    0    0  0.10368444870E+02 -0.37341624398E+02  0.12298928869E+02  0.50528865565E+02  0.30000017371E+02 0.  0.
         12    1    1    2    0    0 -0.10368444870E+02  0.37341624398E+02 -0.12298928869E+02  0.40659134435E+02  0.00000000000E+00 0. -1.
         11    1    3    3    0    0 -0.17705344907E+01 -0.17330900407E+02  0.33978396221E+01  0.17749372261E+02  0.51100000000E-03 0. -1.
        -11    1    3    3    0    0  0.13584102388E+01 -0.10737832847E+02  0.13979661608E+02  0.17679854965E+02  0.51100000000E-03 0.  1.
        -12    1    3    3    0    0  0.10780569121E+02 -0.92728911445E+01 -0.50785723611E+01  0.15099638340E+02  0.00000000000E+00 0.  1.
</event>
<event>
 7    1  0.6624035E-013  0.5052883E+02  0.7816164E-02  0.1300439E+00
        -11   -1    0    0    0    0  0.00000000000E+00  0.00000000000E+00  0.45593999997E+02  0.45594000000E+02  0.51100000000E-03 0.  1.
         11   -1    0    0    0    0 -0.00000000000E+00 -0.00000000000E+00 -0.45593999997E+02  0.45594000000E+02  0.51100000000E-03 0. -1.
    9900012    2    1    2    0    0  0.28425673656E+02  0.93572695839E+01  0.27524365766E+02  0.50528829722E+02  0.29999908422E+02 0.  0.
         12    1    1    2    0    0 -0.28425673656E+02 -0.93572695839E+01 -0.27524365766E+02  0.40659170278E+02  0.00000000000E+00 0. -1.
         11    1    3    3    0    0  0.15054749629E+02  0.21787048190E+01 -0.13101349630E+00  0.15212146656E+02  0.51100000000E-03 0. -1.
        -11    1    3    3    0    0  0.10360494228E+02  0.56868838686E+01  0.57282831370E+01  0.13133686335E+02  0.51100000000E-03 0.  1.
        -12    1    3    3    0    0  0.30104297990E+01  0.14916808963E+01  0.21927096126E+02  0.22182996731E+02  0.00000000000E+00 0.  1.
</event>
<event>
 7    1  0.6624035E-013  0.5052886E+02  0.7816164E-02  0.1300439E+00
        -11   -1    0    0    0    0  0.00000000000E+00  0.00000000000E+00  0.45593999997E+02  0.45594000000E+02  0.51100000000E-03 0.  1.
         11   -1    0    0    0    0 -0.00000000000E+00 -0.00000000000E+00 -0.45593999997E+02  0.45594000000E+02  0.51100000000E-03 0. -1.
    9900012    2    1    2    0    0 -0.36041696355E+02 -0.18124013389E+02  0.50677241570E+01  0.50528861228E+02  0.30000004190E+02 0.  0.
         12    1    1    2    0    0  0.36041696355E+02  0.18124013389E+02 -0.50677241570E+01  0.40659138772E+02  0.00000000000E+00 0. -1.
         11    1    3    3    0    0 -0.26529542110E+02 -0.19330995458E+02  0.37073436566E+01  0.33034048908E+02  0.51100000000E-03 0. -1.
        -11    1    3    3    0    0 -0.51343961299E+01 -0.65046267676E+01 -0.92264292447E+00  0.83380731127E+01  0.51100000000E-03 0.  1.
         12    1    3    3    0    0 -0.43777581156E+01  0.77116088366E+01  0.22830234249E+01  0.91567392082E+01  0.00000000000E+00 0. -1.
</event>
<event>
 7    1  0.6624035E-013  0.5052886E+02  0.7816164E-02  0.1300439E+00
        -11   -1    0    0    0    0  0.00000000000E+00  0.00000000000E+00  0.45593999997E+02  0.45594000000E+02  0.51100000000E-03 0. -1.
         11   -1    0    0    0    0 -0.00000000000E+00 -0.00000000000E+00 -0.45593999997E+02  0.45594000000E+02  0.51100000000E-03 0.  1.
    9900012    2    1    2    0    0  0.91744087722E+01 -0.35555570806E+02 -0.17458448407E+02  0.50528858193E+02  0.29999994965E+02 0.  0.
         12    1    1    2    0    0 -0.91744087722E+01  0.35555570806E+02  0.17458448407E+02  0.40659141807E+02  0.00000000000E+00 0. -1.
         11    1    3    3    0    0  0.81610177851E+01 -0.51975236206E+01 -0.37420759643E+01  0.10373986498E+02  0.51100000000E-03 0. -1.
        -11    1    3    3    0    0  0.79834235076E+01 -0.30731677622E+01  0.57727851681E+00  0.85739525158E+01  0.51100000000E-03 0.  1.
         12    1    3    3    0    0 -0.69700325205E+01 -0.27284879423E+02 -0.14293650960E+02  0.31580919180E+02  0.00000000000E+00 0. -1.
</event>
<event>
 7    1  0.6624035E-013  0.5052886E+02  0.7816164E-02  0.1300439E+00
        -11   -1    0    0    0    0  0.00000000000E+00  0.00000000000E+00  0.45593999997E+02  0.45594000000E+02  0.51100000000E-03 0.  1.
         11   -1    0    0    0    0 -0.00000000000E+00 -0.00000000000E+00 -0.45593999997E+02  0.45594000000E+02  0.51100000000E-03 0. -1.
    9900012    2    1    2    0    0  0.15700878004E+02 -0.17370433321E+02 -0.33240280762E+02  0.50528858482E+02  0.29999995843E+02 0.  0.
         12    1    1    2    0    0 -0.15700878004E+02  0.17370433321E+02  0.33240280762E+02  0.40659141518E+02  0.00000000000E+00 0. -1.
         11    1    3    3    0    0 -0.57990790321E+00 -0.24751463908E+01 -0.55450783400E+01  0.61000440073E+01  0.51100000000E-03 0. -1.
        -11    1    3    3    0    0  0.13754125556E+02 -0.18248584782E+02 -0.31396238963E+02  0.38831825062E+02  0.51100000000E-03 0.  1.
        -12    1    3    3    0    0  0.25266603511E+01  0.33532978522E+01  0.37010365411E+01  0.55969894134E+01  0.00000000000E+00 0.  1.
</event>
<event>
 7    1  0.6624035E-013  0.5052885E+02  0.7816164E-02  0.1300439E+00
        -11   -1    0    0    0    0  0.00000000000E+00  0.00000000000E+00  0.45593999997E+02  0.45594000000E+02  0.51100000000E-03 0. -1.
         11   -1    0    0    0    0 -0.00000000000E+00 -0.00000000000E+00 -0.45593999997E+02  0.45594000000E+02  0.51100000000E-03 0.  1.
    9900012    2    1    2    0    0 -0.14311942514E+02 -0.10540482229E+02 -0.36568192410E+02  0.50528853916E+02  0.29999981963E+02 0.  0.
         12    1    1    2    0    0  0.14311942514E+02  0.10540482229E+02  0.36568192410E+02  0.40659146084E+02  0.00000000000E+00 0. -1.
         11    1    3    3    0    0 -0.14710670996E+02 -0.68230184584E+01 -0.33267721990E+02  0.37009441346E+02  0.51100000000E-03 0. -1.
        -11    1    3    3    0    0 -0.53159407553E+01 -0.35845929121E+00 -0.42598607159E+01  0.68215931246E+01  0.51100000000E-03 0.  1.
         12    1    3    3    0    0  0.57146692369E+01 -0.33590044798E+01  0.95939029645E+00  0.66978194454E+01  0.00000000000E+00 0. -1.
</event>
<event>
 7    1  0.6624035E-013  0.5052880E+02  0.7816164E-02  0.1300439E+00
        -11   -1    0    0    0    0  0.00000000000E+00  0.00000000000E+00  0.45593999997E+02  0.45594000000E+02  0.51100000000E-03 0. -1.
         11   -1    0    0    0    0 -0.00000000000E+00 -0.00000000000E+00 -0.45593999997E+02  0.45594000000E+02  0.51100000000E-03 0.  1.
    9900012    2    1    2    0    0  0.19067941947E+02  0.34568611662E+02  0.97260014925E+01  0.50528801442E+02  0.29999822463E+02 0.  0.
         12    1    1    2    0    0 -0.19067941947E+02 -0.34568611662E+02 -0.97260014925E+01  0.40659198558E+02  0.00000000000E+00 0. -1.
         11    1    3    3    0    0  0.11632146017E+02  0.74965346528E+01 -0.29937537962E+01  0.14158651589E+02  0.51100000000E-03 0. -1.
        -11    1    3    3    0    0  0.67633468728E+01  0.49256058268E+00 -0.25328460903E+00  0.67859877840E+01  0.51100000000E-03 0.  1.
         12    1    3    3    0    0  0.67244905796E+00  0.26579516426E+02  0.12973039898E+02  0.29584162070E+02  0.00000000000E+00 0. -1.
</event>
<event>
 7    1  0.6624035E-013  0.5052883E+02  0.7816164E-02  0.1300439E+00
        -11   -1    0    0    0    0  0.00000000000E+00  0.00000000000E+00  0.45593999997E+02  0.45594000000E+02  0.51100000000E-03 0. -1.
         11   -1    0    0    0    0 -0.00000000000E+00 -0.00000000000E+00 -0.45593999997E+02  0.45594000000E+02  0.51100000000E-03 0.  1.
    9900012    2    1    2    0    0 -0.17420613261E+02  0.34595944650E+02 -0.12361663489E+02  0.50528832807E+02  0.29999917799E+02 0.  0.
         12    1    1    2    0    0  0.17420613261E+02 -0.34595944650E+02  0.12361663489E+02  0.40659167193E+02  0.00000000000E+00 0. -1.
         11    1    3    3    0    0 -0.14151401517E+02  0.32179902292E+02 -0.11195247242E+02  0.36893655789E+02  0.51100000000E-03 0. -1.
        -11    1    3    3    0    0 -0.49673697347E-01  0.75048147883E+01 -0.18365846499E-01  0.75050016688E+01  0.51100000000E-03 0.  1.
        -12    1    3    3    0    0 -0.32195380468E+01 -0.50887724304E+01 -0.11480504007E+01  0.61301753487E+01  0.00000000000E+00 0.  1.
</event>
<event>
 7    1  0.6624035E-013  0.5052886E+02  0.7816164E-02  0.1300439E+00
        -11   -1    0    0    0    0  0.00000000000E+00  0.00000000000E+00  0.45593999997E+02  0.45594000000E+02  0.51100000000E-03 0. -1.
         11   -1    0    0    0    0 -0.00000000000E+00 -0.00000000000E+00 -0.45593999997E+02  0.45594000000E+02  0.51100000000E-03 0.  1.
    9900012    2    1    2    0    0  0.35273610204E+02 -0.64435505218E+01  0.19168170448E+02  0.50528859841E+02  0.29999999973E+02 0.  0.
         12    1    1    2    0    0 -0.35273610204E+02  0.64435505218E+01 -0.19168170448E+02  0.40659140159E+02  0.00000000000E+00 0. -1.
         11    1    3    3    0    0  0.96507848446E+01  0.19365559151E+01  0.13297279182E+02  0.16544048200E+02  0.51100000000E-03 0. -1.
        -11    1    3    3    0    0  0.25717064351E+02 -0.12221379039E+02  0.20201027313E+01  0.28544882549E+02  0.51100000000E-03 0.  1.
         12    1    3    3    0    0 -0.94238991184E-01  0.38412726021E+01  0.38507885339E+01  0.54399290918E+01  0.00000000000E+00 0. -1.
</event>
<event>
 7    1  0.6624035E-013  0.5052886E+02  0.7816164E-02  0.1300439E+00
        -11   -1    0    0    0    0  0.00000000000E+00  0.00000000000E+00  0.45593999997E+02  0.45594000000E+02  0.51100000000E-03 0.  1.
         11   -1    0    0    0    0 -0.00000000000E+00 -0.00000000000E+00 -0.45593999997E+02  0.45594000000E+02  0.51100000000E-03 0. -1.
    9900012    2    1    2    0    0  0.68081965484E+01  0.37767263774E+02  0.13433094493E+02  0.50528858582E+02  0.29999996145E+02 0.  0.
         12    1    1    2    0    0 -0.68081965484E+01 -0.37767263774E+02 -0.13433094493E+02  0.40659141418E+02  0.00000000000E+00 0. -1.
         11    1    3    3    0    0  0.39230290284E+01  0.15979892340E+02  0.99764244348E+01  0.19242561179E+02  0.51100000000E-03 0. -1.
        -11    1    3    3    0    0  0.28149140926E+00  0.23879715246E+02  0.84040121804E+01  0.25316940151E+02  0.51100000000E-03 0.  1.
         12    1    3    3    0    0  0.26036761107E+01 -0.20923438122E+01 -0.49473421222E+01  0.59693572512E+01  0.00000000000E+00 0. -1.
</event>
<event>
 7    1  0.6624035E-013  0.5052885E+02  0.7816164E-02  0.1300439E+00
        -11   -1    0    0    0    0  0.00000000000E+00  0.00000000000E+00  0.45593999997E+02  0.45594000000E+02  0.51100000000E-03 0.  1.
         11   -1    0    0    0    0 -0.00000000000E+00 -0.00000000000E+00 -0.45593999997E+02  0.45594000000E+02  0.51100000000E-03 0. -1.
    9900012    2    1    2    0    0  0.76698918995E+01 -0.45035040418E+01  0.39674392026E+02  0.50528853759E+02  0.29999981487E+02 0.  0.
         12    1    1    2    0    0 -0.76698918995E+01  0.45035040418E+01 -0.39674392026E+02  0.40659146241E+02  0.00000000000E+00 0. -1.
         11    1    3    3    0    0 -0.29242874286E+01  0.13349862895E+01  0.13489130043E+02  0.13866876899E+02  0.51100000000E-03 0. -1.
        -11    1    3    3    0    0  0.11280993110E+02 -0.82328815580E+01  0.29427533924E+02  0.32573315727E+02  0.51100000000E-03 0.  1.
         12    1    3    3    0    0 -0.68681378164E+00  0.23943912267E+01 -0.32422719420E+01  0.40886611333E+01  0.00000000000E+00 0. -1.
</event>
<event>
 7    1  0.6624035E-013  0.5052886E+02  0.7816164E-02  0.1300439E+00
        -11   -1    0    0    0    0  0.00000000000E+00  0.00000000000E+00  0.45593999997E+02  0.45594000000E+02  0.51100000000E-03 0.  1.
         11   -1    0    0    0    0 -0.00000000000E+00 -0.00000000000E+00 -0.45593999997E+02  0.45594000000E+02  0.51100000000E-03 0. -1.
    9900012    2    1    2    0    0  0.81085693518E+01  0.12717620855E+01  0.39822095659E+02  0.50528861072E+02  0.30000003713E+02 0.  0.
         12    1    1    2    0    0 -0.81085693518E+01 -0.12717620855E+01 -0.39822095659E+02  0.40659138928E+02  0.00000000000E+00 0. -1.
         11    1    3    3    0    0 -0.38939840892E+01 -0.28989168760E+01  0.81474698325E+01  0.94840970089E+01  0.51100000000E-03 0. -1.
        -11    1    3    3    0    0  0.17240540460E+01 -0.85326573448E+01  0.16921695780E+02  0.19029513710E+02  0.51100000000E-03 0.  1.
         12    1    3    3    0    0  0.10278499395E+02  0.12703336306E+02  0.14752930046E+02  0.22015250352E+02  0.00000000000E+00 0. -1.
</event>
<event>
 7    1  0.6624035E-013  0.5052887E+02  0.7816164E-02  0.1300439E+00
        -11   -1    0    0    0    0  0.00000000000E+00  0.00000000000E+00  0.45593999997E+02  0.45594000000E+02  0.51100000000E-03 0. -1.
         11   -1    0    0    0    0 -0.00000000000E+00 -0.00000000000E+00 -0.45593999997E+02  0.45594000000E+02  0.51100000000E-03 0.  1.
    9900012    2    1    2    0    0 -0.21808984184E+02 -0.38028159338E+01 -0.34103835229E+02  0.50528870920E+02  0.30000033650E+02 0.  0.
         12    1    1    2    0    0  0.21808984184E+02  0.38028159338E+01  0.34103835229E+02  0.40659129080E+02  0.00000000000E+00 0. -1.
         11    1    3    3    0    0 -0.15468274669E+02 -0.44108023862E+01 -0.56551512242E+01  0.17050027407E+02  0.51100000000E-03 0. -1.
        -11    1    3    3    0    0 -0.10603119279E+02 -0.12073269996E+01 -0.10610286779E+02  0.15048653186E+02  0.51100000000E-03 0.  1.
        -12    1    3    3    0    0  0.42624097639E+01  0.18153134520E+01 -0.17838397226E+02  0.18430190327E+02  0.00000000000E+00 0.  1.
</event>
<event>
 7    1  0.6624035E-013  0.5052885E+02  0.7816164E-02  0.1300439E+00
        -11   -1    0    0    0    0  0.00000000000E+00  0.00000000000E+00  0.45593999997E+02  0.45594000000E+02  0.51100000000E-03 0.  1.
         11   -1    0    0    0    0 -0.00000000000E+00 -0.00000000000E+00 -0.45593999997E+02  0.45594000000E+02  0.51100000000E-03 0. -1.
    9900012    2    1    2    0    0  0.83104143239E+00  0.59151135224E+01  0.40217995569E+02  0.50528851393E+02  0.29999974295E+02 0.  0.
         12    1    1    2    0    0 -0.83104143239E+00 -0.59151135224E+01 -0.40217995569E+02  0.40659148607E+02  0.00000000000E+00 0. -1.
         11    1    3    3    0    0 -0.24787013550E+00  0.58909087264E+01  0.49881396490E+01  0.77230682145E+01  0.51100000000E-03 0. -1.
        -11    1    3    3    0    0  0.23528456852E+00  0.11693963246E+02  0.23437490907E+02  0.26193894623E+02  0.51100000000E-03 0.  1.
        -12    1    3    3    0    0  0.84362699938E+00 -0.11669758450E+02  0.11792365013E+02  0.16611888556E+02  0.00000000000E+00 0.  1.
</event>
<event>
 7    1  0.6624035E-013  0.5052887E+02  0.7816164E-02  0.1300439E+00
        -11   -1    0    0    0    0  0.00000000000E+00  0.00000000000E+00  0.45593999997E+02  0.45594000000E+02  0.51100000000E-03 0. -1.
         11   -1    0    0    0    0 -0.00000000000E+00 -0.00000000000E+00 -0.45593999997E+02  0.45594000000E+02  0.51100000000E-03 0.  1.
    9900012    2    1    2    0    0  0.62966673639E+01  0.10922795484E+02 -0.38655008638E+02  0.50528866047E+02  0.30000018835E+02 0.  0.
         12    1    1    2    0    0 -0.62966673639E+01 -0.10922795484E+02  0.38655008638E+02  0.40659133953E+02  0.00000000000E+00 0. -1.
         11    1    3    3    0    0  0.96650651211E+01  0.13371540323E+02 -0.15393546360E+02  0.22564858613E+02  0.51100000000E-03 0. -1.
        -11    1    3    3    0    0  0.52809192369E+01 -0.41262322812E+01 -0.95966299131E+01  0.11705093198E+02  0.51100000000E-03 0.  1.
        -12    1    3    3    0    0 -0.86493169940E+01  0.16774874418E+01 -0.13664832364E+02  0.16258914236E+02  0.00000000000E+00 0.  1.
</event>
<event>
 7    1  0.6624035E-013  0.5052886E+02  0.7816164E-02  0.1300439E+00
        -11   -1    0    0    0    0  0.00000000000E+00  0.00000000000E+00  0.45593999997E+02  0.45594000000E+02  0.51100000000E-03 0. -1.
         11   -1    0    0    0    0 -0.00000000000E+00 -0.00000000000E+00 -0.45593999997E+02  0.45594000000E+02  0.51100000000E-03 0.  1.
    9900012    2    1    2    0    0  0.31964155034E+02  0.25029627061E+02  0.22307166974E+01  0.50528861608E+02  0.30000005343E+02 0.  0.
         12    1    1    2    0    0 -0.31964155034E+02 -0.25029627061E+02 -0.22307166974E+01  0.40659138392E+02  0.00000000000E+00 0. -1.
         11    1    3    3    0    0  0.23111311522E+00 -0.19329851971E+01  0.15244294692E+01  0.24725959055E+01  0.51100000000E-03 0. -1.
        -11    1    3    3    0    0  0.28148706209E+02  0.24233815587E+02 -0.82340811898E+01  0.38045072906E+02  0.51100000000E-03 0.  1.
         12    1    3    3    0    0  0.35843357094E+01  0.27287966710E+01  0.89403684180E+01  0.10011192796E+02  0.00000000000E+00 0. -1.
</event>
<event>
 7    1  0.6624035E-013  0.5052886E+02  0.7816164E-02  0.1300439E+00
        -11   -1    0    0    0    0  0.00000000000E+00  0.00000000000E+00  0.45593999997E+02  0.45594000000E+02  0.51100000000E-03 0.  1.
         11   -1    0    0    0    0 -0.00000000000E+00 -0.00000000000E+00 -0.45593999997E+02  0.45594000000E+02  0.51100000000E-03 0. -1.
    9900012    2    1    2    0    0 -0.39786391110E+02  0.25232396894E+01  0.79901134069E+01  0.50528861196E+02  0.30000004090E+02 0.  0.
         12    1    1    2    0    0  0.39786391110E+02 -0.25232396894E+01 -0.79901134069E+01  0.40659138804E+02  0.00000000000E+00 0. -1.
         11    1    3    3    0    0 -0.27550089139E+01  0.19464083200E+01 -0.29780751586E+00  0.33863356362E+01  0.51100000000E-03 0.  1.
        -11    1    3    3    0    0 -0.21834390633E+02 -0.13195735794E+02  0.15675489941E+01  0.25560228238E+02  0.51100000000E-03 0. -1.
         12    1    3    3    0    0 -0.15196991563E+02  0.13772567163E+02  0.67203719286E+01  0.21582297322E+02  0.00000000000E+00 0. -1.
</event>
<event>
 7    1  0.6624035E-013  0.5052886E+02  0.7816164E-02  0.1300439E+00
        -11   -1    0    0    0    0  0.00000000000E+00  0.00000000000E+00  0.45593999997E+02  0.45594000000E+02  0.51100000000E-03 0. -1.
         11   -1    0    0    0    0 -0.00000000000E+00 -0.00000000000E+00 -0.45593999997E+02  0.45594000000E+02  0.51100000000E-03 0.  1.
    9900012    2    1    2    0    0  0.31489038470E+02 -0.79276935742E+01 -0.24469525166E+02  0.50528861654E+02  0.30000005484E+02 0.  0.
         12    1    1    2    0    0 -0.31489038470E+02  0.79276935742E+01  0.24469525166E+02  0.40659138346E+02  0.00000000000E+00 0. -1.
         11    1    3    3    0    0  0.17929977194E+02  0.52919336123E+01 -0.34811129356E+01  0.19015961481E+02  0.51100000000E-03 0. -1.
        -11    1    3    3    0    0  0.69985676786E+01  0.15897552113E+01 -0.80297376155E+01  0.10769584840E+02  0.51100000000E-03 0.  1.
         12    1    3    3    0    0  0.65604935981E+01 -0.14809382398E+02 -0.12958674615E+02  0.20743315333E+02  0.00000000000E+00 0. -1.
</event>
<event>
 7    1  0.6624035E-013  0.5052886E+02  0.7816164E-02  0.1300439E+00
        -11   -1    0    0    0    0  0.00000000000E+00  0.00000000000E+00  0.45593999997E+02  0.45594000000E+02  0.51100000000E-03 0.  1.
         11   -1    0    0    0    0 -0.00000000000E+00 -0.00000000000E+00 -0.45593999997E+02  0.45594000000E+02  0.51100000000E-03 0. -1.
    9900012    2    1    2    0    0  0.31145476423E+01  0.20320360734E+02  0.35079165525E+02  0.50528864234E+02  0.30000013325E+02 0.  0.
         12    1    1    2    0    0 -0.31145476423E+01 -0.20320360734E+02 -0.35079165525E+02  0.40659135766E+02  0.00000000000E+00 0. -1.
         11    1    3    3    0    0  0.28411560303E+01  0.22735902267E+02  0.26962161520E+02  0.35382927713E+02  0.51100000000E-03 0.  1.
        -11    1    3    3    0    0 -0.40362681276E+00  0.51583771064E+01  0.30091533436E+01  0.59855470161E+01  0.51100000000E-03 0. -1.
        -12    1    3    3    0    0  0.67701842476E+00 -0.75739186391E+01  0.51078506611E+01  0.91603895045E+01  0.00000000000E+00 0.  1.
</event>
<event>
 7    1  0.6624035E-013  0.5052885E+02  0.7816164E-02  0.1300439E+00
        -11   -1    0    0    0    0  0.00000000000E+00  0.00000000000E+00  0.45593999997E+02  0.45594000000E+02  0.51100000000E-03 0. -1.
         11   -1    0    0    0    0 -0.00000000000E+00 -0.00000000000E+00 -0.45593999997E+02  0.45594000000E+02  0.51100000000E-03 0.  1.
    9900012    2    1    2    0    0  0.17012998260E+02  0.31594151384E+02 -0.19118946459E+02  0.50528848199E+02  0.29999964586E+02 0.  0.
         12    1    1    2    0    0 -0.17012998260E+02 -0.31594151384E+02  0.19118946459E+02  0.40659151801E+02  0.00000000000E+00 0. -1.
         11    1    3    3    0    0  0.45368919943E+01  0.53383698473E+01 -0.14973290628E+02  0.16531213327E+02  0.51100000000E-03 0. -1.
        -11    1    3    3    0    0  0.79234993184E+01  0.17855003138E+02 -0.10831095046E+02  0.22335970959E+02  0.51100000000E-03 0.  1.
         12    1    3    3    0    0  0.45526069468E+01  0.84007783987E+01  0.66854392154E+01  0.11661663913E+02  0.00000000000E+00 0. -1.
</event>
<event>
 7    1  0.6624035E-013  0.5052886E+02  0.7816164E-02  0.1300439E+00
        -11   -1    0    0    0    0  0.00000000000E+00  0.00000000000E+00  0.45593999997E+02  0.45594000000E+02  0.51100000000E-03 0.  1.
         11   -1    0    0    0    0 -0.00000000000E+00 -0.00000000000E+00 -0.45593999997E+02  0.45594000000E+02  0.51100000000E-03 0. -1.
    9900012    2    1    2    0    0  0.21325414852E+02 -0.45257990715E+01  0.34320686839E+02  0.50528859319E+02  0.29999998385E+02 0.  0.
         12    1    1    2    0    0 -0.21325414852E+02  0.45257990715E+01 -0.34320686839E+02  0.40659140681E+02  0.00000000000E+00 0. -1.
         11    1    3    3    0    0  0.60207177682E+01  0.14935534311E+01  0.73922273551E+00  0.62470949096E+01  0.51100000000E-03 0. -1.
        -11    1    3    3    0    0  0.49316779139E+01 -0.81656673822E+01  0.50744347440E+00  0.95528566399E+01  0.51100000000E-03 0.  1.
         12    1    3    3    0    0  0.10373019170E+02  0.21463148796E+01  0.33074020629E+02  0.34728907769E+02  0.00000000000E+00 0. -1.
</event>
<event>
 7    1  0.6624035E-013  0.5052887E+02  0.7816164E-02  0.1300439E+00
        -11   -1    0    0    0    0  0.00000000000E+00  0.00000000000E+00  0.45593999997E+02  0.45594000000E+02  0.51100000000E-03 0.  1.
         11   -1    0    0    0    0 -0.00000000000E+00 -0.00000000000E+00 -0.45593999997E+02  0.45594000000E+02  0.51100000000E-03 0. -1.
    9900012    2    1    2    0    0  0.22813467298E+02 -0.13210795649E+02  0.30954576505E+02  0.50528865498E+02  0.30000017168E+02 0.  0.
         12    1    1    2    0    0 -0.22813467298E+02  0.13210795649E+02 -0.30954576505E+02  0.40659134502E+02  0.00000000000E+00 0. -1.
         11    1    3    3    0    0  0.11846967389E+02 -0.68139088909E+01  0.23530286859E+02  0.27211291601E+02  0.51100000000E-03 0. -1.
        -11    1    3    3    0    0  0.18877621105E+01 -0.74471541517E+00  0.11644927349E+02  0.11820430620E+02  0.51100000000E-03 0.  1.
         12    1    3    3    0    0  0.90787377985E+01 -0.56521713430E+01 -0.42206377025E+01  0.11497143276E+02  0.00000000000E+00 0. -1.
</event>
<event>
 7    1  0.6624035E-013  0.5052887E+02  0.7816164E-02  0.1300439E+00
        -11   -1    0    0    0    0  0.00000000000E+00  0.00000000000E+00  0.45593999997E+02  0.45594000000E+02  0.51100000000E-03 0.  1.
         11   -1    0    0    0    0 -0.00000000000E+00 -0.00000000000E+00 -0.45593999997E+02  0.45594000000E+02  0.51100000000E-03 0. -1.
    9900012    2    1    2    0    0 -0.26028452013E+02  0.11528098977E+02  0.29030796336E+02  0.50528874135E+02  0.30000043419E+02 0.  0.
         12    1    1    2    0    0  0.26028452013E+02 -0.11528098977E+02 -0.29030796336E+02  0.40659125865E+02  0.00000000000E+00 0. -1.
         11    1    3    3    0    0  0.23504475348E+01 -0.21659164634E+01 -0.12933660980E+01  0.34479840291E+01  0.51100000000E-03 0. -1.
        -11    1    3    3    0    0 -0.16695611421E+02  0.82581018042E+01  0.60252382855E+01  0.19576597835E+02  0.51100000000E-03 0.  1.
        -12    1    3    3    0    0 -0.11683288127E+02  0.54359136366E+01  0.24298924149E+02  0.27504292271E+02  0.00000000000E+00 0.  1.
</event>
<event>
 7    1  0.6624035E-013  0.5052886E+02  0.7816164E-02  0.1300439E+00
        -11   -1    0    0    0    0  0.00000000000E+00  0.00000000000E+00  0.45593999997E+02  0.45594000000E+02  0.51100000000E-03 0. -1.
         11   -1    0    0    0    0 -0.00000000000E+00 -0.00000000000E+00 -0.45593999997E+02  0.45594000000E+02  0.51100000000E-03 0.  1.
    9900012    2    1    2    0    0  0.93945610434E+01  0.29255174846E+02 -0.26627858388E+02  0.50528857426E+02  0.29999992633E+02 0.  0.
         12    1    1    2    0    0 -0.93945610434E+01 -0.29255174846E+02  0.26627858388E+02  0.40659142574E+02  0.00000000000E+00 0. -1.
         11    1    3    3    0    0 -0.68725196465E+00  0.18155642418E-01  0.13411450699E+01  0.15070883352E+01  0.51100000000E-03 0. -1.
        -11    1    3    3    0    0  0.56400398515E+01  0.18103595487E+02 -0.40714653486E+00  0.18966180102E+02  0.51100000000E-03 0.  1.
        -12    1    3    3    0    0  0.44417731565E+01  0.11133423716E+02 -0.27561856923E+02  0.30055588989E+02  0.00000000000E+00 0.  1.
</event>
<event>
 7    1  0.6624035E-013  0.5052886E+02  0.7816164E-02  0.1300439E+00
        -11   -1    0    0    0    0  0.00000000000E+00  0.00000000000E+00  0.45593999997E+02  0.45594000000E+02  0.51100000000E-03 0. -1.
         11   -1    0    0    0    0 -0.00000000000E+00 -0.00000000000E+00 -0.45593999997E+02  0.45594000000E+02  0.51100000000E-03 0.  1.
    9900012    2    1    2    0    0  0.34741544201E+02  0.14403801916E+02 -0.15450595884E+02  0.50528864295E+02  0.30000013512E+02 0.  0.
         12    1    1    2    0    0 -0.34741544201E+02 -0.14403801916E+02  0.15450595884E+02  0.40659135705E+02  0.00000000000E+00 0. -1.
         11    1    3    3    0    0  0.99563359826E+01  0.72888974791E+01 -0.90116374702E+00  0.12372095579E+02  0.51100000000E-03 0. -1.
        -11    1    3    3    0    0  0.22840909467E+02  0.93292457913E+00 -0.70519890932E+00  0.22870828566E+02  0.51100000000E-03 0.  1.
        -12    1    3    3    0    0  0.19442987512E+01  0.61819798574E+01 -0.13844233228E+02  0.15285940150E+02  0.00000000000E+00 0.  1.
</event>
<event>
 7    1  0.6624035E-013  0.5052885E+02  0.7816164E-02  0.1300439E+00
        -11   -1    0    0    0    0  0.00000000000E+00  0.00000000000E+00  0.45593999997E+02  0.45594000000E+02  0.51100000000E-03 0.  1.
         11   -1    0    0    0    0 -0.00000000000E+00 -0.00000000000E+00 -0.45593999997E+02  0.45594000000E+02  0.51100000000E-03 0. -1.
    9900012    2    1    2    0    0  0.53652483821E+00  0.20841864959E+02  0.34906955890E+02  0.50528846500E+02  0.29999959421E+02 0.  0.
         12    1    1    2    0    0 -0.53652483821E+00 -0.20841864959E+02 -0.34906955890E+02  0.40659153500E+02  0.00000000000E+00 0. -1.
         11    1    3    3    0    0  0.23916374627E+01 -0.85068131323E+00 -0.26622923957E+01  0.36785037054E+01  0.51100000000E-03 0. -1.
        -11    1    3    3    0    0 -0.89796458651E+00 -0.71675946416E+00 -0.14461891864E+01  0.18470376152E+01  0.51100000000E-03 0.  1.
        -12    1    3    3    0    0 -0.95714803802E+00  0.22409305736E+02  0.39015437472E+02  0.45003305179E+02  0.00000000000E+00 0.  1.
</event>
<event>
 7    1  0.6624035E-013  0.5052886E+02  0.7816164E-02  0.1300439E+00
        -11   -1    0    0    0    0  0.00000000000E+00  0.00000000000E+00  0.45593999997E+02  0.45594000000E+02  0.51100000000E-03 0. -1.
         11   -1    0    0    0    0 -0.00000000000E+00 -0.00000000000E+00 -0.45593999997E+02  0.45594000000E+02  0.51100000000E-03 0.  1.
    9900012    2    1    2    0    0  0.69936776125E+01  0.20721620478E+02  0.34276357151E+02  0.50528859069E+02  0.29999997625E+02 0.  0.
         12    1    1    2    0    0 -0.69936776125E+01 -0.20721620478E+02 -0.34276357151E+02  0.40659140931E+02  0.00000000000E+00 0. -1.
         11    1    3    3    0    0 -0.18134673283E+01  0.42081770747E+01  0.13452520337E+02  0.14211534813E+02  0.51100000000E-03 0. -1.
        -11    1    3    3    0    0  0.67653839678E+01  0.14669883176E+02  0.25910714912E+02  0.30534260105E+02  0.51100000000E-03 0.  1.
        -12    1    3    3    0    0  0.20417609730E+01  0.18435602270E+01 -0.50868780989E+01  0.57830641510E+01  0.00000000000E+00 0.  1.
</event>
<event>
 7    1  0.6624035E-013  0.5052886E+02  0.7816164E-02  0.1300439E+00
        -11   -1    0    0    0    0  0.00000000000E+00  0.00000000000E+00  0.45593999997E+02  0.45594000000E+02  0.51100000000E-03 0. -1.
         11   -1    0    0    0    0 -0.00000000000E+00 -0.00000000000E+00 -0.45593999997E+02  0.45594000000E+02  0.51100000000E-03 0.  1.
    9900012    2    1    2    0    0  0.15234892607E+02 -0.15868482093E+02 -0.34194368251E+02  0.50528862075E+02  0.30000006765E+02 0.  0.
         12    1    1    2    0    0 -0.15234892607E+02  0.15868482093E+02  0.34194368251E+02  0.40659137925E+02  0.00000000000E+00 0. -1.
         11    1    3    3    0    0  0.17505107943E+01 -0.13451010988E+01 -0.10841543970E+02  0.11064025530E+02  0.51100000000E-03 0. -1.
        -11    1    3    3    0    0 -0.57194387605E+01  0.18075516188E+01 -0.78172273423E+01  0.98533378188E+01  0.51100000000E-03 0.  1.
         12    1    3    3    0    0  0.19203820573E+02 -0.16330932613E+02 -0.15535596938E+02  0.29611498727E+02  0.00000000000E+00 0. -1.
</event>
<event>
 7    1  0.6624035E-013  0.5052887E+02  0.7816164E-02  0.1300439E+00
        -11   -1    0    0    0    0  0.00000000000E+00  0.00000000000E+00  0.45593999997E+02  0.45594000000E+02  0.51100000000E-03 0.  1.
         11   -1    0    0    0    0 -0.00000000000E+00 -0.00000000000E+00 -0.45593999997E+02  0.45594000000E+02  0.51100000000E-03 0. -1.
    9900012    2    1    2    0    0  0.28920637093E+02  0.15916892276E+01  0.28534684402E+02  0.50528868942E+02  0.30000027638E+02 0.  0.
         12    1    1    2    0    0 -0.28920637093E+02 -0.15916892276E+01 -0.28534684402E+02  0.40659131058E+02  0.00000000000E+00 0. -1.
         11    1    3    3    0    0  0.19588237960E+02 -0.89705258191E+00  0.17199762216E+02  0.26083243476E+02  0.51100000000E-03 0. -1.
        -11    1    3    3    0    0  0.15146699624E+02  0.57945176954E+00  0.10066051273E+02  0.18195704503E+02  0.51100000000E-03 0.  1.
         12    1    3    3    0    0 -0.58143004911E+01  0.19092900399E+01  0.12688709132E+01  0.62499209636E+01  0.00000000000E+00 0. -1.
</event>
<event>
 7    1  0.6624035E-013  0.5052887E+02  0.7816164E-02  0.1300439E+00
        -11   -1    0    0    0    0  0.00000000000E+00  0.00000000000E+00  0.45593999997E+02  0.45594000000E+02  0.51100000000E-03 0. -1.
         11   -1    0    0    0    0 -0.00000000000E+00 -0.00000000000E+00 -0.45593999997E+02  0.45594000000E+02  0.51100000000E-03 0.  1.
    9900012    2    1    2    0    0  0.89180102224E+01  0.73164695466E+01 -0.38988505743E+02  0.50528865565E+02  0.30000017372E+02 0.  0.
         12    1    1    2    0    0 -0.89180102224E+01 -0.73164695466E+01  0.38988505743E+02  0.40659134435E+02  0.00000000000E+00 0. -1.
         11    1    3    3    0    0  0.76157126017E+01 -0.14982320742E+01 -0.30410132433E+02  0.31385027205E+02  0.51100000000E-03 0. -1.
        -11    1    3    3    0    0  0.23924700248E+01 -0.15641899776E+01 -0.82187716510E+01  0.87016556366E+01  0.51100000000E-03 0.  1.
         12    1    3    3    0    0 -0.10901724040E+01  0.10378891598E+02 -0.35960165829E+00  0.10442182724E+02  0.00000000000E+00 0. -1.
</event>
<event>
 7    1  0.6624035E-013  0.5052887E+02  0.7816164E-02  0.1300439E+00
        -11   -1    0    0    0    0  0.00000000000E+00  0.00000000000E+00  0.45593999997E+02  0.45594000000E+02  0.51100000000E-03 0. -1.
         11   -1    0    0    0    0 -0.00000000000E+00 -0.00000000000E+00 -0.45593999997E+02  0.45594000000E+02  0.51100000000E-03 0.  1.
    9900012    2    1    2    0    0  0.22584342645E+02  0.27319490430E+02  0.19918775931E+02  0.50528871570E+02  0.30000035625E+02 0.  0.
         12    1    1    2    0    0 -0.22584342645E+02 -0.27319490430E+02 -0.19918775931E+02  0.40659128430E+02  0.00000000000E+00 0. -1.
         11    1    3    3    0    0 -0.11477934178E+00 -0.65017331092E+00 -0.22742243378E+01  0.23681208228E+01  0.51100000000E-03 0. -1.
        -11    1    3    3    0    0 -0.40151162965E+01  0.77842978665E+01  0.17544547513E+01  0.89327802998E+01  0.51100000000E-03 0.  1.
         12    1    3    3    0    0  0.26714238284E+02  0.20185365875E+02  0.20438545517E+02  0.39227970448E+02  0.00000000000E+00 0. -1.
</event>
<event>
 7    1  0.6624035E-013  0.5052886E+02  0.7816164E-02  0.1300439E+00
        -11   -1    0    0    0    0  0.00000000000E+00  0.00000000000E+00  0.45593999997E+02  0.45594000000E+02  0.51100000000E-03 0.  1.
         11   -1    0    0    0    0 -0.00000000000E+00 -0.00000000000E+00 -0.45593999997E+02  0.45594000000E+02  0.51100000000E-03 0. -1.
    9900012    2    1    2    0    0 -0.14955549110E+02  0.19905826529E+01  0.37756255976E+02  0.50528859160E+02  0.29999997904E+02 0.  0.
         12    1    1    2    0    0  0.14955549110E+02 -0.19905826529E+01 -0.37756255976E+02  0.40659140840E+02  0.00000000000E+00 0. -1.
         11    1    3    3    0    0  0.28314447854E+00 -0.14516098191E+00  0.88421984173E+01  0.88479215423E+01  0.51100000000E-03 0. -1.
        -11    1    3    3    0    0 -0.95179925014E+01  0.22200865522E+01  0.33150936940E+02  0.34561620127E+02  0.51100000000E-03 0.  1.
         12    1    3    3    0    0 -0.57207010867E+01 -0.84342917373E-01 -0.42368793806E+01  0.71193174910E+01  0.00000000000E+00 0. -1.
</event>
<event>
 7    1  0.6624035E-013  0.5052889E+02  0.7816164E-02  0.1300439E+00
        -11   -1    0    0    0    0  0.00000000000E+00  0.00000000000E+00  0.45593999997E+02  0.45594000000E+02  0.51100000000E-03 0.  1.
         11   -1    0    0    0    0 -0.00000000000E+00 -0.00000000000E+00 -0.45593999997E+02  0.45594000000E+02  0.51100000000E-03 0. -1.
    9900012    2    1    2    0    0 -0.13969696819E+02  0.95139912056E+01  0.36979651725E+02  0.50528891554E+02  0.30000096367E+02 0.  0.
         12    1    1    2    0    0  0.13969696819E+02 -0.95139912056E+01 -0.36979651725E+02  0.40659108446E+02  0.00000000000E+00 0. -1.
         11    1    3    3    0    0 -0.18131345508E+01  0.76745472357E+01  0.85228202421E+01  0.11611399455E+02  0.51100000000E-03 0. -1.
        -11    1    3    3    0    0 -0.12595603407E+02  0.28007386740E+01  0.32379066918E+02  0.34855377448E+02  0.51100000000E-03 0.  1.
        -12    1    3    3    0    0  0.43904113876E+00 -0.96129470416E+00 -0.39222354345E+01  0.40621146505E+01  0.00000000000E+00 0.  1.
</event>
<event>
 7    1  0.6624035E-013  0.5052886E+02  0.7816164E-02  0.1300439E+00
        -11   -1    0    0    0    0  0.00000000000E+00  0.00000000000E+00  0.45593999997E+02  0.45594000000E+02  0.51100000000E-03 0. -1.
         11   -1    0    0    0    0 -0.00000000000E+00 -0.00000000000E+00 -0.45593999997E+02  0.45594000000E+02  0.51100000000E-03 0.  1.
    9900012    2    1    2    0    0 -0.28793000481E+02 -0.10122408411E+02 -0.26863838357E+02  0.50528857855E+02  0.29999993936E+02 0.  0.
         12    1    1    2    0    0  0.28793000481E+02  0.10122408411E+02  0.26863838357E+02  0.40659142145E+02  0.00000000000E+00 0. -1.
         11    1    3    3    0    0  0.15578838904E+01  0.44300348371E+01 -0.39789051832E+01  0.61549896500E+01  0.51100000000E-03 0. -1.
        -11    1    3    3    0    0 -0.15849806278E+02  0.18171689006E+01 -0.74548067050E+01  0.17609446474E+02  0.51100000000E-03 0.  1.
        -12    1    3    3    0    0 -0.14501078093E+02 -0.16369612148E+02 -0.15430126469E+02  0.26764421731E+02  0.00000000000E+00 0.  1.
</event>
<event>
 7    1  0.6624035E-013  0.5052887E+02  0.7816164E-02  0.1300439E+00
        -11   -1    0    0    0    0  0.00000000000E+00  0.00000000000E+00  0.45593999997E+02  0.45594000000E+02  0.51100000000E-03 0.  1.
         11   -1    0    0    0    0 -0.00000000000E+00 -0.00000000000E+00 -0.45593999997E+02  0.45594000000E+02  0.51100000000E-03 0. -1.
    9900012    2    1    2    0    0  0.22815120196E+02  0.17087957127E+02  0.28993740468E+02  0.50528868496E+02  0.30000026281E+02 0.  0.
         12    1    1    2    0    0 -0.22815120196E+02 -0.17087957127E+02 -0.28993740468E+02  0.40659131504E+02  0.00000000000E+00 0. -1.
         11    1    3    3    0    0 -0.18011907009E+01  0.47163193110E+00  0.78807022613E+01  0.80976658990E+01  0.51100000000E-03 0. -1.
        -11    1    3    3    0    0  0.66746013218E+01 -0.11897141831E+01  0.14946418070E+02  0.16412225200E+02  0.51100000000E-03 0.  1.
         12    1    3    3    0    0  0.17941709576E+02  0.17806039379E+02  0.61666201362E+01  0.26018977397E+02  0.00000000000E+00 0. -1.
</event>
<event>
 7    1  0.6624035E-013  0.5052889E+02  0.7816164E-02  0.1300439E+00
        -11   -1    0    0    0    0  0.00000000000E+00  0.00000000000E+00  0.45593999997E+02  0.45594000000E+02  0.51100000000E-03 0. -1.
         11   -1    0    0    0    0 -0.00000000000E+00 -0.00000000000E+00 -0.45593999997E+02  0.45594000000E+02  0.51100000000E-03 0.  1.
    9900012    2    1    2    0    0 -0.24236886212E+02 -0.22714400070E+02 -0.23447652646E+02  0.50528892307E+02  0.30000098656E+02 0.  0.
         12    1    1    2    0    0  0.24236886212E+02  0.22714400070E+02  0.23447652646E+02  0.40659107693E+02  0.00000000000E+00 0. -1.
         11    1    3    3    0    0 -0.13304022963E+02 -0.37966800231E+01 -0.60405555512E+01  0.15096361079E+02  0.51100000000E-03 0. -1.
        -11    1    3    3    0    0 -0.16856237963E+02 -0.99086394796E+01 -0.80088642604E+01  0.21129500742E+02  0.51100000000E-03 0.  1.
         12    1    3    3    0    0  0.59233747143E+01 -0.90090805674E+01 -0.93982328344E+01  0.14303030486E+02  0.00000000000E+00 0. -1.
</event>
<event>
 7    1  0.6624035E-013  0.5052886E+02  0.7816164E-02  0.1300439E+00
        -11   -1    0    0    0    0  0.00000000000E+00  0.00000000000E+00  0.45593999997E+02  0.45594000000E+02  0.51100000000E-03 0.  1.
         11   -1    0    0    0    0 -0.00000000000E+00 -0.00000000000E+00 -0.45593999997E+02  0.45594000000E+02  0.51100000000E-03 0. -1.
    9900012    2    1    2    0    0 -0.29493769215E+02  0.27960859303E+02 -0.12139183858E+01  0.50528859904E+02  0.30000000165E+02 0.  0.
         12    1    1    2    0    0  0.29493769215E+02 -0.27960859303E+02  0.12139183858E+01  0.40659140096E+02  0.00000000000E+00 0. -1.
         11    1    3    3    0    0 -0.72009507682E+01 -0.98868585031E+00  0.59209712566E+01  0.93749182694E+01  0.51100000000E-03 0. -1.
        -11    1    3    3    0    0 -0.53047114017E+01 -0.13786934179E+01 -0.27008800479E+01  0.61102791990E+01  0.51100000000E-03 0.  1.
        -12    1    3    3    0    0 -0.16988107045E+02  0.30328238571E+02 -0.44340095945E+01  0.35043662436E+02  0.00000000000E+00 0.  1.
</event>
<event>
 7    1  0.6624035E-013  0.5052887E+02  0.7816164E-02  0.1300439E+00
        -11   -1    0    0    0    0  0.00000000000E+00  0.00000000000E+00  0.45593999997E+02  0.45594000000E+02  0.51100000000E-03 0.  1.
         11   -1    0    0    0    0 -0.00000000000E+00 -0.00000000000E+00 -0.45593999997E+02  0.45594000000E+02  0.51100000000E-03 0. -1.
    9900012    2    1    2    0    0  0.70837937405E+01 -0.30031125805E+02  0.26478597698E+02  0.50528870805E+02  0.30000033298E+02 0.  0.
         12    1    1    2    0    0 -0.70837937405E+01  0.30031125805E+02 -0.26478597698E+02  0.40659129195E+02  0.00000000000E+00 0. -1.
         11    1    3    3    0    0  0.31368927950E+01 -0.79851289379E+01  0.11246195787E+01  0.86525805411E+01  0.51100000000E-03 0. -1.
        -11    1    3    3    0    0  0.14346553734E+02 -0.13663318762E+02  0.17126419846E+02  0.26188244321E+02  0.51100000000E-03 0.  1.
         12    1    3    3    0    0 -0.10399652789E+02 -0.83826781055E+01  0.82275582730E+01  0.15688045942E+02  0.00000000000E+00 0. -1.
</event>
<event>
 7    1  0.6624035E-013  0.5052887E+02  0.7816164E-02  0.1300439E+00
        -11   -1    0    0    0    0  0.00000000000E+00  0.00000000000E+00  0.45593999997E+02  0.45594000000E+02  0.51100000000E-03 0.  1.
         11   -1    0    0    0    0 -0.00000000000E+00 -0.00000000000E+00 -0.45593999997E+02  0.45594000000E+02  0.51100000000E-03 0. -1.
    9900012    2    1    2    0    0  0.17265085503E+02  0.13684332327E+02  0.34173397800E+02  0.50528865161E+02  0.30000016143E+02 0.  0.
         12    1    1    2    0    0 -0.17265085503E+02 -0.13684332327E+02 -0.34173397800E+02  0.40659134839E+02  0.00000000000E+00 0. -1.
         11    1    3    3    0    0  0.35158297295E+01 -0.91897782585E+00  0.15653733084E+02  0.16070001203E+02  0.51100000000E-03 0. -1.
        -11    1    3    3    0    0  0.11897762386E+02  0.84050941861E+01  0.22543620211E+02  0.26840588119E+02  0.51100000000E-03 0.  1.
         12    1    3    3    0    0  0.18514933881E+01  0.61982159669E+01 -0.40239554953E+01  0.76182758395E+01  0.00000000000E+00 0. -1.
</event>
<event>
 7    1  0.6624035E-013  0.5052886E+02  0.7816164E-02  0.1300439E+00
        -11   -1    0    0    0    0  0.00000000000E+00  0.00000000000E+00  0.45593999997E+02  0.45594000000E+02  0.51100000000E-03 0.  1.
         11   -1    0    0    0    0 -0.00000000000E+00 -0.00000000000E+00 -0.45593999997E+02  0.45594000000E+02  0.51100000000E-03 0. -1.
    9900012    2    1    2    0    0 -0.19815232100E+02  0.10769501634E+02  0.33831057382E+02  0.50528855491E+02  0.29999986750E+02 0.  0.
         12    1    1    2    0    0  0.19815232100E+02 -0.10769501634E+02 -0.33831057382E+02  0.40659144509E+02  0.00000000000E+00 0. -1.
         11    1    3    3    0    0 -0.27817149970E+00 -0.31503952013E+01  0.53719626672E+01  0.62338072208E+01  0.51100000000E-03 0. -1.
        -11    1    3    3    0    0 -0.13835671039E+02 -0.44598792702E+01  0.14409925770E+02  0.20468568029E+02  0.51100000000E-03 0.  1.
         12    1    3    3    0    0 -0.57013895614E+01  0.18379776106E+02  0.14049168945E+02  0.23826480241E+02  0.00000000000E+00 0. -1.
</event>
<event>
 7    1  0.6624035E-013  0.5052885E+02  0.7816164E-02  0.1300439E+00
        -11   -1    0    0    0    0  0.00000000000E+00  0.00000000000E+00  0.45593999997E+02  0.45594000000E+02  0.51100000000E-03 0. -1.
         11   -1    0    0    0    0 -0.00000000000E+00 -0.00000000000E+00 -0.45593999997E+02  0.45594000000E+02  0.51100000000E-03 0.  1.
    9900012    2    1    2    0    0 -0.63799090683E+01  0.38911221582E+02 -0.99186716543E+01  0.50528850328E+02  0.29999971056E+02 0.  0.
         12    1    1    2    0    0  0.63799090683E+01 -0.38911221582E+02  0.99186716543E+01  0.40659149672E+02  0.00000000000E+00 0. -1.
         11    1    3    3    0    0  0.37998443361E+01  0.57300641538E+01  0.34808738795E+01  0.77064216996E+01  0.51100000000E-03 0. -1.
        -11    1    3    3    0    0  0.35907214564E+01  0.20326541413E+02 -0.12130493464E+02  0.23941813597E+02  0.51100000000E-03 0.  1.
         12    1    3    3    0    0 -0.13770474861E+02  0.12854616015E+02 -0.12690520702E+01  0.18880615031E+02  0.00000000000E+00 0. -1.
</event>
<event>
 7    1  0.6624035E-013  0.5052886E+02  0.7816164E-02  0.1300439E+00
        -11   -1    0    0    0    0  0.00000000000E+00  0.00000000000E+00  0.45593999997E+02  0.45594000000E+02  0.51100000000E-03 0. -1.
         11   -1    0    0    0    0 -0.00000000000E+00 -0.00000000000E+00 -0.45593999997E+02  0.45594000000E+02  0.51100000000E-03 0.  1.
    9900012    2    1    2    0    0  0.16637815676E+02  0.31918246491E+01 -0.36961618151E+02  0.50528857469E+02  0.29999992762E+02 0.  0.
         12    1    1    2    0    0 -0.16637815676E+02 -0.31918246491E+01  0.36961618151E+02  0.40659142531E+02  0.00000000000E+00 0. -1.
         11    1    3    3    0    0  0.34591347749E+01 -0.17380072850E+01  0.20038700769E+01  0.43591029192E+01  0.51100000000E-03 0. -1.
        -11    1    3    3    0    0  0.10914547913E+02  0.26137979901E+01 -0.54112705080E+01  0.12459580445E+02  0.51100000000E-03 0.  1.
         12    1    3    3    0    0  0.22641329876E+01  0.23160339440E+01 -0.33554217720E+02  0.33710174105E+02  0.00000000000E+00 0. -1.
</event>
<event>
 7    1  0.6624035E-013  0.5052871E+02  0.7816164E-02  0.1300439E+00
        -11   -1    0    0    0    0  0.00000000000E+00  0.00000000000E+00  0.45593999997E+02  0.45594000000E+02  0.51100000000E-03 0.  1.
         11   -1    0    0    0    0 -0.00000000000E+00 -0.00000000000E+00 -0.45593999997E+02  0.45594000000E+02  0.51100000000E-03 0. -1.
    9900012    2    1    2    0    0  0.11569659156E+02  0.55376687293E+01  0.38583088995E+02  0.50528713922E+02  0.29999556434E+02 0.  0.
         12    1    1    2    0    0 -0.11569659156E+02 -0.55376687293E+01 -0.38583088995E+02  0.40659286078E+02  0.00000000000E+00 0. -1.
         11    1    3    3    0    0 -0.25519006038E+00 -0.62516639146E+01  0.12205069965E+02  0.13715398528E+02  0.51100000000E-03 0. -1.
        -11    1    3    3    0    0  0.18346321392E+01  0.10848380037E+02  0.24144680280E+02  0.26533352796E+02  0.51100000000E-03 0.  1.
         12    1    3    3    0    0  0.99902170771E+01  0.94095260697E+00  0.22333387512E+01  0.10279962599E+02  0.00000000000E+00 0. -1.
</event>
<event>
 7    1  0.6624035E-013  0.5052886E+02  0.7816164E-02  0.1300439E+00
        -11   -1    0    0    0    0  0.00000000000E+00  0.00000000000E+00  0.45593999997E+02  0.45594000000E+02  0.51100000000E-03 0.  1.
         11   -1    0    0    0    0 -0.00000000000E+00 -0.00000000000E+00 -0.45593999997E+02  0.45594000000E+02  0.51100000000E-03 0. -1.
    9900012    2    1    2    0    0 -0.86849746129E+01 -0.28414327105E+02  0.27755409560E+02  0.50528861683E+02  0.30000005572E+02 0.  0.
         12    1    1    2    0    0  0.86849746129E+01  0.28414327105E+02 -0.27755409560E+02  0.40659138317E+02  0.00000000000E+00 0. -1.
         11    1    3    3    0    0 -0.97769512946E+00 -0.10394651622E+01 -0.23106203991E+01  0.27157581777E+01  0.51100000000E-03 0. -1.
        -11    1    3    3    0    0  0.80031517761E+01 -0.38339279888E+01  0.73307644249E+01  0.11510410483E+02  0.51100000000E-03 0.  1.
        -12    1    3    3    0    0 -0.15710431260E+02 -0.23540933954E+02  0.22735265534E+02  0.36302693022E+02  0.00000000000E+00 0.  1.
</event>
<event>
 7    1  0.6624035E-013  0.5052886E+02  0.7816164E-02  0.1300439E+00
        -11   -1    0    0    0    0  0.00000000000E+00  0.00000000000E+00  0.45593999997E+02  0.45594000000E+02  0.51100000000E-03 0.  1.
         11   -1    0    0    0    0 -0.00000000000E+00 -0.00000000000E+00 -0.45593999997E+02  0.45594000000E+02  0.51100000000E-03 0. -1.
    9900012    2    1    2    0    0  0.22049107123E+02 -0.23066025450E+02  0.25198437687E+02  0.50528856910E+02  0.29999991063E+02 0.  0.
         12    1    1    2    0    0 -0.22049107123E+02  0.23066025450E+02 -0.25198437687E+02  0.40659143090E+02  0.00000000000E+00 0. -1.
         11    1    3    3    0    0  0.11846066183E+02 -0.71927481382E+01  0.20948722078E+00  0.13860331704E+02  0.51100000000E-03 0. -1.
        -11    1    3    3    0    0  0.14719772168E+02 -0.14784894985E+02  0.24207448196E+02  0.31957242697E+02  0.51100000000E-03 0.  1.
        -12    1    3    3    0    0 -0.45167312281E+01 -0.10883823266E+01  0.78150227062E+00  0.47112825085E+01  0.00000000000E+00 0.  1.
</event>
<event>
 7    1  0.6624035E-013  0.5052888E+02  0.7816164E-02  0.1300439E+00
        -11   -1    0    0    0    0  0.00000000000E+00  0.00000000000E+00  0.45593999997E+02  0.45594000000E+02  0.51100000000E-03 0.  1.
         11   -1    0    0    0    0 -0.00000000000E+00 -0.00000000000E+00 -0.45593999997E+02  0.45594000000E+02  0.51100000000E-03 0. -1.
    9900012    2    1    2    0    0  0.36308233367E+02  0.11759330217E+02  0.14021219716E+02  0.50528877288E+02  0.30000053005E+02 0.  0.
         12    1    1    2    0    0 -0.36308233367E+02 -0.11759330217E+02 -0.14021219716E+02  0.40659122712E+02  0.00000000000E+00 0. -1.
         11    1    3    3    0    0  0.73205756526E+01 -0.53650778087E+00 -0.56247181437E+01  0.92474927922E+01  0.51100000000E-03 0. -1.
        -11    1    3    3    0    0  0.87101838322E+01 -0.52287786219E+00 -0.20196872609E+01  0.89565529386E+01  0.51100000000E-03 0.  1.
        -12    1    3    3    0    0  0.20277473882E+02  0.12818715860E+02  0.21665625121E+02  0.32324831557E+02  0.00000000000E+00 0.  1.
</event>
<event>
 7    1  0.8792310E-013  0.5052886E+02  0.7816164E-02  0.1300439E+00
        -11   -1    0    0    0    0  0.00000000000E+00  0.00000000000E+00  0.45593999997E+02  0.45594000000E+02  0.51100000000E-03 0. -1.
         11   -1    0    0    0    0 -0.00000000000E+00 -0.00000000000E+00 -0.45593999997E+02  0.45594000000E+02  0.51100000000E-03 0.  1.
    9900012    2    1    2    0    0 -0.19219942462E+02 -0.29953022168E+02 -0.19661526113E+02  0.50528864073E+02  0.30000012836E+02 0.  0.
         12    1    1    2    0    0  0.19219942462E+02  0.29953022168E+02  0.19661526113E+02  0.40659135927E+02  0.00000000000E+00 0. -1.
         11    1    3    3    0    0 -0.15517344315E+02 -0.14245566711E+02 -0.51696064292E+00  0.21071103295E+02  0.51100000000E-03 0. -1.
        -11    1    3    3    0    0 -0.50472999739E+01 -0.13880581191E+02 -0.57132810779E+01  0.15836266990E+02  0.51100000000E-03 0.  1.
         12    1    3    3    0    0  0.13447018271E+01 -0.18268742660E+01 -0.13431284392E+02  0.13621493788E+02  0.00000000000E+00 0. -1.
</event>
<event>
 7    1  0.6624035E-013  0.5052886E+02  0.7816164E-02  0.1300439E+00
        -11   -1    0    0    0    0  0.00000000000E+00  0.00000000000E+00  0.45593999997E+02  0.45594000000E+02  0.51100000000E-03 0.  1.
         11   -1    0    0    0    0 -0.00000000000E+00 -0.00000000000E+00 -0.45593999997E+02  0.45594000000E+02  0.51100000000E-03 0. -1.
    9900012    2    1    2    0    0 -0.28526739664E+02  0.25348553216E+02  0.14030024559E+02  0.50528860620E+02  0.30000002341E+02 0.  0.
         12    1    1    2    0    0  0.28526739664E+02 -0.25348553216E+02 -0.14030024559E+02  0.40659139380E+02  0.00000000000E+00 0. -1.
         11    1    3    3    0    0 -0.12217668111E+02 -0.20221286293E+00  0.15691763872E+01  0.12319684205E+02  0.51100000000E-03 0. -1.
        -11    1    3    3    0    0 -0.68203888451E+01  0.17013121643E+02 -0.25491257266E+01  0.18505730309E+02  0.51100000000E-03 0.  1.
         12    1    3    3    0    0 -0.94886827080E+01  0.85376444353E+01  0.15009973898E+02  0.19703446106E+02  0.00000000000E+00 0. -1.
</event>
<event>
 7    1  0.6624035E-013  0.5052886E+02  0.7816164E-02  0.1300439E+00
        -11   -1    0    0    0    0  0.00000000000E+00  0.00000000000E+00  0.45593999997E+02  0.45594000000E+02  0.51100000000E-03 0. -1.
         11   -1    0    0    0    0 -0.00000000000E+00 -0.00000000000E+00 -0.45593999997E+02  0.45594000000E+02  0.51100000000E-03 0.  1.
    9900012    2    1    2    0    0  0.26205610721E+02  0.19919222170E+02 -0.23867468437E+02  0.50528862101E+02  0.30000006841E+02 0.  0.
         12    1    1    2    0    0 -0.26205610721E+02 -0.19919222170E+02  0.23867468437E+02  0.40659137899E+02  0.00000000000E+00 0. -1.
         11    1    3    3    0    0  0.46416278121E+01 -0.20665679734E+01  0.18672015119E-01  0.50809212590E+01  0.51100000000E-03 0. -1.
        -11    1    3    3    0    0  0.21078208389E+02  0.52087416081E+01 -0.15560456666E+02  0.26712350514E+02  0.51100000000E-03 0.  1.
         12    1    3    3    0    0  0.48577451958E+00  0.16777048535E+02 -0.83256837860E+01  0.18735590328E+02  0.00000000000E+00 0. -1.
</event>
<event>
 7    1  0.6624035E-013  0.5052888E+02  0.7816164E-02  0.1300439E+00
        -11   -1    0    0    0    0  0.00000000000E+00  0.00000000000E+00  0.45593999997E+02  0.45594000000E+02  0.51100000000E-03 0. -1.
         11   -1    0    0    0    0 -0.00000000000E+00 -0.00000000000E+00 -0.45593999997E+02  0.45594000000E+02  0.51100000000E-03 0.  1.
    9900012    2    1    2    0    0  0.30687941758E+02 -0.26655479629E+02  0.94844069989E+00  0.50528881670E+02  0.30000066323E+02 0.  0.
         12    1    1    2    0    0 -0.30687941758E+02  0.26655479629E+02 -0.94844069989E+00  0.40659118330E+02  0.00000000000E+00 0. -1.
         11    1    3    3    0    0  0.17179902744E+02 -0.82450987328E+01  0.11476846422E+02  0.22245195334E+02  0.51100000000E-03 0. -1.
        -11    1    3    3    0    0  0.75128870488E+01 -0.14864462469E+01 -0.61006030966E+01  0.97913406976E+01  0.51100000000E-03 0.  1.
        -12    1    3    3    0    0  0.59951519659E+01 -0.16923934650E+02 -0.44278026254E+01  0.18492345638E+02  0.00000000000E+00 0.  1.
</event>
<event>
 7    1  0.6624035E-013  0.5052887E+02  0.7816164E-02  0.1300439E+00
        -11   -1    0    0    0    0  0.00000000000E+00  0.00000000000E+00  0.45593999997E+02  0.45594000000E+02  0.51100000000E-03 0. -1.
         11   -1    0    0    0    0 -0.00000000000E+00 -0.00000000000E+00 -0.45593999997E+02  0.45594000000E+02  0.51100000000E-03 0.  1.
    9900012    2    1    2    0    0 -0.10778251772E+02  0.21642449536E+02 -0.32689427275E+02  0.50528868323E+02  0.30000025754E+02 0.  0.
         12    1    1    2    0    0  0.10778251772E+02 -0.21642449536E+02  0.32689427275E+02  0.40659131677E+02  0.00000000000E+00 0. -1.
         11    1    3    3    0    0  0.33827746026E+00 -0.77378552043E+00  0.30500640453E+01  0.31648169952E+01  0.51100000000E-03 0. -1.
        -11    1    3    3    0    0  0.43067469547E+01  0.17032426535E+01 -0.24726408090E+01  0.52500531140E+01  0.51100000000E-03 0.  1.
        -12    1    3    3    0    0 -0.15423276187E+02  0.20712992403E+02 -0.33266850511E+02  0.42113998214E+02  0.00000000000E+00 0.  1.
</event>
<event>
 7    1  0.6624035E-013  0.5052885E+02  0.7816164E-02  0.1300439E+00
        -11   -1    0    0    0    0  0.00000000000E+00  0.00000000000E+00  0.45593999997E+02  0.45594000000E+02  0.51100000000E-03 0.  1.
         11   -1    0    0    0    0 -0.00000000000E+00 -0.00000000000E+00 -0.45593999997E+02  0.45594000000E+02  0.51100000000E-03 0. -1.
    9900012    2    1    2    0    0  0.21154062958E+02  0.28830998589E+02  0.19350591715E+02  0.50528852702E+02  0.29999978274E+02 0.  0.
         12    1    1    2    0    0 -0.21154062958E+02 -0.28830998589E+02 -0.19350591715E+02  0.40659147298E+02  0.00000000000E+00 0. -1.
         11    1    3    3    0    0  0.24805408027E+01 -0.36232732588E+00  0.55504664167E+01  0.60903235932E+01  0.51100000000E-03 0. -1.
        -11    1    3    3    0    0  0.18721865158E+02  0.75984934863E+01  0.98776590126E+01  0.22490297599E+02  0.51100000000E-03 0.  1.
        -12    1    3    3    0    0 -0.48343002831E-01  0.21594832429E+02  0.39224662858E+01  0.21948231510E+02  0.00000000000E+00 0.  1.
</event>
<event>
 7    1  0.7096785E-013  0.5052885E+02  0.7816164E-02  0.1300439E+00
        -11   -1    0    0    0    0  0.00000000000E+00  0.00000000000E+00  0.45593999997E+02  0.45594000000E+02  0.51100000000E-03 0. -1.
         11   -1    0    0    0    0 -0.00000000000E+00 -0.00000000000E+00 -0.45593999997E+02  0.45594000000E+02  0.51100000000E-03 0.  1.
    9900012    2    1    2    0    0 -0.21541470546E+02 -0.34448977640E+02 -0.15490484854E+01  0.50528848940E+02  0.29999966837E+02 0.  0.
         12    1    1    2    0    0  0.21541470546E+02  0.34448977640E+02  0.15490484854E+01  0.40659151060E+02  0.00000000000E+00 0. -1.
         11    1    3    3    0    0 -0.63278472749E+01 -0.81662758973E+01 -0.35265858351E+01  0.10916341928E+02  0.51100000000E-03 0. -1.
        -11    1    3    3    0    0 -0.10768484630E+02 -0.26543534219E+02 -0.70913529798E+01  0.29509435057E+02  0.51100000000E-03 0.  1.
         12    1    3    3    0    0 -0.44451386412E+01  0.26083247584E+00  0.90688903295E+01  0.10103071955E+02  0.00000000000E+00 0. -1.
</event>
<event>
 7    1  0.6624035E-013  0.5052886E+02  0.7816164E-02  0.1300439E+00
        -11   -1    0    0    0    0  0.00000000000E+00  0.00000000000E+00  0.45593999997E+02  0.45594000000E+02  0.51100000000E-03 0.  1.
         11   -1    0    0    0    0 -0.00000000000E+00 -0.00000000000E+00 -0.45593999997E+02  0.45594000000E+02  0.51100000000E-03 0. -1.
    9900012    2    1    2    0    0 -0.22480929108E+02 -0.32009274681E+02  0.11098645844E+02  0.50528858608E+02  0.29999996226E+02 0.  0.
         12    1    1    2    0    0  0.22480929108E+02  0.32009274681E+02 -0.11098645844E+02  0.40659141392E+02  0.00000000000E+00 0. -1.
         11    1    3    3    0    0 -0.85767560598E+01 -0.29150995058E+02  0.11577141468E+02  0.32517248688E+02  0.51100000000E-03 0. -1.
        -11    1    3    3    0    0 -0.31712858155E+01 -0.60290095842E+01 -0.64095026187E-01  0.68124972458E+01  0.51100000000E-03 0.  1.
         12    1    3    3    0    0 -0.10732887233E+02  0.31707299617E+01 -0.41440059826E+00  0.11199112674E+02  0.00000000000E+00 0. -1.
</event>
<event>
 7    1  0.6624035E-013  0.5052887E+02  0.7816164E-02  0.1300439E+00
        -11   -1    0    0    0    0  0.00000000000E+00  0.00000000000E+00  0.45593999997E+02  0.45594000000E+02  0.51100000000E-03 0. -1.
         11   -1    0    0    0    0 -0.00000000000E+00 -0.00000000000E+00 -0.45593999997E+02  0.45594000000E+02  0.51100000000E-03 0.  1.
    9900012    2    1    2    0    0  0.44547772899E+00 -0.30079270718E+02 -0.27353313313E+02  0.50528871547E+02  0.30000035555E+02 0.  0.
         12    1    1    2    0    0 -0.44547772899E+00  0.30079270718E+02  0.27353313313E+02  0.40659128453E+02  0.00000000000E+00 0. -1.
         11    1    3    3    0    0  0.56826589262E+01 -0.20865498873E+01  0.65315713161E+00  0.60887533538E+01  0.51100000000E-03 0. -1.
        -11    1    3    3    0    0  0.62553498452E+01 -0.17771174326E+02 -0.12564452235E+02  0.22645297499E+02  0.51100000000E-03 0.  1.
        -12    1    3    3    0    0 -0.11492531042E+02 -0.10221546505E+02 -0.15442018209E+02  0.21794820694E+02  0.00000000000E+00 0.  1.
</event>
<event>
 7    1  0.6624035E-013  0.5052894E+02  0.7816164E-02  0.1300438E+00
        -11   -1    0    0    0    0  0.00000000000E+00  0.00000000000E+00  0.45593999997E+02  0.45594000000E+02  0.51100000000E-03 0. -1.
         11   -1    0    0    0    0 -0.00000000000E+00 -0.00000000000E+00 -0.45593999997E+02  0.45594000000E+02  0.51100000000E-03 0.  1.
    9900012    2    1    2    0    0 -0.21216212771E+01 -0.40414308849E+02 -0.39167893633E+01  0.50528943500E+02  0.30000254260E+02 0.  0.
         12    1    1    2    0    0  0.21216212771E+01  0.40414308849E+02  0.39167893633E+01  0.40659056500E+02  0.00000000000E+00 0. -1.
         11    1    3    3    0    0  0.56090999317E+01 -0.16699822207E+02 -0.73874373650E+01  0.19102887082E+02  0.51100000000E-03 0. -1.
        -11    1    3    3    0    0 -0.59019253274E+00 -0.14475357702E+02 -0.66806892188E+01  0.15953554981E+02  0.51100000000E-03 0.  1.
         12    1    3    3    0    0 -0.71405286760E+01 -0.92391289392E+01  0.10151337220E+02  0.15472501436E+02  0.00000000000E+00 0. -1.
</event>
<event>
 7    1  0.6624035E-013  0.5052884E+02  0.7816164E-02  0.1300439E+00
        -11   -1    0    0    0    0  0.00000000000E+00  0.00000000000E+00  0.45593999997E+02  0.45594000000E+02  0.51100000000E-03 0.  1.
         11   -1    0    0    0    0 -0.00000000000E+00 -0.00000000000E+00 -0.45593999997E+02  0.45594000000E+02  0.51100000000E-03 0. -1.
    9900012    2    1    2    0    0  0.32570272055E+01 -0.19786651286E+02  0.35370144596E+02  0.50528844523E+02  0.29999953413E+02 0.  0.
         12    1    1    2    0    0 -0.32570272055E+01  0.19786651286E+02 -0.35370144596E+02  0.40659155477E+02  0.00000000000E+00 0. -1.
         11    1    3    3    0    0  0.12521454280E+02 -0.89752916960E+01  0.12111779071E+02  0.19596884212E+02  0.51100000000E-03 0. -1.
        -11    1    3    3    0    0  0.34141826411E+01 -0.47268760042E+01  0.10157468287E+02  0.11712137385E+02  0.51100000000E-03 0.  1.
        -12    1    3    3    0    0 -0.12678609716E+02 -0.60844835855E+01  0.13100897239E+02  0.19219822926E+02  0.00000000000E+00 0.  1.
</event>
<event>
 7    1  0.6624035E-013  0.5052886E+02  0.7816164E-02  0.1300439E+00
        -11   -1    0    0    0    0  0.00000000000E+00  0.00000000000E+00  0.45593999997E+02  0.45594000000E+02  0.51100000000E-03 0.  1.
         11   -1    0    0    0    0 -0.00000000000E+00 -0.00000000000E+00 -0.45593999997E+02  0.45594000000E+02  0.51100000000E-03 0. -1.
    9900012    2    1    2    0    0  0.19019432208E+02 -0.10038566145E+02  0.34505856494E+02  0.50528859033E+02  0.29999997517E+02 0.  0.
         12    1    1    2    0    0 -0.19019432208E+02  0.10038566145E+02 -0.34505856494E+02  0.40659140967E+02  0.00000000000E+00 0. -1.
         11    1    3    3    0    0  0.20590762089E+01  0.41673960496E+00  0.10341452598E+02  0.10552682542E+02  0.51100000000E-03 0.  1.
        -11    1    3    3    0    0 -0.50158139621E+01  0.28061099029E+01  0.20691181610E+01  0.61085098604E+01  0.51100000000E-03 0. -1.
        -12    1    3    3    0    0  0.21976169961E+02 -0.13261415653E+02  0.22095285735E+02  0.33867666631E+02  0.00000000000E+00 0.  1.
</event>
<event>
 7    1  0.6624035E-013  0.5052886E+02  0.7816164E-02  0.1300439E+00
        -11   -1    0    0    0    0  0.00000000000E+00  0.00000000000E+00  0.45593999997E+02  0.45594000000E+02  0.51100000000E-03 0. -1.
         11   -1    0    0    0    0 -0.00000000000E+00 -0.00000000000E+00 -0.45593999997E+02  0.45594000000E+02  0.51100000000E-03 0.  1.
    9900012    2    1    2    0    0  0.32426984836E+02  0.23738987062E+02 -0.61739080432E+01  0.50528855975E+02  0.29999988222E+02 0.  0.
         12    1    1    2    0    0 -0.32426984836E+02 -0.23738987062E+02  0.61739080432E+01  0.40659144025E+02  0.00000000000E+00 0. -1.
         11    1    3    3    0    0  0.11484190548E+02  0.62514002085E+01  0.98740685109E+01  0.16384866992E+02  0.51100000000E-03 0. -1.
        -11    1    3    3    0    0  0.10036961494E+02  0.84373341483E+01 -0.52199678732E+00  0.13122563944E+02  0.51100000000E-03 0.  1.
         12    1    3    3    0    0  0.10905832794E+02  0.90502527055E+01 -0.15525979767E+02  0.21021425039E+02  0.00000000000E+00 0. -1.
</event>
<event>
 7    1  0.6624035E-013  0.5052886E+02  0.7816164E-02  0.1300439E+00
        -11   -1    0    0    0    0  0.00000000000E+00  0.00000000000E+00  0.45593999997E+02  0.45594000000E+02  0.51100000000E-03 0. -1.
         11   -1    0    0    0    0 -0.00000000000E+00 -0.00000000000E+00 -0.45593999997E+02  0.45594000000E+02  0.51100000000E-03 0.  1.
    9900012    2    1    2    0    0  0.16857518602E+01  0.40098483236E+02 -0.65142548044E+01  0.50528860402E+02  0.30000001678E+02 0.  0.
         12    1    1    2    0    0 -0.16857518602E+01 -0.40098483236E+02  0.65142548044E+01  0.40659139598E+02  0.00000000000E+00 0. -1.
         11    1    3    3    0    0  0.32780129416E+01  0.21460742456E+02  0.55285344381E+01  0.22402533984E+02  0.51100000000E-03 0.  1.
        -11    1    3    3    0    0  0.29049050194E+01  0.25621042522E+01  0.35717837790E+01  0.52688225436E+01  0.51100000000E-03 0. -1.
        -12    1    3    3    0    0 -0.44971661008E+01  0.16075636529E+02 -0.15614573021E+02  0.22857503875E+02  0.00000000000E+00 0.  1.
</event>
<event>
 7    1  0.6624035E-013  0.5052885E+02  0.7816164E-02  0.1300439E+00
        -11   -1    0    0    0    0  0.00000000000E+00  0.00000000000E+00  0.45593999997E+02  0.45594000000E+02  0.51100000000E-03 0.  1.
         11   -1    0    0    0    0 -0.00000000000E+00 -0.00000000000E+00 -0.45593999997E+02  0.45594000000E+02  0.51100000000E-03 0. -1.
    9900012    2    1    2    0    0 -0.40350555505E+02  0.45142092370E+00  0.49794626491E+01  0.50528853936E+02  0.29999982023E+02 0.  0.
         12    1    1    2    0    0  0.40350555505E+02 -0.45142092370E+00 -0.49794626491E+01  0.40659146064E+02  0.00000000000E+00 0. -1.
         11    1    3    3    0    0 -0.72146268756E+01  0.19443033548E+01 -0.13913909735E+01  0.76004687745E+01  0.51100000000E-03 0. -1.
        -11    1    3    3    0    0 -0.21188438036E+02  0.12061354587E+02  0.39488615970E+01  0.24698576660E+02  0.51100000000E-03 0.  1.
         12    1    3    3    0    0 -0.11947490593E+02 -0.13554237018E+02  0.24219920255E+01  0.18229808501E+02  0.00000000000E+00 0. -1.
</event>
<event>
 7    1  0.6624035E-013  0.5052888E+02  0.7816164E-02  0.1300439E+00
        -11   -1    0    0    0    0  0.00000000000E+00  0.00000000000E+00  0.45593999997E+02  0.45594000000E+02  0.51100000000E-03 0. -1.
         11   -1    0    0    0    0 -0.00000000000E+00 -0.00000000000E+00 -0.45593999997E+02  0.45594000000E+02  0.51100000000E-03 0.  1.
    9900012    2    1    2    0    0  0.26618300917E+02  0.87837212742E+01 -0.29452956734E+02  0.50528876012E+02  0.30000049125E+02 0.  0.
         12    1    1    2    0    0 -0.26618300917E+02 -0.87837212742E+01  0.29452956734E+02  0.40659123988E+02  0.00000000000E+00 0. -1.
         11    1    3    3    0    0  0.12839741551E+02  0.10073038842E+02 -0.70810971224E+01  0.17789519704E+02  0.51100000000E-03 0. -1.
        -11    1    3    3    0    0  0.43644065398E+01 -0.25510386049E+01 -0.22679465750E+02  0.23236049779E+02  0.51100000000E-03 0.  1.
         12    1    3    3    0    0  0.94141528267E+01  0.12617210375E+01  0.30760613824E+00  0.95033065276E+01  0.00000000000E+00 0. -1.
</event>
<event>
 7    1  0.6624035E-013  0.5052886E+02  0.7816164E-02  0.1300439E+00
        -11   -1    0    0    0    0  0.00000000000E+00  0.00000000000E+00  0.45593999997E+02  0.45594000000E+02  0.51100000000E-03 0.  1.
         11   -1    0    0    0    0 -0.00000000000E+00 -0.00000000000E+00 -0.45593999997E+02  0.45594000000E+02  0.51100000000E-03 0. -1.
    9900012    2    1    2    0    0  0.41488318273E+01 -0.21829846691E+02  0.34050123056E+02  0.50528857212E+02  0.29999991983E+02 0.  0.
         12    1    1    2    0    0 -0.41488318273E+01  0.21829846691E+02 -0.34050123056E+02  0.40659142788E+02  0.00000000000E+00 0. -1.
         11    1    3    3    0    0 -0.41097860413E+01 -0.57251106093E+01  0.19750956563E+02  0.20970634664E+02  0.51100000000E-03 0.  1.
        -11    1    3    3    0    0 -0.29212681871E+01 -0.10854496680E+02  0.12927334373E+02  0.17130962618E+02  0.51100000000E-03 0. -1.
         12    1    3    3    0    0  0.11179886056E+02 -0.52502394023E+01  0.13718321199E+01  0.12427259930E+02  0.00000000000E+00 0. -1.
</event>
<event>
 7    1  0.6624035E-013  0.5052884E+02  0.7816164E-02  0.1300439E+00
        -11   -1    0    0    0    0  0.00000000000E+00  0.00000000000E+00  0.45593999997E+02  0.45594000000E+02  0.51100000000E-03 0.  1.
         11   -1    0    0    0    0 -0.00000000000E+00 -0.00000000000E+00 -0.45593999997E+02  0.45594000000E+02  0.51100000000E-03 0. -1.
    9900012    2    1    2    0    0 -0.16908604185E+02 -0.18032286832E+02  0.32281618167E+02  0.50528841925E+02  0.29999945516E+02 0.  0.
         12    1    1    2    0    0  0.16908604185E+02  0.18032286832E+02 -0.32281618167E+02  0.40659158075E+02  0.00000000000E+00 0. -1.
         11    1    3    3    0    0  0.24217811802E+01 -0.30008682103E+01  0.36362229918E+01  0.53002218829E+01  0.51100000000E-03 0. -1.
        -11    1    3    3    0    0 -0.44137971794E+01 -0.17984133500E+02  0.21654391163E+02  0.28492513406E+02  0.51100000000E-03 0.  1.
         12    1    3    3    0    0 -0.14916588186E+02  0.29527148780E+01  0.69910040119E+01  0.16736106637E+02  0.00000000000E+00 0. -1.
</event>
<event>
 7    1  0.6624035E-013  0.5052884E+02  0.7816164E-02  0.1300439E+00
        -11   -1    0    0    0    0  0.00000000000E+00  0.00000000000E+00  0.45593999997E+02  0.45594000000E+02  0.51100000000E-03 0.  1.
         11   -1    0    0    0    0 -0.00000000000E+00 -0.00000000000E+00 -0.45593999997E+02  0.45594000000E+02  0.51100000000E-03 0. -1.
    9900012    2    1    2    0    0 -0.46325807302E+01 -0.34527607422E+02 -0.20965461312E+02  0.50528843017E+02  0.29999948836E+02 0.  0.
         12    1    1    2    0    0  0.46325807302E+01  0.34527607422E+02  0.20965461312E+02  0.40659156983E+02  0.00000000000E+00 0. -1.
         11    1    3    3    0    0  0.17300317173E+01  0.14763930848E+01 -0.29948415826E+01  0.37605614806E+01  0.51100000000E-03 0. -1.
        -11    1    3    3    0    0  0.45960614188E+01 -0.22776515194E+02 -0.20132324896E+01  0.23322661303E+02  0.51100000000E-03 0.  1.
         12    1    3    3    0    0 -0.10958673866E+02 -0.13227485313E+02 -0.15957387240E+02  0.23445620233E+02  0.00000000000E+00 0. -1.
</event>
<event>
 7    1  0.6624035E-013  0.5052886E+02  0.7816164E-02  0.1300439E+00
        -11   -1    0    0    0    0  0.00000000000E+00  0.00000000000E+00  0.45593999997E+02  0.45594000000E+02  0.51100000000E-03 0.  1.
         11   -1    0    0    0    0 -0.00000000000E+00 -0.00000000000E+00 -0.45593999997E+02  0.45594000000E+02  0.51100000000E-03 0. -1.
    9900012    2    1    2    0    0 -0.14503153676E+02 -0.68799551736E+01  0.37356267795E+02  0.50528855969E+02  0.29999988204E+02 0.  0.
         12    1    1    2    0    0  0.14503153676E+02  0.68799551736E+01 -0.37356267795E+02  0.40659144031E+02  0.00000000000E+00 0. -1.
         11    1    3    3    0    0  0.42215022730E+01  0.18092047626E+01  0.76910909624E+01  0.89580792454E+01  0.51100000000E-03 0. -1.
        -11    1    3    3    0    0 -0.11329234867E+02  0.57664912189E+01  0.10806272769E+02  0.16684709020E+02  0.51100000000E-03 0.  1.
        -12    1    3    3    0    0 -0.73954210823E+01 -0.14455651155E+02  0.18858904063E+02  0.24886067704E+02  0.00000000000E+00 0.  1.
</event>
<event>
 7    1  0.6624035E-013  0.5052886E+02  0.7816164E-02  0.1300439E+00
        -11   -1    0    0    0    0  0.00000000000E+00  0.00000000000E+00  0.45593999997E+02  0.45594000000E+02  0.51100000000E-03 0.  1.
         11   -1    0    0    0    0 -0.00000000000E+00 -0.00000000000E+00 -0.45593999997E+02  0.45594000000E+02  0.51100000000E-03 0. -1.
    9900012    2    1    2    0    0 -0.55115326439E+01  0.33671671844E+02  0.22113503609E+02  0.50528861805E+02  0.30000005942E+02 0.  0.
         12    1    1    2    0    0  0.55115326439E+01 -0.33671671844E+02 -0.22113503609E+02  0.40659138195E+02  0.00000000000E+00 0. -1.
         11    1    3    3    0    0 -0.64227877078E+01  0.12088525483E+02  0.13143884528E+02  0.18977522258E+02  0.51100000000E-03 0. -1.
        -11    1    3    3    0    0 -0.23431533020E+01  0.65446577292E+01  0.13776835049E+02  0.15431270084E+02  0.51100000000E-03 0.  1.
         12    1    3    3    0    0  0.32544083659E+01  0.15038488632E+02 -0.48072159670E+01  0.16120069463E+02  0.00000000000E+00 0. -1.
</event>
<event>
 7    1  0.6624035E-013  0.5052887E+02  0.7816164E-02  0.1300439E+00
        -11   -1    0    0    0    0  0.00000000000E+00  0.00000000000E+00  0.45593999997E+02  0.45594000000E+02  0.51100000000E-03 0. -1.
         11   -1    0    0    0    0 -0.00000000000E+00 -0.00000000000E+00 -0.45593999997E+02  0.45594000000E+02  0.51100000000E-03 0.  1.
    9900012    2    1    2    0    0 -0.18815749201E+02  0.26542012878E+02  0.24385528384E+02  0.50528869904E+02  0.30000030560E+02 0.  0.
         12    1    1    2    0    0  0.18815749201E+02 -0.26542012878E+02 -0.24385528384E+02  0.40659130096E+02  0.00000000000E+00 0. -1.
         11    1    3    3    0    0  0.15846600498E+01 -0.86726764157E+00 -0.24773542248E+01  0.30660373206E+01  0.51100000000E-03 0. -1.
        -11    1    3    3    0    0 -0.78164452115E+01  0.20368200009E+02  0.69888617470E+01  0.22908613580E+02  0.51100000000E-03 0.  1.
        -12    1    3    3    0    0 -0.12583964039E+02  0.70410805105E+01  0.19874020861E+02  0.24554219004E+02  0.00000000000E+00 0.  1.
</event>
<event>
 7    1  0.6624035E-013  0.5052886E+02  0.7816164E-02  0.1300439E+00
        -11   -1    0    0    0    0  0.00000000000E+00  0.00000000000E+00  0.45593999997E+02  0.45594000000E+02  0.51100000000E-03 0.  1.
         11   -1    0    0    0    0 -0.00000000000E+00 -0.00000000000E+00 -0.45593999997E+02  0.45594000000E+02  0.51100000000E-03 0. -1.
    9900012    2    1    2    0    0  0.39851058296E+02 -0.64550079606E+01  0.48364866132E+01  0.50528861079E+02  0.30000003734E+02 0.  0.
         12    1    1    2    0    0 -0.39851058296E+02  0.64550079606E+01 -0.48364866132E+01  0.40659138921E+02  0.00000000000E+00 0. -1.
         11    1    3    3    0    0  0.55769926514E+01 -0.88548412899E+01 -0.57164435510E+01  0.11924294044E+02  0.51100000000E-03 0. -1.
        -11    1    3    3    0    0  0.21002635168E+02 -0.48010464400E+01  0.31001611056E+01  0.21766298033E+02  0.51100000000E-03 0.  1.
        -12    1    3    3    0    0  0.13271430477E+02  0.72008797693E+01  0.74527690586E+01  0.16838269002E+02  0.00000000000E+00 0.  1.
</event>
<event>
 7    1  0.6624035E-013  0.5052887E+02  0.7816164E-02  0.1300439E+00
        -11   -1    0    0    0    0  0.00000000000E+00  0.00000000000E+00  0.45593999997E+02  0.45594000000E+02  0.51100000000E-03 0.  1.
         11   -1    0    0    0    0 -0.00000000000E+00 -0.00000000000E+00 -0.45593999997E+02  0.45594000000E+02  0.51100000000E-03 0. -1.
    9900012    2    1    2    0    0 -0.13552529827E+02 -0.21780030591E+02  0.31545587583E+02  0.50528869497E+02  0.30000029324E+02 0.  0.
         12    1    1    2    0    0  0.13552529827E+02  0.21780030591E+02 -0.31545587583E+02  0.40659130503E+02  0.00000000000E+00 0. -1.
         11    1    3    3    0    0 -0.86356252035E+01 -0.86267897955E+01  0.37700260497E+01  0.12775312971E+02  0.51100000000E-03 0. -1.
        -11    1    3    3    0    0  0.48396263150E+01 -0.13081671113E+02  0.90160216164E+01  0.16608454113E+02  0.51100000000E-03 0.  1.
         12    1    3    3    0    0 -0.97565309389E+01 -0.71569683052E-01  0.18759539917E+02  0.21145102413E+02  0.00000000000E+00 0. -1.
</event>
<event>
 7    1  0.6624035E-013  0.5052885E+02  0.7816164E-02  0.1300439E+00
        -11   -1    0    0    0    0  0.00000000000E+00  0.00000000000E+00  0.45593999997E+02  0.45594000000E+02  0.51100000000E-03 0.  1.
         11   -1    0    0    0    0 -0.00000000000E+00 -0.00000000000E+00 -0.45593999997E+02  0.45594000000E+02  0.51100000000E-03 0. -1.
    9900012    2    1    2    0    0  0.35024649864E+02  0.38178163179E+01  0.20294446440E+02  0.50528851265E+02  0.29999973905E+02 0.  0.
         12    1    1    2    0    0 -0.35024649864E+02 -0.38178163179E+01 -0.20294446440E+02  0.40659148735E+02  0.00000000000E+00 0. -1.
         11    1    3    3    0    0  0.10709221566E+02  0.73563733713E+01  0.69445484717E+01  0.14731951991E+02  0.51100000000E-03 0. -1.
        -11    1    3    3    0    0  0.12549631764E+02  0.92197513205E+01  0.39762640042E+01  0.16071955311E+02  0.51100000000E-03 0.  1.
        -12    1    3    3    0    0  0.11765796533E+02 -0.12758308374E+02  0.93736339644E+01  0.19724943962E+02  0.00000000000E+00 0.  1.
</event>
<event>
 7    1  0.6624035E-013  0.5052887E+02  0.7816164E-02  0.1300439E+00
        -11   -1    0    0    0    0  0.00000000000E+00  0.00000000000E+00  0.45593999997E+02  0.45594000000E+02  0.51100000000E-03 0.  1.
         11   -1    0    0    0    0 -0.00000000000E+00 -0.00000000000E+00 -0.45593999997E+02  0.45594000000E+02  0.51100000000E-03 0. -1.
    9900012    2    1    2    0    0  0.19143738540E+02  0.16972934234E+01  0.35830177557E+02  0.50528866290E+02  0.30000019576E+02 0.  0.
         12    1    1    2    0    0 -0.19143738540E+02 -0.16972934234E+01 -0.35830177557E+02  0.40659133710E+02  0.00000000000E+00 0. -1.
         11    1    3    3    0    0  0.42251074574E+00  0.13242193211E+01  0.76258567912E+00  0.15854366338E+01  0.51100000000E-03 0. -1.
        -11    1    3    3    0    0 -0.44462335450E+01  0.73175219090E+01  0.15993061760E+02  0.18140924573E+02  0.51100000000E-03 0.  1.
         12    1    3    3    0    0  0.23167461339E+02 -0.69444478067E+01  0.19074530118E+02  0.30802505084E+02  0.00000000000E+00 0. -1.
</event>
<event>
 7    1  0.6624035E-013  0.5052886E+02  0.7816164E-02  0.1300439E+00
        -11   -1    0    0    0    0  0.00000000000E+00  0.00000000000E+00  0.45593999997E+02  0.45594000000E+02  0.51100000000E-03 0.  1.
         11   -1    0    0    0    0 -0.00000000000E+00 -0.00000000000E+00 -0.45593999997E+02  0.45594000000E+02  0.51100000000E-03 0. -1.
    9900012    2    1    2    0    0  0.26098311725E+02  0.27554810809E+02 -0.14586848302E+02  0.50528860597E+02  0.30000002271E+02 0.  0.
         12    1    1    2    0    0 -0.26098311725E+02 -0.27554810809E+02  0.14586848302E+02  0.40659139403E+02  0.00000000000E+00 0. -1.
         11    1    3    3    0    0  0.19596539967E+02  0.21469452887E+02 -0.28423608574E+01  0.29206862232E+02  0.51100000000E-03 0. -1.
        -11    1    3    3    0    0  0.15947815402E+01  0.40788062721E+01  0.32267514091E+01  0.54398450055E+01  0.51100000000E-03 0.  1.
         12    1    3    3    0    0  0.49069902175E+01  0.20065516497E+01 -0.14971238853E+02  0.15882153359E+02  0.00000000000E+00 0. -1.
</event>
<event>
 7    1  0.6624035E-013  0.5052886E+02  0.7816164E-02  0.1300439E+00
        -11   -1    0    0    0    0  0.00000000000E+00  0.00000000000E+00  0.45593999997E+02  0.45594000000E+02  0.51100000000E-03 0.  1.
         11   -1    0    0    0    0 -0.00000000000E+00 -0.00000000000E+00 -0.45593999997E+02  0.45594000000E+02  0.51100000000E-03 0. -1.
    9900012    2    1    2    0    0 -0.21766419313E+02  0.20728807181E+02  0.27380743030E+02  0.50528861473E+02  0.30000004934E+02 0.  0.
         12    1    1    2    0    0  0.21766419313E+02 -0.20728807181E+02 -0.27380743030E+02  0.40659138527E+02  0.00000000000E+00 0. -1.
         11    1    3    3    0    0  0.24969804059E+01 -0.19973620996E+01 -0.71608422179E+00  0.32767580591E+01  0.51100000000E-03 0. -1.
        -11    1    3    3    0    0 -0.32481804225E+01  0.15051946807E+02  0.13981026482E+02  0.20798578809E+02  0.51100000000E-03 0.  1.
        -12    1    3    3    0    0 -0.21015219297E+02  0.76742224738E+01  0.14115800770E+02  0.26453524605E+02  0.00000000000E+00 0.  1.
</event>
<event>
 7    1  0.6624035E-013  0.5052886E+02  0.7816164E-02  0.1300439E+00
        -11   -1    0    0    0    0  0.00000000000E+00  0.00000000000E+00  0.45593999997E+02  0.45594000000E+02  0.51100000000E-03 0.  1.
         11   -1    0    0    0    0 -0.00000000000E+00 -0.00000000000E+00 -0.45593999997E+02  0.45594000000E+02  0.51100000000E-03 0. -1.
    9900012    2    1    2    0    0  0.27056543668E+02 -0.28561856315E+02  0.10263026284E+02  0.50528857118E+02  0.29999991697E+02 0.  0.
         12    1    1    2    0    0 -0.27056543668E+02  0.28561856315E+02 -0.10263026284E+02  0.40659142882E+02  0.00000000000E+00 0. -1.
         11    1    3    3    0    0  0.10888527397E+01  0.17195354703E+01  0.62591623453E+01  0.65817563042E+01  0.51100000000E-03 0. -1.
        -11    1    3    3    0    0 -0.71634513809E+00  0.17287307986E+01 -0.72349300030E+00  0.20062659130E+01  0.51100000000E-03 0.  1.
        -12    1    3    3    0    0  0.26684036066E+02 -0.32010122584E+02  0.47273569389E+01  0.41940834901E+02  0.00000000000E+00 0.  1.
</event>
<event>
 7    1  0.6624035E-013  0.5052886E+02  0.7816164E-02  0.1300439E+00
        -11   -1    0    0    0    0  0.00000000000E+00  0.00000000000E+00  0.45593999997E+02  0.45594000000E+02  0.51100000000E-03 0. -1.
         11   -1    0    0    0    0 -0.00000000000E+00 -0.00000000000E+00 -0.45593999997E+02  0.45594000000E+02  0.51100000000E-03 0.  1.
    9900012    2    1    2    0    0 -0.11702096065E+01  0.38536646395E+02  0.12912141113E+02  0.50528857190E+02  0.29999991915E+02 0.  0.
         12    1    1    2    0    0  0.11702096065E+01 -0.38536646395E+02 -0.12912141113E+02  0.40659142810E+02  0.00000000000E+00 0. -1.
         11    1    3    3    0    0 -0.72355597153E-01 -0.16687254542E+00 -0.17370475051E+00  0.25150622324E+00  0.51100000000E-03 0. -1.
        -11    1    3    3    0    0  0.65304900730E+01  0.40610073302E+01 -0.62207200600E+01  0.98912304318E+01  0.51100000000E-03 0.  1.
         12    1    3    3    0    0 -0.76283440824E+01  0.34642511610E+02  0.19306565923E+02  0.40386120535E+02  0.00000000000E+00 0. -1.
</event>
<event>
 7    1  0.6624035E-013  0.5052885E+02  0.7816164E-02  0.1300439E+00
        -11   -1    0    0    0    0  0.00000000000E+00  0.00000000000E+00  0.45593999997E+02  0.45594000000E+02  0.51100000000E-03 0.  1.
         11   -1    0    0    0    0 -0.00000000000E+00 -0.00000000000E+00 -0.45593999997E+02  0.45594000000E+02  0.51100000000E-03 0. -1.
    9900012    2    1    2    0    0  0.15618757540E+01  0.38195868596E+02  0.13849268580E+02  0.50528854979E+02  0.29999985195E+02 0.  0.
         12    1    1    2    0    0 -0.15618757540E+01 -0.38195868596E+02 -0.13849268580E+02  0.40659145021E+02  0.00000000000E+00 0. -1.
         11    1    3    3    0    0  0.87362169026E+01  0.67487892700E+01  0.13159215179E+02  0.17176512649E+02  0.51100000000E-03 0. -1.
        -11    1    3    3    0    0  0.13494823962E+01  0.59669617932E+01  0.20443039400E+01  0.64501871787E+01  0.51100000000E-03 0.  1.
        -12    1    3    3    0    0 -0.85238235449E+01  0.25480117532E+02 -0.13542505395E+01  0.26902155152E+02  0.00000000000E+00 0.  1.
</event>
<event>
 7    1  0.6624035E-013  0.5052888E+02  0.7816164E-02  0.1300439E+00
        -11   -1    0    0    0    0  0.00000000000E+00  0.00000000000E+00  0.45593999997E+02  0.45594000000E+02  0.51100000000E-03 0.  1.
         11   -1    0    0    0    0 -0.00000000000E+00 -0.00000000000E+00 -0.45593999997E+02  0.45594000000E+02  0.51100000000E-03 0. -1.
    9900012    2    1    2    0    0  0.27862551039E+02  0.18859841689E+02 -0.22828672874E+02  0.50528884366E+02  0.30000074518E+02 0.  0.
         12    1    1    2    0    0 -0.27862551039E+02 -0.18859841689E+02  0.22828672874E+02  0.40659115634E+02  0.00000000000E+00 0. -1.
         11    1    3    3    0    0  0.18950584349E+01  0.41049886149E+00  0.30023993304E+00  0.19621162212E+01  0.51100000000E-03 0. -1.
        -11    1    3    3    0    0  0.12012204487E+02  0.85322172469E+01  0.50664177239E+01  0.15580769449E+02  0.51100000000E-03 0.  1.
         12    1    3    3    0    0  0.13955288117E+02  0.99171255808E+01 -0.28195330531E+02  0.32985998696E+02  0.00000000000E+00 0. -1.
</event>
<event>
 7    1  0.9231460E-013  0.5052886E+02  0.7816164E-02  0.1300439E+00
        -11   -1    0    0    0    0  0.00000000000E+00  0.00000000000E+00  0.45593999997E+02  0.45594000000E+02  0.51100000000E-03 0. -1.
         11   -1    0    0    0    0 -0.00000000000E+00 -0.00000000000E+00 -0.45593999997E+02  0.45594000000E+02  0.51100000000E-03 0.  1.
    9900012    2    1    2    0    0  0.62832003209E+01  0.10130032155E+02 -0.38872481007E+02  0.50528856657E+02  0.29999990295E+02 0.  0.
         12    1    1    2    0    0 -0.62832003209E+01 -0.10130032155E+02  0.38872481007E+02  0.40659143343E+02  0.00000000000E+00 0. -1.
         11    1    3    3    0    0  0.31943164627E+01  0.62960679917E+01 -0.18266379960E+02  0.19583277737E+02  0.51100000000E-03 0. -1.
        -11    1    3    3    0    0 -0.81659251655E+01  0.32445504465E+00 -0.16585363808E+02  0.18489507776E+02  0.51100000000E-03 0.  1.
         12    1    3    3    0    0  0.11254809024E+02  0.35095091189E+01 -0.40207372390E+01  0.12456071145E+02  0.00000000000E+00 0. -1.
</event>
<event>
 7    1  0.6624035E-013  0.5052886E+02  0.7816164E-02  0.1300439E+00
        -11   -1    0    0    0    0  0.00000000000E+00  0.00000000000E+00  0.45593999997E+02  0.45594000000E+02  0.51100000000E-03 0.  1.
         11   -1    0    0    0    0 -0.00000000000E+00 -0.00000000000E+00 -0.45593999997E+02  0.45594000000E+02  0.51100000000E-03 0. -1.
    9900012    2    1    2    0    0  0.30737002272E+02 -0.12319484253E+01  0.26587301204E+02  0.50528860918E+02  0.30000003247E+02 0.  0.
         12    1    1    2    0    0 -0.30737002272E+02  0.12319484253E+01 -0.26587301204E+02  0.40659139082E+02  0.00000000000E+00 0. -1.
         11    1    3    3    0    0  0.12589529565E+02  0.53514518331E+00 -0.95683480764E+00  0.12637174057E+02  0.51100000000E-03 0. -1.
        -11    1    3    3    0    0  0.17367947865E+02  0.11362981209E+01  0.99619655216E+01  0.20054364706E+02  0.51100000000E-03 0.  1.
        -12    1    3    3    0    0  0.77952484166E+00 -0.29033917294E+01  0.17582170490E+02  0.17837322155E+02  0.00000000000E+00 0.  1.
</event>
<event>
 7    1  0.6624035E-013  0.5052885E+02  0.7816164E-02  0.1300439E+00
        -11   -1    0    0    0    0  0.00000000000E+00  0.00000000000E+00  0.45593999997E+02  0.45594000000E+02  0.51100000000E-03 0. -1.
         11   -1    0    0    0    0 -0.00000000000E+00 -0.00000000000E+00 -0.45593999997E+02  0.45594000000E+02  0.51100000000E-03 0.  1.
    9900012    2    1    2    0    0  0.18294347025E+02  0.29622405018E+02 -0.20999906332E+02  0.50528854927E+02  0.29999985035E+02 0.  0.
         12    1    1    2    0    0 -0.18294347025E+02 -0.29622405018E+02  0.20999906332E+02  0.40659145073E+02  0.00000000000E+00 0. -1.
         11    1    3    3    0    0 -0.18786150983E+01  0.58805637554E+01 -0.13353081546E+02  0.14711050670E+02  0.51100000000E-03 0. -1.
        -11    1    3    3    0    0  0.55356242083E+01  0.30996552554E+01 -0.83694531791E+01  0.10502320927E+02  0.51100000000E-03 0.  1.
        -12    1    3    3    0    0  0.14637337915E+02  0.20642186008E+02  0.72262839382E+00  0.25315483330E+02  0.00000000000E+00 0.  1.
</event>
<event>
 7    1  0.6624035E-013  0.5052886E+02  0.7816164E-02  0.1300439E+00
        -11   -1    0    0    0    0  0.00000000000E+00  0.00000000000E+00  0.45593999997E+02  0.45594000000E+02  0.51100000000E-03 0.  1.
         11   -1    0    0    0    0 -0.00000000000E+00 -0.00000000000E+00 -0.45593999997E+02  0.45594000000E+02  0.51100000000E-03 0. -1.
    9900012    2    1    2    0    0 -0.28361497040E+02  0.61772463437E+01  0.28471606666E+02  0.50528864829E+02  0.30000015134E+02 0.  0.
         12    1    1    2    0    0  0.28361497040E+02 -0.61772463437E+01 -0.28471606666E+02  0.40659135171E+02  0.00000000000E+00 0. -1.
         11    1    3    3    0    0 -0.16476910603E+02  0.10776386871E+00  0.53976232247E+01  0.17338815784E+02  0.51100000000E-03 0. -1.
        -11    1    3    3    0    0 -0.32325856192E+01  0.31416117478E+00 -0.34288537575E+01  0.47228535209E+01  0.51100000000E-03 0.  1.
        -12    1    3    3    0    0 -0.86520008180E+01  0.57553213002E+01  0.26502837199E+02  0.28467195524E+02  0.00000000000E+00 0.  1.
</event>
<event>
 7    1  0.6624035E-013  0.5052886E+02  0.7816164E-02  0.1300439E+00
        -11   -1    0    0    0    0  0.00000000000E+00  0.00000000000E+00  0.45593999997E+02  0.45594000000E+02  0.51100000000E-03 0.  1.
         11   -1    0    0    0    0 -0.00000000000E+00 -0.00000000000E+00 -0.45593999997E+02  0.45594000000E+02  0.51100000000E-03 0. -1.
    9900012    2    1    2    0    0 -0.40311353410E+02 -0.40621089588E+01 -0.34146134428E+01  0.50528861693E+02  0.30000005601E+02 0.  0.
         12    1    1    2    0    0  0.40311353410E+02  0.40621089588E+01  0.34146134428E+01  0.40659138307E+02  0.00000000000E+00 0. -1.
         11    1    3    3    0    0 -0.10190772990E+02 -0.11245826730E+02 -0.10700879087E+01  0.15213992288E+02  0.51100000000E-03 0.  1.
        -11    1    3    3    0    0 -0.28218847069E+02  0.13196117000E+01 -0.48452757450E+01  0.28662194651E+02  0.51100000000E-03 0. -1.
        -12    1    3    3    0    0 -0.19017333516E+01  0.58641060708E+01  0.25007502109E+01  0.66526747529E+01  0.00000000000E+00 0.  1.
</event>
<event>
 7    1  0.6624035E-013  0.5052885E+02  0.7816164E-02  0.1300439E+00
        -11   -1    0    0    0    0  0.00000000000E+00  0.00000000000E+00  0.45593999997E+02  0.45594000000E+02  0.51100000000E-03 0.  1.
         11   -1    0    0    0    0 -0.00000000000E+00 -0.00000000000E+00 -0.45593999997E+02  0.45594000000E+02  0.51100000000E-03 0. -1.
    9900012    2    1    2    0    0  0.11766211759E+02 -0.88325418094E+01  0.37903942683E+02  0.50528850908E+02  0.29999972819E+02 0.  0.
         12    1    1    2    0    0 -0.11766211759E+02  0.88325418094E+01 -0.37903942683E+02  0.40659149092E+02  0.00000000000E+00 0. -1.
         11    1    3    3    0    0  0.42399158559E+01 -0.16381600361E+01 -0.16925289517E+01  0.48502689907E+01  0.51100000000E-03 0. -1.
        -11    1    3    3    0    0 -0.29090334159E+01  0.53496084251E+01  0.14701251226E+02  0.15912497403E+02  0.51100000000E-03 0.  1.
        -12    1    3    3    0    0  0.10435329319E+02 -0.12543990198E+02  0.24895220409E+02  0.29766084514E+02  0.00000000000E+00 0.  1.
</event>
<event>
 7    1  0.6624035E-013  0.5052887E+02  0.7816164E-02  0.1300439E+00
        -11   -1    0    0    0    0  0.00000000000E+00  0.00000000000E+00  0.45593999997E+02  0.45594000000E+02  0.51100000000E-03 0.  1.
         11   -1    0    0    0    0 -0.00000000000E+00 -0.00000000000E+00 -0.45593999997E+02  0.45594000000E+02  0.51100000000E-03 0. -1.
    9900012    2    1    2    0    0 -0.10670307468E+02 -0.27549408704E+01  0.39137195672E+02  0.50528865162E+02  0.30000016148E+02 0.  0.
         12    1    1    2    0    0  0.10670307468E+02  0.27549408704E+01 -0.39137195672E+02  0.40659134838E+02  0.00000000000E+00 0. -1.
         11    1    3    3    0    0 -0.27735847166E+01 -0.24639817726E+00 -0.33038290206E+01  0.43207372866E+01  0.51100000000E-03 0. -1.
        -11    1    3    3    0    0 -0.16774305420E+01  0.26165847588E+01  0.10287267180E+00  0.31098025775E+01  0.51100000000E-03 0.  1.
        -12    1    3    3    0    0 -0.62192922094E+01 -0.51251274520E+01  0.42338152021E+02  0.43098325298E+02  0.00000000000E+00 0.  1.
</event>
<event>
 7    1  0.6624035E-013  0.5052877E+02  0.7816164E-02  0.1300439E+00
        -11   -1    0    0    0    0  0.00000000000E+00  0.00000000000E+00  0.45593999997E+02  0.45594000000E+02  0.51100000000E-03 0.  1.
         11   -1    0    0    0    0 -0.00000000000E+00 -0.00000000000E+00 -0.45593999997E+02  0.45594000000E+02  0.51100000000E-03 0. -1.
    9900012    2    1    2    0    0 -0.31120783743E+01 -0.26200635627E+02  0.30935654704E+02  0.50528768931E+02  0.29999723643E+02 0.  0.
         12    1    1    2    0    0  0.31120783743E+01  0.26200635627E+02 -0.30935654704E+02  0.40659231069E+02  0.00000000000E+00 0. -1.
         11    1    3    3    0    0  0.79443692969E+01 -0.20933382522E+02  0.28235214580E+02  0.36035355556E+02  0.51100000000E-03 0.  1.
        -11    1    3    3    0    0 -0.91305923868E+01 -0.30667111345E+01  0.49261613357E+01  0.10818479574E+02  0.51100000000E-03 0. -1.
        -12    1    3    3    0    0 -0.19258552844E+01 -0.22005419705E+01 -0.22257212116E+01  0.36749338024E+01  0.00000000000E+00 0.  1.
</event>
<event>
 7    1  0.6624035E-013  0.5052885E+02  0.7816164E-02  0.1300439E+00
        -11   -1    0    0    0    0  0.00000000000E+00  0.00000000000E+00  0.45593999997E+02  0.45594000000E+02  0.51100000000E-03 0.  1.
         11   -1    0    0    0    0 -0.00000000000E+00 -0.00000000000E+00 -0.45593999997E+02  0.45594000000E+02  0.51100000000E-03 0. -1.
    9900012    2    1    2    0    0 -0.15200972673E+02 -0.50483603245E+01  0.37371254528E+02  0.50528853708E+02  0.29999981330E+02 0.  0.
         12    1    1    2    0    0  0.15200972673E+02  0.50483603245E+01 -0.37371254528E+02  0.40659146292E+02  0.00000000000E+00 0. -1.
         11    1    3    3    0    0 -0.32677707304E+01  0.38701315584E+01  0.62703993524E+01  0.80606545718E+01  0.51100000000E-03 0. -1.
        -11    1    3    3    0    0  0.51588926526E+01  0.31781976528E+01  0.14602974958E+02  0.15810186325E+02  0.51100000000E-03 0.  1.
        -12    1    3    3    0    0 -0.17092094595E+02 -0.12096689536E+02  0.16497880218E+02  0.26658012812E+02  0.00000000000E+00 0.  1.
</event>
<event>
 7    1  0.6624035E-013  0.5052886E+02  0.7816164E-02  0.1300439E+00
        -11   -1    0    0    0    0  0.00000000000E+00  0.00000000000E+00  0.45593999997E+02  0.45594000000E+02  0.51100000000E-03 0.  1.
         11   -1    0    0    0    0 -0.00000000000E+00 -0.00000000000E+00 -0.45593999997E+02  0.45594000000E+02  0.51100000000E-03 0. -1.
    9900012    2    1    2    0    0  0.28555740974E+02 -0.28652165406E+02 -0.40973644652E+01  0.50528864242E+02  0.30000013349E+02 0.  0.
         12    1    1    2    0    0 -0.28555740974E+02  0.28652165406E+02  0.40973644652E+01  0.40659135758E+02  0.00000000000E+00 0. -1.
         11    1    3    3    0    0  0.17844964771E+02 -0.57737559071E+01  0.91937261117E+00  0.18778292553E+02  0.51100000000E-03 0. -1.
        -11    1    3    3    0    0  0.99096935983E+01 -0.54074862718E+01  0.41213877532E+01  0.12017852232E+02  0.51100000000E-03 0.  1.
        -12    1    3    3    0    0  0.80108260464E+00 -0.17470923228E+02 -0.91381248297E+01  0.19732719457E+02  0.00000000000E+00 0.  1.
</event>
<event>
 7    1  0.6624035E-013  0.5052886E+02  0.7816164E-02  0.1300439E+00
        -11   -1    0    0    0    0  0.00000000000E+00  0.00000000000E+00  0.45593999997E+02  0.45594000000E+02  0.51100000000E-03 0. -1.
         11   -1    0    0    0    0 -0.00000000000E+00 -0.00000000000E+00 -0.45593999997E+02  0.45594000000E+02  0.51100000000E-03 0.  1.
    9900012    2    1    2    0    0 -0.14351805128E+02 -0.37999171715E+02  0.18039783878E+01  0.50528859583E+02  0.29999999187E+02 0.  0.
         12    1    1    2    0    0  0.14351805128E+02  0.37999171715E+02 -0.18039783878E+01  0.40659140417E+02  0.00000000000E+00 0. -1.
         11    1    3    3    0    0  0.24774669492E+01 -0.28177101193E+01  0.54463206100E+01  0.66136027435E+01  0.51100000000E-03 0. -1.
        -11    1    3    3    0    0  0.13150304824E+01 -0.85893577941E+00  0.40440297779E+01  0.43383467990E+01  0.51100000000E-03 0.  1.
        -12    1    3    3    0    0 -0.18144302560E+02 -0.34322525816E+02 -0.76863720001E+01  0.39576910040E+02  0.00000000000E+00 0.  1.
</event>
<event>
 7    1  0.1514180E-012  0.5052886E+02  0.7816164E-02  0.1300439E+00
        -11   -1    0    0    0    0  0.00000000000E+00  0.00000000000E+00  0.45593999997E+02  0.45594000000E+02  0.51100000000E-03 0. -1.
         11   -1    0    0    0    0 -0.00000000000E+00 -0.00000000000E+00 -0.45593999997E+02  0.45594000000E+02  0.51100000000E-03 0.  1.
    9900012    2    1    2    0    0 -0.17657694099E+02  0.14387442025E+02 -0.33680458418E+02  0.50528856771E+02  0.29999990640E+02 0.  0.
         12    1    1    2    0    0  0.17657694099E+02 -0.14387442025E+02  0.33680458418E+02  0.40659143229E+02  0.00000000000E+00 0. -1.
         11    1    3    3    0    0 -0.11398190689E+02  0.13380389211E+02 -0.15021258984E+02  0.23121241060E+02  0.51100000000E-03 0. -1.
        -11    1    3    3    0    0 -0.83869019631E+01  0.81271081141E+01 -0.15312207799E+02  0.19257562639E+02  0.51100000000E-03 0.  1.
         12    1    3    3    0    0  0.21273985530E+01 -0.71200552998E+01 -0.33469916341E+01  0.81500530718E+01  0.00000000000E+00 0. -1.
</event>
<event>
 7    1  0.6624035E-013  0.5052885E+02  0.7816164E-02  0.1300439E+00
        -11   -1    0    0    0    0  0.00000000000E+00  0.00000000000E+00  0.45593999997E+02  0.45594000000E+02  0.51100000000E-03 0. -1.
         11   -1    0    0    0    0 -0.00000000000E+00 -0.00000000000E+00 -0.45593999997E+02  0.45594000000E+02  0.51100000000E-03 0.  1.
    9900012    2    1    2    0    0  0.51808519372E+00 -0.19601128472E+02 -0.35618725257E+02  0.50528852953E+02  0.29999979035E+02 0.  0.
         12    1    1    2    0    0 -0.51808519372E+00  0.19601128472E+02  0.35618725257E+02  0.40659147047E+02  0.00000000000E+00 0. -1.
         11    1    3    3    0    0 -0.74077417340E+00  0.21499812739E+01 -0.31568709717E+00  0.22958276195E+01  0.51100000000E-03 0.  1.
        -11    1    3    3    0    0 -0.96922316910E+01 -0.81473053304E+01 -0.57511779665E+01  0.13906616683E+02  0.51100000000E-03 0. -1.
        -12    1    3    3    0    0  0.10951091058E+02 -0.13603804415E+02 -0.29551860194E+02  0.34326408651E+02  0.00000000000E+00 0.  1.
</event>
<event>
 7    1  0.6624035E-013  0.5052892E+02  0.7816164E-02  0.1300439E+00
        -11   -1    0    0    0    0  0.00000000000E+00  0.00000000000E+00  0.45593999997E+02  0.45594000000E+02  0.51100000000E-03 0. -1.
         11   -1    0    0    0    0 -0.00000000000E+00 -0.00000000000E+00 -0.45593999997E+02  0.45594000000E+02  0.51100000000E-03 0.  1.
    9900012    2    1    2    0    0 -0.40117619525E+02 -0.58614195920E+01 -0.30628546405E+01  0.50528920884E+02  0.30000185519E+02 0.  0.
         12    1    1    2    0    0  0.40117619525E+02  0.58614195920E+01  0.30628546405E+01  0.40659079116E+02  0.00000000000E+00 0. -1.
         11    1    3    3    0    0 -0.10864330717E+02  0.47889968334E+01  0.37043807058E+01  0.12437467961E+02  0.51100000000E-03 0. -1.
        -11    1    3    3    0    0 -0.13608516790E+02  0.49332000403E+01  0.14112531300E+01  0.14543721240E+02  0.51100000000E-03 0.  1.
        -12    1    3    3    0    0 -0.15644772018E+02 -0.15583616466E+02 -0.81784884764E+01  0.23547731683E+02  0.00000000000E+00 0.  1.
</event>
<event>
 7    1  0.6624035E-013  0.5052885E+02  0.7816164E-02  0.1300439E+00
        -11   -1    0    0    0    0  0.00000000000E+00  0.00000000000E+00  0.45593999997E+02  0.45594000000E+02  0.51100000000E-03 0.  1.
         11   -1    0    0    0    0 -0.00000000000E+00 -0.00000000000E+00 -0.45593999997E+02  0.45594000000E+02  0.51100000000E-03 0. -1.
    9900012    2    1    2    0    0  0.64073082734E+01  0.20137735189E+01  0.40100594534E+02  0.50528848938E+02  0.29999966832E+02 0.  0.
         12    1    1    2    0    0 -0.64073082734E+01 -0.20137735189E+01 -0.40100594534E+02  0.40659151062E+02  0.00000000000E+00 0. -1.
         11    1    3    3    0    0  0.62784859024E+01  0.46784747001E+01  0.94824840778E+00  0.78871215314E+01  0.51100000000E-03 0. -1.
        -11    1    3    3    0    0  0.58096353124E+01  0.47787056651E+01  0.16788967542E+02  0.18397209617E+02  0.51100000000E-03 0.  1.
        -12    1    3    3    0    0 -0.56808129414E+01 -0.74434068464E+01  0.22363378585E+02  0.24244517790E+02  0.00000000000E+00 0.  1.
</event>
<event>
 7    1  0.6624035E-013  0.5052886E+02  0.7816164E-02  0.1300439E+00
        -11   -1    0    0    0    0  0.00000000000E+00  0.00000000000E+00  0.45593999997E+02  0.45594000000E+02  0.51100000000E-03 0.  1.
         11   -1    0    0    0    0 -0.00000000000E+00 -0.00000000000E+00 -0.45593999997E+02  0.45594000000E+02  0.51100000000E-03 0. -1.
    9900012    2    1    2    0    0  0.26148531742E+02 -0.27194905464E+02  0.15161043379E+02  0.50528857955E+02  0.29999994240E+02 0.  0.
         12    1    1    2    0    0 -0.26148531742E+02  0.27194905464E+02 -0.15161043379E+02  0.40659142045E+02  0.00000000000E+00 0. -1.
         11    1    3    3    0    0  0.30003270403E+01 -0.61443212186E+01 -0.40920638083E+01  0.79686656385E+01  0.51100000000E-03 0. -1.
        -11    1    3    3    0    0  0.67136956225E+00  0.22295078323E+01 -0.26170162772E+01  0.35028869122E+01  0.51100000000E-03 0.  1.
        -12    1    3    3    0    0  0.22476835140E+02 -0.23280092078E+02  0.21870123465E+02  0.39057305404E+02  0.00000000000E+00 0.  1.
</event>
<event>
 7    1  0.6624035E-013  0.5052886E+02  0.7816164E-02  0.1300439E+00
        -11   -1    0    0    0    0  0.00000000000E+00  0.00000000000E+00  0.45593999997E+02  0.45594000000E+02  0.51100000000E-03 0. -1.
         11   -1    0    0    0    0 -0.00000000000E+00 -0.00000000000E+00 -0.45593999997E+02  0.45594000000E+02  0.51100000000E-03 0.  1.
    9900012    2    1    2    0    0  0.38176282401E+02 -0.28750893327E+01 -0.13692014102E+02  0.50528856787E+02  0.29999990690E+02 0.  0.
         12    1    1    2    0    0 -0.38176282401E+02  0.28750893327E+01  0.13692014102E+02  0.40659143213E+02  0.00000000000E+00 0. -1.
         11    1    3    3    0    0  0.14163849258E+01 -0.15912583013E+01 -0.28695743965E+01  0.35738923763E+01  0.51100000000E-03 0. -1.
        -11    1    3    3    0    0  0.39720159206E+02 -0.19800578044E+01 -0.14366673824E+02  0.42284902664E+02  0.51100000000E-03 0.  1.
        -12    1    3    3    0    0 -0.29602617309E+01  0.69622677301E+00  0.35442341181E+01  0.46700617468E+01  0.00000000000E+00 0.  1.
</event>
<event>
 7    1  0.7636751E-013  0.5052886E+02  0.7816164E-02  0.1300439E+00
        -11   -1    0    0    0    0  0.00000000000E+00  0.00000000000E+00  0.45593999997E+02  0.45594000000E+02  0.51100000000E-03 0. -1.
         11   -1    0    0    0    0 -0.00000000000E+00 -0.00000000000E+00 -0.45593999997E+02  0.45594000000E+02  0.51100000000E-03 0.  1.
    9900012    2    1    2    0    0 -0.32346535382E+02  0.23986902707E+02 -0.56120842650E+01  0.50528863973E+02  0.30000012531E+02 0.  0.
         12    1    1    2    0    0  0.32346535382E+02 -0.23986902707E+02  0.56120842650E+01  0.40659136027E+02  0.00000000000E+00 0. -1.
         11    1    3    3    0    0 -0.15846468859E+02  0.10526577109E+02  0.26139063008E+01  0.19202914032E+02  0.51100000000E-03 0. -1.
        -11    1    3    3    0    0 -0.16297568096E+02  0.18024977165E+02 -0.31619424270E+01  0.24505273061E+02  0.51100000000E-03 0.  1.
         12    1    3    3    0    0 -0.20249842697E+00 -0.45646515665E+01 -0.50640481387E+01  0.68206768790E+01  0.00000000000E+00 0. -1.
</event>
<event>
 7    1  0.6624035E-013  0.5052886E+02  0.7816164E-02  0.1300439E+00
        -11   -1    0    0    0    0  0.00000000000E+00  0.00000000000E+00  0.45593999997E+02  0.45594000000E+02  0.51100000000E-03 0.  1.
         11   -1    0    0    0    0 -0.00000000000E+00 -0.00000000000E+00 -0.45593999997E+02  0.45594000000E+02  0.51100000000E-03 0. -1.
    9900012    2    1    2    0    0  0.23543913379E+02 -0.10099025236E+02  0.31573081044E+02  0.50528860628E+02  0.30000002363E+02 0.  0.
         12    1    1    2    0    0 -0.23543913379E+02  0.10099025236E+02 -0.31573081044E+02  0.40659139372E+02  0.00000000000E+00 0. -1.
         11    1    3    3    0    0 -0.15764055155E+01 -0.15434845478E+01  0.10932180434E+02  0.11152576752E+02  0.51100000000E-03 0.  1.
        -11    1    3    3    0    0  0.61308559283E+01  0.61971358219E+01  0.19827064091E+01  0.89399671014E+01  0.51100000000E-03 0. -1.
        -12    1    3    3    0    0  0.18989462966E+02 -0.14752676510E+02  0.18658194200E+02  0.30436316774E+02  0.00000000000E+00 0.  1.
</event>
<event>
 7    1  0.6624035E-013  0.5052886E+02  0.7816164E-02  0.1300439E+00
        -11   -1    0    0    0    0  0.00000000000E+00  0.00000000000E+00  0.45593999997E+02  0.45594000000E+02  0.51100000000E-03 0.  1.
         11   -1    0    0    0    0 -0.00000000000E+00 -0.00000000000E+00 -0.45593999997E+02  0.45594000000E+02  0.51100000000E-03 0. -1.
    9900012    2    1    2    0    0  0.30474385553E+02 -0.20797757877E+01  0.26835640895E+02  0.50528864933E+02  0.30000015450E+02 0.  0.
         12    1    1    2    0    0 -0.30474385553E+02  0.20797757877E+01 -0.26835640895E+02  0.40659135067E+02  0.00000000000E+00 0. -1.
         11    1    3    3    0    0  0.80048200470E+00  0.20223903850E+01 -0.24604171150E+01  0.32839742615E+01  0.51100000000E-03 0.  1.
        -11    1    3    3    0    0 -0.32606672534E+01  0.13759109529E+01  0.41080077571E+01  0.54222513665E+01  0.51100000000E-03 0. -1.
        -12    1    3    3    0    0  0.32934570801E+02 -0.54780771255E+01  0.25188050253E+02  0.41822639305E+02  0.00000000000E+00 0.  1.
</event>
<event>
 7    1  0.6624035E-013  0.5052886E+02  0.7816164E-02  0.1300439E+00
        -11   -1    0    0    0    0  0.00000000000E+00  0.00000000000E+00  0.45593999997E+02  0.45594000000E+02  0.51100000000E-03 0. -1.
         11   -1    0    0    0    0 -0.00000000000E+00 -0.00000000000E+00 -0.45593999997E+02  0.45594000000E+02  0.51100000000E-03 0.  1.
    9900012    2    1    2    0    0 -0.21849126390E+02  0.33993625424E+02 -0.44961078830E+01  0.50528857367E+02  0.29999992454E+02 0.  0.
         12    1    1    2    0    0  0.21849126390E+02 -0.33993625424E+02  0.44961078830E+01  0.40659142633E+02  0.00000000000E+00 0. -1.
         11    1    3    3    0    0 -0.70877202894E+01  0.81615075004E+01  0.50195362093E+01  0.11918126010E+02  0.51100000000E-03 0. -1.
        -11    1    3    3    0    0 -0.39870069293E+01 -0.17263815027E+01  0.41584688308E+01  0.60141068019E+01  0.51100000000E-03 0.  1.
        -12    1    3    3    0    0 -0.10774399172E+02  0.27558499427E+02 -0.13674112923E+02  0.32596624555E+02  0.00000000000E+00 0.  1.
</event>
<event>
 7    1  0.6624035E-013  0.5052886E+02  0.7816164E-02  0.1300439E+00
        -11   -1    0    0    0    0  0.00000000000E+00  0.00000000000E+00  0.45593999997E+02  0.45594000000E+02  0.51100000000E-03 0.  1.
         11   -1    0    0    0    0 -0.00000000000E+00 -0.00000000000E+00 -0.45593999997E+02  0.45594000000E+02  0.51100000000E-03 0. -1.
    9900012    2    1    2    0    0 -0.90020539869E+01 -0.21377155260E+02  0.33393798719E+02  0.50528861594E+02  0.30000005302E+02 0.  0.
         12    1    1    2    0    0  0.90020539869E+01  0.21377155260E+02 -0.33393798719E+02  0.40659138406E+02  0.00000000000E+00 0. -1.
         11    1    3    3    0    0 -0.55223357920E+01 -0.86041739786E+01 -0.20139680157E+01  0.10420368030E+02  0.51100000000E-03 0. -1.
        -11    1    3    3    0    0 -0.37710230316E+01 -0.11219587140E+02  0.12755741633E+02  0.17401399230E+02  0.51100000000E-03 0.  1.
         12    1    3    3    0    0  0.29130483675E+00 -0.15533941413E+01  0.22652025103E+02  0.22707094335E+02  0.00000000000E+00 0. -1.
</event>
<event>
 7    1  0.6624035E-013  0.5052886E+02  0.7816164E-02  0.1300439E+00
        -11   -1    0    0    0    0  0.00000000000E+00  0.00000000000E+00  0.45593999997E+02  0.45594000000E+02  0.51100000000E-03 0.  1.
         11   -1    0    0    0    0 -0.00000000000E+00 -0.00000000000E+00 -0.45593999997E+02  0.45594000000E+02  0.51100000000E-03 0. -1.
    9900012    2    1    2    0    0 -0.11404018101E+02 -0.30122147136E+02  0.24814722475E+02  0.50528857997E+02  0.29999994367E+02 0.  0.
         12    1    1    2    0    0  0.11404018101E+02  0.30122147136E+02 -0.24814722475E+02  0.40659142003E+02  0.00000000000E+00 0. -1.
         11    1    3    3    0    0 -0.67489354080E+01 -0.48827983084E+00 -0.53802300113E+00  0.67879315956E+01  0.51100000000E-03 0. -1.
        -11    1    3    3    0    0 -0.60807204722E+01 -0.11915976542E+02  0.76326905440E+00  0.13399561124E+02  0.51100000000E-03 0.  1.
        -12    1    3    3    0    0  0.14256377791E+01 -0.17717890763E+02  0.24589476422E+02  0.30341365277E+02  0.00000000000E+00 0.  1.
</event>
<event>
 7    1  0.6624035E-013  0.5052886E+02  0.7816164E-02  0.1300439E+00
        -11   -1    0    0    0    0  0.00000000000E+00  0.00000000000E+00  0.45593999997E+02  0.45594000000E+02  0.51100000000E-03 0.  1.
         11   -1    0    0    0    0 -0.00000000000E+00 -0.00000000000E+00 -0.45593999997E+02  0.45594000000E+02  0.51100000000E-03 0. -1.
    9900012    2    1    2    0    0  0.24033144109E+02 -0.23737874406E+02  0.22629340977E+02  0.50528858714E+02  0.29999996546E+02 0.  0.
         12    1    1    2    0    0 -0.24033144109E+02  0.23737874406E+02 -0.22629340977E+02  0.40659141286E+02  0.00000000000E+00 0. -1.
         11    1    3    3    0    0  0.61166905094E+01  0.11428765359E-01 -0.16287070520E+01  0.63298278275E+01  0.51100000000E-03 0.  1.
        -11    1    3    3    0    0  0.43128093683E+01 -0.72169172586E+01 -0.35311663955E+01  0.91188461846E+01  0.51100000000E-03 0. -1.
        -12    1    3    3    0    0  0.13603644231E+02 -0.16532385913E+02  0.27789214425E+02  0.35080184701E+02  0.00000000000E+00 0.  1.
</event>
<event>
 7    1  0.6624035E-013  0.5052887E+02  0.7816164E-02  0.1300439E+00
        -11   -1    0    0    0    0  0.00000000000E+00  0.00000000000E+00  0.45593999997E+02  0.45594000000E+02  0.51100000000E-03 0.  1.
         11   -1    0    0    0    0 -0.00000000000E+00 -0.00000000000E+00 -0.45593999997E+02  0.45594000000E+02  0.51100000000E-03 0. -1.
    9900012    2    1    2    0    0  0.15776172076E+02 -0.10688585849E+02  0.35917006872E+02  0.50528869962E+02  0.30000030736E+02 0.  0.
         12    1    1    2    0    0 -0.15776172076E+02  0.10688585849E+02 -0.35917006872E+02  0.40659130038E+02  0.00000000000E+00 0. -1.
         11    1    3    3    0    0 -0.12638386684E+01  0.64596505472E+01  0.11779583316E+02  0.13493811794E+02  0.51100000000E-03 0. -1.
        -11    1    3    3    0    0 -0.10397533203E+01  0.81945129025E+00  0.49690873824E+01  0.51424135442E+01  0.51100000000E-03 0.  1.
        -12    1    3    3    0    0  0.18079764065E+02 -0.17967687687E+02  0.19168336174E+02  0.31892644624E+02  0.00000000000E+00 0.  1.
</event>
<event>
 7    1  0.6624035E-013  0.5052885E+02  0.7816164E-02  0.1300439E+00
        -11   -1    0    0    0    0  0.00000000000E+00  0.00000000000E+00  0.45593999997E+02  0.45594000000E+02  0.51100000000E-03 0. -1.
         11   -1    0    0    0    0 -0.00000000000E+00 -0.00000000000E+00 -0.45593999997E+02  0.45594000000E+02  0.51100000000E-03 0.  1.
    9900012    2    1    2    0    0  0.31125621148E+02  0.25594193307E+02  0.54128976000E+01  0.50528849943E+02  0.29999969888E+02 0.  0.
         12    1    1    2    0    0 -0.31125621148E+02 -0.25594193307E+02 -0.54128976000E+01  0.40659150057E+02  0.00000000000E+00 0. -1.
         11    1    3    3    0    0  0.31896452654E+00 -0.39836820283E+00 -0.55244169633E+01  0.55479382333E+01  0.51100000000E-03 0. -1.
        -11    1    3    3    0    0  0.21809957583E+02  0.13649782893E+02 -0.76347121347E+00  0.25740507209E+02  0.51100000000E-03 0.  1.
         12    1    3    3    0    0  0.89966990381E+01  0.12342778617E+02  0.11700785777E+02  0.19240404501E+02  0.00000000000E+00 0. -1.
</event>
<event>
 7    1  0.6624035E-013  0.5052887E+02  0.7816164E-02  0.1300439E+00
        -11   -1    0    0    0    0  0.00000000000E+00  0.00000000000E+00  0.45593999997E+02  0.45594000000E+02  0.51100000000E-03 0.  1.
         11   -1    0    0    0    0 -0.00000000000E+00 -0.00000000000E+00 -0.45593999997E+02  0.45594000000E+02  0.51100000000E-03 0. -1.
    9900012    2    1    2    0    0 -0.59427837796E+01 -0.29333166704E+02  0.27521145628E+02  0.50528870587E+02  0.30000032637E+02 0.  0.
         12    1    1    2    0    0  0.59427837796E+01  0.29333166704E+02 -0.27521145628E+02  0.40659129413E+02  0.00000000000E+00 0. -1.
         11    1    3    3    0    0  0.19844087431E+01 -0.13598394500E+01  0.10491921868E+02  0.10764175126E+02  0.51100000000E-03 0.  1.
        -11    1    3    3    0    0  0.20831922835E+01 -0.10150904969E+02  0.16294261415E+02  0.19310192053E+02  0.51100000000E-03 0. -1.
         12    1    3    3    0    0 -0.10010384806E+02 -0.17822422284E+02  0.73496234530E+00  0.20454503409E+02  0.00000000000E+00 0. -1.
</event>
<event>
 7    1  0.6624035E-013  0.5052886E+02  0.7816164E-02  0.1300439E+00
        -11   -1    0    0    0    0  0.00000000000E+00  0.00000000000E+00  0.45593999997E+02  0.45594000000E+02  0.51100000000E-03 0.  1.
         11   -1    0    0    0    0 -0.00000000000E+00 -0.00000000000E+00 -0.45593999997E+02  0.45594000000E+02  0.51100000000E-03 0. -1.
    9900012    2    1    2    0    0  0.17653971924E+02 -0.24882030538E+02  0.26877269412E+02  0.50528858599E+02  0.29999996199E+02 0.  0.
         12    1    1    2    0    0 -0.17653971924E+02  0.24882030538E+02 -0.26877269412E+02  0.40659141401E+02  0.00000000000E+00 0. -1.
         11    1    3    3    0    0 -0.33827181117E+01  0.24609579978E+01  0.31773718360E+01  0.52530741605E+01  0.51100000000E-03 0. -1.
        -11    1    3    3    0    0  0.54481894753E+01 -0.11449212196E+01  0.10846488087E+02  0.12191797129E+02  0.51100000000E-03 0.  1.
        -12    1    3    3    0    0  0.15588500560E+02 -0.26198067316E+02  0.12853409489E+02  0.33083987310E+02  0.00000000000E+00 0.  1.
</event>
<event>
 7    1  0.6624035E-013  0.5052882E+02  0.7816164E-02  0.1300439E+00
        -11   -1    0    0    0    0  0.00000000000E+00  0.00000000000E+00  0.45593999997E+02  0.45594000000E+02  0.51100000000E-03 0.  1.
         11   -1    0    0    0    0 -0.00000000000E+00 -0.00000000000E+00 -0.45593999997E+02  0.45594000000E+02  0.51100000000E-03 0. -1.
    9900012    2    1    2    0    0 -0.16422647046E+02  0.36898006171E+02  0.46907131009E+01  0.50528819182E+02  0.29999876386E+02 0.  0.
         12    1    1    2    0    0  0.16422647046E+02 -0.36898006171E+02 -0.46907131009E+01  0.40659180818E+02  0.00000000000E+00 0. -1.
         11    1    3    3    0    0  0.43912383782E+01  0.48158458552E+00 -0.41737333554E+00  0.44372400171E+01  0.51100000000E-03 0. -1.
        -11    1    3    3    0    0  0.24376699269E+01  0.10878200010E+02  0.26999515875E+01  0.11470275017E+02  0.51100000000E-03 0.  1.
        -12    1    3    3    0    0 -0.23251555351E+02  0.25538221575E+02  0.24081348489E+01  0.34621304148E+02  0.00000000000E+00 0.  1.
</event>
<event>
 7    1  0.6624035E-013  0.5052886E+02  0.7816164E-02  0.1300439E+00
        -11   -1    0    0    0    0  0.00000000000E+00  0.00000000000E+00  0.45593999997E+02  0.45594000000E+02  0.51100000000E-03 0.  1.
         11   -1    0    0    0    0 -0.00000000000E+00 -0.00000000000E+00 -0.45593999997E+02  0.45594000000E+02  0.51100000000E-03 0. -1.
    9900012    2    1    2    0    0 -0.24740441091E+02 -0.28006873976E+02  0.16021586978E+02  0.50528860012E+02  0.30000000492E+02 0.  0.
         12    1    1    2    0    0  0.24740441091E+02  0.28006873976E+02 -0.16021586978E+02  0.40659139988E+02  0.00000000000E+00 0. -1.
         11    1    3    3    0    0 -0.24079053844E+01 -0.40767339953E+01  0.67279211827E+01  0.82269491375E+01  0.51100000000E-03 0. -1.
        -11    1    3    3    0    0 -0.18612639294E+01 -0.12718452334E+02  0.13438706062E+02  0.18596294095E+02  0.51100000000E-03 0.  1.
         12    1    3    3    0    0 -0.20471271777E+02 -0.11211687647E+02 -0.41450402671E+01  0.23705616779E+02  0.00000000000E+00 0. -1.
</event>
<event>
 7    1  0.6624035E-013  0.5052886E+02  0.7816164E-02  0.1300439E+00
        -11   -1    0    0    0    0  0.00000000000E+00  0.00000000000E+00  0.45593999997E+02  0.45594000000E+02  0.51100000000E-03 0.  1.
         11   -1    0    0    0    0 -0.00000000000E+00 -0.00000000000E+00 -0.45593999997E+02  0.45594000000E+02  0.51100000000E-03 0. -1.
    9900012    2    1    2    0    0 -0.35405420467E+02 -0.11607577706E+02 -0.16275329895E+02  0.50528855619E+02  0.29999987138E+02 0.  0.
         12    1    1    2    0    0  0.35405420467E+02  0.11607577706E+02  0.16275329895E+02  0.40659144381E+02  0.00000000000E+00 0. -1.
         11    1    3    3    0    0 -0.56891443471E+00 -0.10186051194E+01  0.81342980894E+00  0.14222827913E+01  0.51100000000E-03 0. -1.
        -11    1    3    3    0    0 -0.58420603993E+01 -0.70563819924E+01  0.67707156179E+01  0.11391434799E+02  0.51100000000E-03 0.  1.
         12    1    3    3    0    0 -0.28994445633E+02 -0.35325905943E+01 -0.23859475322E+02  0.37715138029E+02  0.00000000000E+00 0. -1.
</event>
<event>
 7    1  0.6624035E-013  0.5052886E+02  0.7816164E-02  0.1300439E+00
        -11   -1    0    0    0    0  0.00000000000E+00  0.00000000000E+00  0.45593999997E+02  0.45594000000E+02  0.51100000000E-03 0.  1.
         11   -1    0    0    0    0 -0.00000000000E+00 -0.00000000000E+00 -0.45593999997E+02  0.45594000000E+02  0.51100000000E-03 0. -1.
    9900012    2    1    2    0    0  0.40088426715E+01 -0.11851217840E+02  0.38686479491E+02  0.50528857372E+02  0.29999992468E+02 0.  0.
         12    1    1    2    0    0 -0.40088426715E+01  0.11851217840E+02 -0.38686479491E+02  0.40659142628E+02  0.00000000000E+00 0. -1.
         11    1    3    3    0    0 -0.15104914143E+01 -0.98615257610E+01  0.78116802550E+01  0.12670975626E+02  0.51100000000E-03 0. -1.
        -11    1    3    3    0    0 -0.78384295543E+01 -0.32276858079E+01  0.12668426748E+02  0.15242964609E+02  0.51100000000E-03 0.  1.
         12    1    3    3    0    0  0.13357763640E+02  0.12379937290E+01  0.18206372488E+02  0.22614917137E+02  0.00000000000E+00 0. -1.
</event>
<event>
 7    1  0.6624035E-013  0.5052885E+02  0.7816164E-02  0.1300439E+00
        -11   -1    0    0    0    0  0.00000000000E+00  0.00000000000E+00  0.45593999997E+02  0.45594000000E+02  0.51100000000E-03 0. -1.
         11   -1    0    0    0    0 -0.00000000000E+00 -0.00000000000E+00 -0.45593999997E+02  0.45594000000E+02  0.51100000000E-03 0.  1.
    9900012    2    1    2    0    0 -0.28346768881E+01  0.29601373630E+02 -0.27728858316E+02  0.50528852231E+02  0.29999976840E+02 0.  0.
         12    1    1    2    0    0  0.28346768881E+01 -0.29601373630E+02  0.27728858316E+02  0.40659147769E+02  0.00000000000E+00 0. -1.
         11    1    3    3    0    0 -0.63087201949E+01  0.85997615723E+01 -0.38462300705E+01  0.11337959941E+02  0.51100000000E-03 0. -1.
        -11    1    3    3    0    0 -0.87576930461E+01  0.15106305351E+02 -0.12527684850E+02  0.21490475491E+02  0.51100000000E-03 0.  1.
        -12    1    3    3    0    0  0.12231736353E+02  0.58953067065E+01 -0.11354943395E+02  0.17700416799E+02  0.00000000000E+00 0.  1.
</event>
<event>
 7    1  0.6624035E-013  0.5052891E+02  0.7816164E-02  0.1300439E+00
        -11   -1    0    0    0    0  0.00000000000E+00  0.00000000000E+00  0.45593999997E+02  0.45594000000E+02  0.51100000000E-03 0. -1.
         11   -1    0    0    0    0 -0.00000000000E+00 -0.00000000000E+00 -0.45593999997E+02  0.45594000000E+02  0.51100000000E-03 0.  1.
    9900012    2    1    2    0    0 -0.35243415323E+02  0.18170288553E+02 -0.89946739529E+01  0.50528906685E+02  0.30000142358E+02 0.  0.
         12    1    1    2    0    0  0.35243415323E+02 -0.18170288553E+02  0.89946739529E+01  0.40659093315E+02  0.00000000000E+00 0. -1.
         11    1    3    3    0    0 -0.14219422546E+02 -0.39892777477E+01 -0.67958845184E+01  0.16257009600E+02  0.51100000000E-03 0.  1.
        -11    1    3    3    0    0  0.42940742402E+00  0.88408519704E+01  0.56699006581E+00  0.88694155554E+01  0.51100000000E-03 0. -1.
        -12    1    3    3    0    0 -0.21453400201E+02  0.13318714330E+02 -0.27657795003E+01  0.25402481529E+02  0.00000000000E+00 0.  1.
</event>
<event>
 7    1  0.6624035E-013  0.5052887E+02  0.7816164E-02  0.1300439E+00
        -11   -1    0    0    0    0  0.00000000000E+00  0.00000000000E+00  0.45593999997E+02  0.45594000000E+02  0.51100000000E-03 0. -1.
         11   -1    0    0    0    0 -0.00000000000E+00 -0.00000000000E+00 -0.45593999997E+02  0.45594000000E+02  0.51100000000E-03 0.  1.
    9900012    2    1    2    0    0  0.24602717131E+02 -0.52042575021E+01 -0.31949757702E+02  0.50528868140E+02  0.30000025198E+02 0.  0.
         12    1    1    2    0    0 -0.24602717131E+02  0.52042575021E+01  0.31949757702E+02  0.40659131860E+02  0.00000000000E+00 0. -1.
         11    1    3    3    0    0  0.30799875204E+01 -0.90452800122E+01 -0.20281969777E+00  0.95574342643E+01  0.51100000000E-03 0. -1.
        -11    1    3    3    0    0 -0.17038483101E+01 -0.12533116344E+01 -0.28362014439E+01  0.35380684007E+01  0.51100000000E-03 0.  1.
        -12    1    3    3    0    0  0.23226577921E+02  0.50943341445E+01 -0.28910736560E+02  0.37433365475E+02  0.00000000000E+00 0.  1.
</event>
<event>
 7    1  0.6624035E-013  0.5052887E+02  0.7816164E-02  0.1300439E+00
        -11   -1    0    0    0    0  0.00000000000E+00  0.00000000000E+00  0.45593999997E+02  0.45594000000E+02  0.51100000000E-03 0.  1.
         11   -1    0    0    0    0 -0.00000000000E+00 -0.00000000000E+00 -0.45593999997E+02  0.45594000000E+02  0.51100000000E-03 0. -1.
    9900012    2    1    2    0    0  0.35315919788E+02 -0.68219037276E+00  0.20136667618E+02  0.50528868714E+02  0.30000026942E+02 0.  0.
         12    1    1    2    0    0 -0.35315919788E+02  0.68219037276E+00 -0.20136667618E+02  0.40659131286E+02  0.00000000000E+00 0. -1.
         11    1    3    3    0    0  0.10841648809E+01  0.43297928616E+01  0.16203116440E+01  0.47484660469E+01  0.51100000000E-03 0. -1.
        -11    1    3    3    0    0  0.37100292022E+00 -0.48085707698E+01  0.96334809770E+01  0.10773298103E+02  0.51100000000E-03 0.  1.
         12    1    3    3    0    0  0.33860751987E+02 -0.20341246455E+00  0.88828749975E+01  0.35007104564E+02  0.00000000000E+00 0. -1.
</event>
<event>
 7    1  0.6624035E-013  0.5052886E+02  0.7816164E-02  0.1300439E+00
        -11   -1    0    0    0    0  0.00000000000E+00  0.00000000000E+00  0.45593999997E+02  0.45594000000E+02  0.51100000000E-03 0.  1.
         11   -1    0    0    0    0 -0.00000000000E+00 -0.00000000000E+00 -0.45593999997E+02  0.45594000000E+02  0.51100000000E-03 0. -1.
    9900012    2    1    2    0    0  0.82087512773E+01 -0.35289132939E+02  0.18451537272E+02  0.50528859222E+02  0.29999998090E+02 0.  0.
         12    1    1    2    0    0 -0.82087512773E+01  0.35289132939E+02 -0.18451537272E+02  0.40659140778E+02  0.00000000000E+00 0. -1.
         11    1    3    3    0    0  0.86364148715E+00  0.11018059815E+01 -0.18984450337E+01  0.23588019939E+01  0.51100000000E-03 0. -1.
        -11    1    3    3    0    0  0.57323142864E+01 -0.15476107355E+02 -0.30078553873E+01  0.16775473771E+02  0.51100000000E-03 0.  1.
         12    1    3    3    0    0  0.16127955037E+01 -0.20914831565E+02  0.23357837693E+02  0.31394583457E+02  0.00000000000E+00 0. -1.
</event>
<event>
 7    1  0.6624035E-013  0.5052886E+02  0.7816164E-02  0.1300439E+00
        -11   -1    0    0    0    0  0.00000000000E+00  0.00000000000E+00  0.45593999997E+02  0.45594000000E+02  0.51100000000E-03 0.  1.
         11   -1    0    0    0    0 -0.00000000000E+00 -0.00000000000E+00 -0.45593999997E+02  0.45594000000E+02  0.51100000000E-03 0. -1.
    9900012    2    1    2    0    0 -0.34644346186E+02 -0.20850302039E+02 -0.42661334224E+01  0.50528859427E+02  0.29999998715E+02 0.  0.
         12    1    1    2    0    0  0.34644346186E+02  0.20850302039E+02  0.42661334224E+01  0.40659140573E+02  0.00000000000E+00 0. -1.
         11    1    3    3    0    0 -0.41131744224E+01  0.36989167926E+01  0.60260520092E+00  0.55644696564E+01  0.51100000000E-03 0. -1.
        -11    1    3    3    0    0 -0.10124435886E+02  0.21825110049E+01 -0.46002093532E+01  0.11332673235E+02  0.51100000000E-03 0.  1.
        -12    1    3    3    0    0 -0.20406735877E+02 -0.26731729836E+02 -0.26852927010E+00  0.33631716536E+02  0.00000000000E+00 0.  1.
</event>
<event>
 7    1  0.6624035E-013  0.5052886E+02  0.7816164E-02  0.1300439E+00
        -11   -1    0    0    0    0  0.00000000000E+00  0.00000000000E+00  0.45593999997E+02  0.45594000000E+02  0.51100000000E-03 0. -1.
         11   -1    0    0    0    0 -0.00000000000E+00 -0.00000000000E+00 -0.45593999997E+02  0.45594000000E+02  0.51100000000E-03 0.  1.
    9900012    2    1    2    0    0  0.11522194327E+02 -0.38525235016E+02 -0.60175760547E+01  0.50528856911E+02  0.29999991066E+02 0.  0.
         12    1    1    2    0    0 -0.11522194327E+02  0.38525235016E+02  0.60175760547E+01  0.40659143089E+02  0.00000000000E+00 0. -1.
         11    1    3    3    0    0 -0.36230888078E+01 -0.15662312835E+02  0.47056584219E+01  0.16750463794E+02  0.51100000000E-03 0. -1.
        -11    1    3    3    0    0  0.23979405145E+01 -0.63305515138E+00  0.36381317974E+01  0.44030535736E+01  0.51100000000E-03 0.  1.
        -12    1    3    3    0    0  0.12747342621E+02 -0.22229867029E+02 -0.14361366274E+02  0.29375339543E+02  0.00000000000E+00 0.  1.
</event>
<event>
 7    1  0.6624035E-013  0.5052887E+02  0.7816164E-02  0.1300439E+00
        -11   -1    0    0    0    0  0.00000000000E+00  0.00000000000E+00  0.45593999997E+02  0.45594000000E+02  0.51100000000E-03 0.  1.
         11   -1    0    0    0    0 -0.00000000000E+00 -0.00000000000E+00 -0.45593999997E+02  0.45594000000E+02  0.51100000000E-03 0. -1.
    9900012    2    1    2    0    0 -0.28905030173E+02 -0.22136609160E+02  0.18100680842E+02  0.50528869644E+02  0.30000029769E+02 0.  0.
         12    1    1    2    0    0  0.28905030173E+02  0.22136609160E+02 -0.18100680842E+02  0.40659130356E+02  0.00000000000E+00 0. -1.
         11    1    3    3    0    0 -0.37825617286E+01 -0.44691327315E+01  0.17202842218E+02  0.18171920682E+02  0.51100000000E-03 0. -1.
        -11    1    3    3    0    0 -0.30418878522E+01  0.11712479351E+01  0.68702214283E+00  0.33312014525E+01  0.51100000000E-03 0.  1.
         12    1    3    3    0    0 -0.22080580592E+02 -0.18838724363E+02  0.21081648114E+00  0.29025747510E+02  0.00000000000E+00 0. -1.
</event>
<event>
 7    1  0.6624035E-013  0.5052886E+02  0.7816164E-02  0.1300439E+00
        -11   -1    0    0    0    0  0.00000000000E+00  0.00000000000E+00  0.45593999997E+02  0.45594000000E+02  0.51100000000E-03 0.  1.
         11   -1    0    0    0    0 -0.00000000000E+00 -0.00000000000E+00 -0.45593999997E+02  0.45594000000E+02  0.51100000000E-03 0. -1.
    9900012    2    1    2    0    0  0.18897920066E+02  0.86595487609E+01  0.34943472164E+02  0.50528863088E+02  0.30000009843E+02 0.  0.
         12    1    1    2    0    0 -0.18897920066E+02 -0.86595487609E+01 -0.34943472164E+02  0.40659136912E+02  0.00000000000E+00 0. -1.
         11    1    3    3    0    0  0.41679104868E+01 -0.14167301630E+01  0.35461107585E+01  0.56527430469E+01  0.51100000000E-03 0. -1.
        -11    1    3    3    0    0  0.16627288910E+02  0.73803240402E+01  0.35333653334E+02  0.39741703255E+02  0.51100000000E-03 0.  1.
        -12    1    3    3    0    0 -0.18972793308E+01  0.26959548836E+01 -0.39362919284E+01  0.51344167867E+01  0.00000000000E+00 0.  1.
</event>
<event>
 7    1  0.6624035E-013  0.5052887E+02  0.7816164E-02  0.1300439E+00
        -11   -1    0    0    0    0  0.00000000000E+00  0.00000000000E+00  0.45593999997E+02  0.45594000000E+02  0.51100000000E-03 0.  1.
         11   -1    0    0    0    0 -0.00000000000E+00 -0.00000000000E+00 -0.45593999997E+02  0.45594000000E+02  0.51100000000E-03 0. -1.
    9900012    2    1    2    0    0  0.12844655202E+01  0.25372354970E+02  0.31745220143E+02  0.50528865106E+02  0.30000015976E+02 0.  0.
         12    1    1    2    0    0 -0.12844655202E+01 -0.25372354970E+02 -0.31745220143E+02  0.40659134894E+02  0.00000000000E+00 0. -1.
         11    1    3    3    0    0  0.40747705358E+00  0.11041473326E+02  0.15051998819E+02  0.18671980063E+02  0.51100000000E-03 0.  1.
        -11    1    3    3    0    0  0.69348178841E+01 -0.27129412047E+01  0.10219915613E+02  0.12645094878E+02  0.51100000000E-03 0. -1.
         12    1    3    3    0    0 -0.60578294174E+01  0.17043822848E+02  0.64733057112E+01  0.19211790166E+02  0.00000000000E+00 0. -1.
</event>
<event>
 7    1  0.6624035E-013  0.5052886E+02  0.7816164E-02  0.1300439E+00
        -11   -1    0    0    0    0  0.00000000000E+00  0.00000000000E+00  0.45593999997E+02  0.45594000000E+02  0.51100000000E-03 0. -1.
         11   -1    0    0    0    0 -0.00000000000E+00 -0.00000000000E+00 -0.45593999997E+02  0.45594000000E+02  0.51100000000E-03 0.  1.
    9900012    2    1    2    0    0  0.88103758494E+01  0.96390338595E+01 -0.38504959247E+02  0.50528861015E+02  0.30000003541E+02 0.  0.
         12    1    1    2    0    0 -0.88103758494E+01 -0.96390338595E+01  0.38504959247E+02  0.40659138985E+02  0.00000000000E+00 0. -1.
         11    1    3    3    0    0  0.35738526571E+01  0.10597517014E+01 -0.59680570355E+01  0.70365617686E+01  0.51100000000E-03 0. -1.
        -11    1    3    3    0    0  0.11708534872E+02 -0.16298060983E+01 -0.28323229934E+02  0.30691226937E+02  0.51100000000E-03 0.  1.
         12    1    3    3    0    0 -0.64720116793E+01  0.10209088256E+02 -0.42136722783E+01  0.12801072309E+02  0.00000000000E+00 0. -1.
</event>
<event>
 7    1  0.6624035E-013  0.5052886E+02  0.7816164E-02  0.1300439E+00
        -11   -1    0    0    0    0  0.00000000000E+00  0.00000000000E+00  0.45593999997E+02  0.45594000000E+02  0.51100000000E-03 0. -1.
         11   -1    0    0    0    0 -0.00000000000E+00 -0.00000000000E+00 -0.45593999997E+02  0.45594000000E+02  0.51100000000E-03 0.  1.
    9900012    2    1    2    0    0 -0.19160885422E+02  0.14484312046E+02 -0.32805951262E+02  0.50528864940E+02  0.30000015472E+02 0.  0.
         12    1    1    2    0    0  0.19160885422E+02 -0.14484312046E+02  0.32805951262E+02  0.40659135060E+02  0.00000000000E+00 0. -1.
         11    1    3    3    0    0  0.77427102095E+00 -0.28988709134E+01  0.25899255390E+01  0.39636678399E+01  0.51100000000E-03 0. -1.
        -11    1    3    3    0    0 -0.32979624195E+01  0.23395351891E+01  0.66480111713E+00  0.40977971897E+01  0.51100000000E-03 0.  1.
         12    1    3    3    0    0 -0.16637194024E+02  0.15043647771E+02 -0.36060677918E+02  0.42467399910E+02  0.00000000000E+00 0. -1.
</event>
<event>
 7    1  0.6624035E-013  0.5052886E+02  0.7816164E-02  0.1300439E+00
        -11   -1    0    0    0    0  0.00000000000E+00  0.00000000000E+00  0.45593999997E+02  0.45594000000E+02  0.51100000000E-03 0.  1.
         11   -1    0    0    0    0 -0.00000000000E+00 -0.00000000000E+00 -0.45593999997E+02  0.45594000000E+02  0.51100000000E-03 0. -1.
    9900012    2    1    2    0    0 -0.81317333299E+01  0.11161557991E+02  0.38242127815E+02  0.50528858303E+02  0.29999995297E+02 0.  0.
         12    1    1    2    0    0  0.81317333299E+01 -0.11161557991E+02 -0.38242127815E+02  0.40659141697E+02  0.00000000000E+00 0. -1.
         11    1    3    3    0    0 -0.25533341436E+01 -0.20811318677E+01  0.75328655349E+01  0.82215989033E+01  0.51100000000E-03 0. -1.
        -11    1    3    3    0    0  0.10222762117E+01  0.39286566347E+01  0.30623256315E+02  0.30891151147E+02  0.51100000000E-03 0.  1.
         12    1    3    3    0    0 -0.66006753980E+01  0.93140332238E+01  0.86005965345E-01  0.11416108252E+02  0.00000000000E+00 0. -1.
</event>
<event>
 7    1  0.6624035E-013  0.5052886E+02  0.7816164E-02  0.1300439E+00
        -11   -1    0    0    0    0  0.00000000000E+00  0.00000000000E+00  0.45593999997E+02  0.45594000000E+02  0.51100000000E-03 0.  1.
         11   -1    0    0    0    0 -0.00000000000E+00 -0.00000000000E+00 -0.45593999997E+02  0.45594000000E+02  0.51100000000E-03 0. -1.
    9900012    2    1    2    0    0 -0.10305408115E+02  0.28346296940E+02  0.27266314133E+02  0.50528857449E+02  0.29999992701E+02 0.  0.
         12    1    1    2    0    0  0.10305408115E+02 -0.28346296940E+02 -0.27266314133E+02  0.40659142551E+02  0.00000000000E+00 0. -1.
         11    1    3    3    0    0  0.23860413279E+01  0.68049291778E+01  0.34422645504E+01  0.79905844485E+01  0.51100000000E-03 0.  1.
        -11    1    3    3    0    0  0.44188887942E+01  0.77014144675E+01  0.17527538626E+02  0.19648230798E+02  0.51100000000E-03 0. -1.
        -12    1    3    3    0    0 -0.17110338237E+02  0.13839953295E+02  0.62965109568E+01  0.22890042202E+02  0.00000000000E+00 0.  1.
</event>
<event>
 7    1  0.6624035E-013  0.5052875E+02  0.7816164E-02  0.1300439E+00
        -11   -1    0    0    0    0  0.00000000000E+00  0.00000000000E+00  0.45593999997E+02  0.45594000000E+02  0.51100000000E-03 0.  1.
         11   -1    0    0    0    0 -0.00000000000E+00 -0.00000000000E+00 -0.45593999997E+02  0.45594000000E+02  0.51100000000E-03 0. -1.
    9900012    2    1    2    0    0 -0.56078745725E+00  0.39630410679E+02  0.90714143117E+01  0.50528751473E+02  0.29999670575E+02 0.  0.
         12    1    1    2    0    0  0.56078745725E+00 -0.39630410679E+02 -0.90714143117E+01  0.40659248527E+02  0.00000000000E+00 0. -1.
         11    1    3    3    0    0 -0.55244989505E+01  0.23632379202E+02  0.37428727272E+01  0.24556435651E+02  0.51100000000E-03 0. -1.
        -11    1    3    3    0    0 -0.27019564482E+01  0.15947742004E+02  0.77463383992E+01  0.17934235488E+02  0.51100000000E-03 0.  1.
         12    1    3    3    0    0  0.76656679414E+01  0.50289473610E-01 -0.24177968146E+01  0.80380803340E+01  0.00000000000E+00 0. -1.
</event>
<event>
 7    1  0.6624035E-013  0.5052886E+02  0.7816164E-02  0.1300439E+00
        -11   -1    0    0    0    0  0.00000000000E+00  0.00000000000E+00  0.45593999997E+02  0.45594000000E+02  0.51100000000E-03 0. -1.
         11   -1    0    0    0    0 -0.00000000000E+00 -0.00000000000E+00 -0.45593999997E+02  0.45594000000E+02  0.51100000000E-03 0.  1.
    9900012    2    1    2    0    0 -0.88484672237E+01  0.66330372287E+01 -0.39126375720E+02  0.50528857952E+02  0.29999994231E+02 0.  0.
         12    1    1    2    0    0  0.88484672237E+01 -0.66330372287E+01  0.39126375720E+02  0.40659142048E+02  0.00000000000E+00 0. -1.
         11    1    3    3    0    0  0.34512875114E+01 -0.13301444973E+01 -0.39943867398E+01  0.54438768868E+01  0.51100000000E-03 0. -1.
        -11    1    3    3    0    0 -0.11327273351E+02  0.13800939442E+02 -0.12764506460E+02  0.21947794342E+02  0.51100000000E-03 0.  1.
         12    1    3    3    0    0 -0.97248138402E+00 -0.58377577156E+01 -0.22367482520E+02  0.23137186724E+02  0.00000000000E+00 0. -1.
</event>
<event>
 7    1  0.6624035E-013  0.5052888E+02  0.7816164E-02  0.1300439E+00
        -11   -1    0    0    0    0  0.00000000000E+00  0.00000000000E+00  0.45593999997E+02  0.45594000000E+02  0.51100000000E-03 0.  1.
         11   -1    0    0    0    0 -0.00000000000E+00 -0.00000000000E+00 -0.45593999997E+02  0.45594000000E+02  0.51100000000E-03 0. -1.
    9900012    2    1    2    0    0 -0.10777359550E+02  0.39155975419E+02 -0.19551280049E+01  0.50528875374E+02  0.30000047187E+02 0.  0.
         12    1    1    2    0    0  0.10777359550E+02 -0.39155975419E+02  0.19551280049E+01  0.40659124626E+02  0.00000000000E+00 0. -1.
         11    1    3    3    0    0  0.11098055823E+01  0.30210118281E+02  0.24641027374E+01  0.30330755308E+02  0.51100000000E-03 0. -1.
        -11    1    3    3    0    0 -0.14051947677E+00  0.47732699950E+01 -0.59604774034E+01  0.76374827860E+01  0.51100000000E-03 0.  1.
         12    1    3    3    0    0 -0.11746645655E+02  0.41725871425E+01  0.15412466611E+01  0.12560637280E+02  0.00000000000E+00 0. -1.
</event>
<event>
 7    1  0.6624035E-013  0.5052886E+02  0.7816164E-02  0.1300439E+00
        -11   -1    0    0    0    0  0.00000000000E+00  0.00000000000E+00  0.45593999997E+02  0.45594000000E+02  0.51100000000E-03 0.  1.
         11   -1    0    0    0    0 -0.00000000000E+00 -0.00000000000E+00 -0.45593999997E+02  0.45594000000E+02  0.51100000000E-03 0. -1.
    9900012    2    1    2    0    0  0.23384029107E+02  0.48778907421E+01  0.32902259993E+02  0.50528863905E+02  0.30000012326E+02 0.  0.
         12    1    1    2    0    0 -0.23384029107E+02 -0.48778907421E+01 -0.32902259993E+02  0.40659136095E+02  0.00000000000E+00 0. -1.
         11    1    3    3    0    0  0.22772296636E+02  0.80994045656E+01  0.20214777077E+02  0.31508967944E+02  0.51100000000E-03 0. -1.
        -11    1    3    3    0    0 -0.25185924457E-01  0.38818338360E+01 -0.61103103632E+00  0.39297108608E+01  0.51100000000E-03 0.  1.
        -12    1    3    3    0    0  0.63691839511E+00 -0.71033476595E+01  0.13298513952E+02  0.15090185100E+02  0.00000000000E+00 0.  1.
</event>
<event>
 7    1  0.6624035E-013  0.5052886E+02  0.7816164E-02  0.1300439E+00
        -11   -1    0    0    0    0  0.00000000000E+00  0.00000000000E+00  0.45593999997E+02  0.45594000000E+02  0.51100000000E-03 0.  1.
         11   -1    0    0    0    0 -0.00000000000E+00 -0.00000000000E+00 -0.45593999997E+02  0.45594000000E+02  0.51100000000E-03 0. -1.
    9900012    2    1    2    0    0 -0.21711771337E+02 -0.30593417257E+02  0.15678256588E+02  0.50528856825E+02  0.29999990805E+02 0.  0.
         12    1    1    2    0    0  0.21711771337E+02  0.30593417257E+02 -0.15678256588E+02  0.40659143175E+02  0.00000000000E+00 0. -1.
         11    1    3    3    0    0 -0.88199226142E+01 -0.12932073633E+01  0.15653285944E+02  0.18013572142E+02  0.51100000000E-03 0. -1.
        -11    1    3    3    0    0 -0.58838349561E+01 -0.12219404165E+02  0.27917528159E+01  0.13846560439E+02  0.51100000000E-03 0.  1.
        -12    1    3    3    0    0 -0.70080137671E+01 -0.17080805729E+02 -0.27667821724E+01  0.18668724244E+02  0.00000000000E+00 0.  1.
</event>
<event>
 7    1  0.6624035E-013  0.5052886E+02  0.7816164E-02  0.1300439E+00
        -11   -1    0    0    0    0  0.00000000000E+00  0.00000000000E+00  0.45593999997E+02  0.45594000000E+02  0.51100000000E-03 0.  1.
         11   -1    0    0    0    0 -0.00000000000E+00 -0.00000000000E+00 -0.45593999997E+02  0.45594000000E+02  0.51100000000E-03 0. -1.
    9900012    2    1    2    0    0  0.20455562240E+02  0.30652805240E+02  0.17179672907E+02  0.50528860108E+02  0.30000000783E+02 0.  0.
         12    1    1    2    0    0 -0.20455562240E+02 -0.30652805240E+02 -0.17179672907E+02  0.40659139892E+02  0.00000000000E+00 0. -1.
         11    1    3    3    0    0  0.78119735096E+01  0.17726856228E+02 -0.22548632777E+00  0.19373156847E+02  0.51100000000E-03 0. -1.
        -11    1    3    3    0    0  0.65388282167E+01  0.16067521455E+02  0.70362309868E+01  0.18719777427E+02  0.51100000000E-03 0.  1.
        -12    1    3    3    0    0  0.61047605138E+01 -0.31415724438E+01  0.10368928248E+02  0.12435925834E+02  0.00000000000E+00 0.  1.
</event>
<event>
 7    1  0.6624035E-013  0.5052887E+02  0.7816164E-02  0.1300439E+00
        -11   -1    0    0    0    0  0.00000000000E+00  0.00000000000E+00  0.45593999997E+02  0.45594000000E+02  0.51100000000E-03 0.  1.
         11   -1    0    0    0    0 -0.00000000000E+00 -0.00000000000E+00 -0.45593999997E+02  0.45594000000E+02  0.51100000000E-03 0. -1.
    9900012    2    1    2    0    0 -0.35588366598E+02 -0.71517686091E+01  0.18316255789E+02  0.50528869937E+02  0.30000030660E+02 0.  0.
         12    1    1    2    0    0  0.35588366598E+02  0.71517686091E+01 -0.18316255789E+02  0.40659130063E+02  0.00000000000E+00 0. -1.
         11    1    3    3    0    0 -0.84278436947E+01 -0.82438534317E+01  0.14935310693E+02  0.19027694934E+02  0.51100000000E-03 0. -1.
        -11    1    3    3    0    0 -0.18360945390E+02  0.14979010248E+01  0.95468114333E+01  0.20748726031E+02  0.51100000000E-03 0.  1.
         12    1    3    3    0    0 -0.87995775131E+01 -0.40581620216E+00 -0.61658663370E+01  0.10752448972E+02  0.00000000000E+00 0. -1.
</event>
<event>
 7    1  0.6624035E-013  0.5052885E+02  0.7816164E-02  0.1300439E+00
        -11   -1    0    0    0    0  0.00000000000E+00  0.00000000000E+00  0.45593999997E+02  0.45594000000E+02  0.51100000000E-03 0.  1.
         11   -1    0    0    0    0 -0.00000000000E+00 -0.00000000000E+00 -0.45593999997E+02  0.45594000000E+02  0.51100000000E-03 0. -1.
    9900012    2    1    2    0    0  0.16582978497E+02  0.28249412213E+02  0.24086132865E+02  0.50528852658E+02  0.29999978138E+02 0.  0.
         12    1    1    2    0    0 -0.16582978497E+02 -0.28249412213E+02 -0.24086132865E+02  0.40659147342E+02  0.00000000000E+00 0. -1.
         11    1    3    3    0    0 -0.11659772881E+01 -0.31986261774E+01  0.56410564997E+00  0.34509314547E+01  0.51100000000E-03 0. -1.
        -11    1    3    3    0    0  0.42405421640E+01  0.19233985176E+02  0.34859344390E+01  0.20002002968E+02  0.51100000000E-03 0.  1.
        -12    1    3    3    0    0  0.13508413621E+02  0.12214053215E+02  0.20036092776E+02  0.27075918234E+02  0.00000000000E+00 0.  1.
</event>
<event>
 7    1  0.6624035E-013  0.5052886E+02  0.7816164E-02  0.1300439E+00
        -11   -1    0    0    0    0  0.00000000000E+00  0.00000000000E+00  0.45593999997E+02  0.45594000000E+02  0.51100000000E-03 0.  1.
         11   -1    0    0    0    0 -0.00000000000E+00 -0.00000000000E+00 -0.45593999997E+02  0.45594000000E+02  0.51100000000E-03 0. -1.
    9900012    2    1    2    0    0  0.15523913730E+02  0.22840129770E+02  0.29841282236E+02  0.50528861410E+02  0.30000004743E+02 0.  0.
         12    1    1    2    0    0 -0.15523913730E+02 -0.22840129770E+02 -0.29841282236E+02  0.40659138590E+02  0.00000000000E+00 0. -1.
         11    1    3    3    0    0  0.12531864352E+01 -0.20741148687E+01 -0.25618613570E+01  0.35264093074E+01  0.51100000000E-03 0. -1.
        -11    1    3    3    0    0  0.11476302677E+02  0.29009402878E+01  0.12060291484E+02  0.16898864123E+02  0.51100000000E-03 0.  1.
        -12    1    3    3    0    0  0.27944246171E+01  0.22013304351E+02  0.20342852109E+02  0.30103587980E+02  0.00000000000E+00 0.  1.
</event>
<event>
 7    1  0.6624035E-013  0.5052886E+02  0.7816164E-02  0.1300439E+00
        -11   -1    0    0    0    0  0.00000000000E+00  0.00000000000E+00  0.45593999997E+02  0.45594000000E+02  0.51100000000E-03 0.  1.
         11   -1    0    0    0    0 -0.00000000000E+00 -0.00000000000E+00 -0.45593999997E+02  0.45594000000E+02  0.51100000000E-03 0. -1.
    9900012    2    1    2    0    0  0.37168037275E+02 -0.21828914681E+01  0.16338228122E+02  0.50528859475E+02  0.29999998860E+02 0.  0.
         12    1    1    2    0    0 -0.37168037275E+02  0.21828914681E+01 -0.16338228122E+02  0.40659140525E+02  0.00000000000E+00 0. -1.
         11    1    3    3    0    0  0.69283550181E+01  0.36103051758E+01  0.12827574417E+02  0.15019423172E+02  0.51100000000E-03 0. -1.
        -11    1    3    3    0    0  0.11621930969E+02  0.56863551468E+01  0.42671957608E+01  0.13623981584E+02  0.51100000000E-03 0.  1.
         12    1    3    3    0    0  0.18617751289E+02 -0.11479551791E+02 -0.75654205567E+00  0.21885454719E+02  0.00000000000E+00 0. -1.
</event>
<event>
 7    1  0.6897644E-013  0.5052886E+02  0.7816164E-02  0.1300439E+00
        -11   -1    0    0    0    0  0.00000000000E+00  0.00000000000E+00  0.45593999997E+02  0.45594000000E+02  0.51100000000E-03 0. -1.
         11   -1    0    0    0    0 -0.00000000000E+00 -0.00000000000E+00 -0.45593999997E+02  0.45594000000E+02  0.51100000000E-03 0.  1.
    9900012    2    1    2    0    0 -0.34736092510E+02  0.19403166228E+02 -0.83718008468E+01  0.50528855494E+02  0.29999986760E+02 0.  0.
         12    1    1    2    0    0  0.34736092510E+02 -0.19403166228E+02  0.83718008468E+01  0.40659144506E+02  0.00000000000E+00 0. -1.
         11    1    3    3    0    0 -0.17938935985E+02  0.14746975564E+02 -0.12463931749E+02  0.26355802159E+02  0.51100000000E-03 0. -1.
        -11    1    3    3    0    0 -0.18863302409E+02  0.53060587897E+01  0.59378230494E-01  0.19595457731E+02  0.51100000000E-03 0.  1.
         12    1    3    3    0    0  0.20661458842E+01 -0.64986812528E+00  0.40327526721E+01  0.45775956035E+01  0.00000000000E+00 0. -1.
</event>
<event>
 7    1  0.6624035E-013  0.5052885E+02  0.7816164E-02  0.1300439E+00
        -11   -1    0    0    0    0  0.00000000000E+00  0.00000000000E+00  0.45593999997E+02  0.45594000000E+02  0.51100000000E-03 0.  1.
         11   -1    0    0    0    0 -0.00000000000E+00 -0.00000000000E+00 -0.45593999997E+02  0.45594000000E+02  0.51100000000E-03 0. -1.
    9900012    2    1    2    0    0  0.60002815045E+01 -0.36962820138E+02  0.15840223564E+02  0.50528854249E+02  0.29999982975E+02 0.  0.
         12    1    1    2    0    0 -0.60002815045E+01  0.36962820138E+02 -0.15840223564E+02  0.40659145751E+02  0.00000000000E+00 0. -1.
         11    1    3    3    0    0 -0.52249437984E+01 -0.61129910613E+01 -0.43159426922E+01  0.91266674638E+01  0.51100000000E-03 0. -1.
        -11    1    3    3    0    0  0.61447592690E+01 -0.22243578660E+02  0.56017485074E+01  0.23746882842E+02  0.51100000000E-03 0.  1.
        -12    1    3    3    0    0  0.50804660339E+01 -0.86062504158E+01  0.14554417748E+02  0.17655303943E+02  0.00000000000E+00 0.  1.
</event>
<event>
 7    1  0.6624035E-013  0.5052885E+02  0.7816164E-02  0.1300439E+00
        -11   -1    0    0    0    0  0.00000000000E+00  0.00000000000E+00  0.45593999997E+02  0.45594000000E+02  0.51100000000E-03 0.  1.
         11   -1    0    0    0    0 -0.00000000000E+00 -0.00000000000E+00 -0.45593999997E+02  0.45594000000E+02  0.51100000000E-03 0. -1.
    9900012    2    1    2    0    0 -0.69480487443E+01 -0.10726395595E+02  0.38598382790E+02  0.50528854684E+02  0.29999984298E+02 0.  0.
         12    1    1    2    0    0  0.69480487443E+01  0.10726395595E+02 -0.38598382790E+02  0.40659145316E+02  0.00000000000E+00 0. -1.
         11    1    3    3    0    0 -0.45858989024E+01  0.39933019253E+01  0.17917248145E+02  0.18921012403E+02  0.51100000000E-03 0. -1.
        -11    1    3    3    0    0 -0.44052943066E+01 -0.52205500932E+01  0.20797699287E+02  0.21890752776E+02  0.51100000000E-03 0.  1.
         12    1    3    3    0    0  0.20431444647E+01 -0.94991474267E+01 -0.11656464163E+00  0.97170895052E+01  0.00000000000E+00 0. -1.
</event>
<event>
 7    1  0.6624035E-013  0.5052883E+02  0.7816164E-02  0.1300439E+00
        -11   -1    0    0    0    0  0.00000000000E+00  0.00000000000E+00  0.45593999997E+02  0.45594000000E+02  0.51100000000E-03 0. -1.
         11   -1    0    0    0    0 -0.00000000000E+00 -0.00000000000E+00 -0.45593999997E+02  0.45594000000E+02  0.51100000000E-03 0.  1.
    9900012    2    1    2    0    0 -0.25880938997E+02 -0.25947309890E+02  0.17609160645E+02  0.50528825973E+02  0.29999897029E+02 0.  0.
         12    1    1    2    0    0  0.25880938997E+02  0.25947309890E+02 -0.17609160645E+02  0.40659174027E+02  0.00000000000E+00 0. -1.
         11    1    3    3    0    0 -0.51139110636E+01 -0.11242034946E+02 -0.14217736685E+01  0.12432090601E+02  0.51100000000E-03 0.  1.
        -11    1    3    3    0    0 -0.20918623686E+02 -0.31104496387E+01  0.14525223034E+02  0.25656301727E+02  0.51100000000E-03 0. -1.
         12    1    3    3    0    0  0.15159575270E+00 -0.11594825306E+02  0.45057112794E+01  0.12440433645E+02  0.00000000000E+00 0. -1.
</event>
<event>
 7    1  0.6624035E-013  0.5052887E+02  0.7816164E-02  0.1300439E+00
        -11   -1    0    0    0    0  0.00000000000E+00  0.00000000000E+00  0.45593999997E+02  0.45594000000E+02  0.51100000000E-03 0.  1.
         11   -1    0    0    0    0 -0.00000000000E+00 -0.00000000000E+00 -0.45593999997E+02  0.45594000000E+02  0.51100000000E-03 0. -1.
    9900012    2    1    2    0    0 -0.32740750989E+02  0.17384483390E+02  0.16702934568E+02  0.50528867431E+02  0.30000023043E+02 0.  0.
         12    1    1    2    0    0  0.32740750989E+02 -0.17384483390E+02 -0.16702934568E+02  0.40659132569E+02  0.00000000000E+00 0. -1.
         11    1    3    3    0    0 -0.69341767410E+01  0.95206678277E+01 -0.99901308428E+00  0.11820488584E+02  0.51100000000E-03 0. -1.
        -11    1    3    3    0    0  0.37300212098E+01 -0.36770503690E+00  0.22684685168E+01  0.43811202783E+01  0.51100000000E-03 0.  1.
        -12    1    3    3    0    0 -0.29536595458E+02  0.82315205990E+01  0.15433479135E+02  0.34327258569E+02  0.00000000000E+00 0.  1.
</event>
<event>
 7    1  0.6624035E-013  0.5052887E+02  0.7816164E-02  0.1300439E+00
        -11   -1    0    0    0    0  0.00000000000E+00  0.00000000000E+00  0.45593999997E+02  0.45594000000E+02  0.51100000000E-03 0.  1.
         11   -1    0    0    0    0 -0.00000000000E+00 -0.00000000000E+00 -0.45593999997E+02  0.45594000000E+02  0.51100000000E-03 0. -1.
    9900012    2    1    2    0    0  0.16468455641E+02  0.31221415601E+01  0.37043310597E+02  0.50528872376E+02  0.30000038074E+02 0.  0.
         12    1    1    2    0    0 -0.16468455641E+02 -0.31221415601E+01 -0.37043310597E+02  0.40659127624E+02  0.00000000000E+00 0. -1.
         11    1    3    3    0    0  0.11652543529E+02 -0.88083141389E+01  0.13949227341E+02  0.20197750180E+02  0.51100000000E-03 0.  1.
        -11    1    3    3    0    0  0.32954047712E+00 -0.32741987736E+01  0.17004143523E+01  0.37041036386E+01  0.51100000000E-03 0. -1.
         12    1    3    3    0    0  0.44863716353E+01  0.15204654473E+02  0.21393668904E+02  0.26627018557E+02  0.00000000000E+00 0. -1.
</event>
<event>
 7    1  0.6624035E-013  0.5052886E+02  0.7816164E-02  0.1300439E+00
        -11   -1    0    0    0    0  0.00000000000E+00  0.00000000000E+00  0.45593999997E+02  0.45594000000E+02  0.51100000000E-03 0.  1.
         11   -1    0    0    0    0 -0.00000000000E+00 -0.00000000000E+00 -0.45593999997E+02  0.45594000000E+02  0.51100000000E-03 0. -1.
    9900012    2    1    2    0    0 -0.23747378432E+02 -0.12792935525E+02  0.30423156869E+02  0.50528860122E+02  0.30000000827E+02 0.  0.
         12    1    1    2    0    0  0.23747378432E+02  0.12792935525E+02 -0.30423156869E+02  0.40659139878E+02  0.00000000000E+00 0. -1.
         11    1    3    3    0    0 -0.16072986335E+02 -0.10527979968E+02  0.22742227976E+02  0.29772272091E+02  0.51100000000E-03 0. -1.
        -11    1    3    3    0    0 -0.11067527389E+02 -0.72212088633E+01  0.60407081208E+01  0.14530181513E+02  0.51100000000E-03 0.  1.
         12    1    3    3    0    0  0.33931352918E+01  0.49562533056E+01  0.16402207723E+01  0.62264065174E+01  0.00000000000E+00 0. -1.
</event>
<event>
 7    1  0.6624035E-013  0.5052885E+02  0.7816164E-02  0.1300439E+00
        -11   -1    0    0    0    0  0.00000000000E+00  0.00000000000E+00  0.45593999997E+02  0.45594000000E+02  0.51100000000E-03 0.  1.
         11   -1    0    0    0    0 -0.00000000000E+00 -0.00000000000E+00 -0.45593999997E+02  0.45594000000E+02  0.51100000000E-03 0. -1.
    9900012    2    1    2    0    0  0.27148761216E+02  0.12317800425E+02  0.27647471980E+02  0.50528854045E+02  0.29999982356E+02 0.  0.
         12    1    1    2    0    0 -0.27148761216E+02 -0.12317800425E+02 -0.27647471980E+02  0.40659145955E+02  0.00000000000E+00 0. -1.
         11    1    3    3    0    0  0.27805100856E+01  0.14461160207E+02  0.11892377224E+02  0.18928418507E+02  0.51100000000E-03 0. -1.
        -11    1    3    3    0    0  0.44274964951E+01  0.42554341112E+01  0.56622264186E+01  0.83529786882E+01  0.51100000000E-03 0.  1.
        -12    1    3    3    0    0  0.19940754635E+02 -0.63987938931E+01  0.10092868337E+02  0.23247456850E+02  0.00000000000E+00 0.  1.
</event>
<event>
 7    1  0.6624035E-013  0.5052886E+02  0.7816164E-02  0.1300439E+00
        -11   -1    0    0    0    0  0.00000000000E+00  0.00000000000E+00  0.45593999997E+02  0.45594000000E+02  0.51100000000E-03 0. -1.
         11   -1    0    0    0    0 -0.00000000000E+00 -0.00000000000E+00 -0.45593999997E+02  0.45594000000E+02  0.51100000000E-03 0.  1.
    9900012    2    1    2    0    0 -0.35213520231E+02  0.12428717856E+02 -0.16084173226E+02  0.50528860032E+02  0.30000000553E+02 0.  0.
         12    1    1    2    0    0  0.35213520231E+02 -0.12428717856E+02  0.16084173226E+02  0.40659139968E+02  0.00000000000E+00 0. -1.
         11    1    3    3    0    0 -0.67294544354E+01  0.18186679116E+01 -0.59626065353E+00  0.69963302523E+01  0.51100000000E-03 0. -1.
        -11    1    3    3    0    0 -0.15644276483E+02  0.19200979099E+02 -0.12702139766E+02  0.27834606876E+02  0.51100000000E-03 0.  1.
        -12    1    3    3    0    0 -0.12839789313E+02 -0.85909291555E+01 -0.27857728066E+01  0.15697922904E+02  0.00000000000E+00 0.  1.
</event>
<event>
 7    1  0.6624035E-013  0.5052888E+02  0.7816164E-02  0.1300439E+00
        -11   -1    0    0    0    0  0.00000000000E+00  0.00000000000E+00  0.45593999997E+02  0.45594000000E+02  0.51100000000E-03 0. -1.
         11   -1    0    0    0    0 -0.00000000000E+00 -0.00000000000E+00 -0.45593999997E+02  0.45594000000E+02  0.51100000000E-03 0.  1.
    9900012    2    1    2    0    0  0.23369560082E+02  0.25900997056E+01 -0.33171062558E+02  0.50528876225E+02  0.30000049773E+02 0.  0.
         12    1    1    2    0    0 -0.23369560082E+02 -0.25900997056E+01  0.33171062558E+02  0.40659123775E+02  0.00000000000E+00 0. -1.
         11    1    3    3    0    0  0.96128749177E+01  0.49030829540E+01 -0.15491120782E+01  0.10901712486E+02  0.51100000000E-03 0.  1.
        -11    1    3    3    0    0 -0.83450733238E+00  0.45584922402E+00  0.23584757482E+01  0.25429528345E+01  0.51100000000E-03 0. -1.
        -12    1    3    3    0    0  0.14591192497E+02 -0.27688324723E+01 -0.33980426228E+02  0.37084210904E+02  0.00000000000E+00 0.  1.
</event>
<event>
 7    1  0.6624035E-013  0.5052886E+02  0.7816164E-02  0.1300439E+00
        -11   -1    0    0    0    0  0.00000000000E+00  0.00000000000E+00  0.45593999997E+02  0.45594000000E+02  0.51100000000E-03 0. -1.
         11   -1    0    0    0    0 -0.00000000000E+00 -0.00000000000E+00 -0.45593999997E+02  0.45594000000E+02  0.51100000000E-03 0.  1.
    9900012    2    1    2    0    0  0.13123442423E+01 -0.36444673632E+01 -0.40474200445E+02  0.50528864601E+02  0.30000014441E+02 0.  0.
         12    1    1    2    0    0 -0.13123442423E+01  0.36444673632E+01  0.40474200445E+02  0.40659135399E+02  0.00000000000E+00 0. -1.
         11    1    3    3    0    0  0.19191938600E+01  0.15360530133E+01 -0.89737510928E+01  0.93043523616E+01  0.51100000000E-03 0. -1.
        -11    1    3    3    0    0  0.18115835365E+01  0.78641222336E+01 -0.25345698339E+02  0.26599448829E+02  0.51100000000E-03 0.  1.
         12    1    3    3    0    0 -0.24184331542E+01 -0.13044642610E+02 -0.61547510124E+01  0.14625063411E+02  0.00000000000E+00 0. -1.
</event>
<event>
 7    1  0.6624035E-013  0.5052886E+02  0.7816164E-02  0.1300439E+00
        -11   -1    0    0    0    0  0.00000000000E+00  0.00000000000E+00  0.45593999997E+02  0.45594000000E+02  0.51100000000E-03 0. -1.
         11   -1    0    0    0    0 -0.00000000000E+00 -0.00000000000E+00 -0.45593999997E+02  0.45594000000E+02  0.51100000000E-03 0.  1.
    9900012    2    1    2    0    0 -0.20502535462E+02  0.10482374222E+02 -0.33510168951E+02  0.50528861386E+02  0.30000004668E+02 0.  0.
         12    1    1    2    0    0  0.20502535462E+02 -0.10482374222E+02  0.33510168951E+02  0.40659138614E+02  0.00000000000E+00 0. -1.
         11    1    3    3    0    0 -0.94046412752E+00  0.31883298604E+01 -0.62243466310E+01  0.70563738080E+01  0.51100000000E-03 0. -1.
        -11    1    3    3    0    0 -0.20620221471E+02  0.49948426909E+01 -0.31840554625E+02  0.38261768204E+02  0.51100000000E-03 0.  1.
         12    1    3    3    0    0  0.10581501358E+01  0.22992016704E+01  0.45547323042E+01  0.52107193740E+01  0.00000000000E+00 0. -1.
</event>
<event>
 7    1  0.6624035E-013  0.5052887E+02  0.7816164E-02  0.1300439E+00
        -11   -1    0    0    0    0  0.00000000000E+00  0.00000000000E+00  0.45593999997E+02  0.45594000000E+02  0.51100000000E-03 0.  1.
         11   -1    0    0    0    0 -0.00000000000E+00 -0.00000000000E+00 -0.45593999997E+02  0.45594000000E+02  0.51100000000E-03 0. -1.
    9900012    2    1    2    0    0  0.33745393881E+02  0.62153696237E+01  0.21812446304E+02  0.50528865214E+02  0.30000016306E+02 0.  0.
         12    1    1    2    0    0 -0.33745393881E+02 -0.62153696237E+01 -0.21812446304E+02  0.40659134786E+02  0.00000000000E+00 0. -1.
         11    1    3    3    0    0  0.10386081025E+01 -0.68736802690E+01  0.65117606570E+00  0.69821356161E+01  0.51100000000E-03 0. -1.
        -11    1    3    3    0    0  0.23883923162E+02  0.21488558798E+01  0.14091542369E+02  0.27814221790E+02  0.51100000000E-03 0.  1.
        -12    1    3    3    0    0  0.88228626164E+01  0.10940194013E+02  0.70697278700E+01  0.15732507808E+02  0.00000000000E+00 0.  1.
</event>
<event>
 7    1  0.6624035E-013  0.5052888E+02  0.7816164E-02  0.1300439E+00
        -11   -1    0    0    0    0  0.00000000000E+00  0.00000000000E+00  0.45593999997E+02  0.45594000000E+02  0.51100000000E-03 0.  1.
         11   -1    0    0    0    0 -0.00000000000E+00 -0.00000000000E+00 -0.45593999997E+02  0.45594000000E+02  0.51100000000E-03 0. -1.
    9900012    2    1    2    0    0  0.89581312697E+01  0.36730492889E+02  0.14959502859E+02  0.50528881102E+02  0.30000064599E+02 0.  0.
         12    1    1    2    0    0 -0.89581312697E+01 -0.36730492889E+02 -0.14959502859E+02  0.40659118898E+02  0.00000000000E+00 0. -1.
         11    1    3    3    0    0  0.47191272725E+01 -0.70933983121E+00 -0.29587891864E+01  0.56149584968E+01  0.51100000000E-03 0. -1.
        -11    1    3    3    0    0  0.10341827053E+02  0.17457301180E+02  0.89440877408E+01  0.22174477605E+02  0.51100000000E-03 0.  1.
        -12    1    3    3    0    0 -0.61028230562E+01  0.19982531540E+02  0.89742043043E+01  0.22739445000E+02  0.00000000000E+00 0.  1.
</event>
<event>
 7    1  0.6624035E-013  0.5052886E+02  0.7816164E-02  0.1300439E+00
        -11   -1    0    0    0    0  0.00000000000E+00  0.00000000000E+00  0.45593999997E+02  0.45594000000E+02  0.51100000000E-03 0. -1.
         11   -1    0    0    0    0 -0.00000000000E+00 -0.00000000000E+00 -0.45593999997E+02  0.45594000000E+02  0.51100000000E-03 0.  1.
    9900012    2    1    2    0    0 -0.17484467097E+01  0.34024987450E+02  0.22190295572E+02  0.50528855218E+02  0.29999985921E+02 0.  0.
         12    1    1    2    0    0  0.17484467097E+01 -0.34024987450E+02 -0.22190295572E+02  0.40659144782E+02  0.00000000000E+00 0. -1.
         11    1    3    3    0    0 -0.28484837627E+00  0.23485560006E+02  0.22508213409E+02  0.32531098022E+02  0.51100000000E-03 0. -1.
        -11    1    3    3    0    0  0.61615644977E+01  0.24157743075E+01 -0.15227169062E+01  0.67911346329E+01  0.51100000000E-03 0.  1.
        -12    1    3    3    0    0 -0.76251628312E+01  0.81236531359E+01  0.12047990688E+01  0.11206622563E+02  0.00000000000E+00 0.  1.
</event>
<event>
 7    1  0.6624035E-013  0.5052888E+02  0.7816164E-02  0.1300439E+00
        -11   -1    0    0    0    0  0.00000000000E+00  0.00000000000E+00  0.45593999997E+02  0.45594000000E+02  0.51100000000E-03 0.  1.
         11   -1    0    0    0    0 -0.00000000000E+00 -0.00000000000E+00 -0.45593999997E+02  0.45594000000E+02  0.51100000000E-03 0. -1.
    9900012    2    1    2    0    0 -0.30954035272E+01  0.39705339504E+02  0.81895303081E+01  0.50528881530E+02  0.30000065898E+02 0.  0.
         12    1    1    2    0    0  0.30954035272E+01 -0.39705339504E+02 -0.81895303081E+01  0.40659118470E+02  0.00000000000E+00 0. -1.
         11    1    3    3    0    0 -0.37340136873E+01  0.28933576353E+02  0.70756291663E+01  0.30019314235E+02  0.51100000000E-03 0. -1.
        -11    1    3    3    0    0 -0.48906789954E+01  0.13323266793E+02 -0.52849141275E+00  0.14202375946E+02  0.51100000000E-03 0.  1.
         12    1    3    3    0    0  0.55292891554E+01 -0.25515036426E+01  0.16423925546E+01  0.63071913484E+01  0.00000000000E+00 0. -1.
</event>
<event>
 7    1  0.6624035E-013  0.5052885E+02  0.7816164E-02  0.1300439E+00
        -11   -1    0    0    0    0  0.00000000000E+00  0.00000000000E+00  0.45593999997E+02  0.45594000000E+02  0.51100000000E-03 0. -1.
         11   -1    0    0    0    0 -0.00000000000E+00 -0.00000000000E+00 -0.45593999997E+02  0.45594000000E+02  0.51100000000E-03 0.  1.
    9900012    2    1    2    0    0  0.35802399742E+02 -0.19257022194E+02  0.72250525662E+00  0.50528846727E+02  0.29999960110E+02 0.  0.
         12    1    1    2    0    0 -0.35802399742E+02  0.19257022194E+02 -0.72250525662E+00  0.40659153273E+02  0.00000000000E+00 0. -1.
         11    1    3    3    0    0  0.80238231930E+01 -0.10051124273E+02  0.73964225621E+01  0.14836236206E+02  0.51100000000E-03 0. -1.
        -11    1    3    3    0    0  0.99270491138E+01 -0.13313231617E+02 -0.15932684051E+01  0.16683133539E+02  0.51100000000E-03 0.  1.
         12    1    3    3    0    0  0.17851527435E+02  0.41073336963E+01 -0.50806489004E+01  0.19009476981E+02  0.00000000000E+00 0. -1.
</event>
<event>
 7    1  0.6624035E-013  0.5052886E+02  0.7816164E-02  0.1300439E+00
        -11   -1    0    0    0    0  0.00000000000E+00  0.00000000000E+00  0.45593999997E+02  0.45594000000E+02  0.51100000000E-03 0.  1.
         11   -1    0    0    0    0 -0.00000000000E+00 -0.00000000000E+00 -0.45593999997E+02  0.45594000000E+02  0.51100000000E-03 0. -1.
    9900012    2    1    2    0    0  0.17451632559E+02  0.66412509436E+01  0.36117858853E+02  0.50528863005E+02  0.30000009589E+02 0.  0.
         12    1    1    2    0    0 -0.17451632559E+02 -0.66412509436E+01 -0.36117858853E+02  0.40659136995E+02  0.00000000000E+00 0. -1.
         11    1    3    3    0    0 -0.27932157239E+00 -0.46615681856E+00 -0.28292882743E+01  0.28810059217E+01  0.51100000000E-03 0. -1.
        -11    1    3    3    0    0  0.11205431235E+02 -0.51251192577E+01  0.11298207741E+02  0.16717596568E+02  0.51100000000E-03 0.  1.
        -12    1    3    3    0    0  0.65255228959E+01  0.12232527020E+02  0.27648939386E+02  0.30930260515E+02  0.00000000000E+00 0.  1.
</event>
<event>
 7    1  0.6624035E-013  0.5052886E+02  0.7816164E-02  0.1300439E+00
        -11   -1    0    0    0    0  0.00000000000E+00  0.00000000000E+00  0.45593999997E+02  0.45594000000E+02  0.51100000000E-03 0. -1.
         11   -1    0    0    0    0 -0.00000000000E+00 -0.00000000000E+00 -0.45593999997E+02  0.45594000000E+02  0.51100000000E-03 0.  1.
    9900012    2    1    2    0    0  0.23690865907E+02  0.26620261474E+02 -0.19577278331E+02  0.50528864800E+02  0.30000015045E+02 0.  0.
         12    1    1    2    0    0 -0.23690865907E+02 -0.26620261474E+02  0.19577278331E+02  0.40659135200E+02  0.00000000000E+00 0. -1.
         11    1    3    3    0    0 -0.14691678192E+00  0.96118763389E+00  0.38541748374E+00  0.10459508144E+01  0.51100000000E-03 0. -1.
        -11    1    3    3    0    0 -0.30732408222E+01  0.12445461748E+02 -0.13876059106E+02  0.18891250458E+02  0.51100000000E-03 0.  1.
         12    1    3    3    0    0  0.26911023511E+02  0.13213612093E+02 -0.60866367079E+01  0.30591663528E+02  0.00000000000E+00 0. -1.
</event>
<event>
 7    1  0.6624035E-013  0.5052886E+02  0.7816164E-02  0.1300439E+00
        -11   -1    0    0    0    0  0.00000000000E+00  0.00000000000E+00  0.45593999997E+02  0.45594000000E+02  0.51100000000E-03 0. -1.
         11   -1    0    0    0    0 -0.00000000000E+00 -0.00000000000E+00 -0.45593999997E+02  0.45594000000E+02  0.51100000000E-03 0.  1.
    9900012    2    1    2    0    0  0.33658391054E+02  0.21352840735E+02 -0.80208674332E+01  0.50528863140E+02  0.30000010002E+02 0.  0.
         12    1    1    2    0    0 -0.33658391054E+02 -0.21352840735E+02  0.80208674332E+01  0.40659136860E+02  0.00000000000E+00 0. -1.
         11    1    3    3    0    0  0.18279738757E+01 -0.13184106691E+01 -0.10212016649E+01  0.24743783632E+01  0.51100000000E-03 0. -1.
        -11    1    3    3    0    0  0.98374599800E+01 -0.30439391865E+01 -0.96513609773E+01  0.14113467101E+02  0.51100000000E-03 0.  1.
         12    1    3    3    0    0  0.21992957198E+02  0.25715190591E+02  0.26516952090E+01  0.33941017676E+02  0.00000000000E+00 0. -1.
</event>
<event>
 7    1  0.6624035E-013  0.5052885E+02  0.7816164E-02  0.1300439E+00
        -11   -1    0    0    0    0  0.00000000000E+00  0.00000000000E+00  0.45593999997E+02  0.45594000000E+02  0.51100000000E-03 0.  1.
         11   -1    0    0    0    0 -0.00000000000E+00 -0.00000000000E+00 -0.45593999997E+02  0.45594000000E+02  0.51100000000E-03 0. -1.
    9900012    2    1    2    0    0 -0.29852534652E+02  0.19081827642E+02  0.19946848454E+02  0.50528846854E+02  0.29999960497E+02 0.  0.
         12    1    1    2    0    0  0.29852534652E+02 -0.19081827642E+02 -0.19946848454E+02  0.40659153146E+02  0.00000000000E+00 0. -1.
         11    1    3    3    0    0 -0.15100297902E+02  0.12526489525E+02  0.19164689336E+02  0.27426579338E+02  0.51100000000E-03 0. -1.
        -11    1    3    3    0    0 -0.65288691286E+01  0.10736715731E+02  0.42222757326E+01  0.13256349777E+02  0.51100000000E-03 0.  1.
         12    1    3    3    0    0 -0.82233676218E+01 -0.41813776145E+01 -0.34401166147E+01  0.98459177389E+01  0.00000000000E+00 0. -1.
</event>
<event>
 7    1  0.6624035E-013  0.5052886E+02  0.7816164E-02  0.1300439E+00
        -11   -1    0    0    0    0  0.00000000000E+00  0.00000000000E+00  0.45593999997E+02  0.45594000000E+02  0.51100000000E-03 0.  1.
         11   -1    0    0    0    0 -0.00000000000E+00 -0.00000000000E+00 -0.45593999997E+02  0.45594000000E+02  0.51100000000E-03 0. -1.
    9900012    2    1    2    0    0  0.30669803696E+02  0.64686122238E+01  0.25897605952E+02  0.50528858385E+02  0.29999995546E+02 0.  0.
         12    1    1    2    0    0 -0.30669803696E+02 -0.64686122238E+01 -0.25897605952E+02  0.40659141615E+02  0.00000000000E+00 0. -1.
         11    1    3    3    0    0  0.76618589011E+01  0.56456621969E+01  0.96886731690E+01  0.13581162377E+02  0.51100000000E-03 0. -1.
        -11    1    3    3    0    0  0.14853071758E+02  0.11101134583E+02  0.38822766470E+01  0.18945210527E+02  0.51100000000E-03 0.  1.
        -12    1    3    3    0    0  0.81548730367E+01 -0.10278184556E+02  0.12326656136E+02  0.18002485481E+02  0.00000000000E+00 0.  1.
</event>
<event>
 7    1  0.6624035E-013  0.5052887E+02  0.7816164E-02  0.1300439E+00
        -11   -1    0    0    0    0  0.00000000000E+00  0.00000000000E+00  0.45593999997E+02  0.45594000000E+02  0.51100000000E-03 0.  1.
         11   -1    0    0    0    0 -0.00000000000E+00 -0.00000000000E+00 -0.45593999997E+02  0.45594000000E+02  0.51100000000E-03 0. -1.
    9900012    2    1    2    0    0  0.10172980029E+02  0.23413932826E+02  0.31645895592E+02  0.50528874568E+02  0.30000044738E+02 0.  0.
         12    1    1    2    0    0 -0.10172980029E+02 -0.23413932826E+02 -0.31645895592E+02  0.40659125432E+02  0.00000000000E+00 0. -1.
         11    1    3    3    0    0 -0.89551040704E+00  0.86417692464E+01  0.60057045062E+01  0.10561751818E+02  0.51100000000E-03 0. -1.
        -11    1    3    3    0    0  0.92997940721E+01  0.21646466281E+02  0.19826461333E+02  0.30791950921E+02  0.51100000000E-03 0.  1.
         12    1    3    3    0    0  0.17686963644E+01 -0.68743027014E+01  0.58137297527E+01  0.91751718293E+01  0.00000000000E+00 0. -1.
</event>
<event>
 7    1  0.6850670E-013  0.5052886E+02  0.7816164E-02  0.1300439E+00
        -11   -1    0    0    0    0  0.00000000000E+00  0.00000000000E+00  0.45593999997E+02  0.45594000000E+02  0.51100000000E-03 0. -1.
         11   -1    0    0    0    0 -0.00000000000E+00 -0.00000000000E+00 -0.45593999997E+02  0.45594000000E+02  0.51100000000E-03 0.  1.
    9900012    2    1    2    0    0  0.35913758277E+02  0.50915135769E+01 -0.18369648452E+02  0.50528861687E+02  0.30000005584E+02 0.  0.
         12    1    1    2    0    0 -0.35913758277E+02 -0.50915135769E+01  0.18369648452E+02  0.40659138313E+02  0.00000000000E+00 0. -1.
         11    1    3    3    0    0  0.98400253780E+01 -0.29151320655E+01  0.32066071148E+00  0.10267761097E+02  0.51100000000E-03 0. -1.
        -11    1    3    3    0    0  0.28658784637E+02  0.87200808607E+01 -0.21111755422E+02  0.36647946250E+02  0.51100000000E-03 0.  1.
         12    1    3    3    0    0 -0.25850517378E+01 -0.71343521831E+00  0.24214462585E+01  0.36131543394E+01  0.00000000000E+00 0. -1.
</event>
<event>
 7    1  0.6624035E-013  0.5052886E+02  0.7816164E-02  0.1300439E+00
        -11   -1    0    0    0    0  0.00000000000E+00  0.00000000000E+00  0.45593999997E+02  0.45594000000E+02  0.51100000000E-03 0.  1.
         11   -1    0    0    0    0 -0.00000000000E+00 -0.00000000000E+00 -0.45593999997E+02  0.45594000000E+02  0.51100000000E-03 0. -1.
    9900012    2    1    2    0    0  0.20491908719E+02 -0.22202296263E+02  0.27208560468E+02  0.50528855333E+02  0.29999986271E+02 0.  0.
         12    1    1    2    0    0 -0.20491908719E+02  0.22202296263E+02 -0.27208560468E+02  0.40659144667E+02  0.00000000000E+00 0. -1.
         11    1    3    3    0    0  0.27860912566E+01 -0.21320615976E+01  0.10151587766E+02  0.10740704147E+02  0.51100000000E-03 0.  1.
        -11    1    3    3    0    0  0.97533117214E+01  0.39440066854E+01  0.65719375548E+01  0.12404541175E+02  0.51100000000E-03 0. -1.
        -12    1    3    3    0    0  0.79525057409E+01 -0.24014241351E+02  0.10485035147E+02  0.27383610012E+02  0.00000000000E+00 0.  1.
</event>
<event>
 7    1  0.6624035E-013  0.5052886E+02  0.7816164E-02  0.1300439E+00
        -11   -1    0    0    0    0  0.00000000000E+00  0.00000000000E+00  0.45593999997E+02  0.45594000000E+02  0.51100000000E-03 0.  1.
         11   -1    0    0    0    0 -0.00000000000E+00 -0.00000000000E+00 -0.45593999997E+02  0.45594000000E+02  0.51100000000E-03 0. -1.
    9900012    2    1    2    0    0 -0.31527911553E+01  0.36658271412E+02  0.17303079196E+02  0.50528861978E+02  0.30000006470E+02 0.  0.
         12    1    1    2    0    0  0.31527911553E+01 -0.36658271412E+02 -0.17303079196E+02  0.40659138022E+02  0.00000000000E+00 0. -1.
         11    1    3    3    0    0 -0.81505683944E+00 -0.44555333098E+00 -0.71509394327E+00  0.11722606498E+01  0.51100000000E-03 0. -1.
        -11    1    3    3    0    0  0.35970126055E+01 -0.19263013579E+01 -0.25797405509E+01  0.48274421982E+01  0.51100000000E-03 0.  1.
        -12    1    3    3    0    0 -0.59347469213E+01  0.39030126101E+02  0.20597913691E+02  0.44529159130E+02  0.00000000000E+00 0.  1.
</event>
<event>
 7    1  0.6624035E-013  0.5052886E+02  0.7816164E-02  0.1300439E+00
        -11   -1    0    0    0    0  0.00000000000E+00  0.00000000000E+00  0.45593999997E+02  0.45594000000E+02  0.51100000000E-03 0.  1.
         11   -1    0    0    0    0 -0.00000000000E+00 -0.00000000000E+00 -0.45593999997E+02  0.45594000000E+02  0.51100000000E-03 0. -1.
    9900012    2    1    2    0    0 -0.13223819433E+02  0.14790425623E+02  0.35489987825E+02  0.50528864172E+02  0.30000013136E+02 0.  0.
         12    1    1    2    0    0  0.13223819433E+02 -0.14790425623E+02 -0.35489987825E+02  0.40659135828E+02  0.00000000000E+00 0. -1.
         11    1    3    3    0    0 -0.41161893220E+01  0.10996168859E+02  0.18569898419E+02  0.21970431759E+02  0.51100000000E-03 0.  1.
        -11    1    3    3    0    0  0.32588025784E+01  0.72749947189E+01  0.89816757581E+00  0.80219728035E+01  0.51100000000E-03 0. -1.
         12    1    3    3    0    0 -0.12366432690E+02 -0.34807379541E+01  0.16021921829E+02  0.20536459609E+02  0.00000000000E+00 0. -1.
</event>
<event>
 7    1  0.6624035E-013  0.5052886E+02  0.7816164E-02  0.1300439E+00
        -11   -1    0    0    0    0  0.00000000000E+00  0.00000000000E+00  0.45593999997E+02  0.45594000000E+02  0.51100000000E-03 0.  1.
         11   -1    0    0    0    0 -0.00000000000E+00 -0.00000000000E+00 -0.45593999997E+02  0.45594000000E+02  0.51100000000E-03 0. -1.
    9900012    2    1    2    0    0 -0.43213068450E+01  0.33604313762E+02  0.22477591796E+02  0.50528859217E+02  0.29999998075E+02 0.  0.
         12    1    1    2    0    0  0.43213068450E+01 -0.33604313762E+02 -0.22477591796E+02  0.40659140783E+02  0.00000000000E+00 0. -1.
         11    1    3    3    0    0 -0.10214478901E+02  0.18892421405E+02  0.37957445662E+01  0.21809787777E+02  0.51100000000E-03 0. -1.
        -11    1    3    3    0    0 -0.36144176200E+01  0.12712707068E+01  0.17812547426E-01  0.38315090356E+01  0.51100000000E-03 0.  1.
         12    1    3    3    0    0  0.95075896763E+01  0.13440621650E+02  0.18664034683E+02  0.24887562404E+02  0.00000000000E+00 0. -1.
</event>
<event>
 7    1  0.7438671E-013  0.5052888E+02  0.7816164E-02  0.1300439E+00
        -11   -1    0    0    0    0  0.00000000000E+00  0.00000000000E+00  0.45593999997E+02  0.45594000000E+02  0.51100000000E-03 0. -1.
         11   -1    0    0    0    0 -0.00000000000E+00 -0.00000000000E+00 -0.45593999997E+02  0.45594000000E+02  0.51100000000E-03 0.  1.
    9900012    2    1    2    0    0  0.18429723233E+02 -0.34929011518E+02 -0.96681592659E+01  0.50528882355E+02  0.30000068407E+02 0.  0.
         12    1    1    2    0    0 -0.18429723233E+02  0.34929011518E+02  0.96681592659E+01  0.40659117645E+02  0.00000000000E+00 0. -1.
         11    1    3    3    0    0  0.36541617268E+01  0.33412247901E+00 -0.24970145452E+01  0.44384251325E+01  0.51100000000E-03 0. -1.
        -11    1    3    3    0    0  0.19990761465E+02 -0.22308364415E+02 -0.10486208643E+02  0.31737268925E+02  0.51100000000E-03 0.  1.
         12    1    3    3    0    0 -0.52151999583E+01 -0.12954769581E+02  0.33150639221E+01  0.14353188298E+02  0.00000000000E+00 0. -1.
</event>
<event>
 7    1  0.6624035E-013  0.5052886E+02  0.7816164E-02  0.1300439E+00
        -11   -1    0    0    0    0  0.00000000000E+00  0.00000000000E+00  0.45593999997E+02  0.45594000000E+02  0.51100000000E-03 0.  1.
         11   -1    0    0    0    0 -0.00000000000E+00 -0.00000000000E+00 -0.45593999997E+02  0.45594000000E+02  0.51100000000E-03 0. -1.
    9900012    2    1    2    0    0  0.13767016761E+02 -0.33045402928E+02 -0.19277878414E+02  0.50528855870E+02  0.29999987903E+02 0.  0.
         12    1    1    2    0    0 -0.13767016761E+02  0.33045402928E+02  0.19277878414E+02  0.40659144130E+02  0.00000000000E+00 0. -1.
         11    1    3    3    0    0  0.64922927219E+01 -0.19387085210E+02 -0.85432869861E+00  0.20463108647E+02  0.51100000000E-03 0. -1.
        -11    1    3    3    0    0  0.41268476529E+01 -0.15236484655E+02 -0.55712431872E+01  0.16739775599E+02  0.51100000000E-03 0.  1.
         12    1    3    3    0    0  0.31478763865E+01  0.15781669365E+01 -0.12852306529E+02  0.13325971624E+02  0.00000000000E+00 0. -1.
</event>
<event>
 7    1  0.6624035E-013  0.5052886E+02  0.7816164E-02  0.1300439E+00
        -11   -1    0    0    0    0  0.00000000000E+00  0.00000000000E+00  0.45593999997E+02  0.45594000000E+02  0.51100000000E-03 0. -1.
         11   -1    0    0    0    0 -0.00000000000E+00 -0.00000000000E+00 -0.45593999997E+02  0.45594000000E+02  0.51100000000E-03 0.  1.
    9900012    2    1    2    0    0 -0.24456817308E+02 -0.29673569537E+02 -0.13210194659E+02  0.50528857303E+02  0.29999992259E+02 0.  0.
         12    1    1    2    0    0  0.24456817308E+02  0.29673569537E+02  0.13210194659E+02  0.40659142697E+02  0.00000000000E+00 0. -1.
         11    1    3    3    0    0  0.30095961769E+01 -0.25029833108E+01 -0.28023745779E+01  0.48141352430E+01  0.51100000000E-03 0. -1.
        -11    1    3    3    0    0 -0.72689289861E+01 -0.13190281376E+02 -0.14389987980E+02  0.20830088952E+02  0.51100000000E-03 0.  1.
        -12    1    3    3    0    0 -0.20197484499E+02 -0.13980304850E+02  0.39821678996E+01  0.24884633109E+02  0.00000000000E+00 0.  1.
</event>
<event>
 7    1  0.6624035E-013  0.5052893E+02  0.7816164E-02  0.1300439E+00
        -11   -1    0    0    0    0  0.00000000000E+00  0.00000000000E+00  0.45593999997E+02  0.45594000000E+02  0.51100000000E-03 0.  1.
         11   -1    0    0    0    0 -0.00000000000E+00 -0.00000000000E+00 -0.45593999997E+02  0.45594000000E+02  0.51100000000E-03 0. -1.
    9900012    2    1    2    0    0 -0.36625589924E+02 -0.81773955580E+01  0.15647880626E+02  0.50528932088E+02  0.30000219574E+02 0.  0.
         12    1    1    2    0    0  0.36625589924E+02  0.81773955580E+01 -0.15647880626E+02  0.40659067912E+02  0.00000000000E+00 0. -1.
         11    1    3    3    0    0  0.29901852743E+01  0.21003635472E+01 -0.21180222016E+01  0.42235948329E+01  0.51100000000E-03 0. -1.
        -11    1    3    3    0    0 -0.77405249120E+01 -0.12209436453E+01 -0.14945970061E+01  0.79774839248E+01  0.51100000000E-03 0.  1.
        -12    1    3    3    0    0 -0.31875250286E+02 -0.90568154599E+01  0.19260499834E+02  0.38327853330E+02  0.00000000000E+00 0.  1.
</event>
<event>
 7    1  0.6624035E-013  0.5052886E+02  0.7816164E-02  0.1300439E+00
        -11   -1    0    0    0    0  0.00000000000E+00  0.00000000000E+00  0.45593999997E+02  0.45594000000E+02  0.51100000000E-03 0. -1.
         11   -1    0    0    0    0 -0.00000000000E+00 -0.00000000000E+00 -0.45593999997E+02  0.45594000000E+02  0.51100000000E-03 0.  1.
    9900012    2    1    2    0    0  0.38577766687E+02  0.12842111120E+02 -0.39808674141E-01  0.50528862216E+02  0.30000007192E+02 0.  0.
         12    1    1    2    0    0 -0.38577766687E+02 -0.12842111120E+02  0.39808674141E-01  0.40659137784E+02  0.00000000000E+00 0. -1.
         11    1    3    3    0    0  0.10675297190E+02  0.27267514085E+01 -0.12722682188E+01  0.11091249254E+02  0.51100000000E-03 0. -1.
        -11    1    3    3    0    0  0.28809782463E+02  0.82917967481E+01  0.90846758268E+01  0.31325529429E+02  0.51100000000E-03 0.  1.
         12    1    3    3    0    0 -0.90731296548E+00  0.18235629634E+01 -0.78522162821E+01  0.81120835326E+01  0.00000000000E+00 0. -1.
</event>
<event>
 7    1  0.6624035E-013  0.5052886E+02  0.7816164E-02  0.1300439E+00
        -11   -1    0    0    0    0  0.00000000000E+00  0.00000000000E+00  0.45593999997E+02  0.45594000000E+02  0.51100000000E-03 0.  1.
         11   -1    0    0    0    0 -0.00000000000E+00 -0.00000000000E+00 -0.45593999997E+02  0.45594000000E+02  0.51100000000E-03 0. -1.
    9900012    2    1    2    0    0  0.18683695552E+02 -0.42064512488E+01  0.35866289375E+02  0.50528862956E+02  0.30000009442E+02 0.  0.
         12    1    1    2    0    0 -0.18683695552E+02  0.42064512488E+01 -0.35866289375E+02  0.40659137044E+02  0.00000000000E+00 0. -1.
         11    1    3    3    0    0 -0.88742651542E+00  0.27421408302E+00  0.32626297181E+01  0.33922665170E+01  0.51100000000E-03 0. -1.
        -11    1    3    3    0    0  0.10945260738E+02  0.92842953681E+01  0.51721526248E+01  0.15256081939E+02  0.51100000000E-03 0.  1.
        -12    1    3    3    0    0  0.86258613295E+01 -0.13764960700E+02  0.27431507032E+02  0.31880514500E+02  0.00000000000E+00 0.  1.
</event>
<event>
 7    1  0.6624035E-013  0.5052885E+02  0.7816164E-02  0.1300439E+00
        -11   -1    0    0    0    0  0.00000000000E+00  0.00000000000E+00  0.45593999997E+02  0.45594000000E+02  0.51100000000E-03 0. -1.
         11   -1    0    0    0    0 -0.00000000000E+00 -0.00000000000E+00 -0.45593999997E+02  0.45594000000E+02  0.51100000000E-03 0.  1.
    9900012    2    1    2    0    0 -0.55255908006E+01 -0.35199970242E+02  0.19585611663E+02  0.50528852899E+02  0.29999978873E+02 0.  0.
         12    1    1    2    0    0  0.55255908006E+01  0.35199970242E+02 -0.19585611663E+02  0.40659147101E+02  0.00000000000E+00 0. -1.
         11    1    3    3    0    0 -0.21812285544E+01 -0.11422297135E+02  0.62543230041E+01  0.13203907995E+02  0.51100000000E-03 0. -1.
        -11    1    3    3    0    0  0.34620332768E+01 -0.26998584065E+02  0.91772220888E+01  0.28725086970E+02  0.51100000000E-03 0.  1.
         12    1    3    3    0    0 -0.68063955231E+01  0.32209109578E+01  0.41540665702E+01  0.85998579340E+01  0.00000000000E+00 0. -1.
</event>
<event>
 7    1  0.6624035E-013  0.5052886E+02  0.7816164E-02  0.1300439E+00
        -11   -1    0    0    0    0  0.00000000000E+00  0.00000000000E+00  0.45593999997E+02  0.45594000000E+02  0.51100000000E-03 0.  1.
         11   -1    0    0    0    0 -0.00000000000E+00 -0.00000000000E+00 -0.45593999997E+02  0.45594000000E+02  0.51100000000E-03 0. -1.
    9900012    2    1    2    0    0  0.28486051725E+02  0.18977255233E+02  0.21944802418E+02  0.50528859426E+02  0.29999998713E+02 0.  0.
         12    1    1    2    0    0 -0.28486051725E+02 -0.18977255233E+02 -0.21944802418E+02  0.40659140574E+02  0.00000000000E+00 0. -1.
         11    1    3    3    0    0  0.92994467617E+01  0.71652343030E+01  0.38128272144E+01  0.12343336029E+02  0.51100000000E-03 0. -1.
        -11    1    3    3    0    0  0.17239826635E+02  0.73039653433E+01 -0.68761568918E+00  0.18735857272E+02  0.51100000000E-03 0.  1.
        -12    1    3    3    0    0  0.19467783283E+01  0.45080555864E+01  0.18819590893E+02  0.19449666126E+02  0.00000000000E+00 0.  1.
</event>
<event>
 7    1  0.6624035E-013  0.5052886E+02  0.7816164E-02  0.1300439E+00
        -11   -1    0    0    0    0  0.00000000000E+00  0.00000000000E+00  0.45593999997E+02  0.45594000000E+02  0.51100000000E-03 0. -1.
         11   -1    0    0    0    0 -0.00000000000E+00 -0.00000000000E+00 -0.45593999997E+02  0.45594000000E+02  0.51100000000E-03 0.  1.
    9900012    2    1    2    0    0  0.21205570337E+02  0.27083492571E+02 -0.21678873038E+02  0.50528864257E+02  0.30000013397E+02 0.  0.
         12    1    1    2    0    0 -0.21205570337E+02 -0.27083492571E+02  0.21678873038E+02  0.40659135743E+02  0.00000000000E+00 0. -1.
         11    1    3    3    0    0  0.85023879698E+00 -0.32928247574E+01 -0.49690901900E+01  0.60214166500E+01  0.51100000000E-03 0. -1.
        -11    1    3    3    0    0  0.11481028754E+02  0.38210486021E+01 -0.40466613159E+00  0.12106947948E+02  0.51100000000E-03 0.  1.
         12    1    3    3    0    0  0.88743027853E+01  0.26555268726E+02 -0.16305116716E+02  0.32400499659E+02  0.00000000000E+00 0. -1.
</event>
<event>
 7    1  0.6624035E-013  0.5052887E+02  0.7816164E-02  0.1300439E+00
        -11   -1    0    0    0    0  0.00000000000E+00  0.00000000000E+00  0.45593999997E+02  0.45594000000E+02  0.51100000000E-03 0.  1.
         11   -1    0    0    0    0 -0.00000000000E+00 -0.00000000000E+00 -0.45593999997E+02  0.45594000000E+02  0.51100000000E-03 0. -1.
    9900012    2    1    2    0    0 -0.12885378087E+02 -0.14719015431E+02  0.35643828213E+02  0.50528869741E+02  0.30000030064E+02 0.  0.
         12    1    1    2    0    0  0.12885378087E+02  0.14719015431E+02 -0.35643828213E+02  0.40659130259E+02  0.00000000000E+00 0. -1.
         11    1    3    3    0    0 -0.77522586416E+01 -0.26489150074E+00 -0.20149999678E+01  0.80142315093E+01  0.51100000000E-03 0. -1.
        -11    1    3    3    0    0 -0.25287117212E+01 -0.12474658729E+02  0.15230136926E+02  0.19848641375E+02  0.51100000000E-03 0.  1.
        -12    1    3    3    0    0 -0.26044077244E+01 -0.19794652012E+01  0.22428691256E+02  0.22665996857E+02  0.00000000000E+00 0.  1.
</event>
<event>
 7    1  0.6624035E-013  0.5052885E+02  0.7816164E-02  0.1300439E+00
        -11   -1    0    0    0    0  0.00000000000E+00  0.00000000000E+00  0.45593999997E+02  0.45594000000E+02  0.51100000000E-03 0.  1.
         11   -1    0    0    0    0 -0.00000000000E+00 -0.00000000000E+00 -0.45593999997E+02  0.45594000000E+02  0.51100000000E-03 0. -1.
    9900012    2    1    2    0    0  0.36168262020E+01 -0.33498202174E+02  0.22758629407E+02  0.50528853511E+02  0.29999980733E+02 0.  0.
         12    1    1    2    0    0 -0.36168262020E+01  0.33498202174E+02 -0.22758629407E+02  0.40659146489E+02  0.00000000000E+00 0. -1.
         11    1    3    3    0    0  0.31674282973E+01 -0.39675517581E+01 -0.21398561764E+01  0.55093605517E+01  0.51100000000E-03 0. -1.
        -11    1    3    3    0    0 -0.60951522502E+01 -0.16398328260E+02  0.17087838331E+01  0.17577712966E+02  0.51100000000E-03 0.  1.
         12    1    3    3    0    0  0.65445501548E+01 -0.13132322156E+02  0.23189701750E+02  0.27441779994E+02  0.00000000000E+00 0. -1.
</event>
<event>
 7    1  0.6624035E-013  0.5052886E+02  0.7816164E-02  0.1300439E+00
        -11   -1    0    0    0    0  0.00000000000E+00  0.00000000000E+00  0.45593999997E+02  0.45594000000E+02  0.51100000000E-03 0. -1.
         11   -1    0    0    0    0 -0.00000000000E+00 -0.00000000000E+00 -0.45593999997E+02  0.45594000000E+02  0.51100000000E-03 0.  1.
    9900012    2    1    2    0    0 -0.30761811592E+02 -0.22885956476E+02 -0.13531798464E+02  0.50528860488E+02  0.30000001938E+02 0.  0.
         12    1    1    2    0    0  0.30761811592E+02  0.22885956476E+02  0.13531798464E+02  0.40659139512E+02  0.00000000000E+00 0. -1.
         11    1    3    3    0    0 -0.24980440756E+01 -0.81161972195E+01  0.12358845459E+01  0.85813922170E+01  0.51100000000E-03 0. -1.
        -11    1    3    3    0    0 -0.53604545507E+01 -0.14020128885E+02 -0.63305615582E+00  0.15023290163E+02  0.51100000000E-03 0.  1.
         12    1    3    3    0    0 -0.22903312966E+02 -0.74963037069E+00 -0.14134626854E+02  0.26924178108E+02  0.00000000000E+00 0. -1.
</event>
<event>
 7    1  0.6624035E-013  0.5052886E+02  0.7816164E-02  0.1300439E+00
        -11   -1    0    0    0    0  0.00000000000E+00  0.00000000000E+00  0.45593999997E+02  0.45594000000E+02  0.51100000000E-03 0.  1.
         11   -1    0    0    0    0 -0.00000000000E+00 -0.00000000000E+00 -0.45593999997E+02  0.45594000000E+02  0.51100000000E-03 0. -1.
    9900012    2    1    2    0    0  0.21074812923E+02  0.14761564134E+02  0.31481960012E+02  0.50528864229E+02  0.30000013311E+02 0.  0.
         12    1    1    2    0    0 -0.21074812923E+02 -0.14761564134E+02 -0.31481960012E+02  0.40659135771E+02  0.00000000000E+00 0. -1.
         11    1    3    3    0    0  0.47658597022E+01  0.56553618877E+01  0.87760295814E+00  0.74475985388E+01  0.51100000000E-03 0.  1.
        -11    1    3    3    0    0  0.39900540244E+01  0.13796367641E+02  0.68432916201E+01  0.15908831876E+02  0.51100000000E-03 0. -1.
        -12    1    3    3    0    0  0.12318899196E+02 -0.46901653947E+01  0.23761065434E+02  0.27172433814E+02  0.00000000000E+00 0.  1.
</event>
<event>
 7    1  0.6624035E-013  0.5052886E+02  0.7816164E-02  0.1300439E+00
        -11   -1    0    0    0    0  0.00000000000E+00  0.00000000000E+00  0.45593999997E+02  0.45594000000E+02  0.51100000000E-03 0.  1.
         11   -1    0    0    0    0 -0.00000000000E+00 -0.00000000000E+00 -0.45593999997E+02  0.45594000000E+02  0.51100000000E-03 0. -1.
    9900012    2    1    2    0    0 -0.37656519628E+02 -0.10861492810E+02 -0.10824988002E+02  0.50528857587E+02  0.29999993120E+02 0.  0.
         12    1    1    2    0    0  0.37656519628E+02  0.10861492810E+02  0.10824988002E+02  0.40659142413E+02  0.00000000000E+00 0. -1.
         11    1    3    3    0    0 -0.12845788759E+02 -0.13246970346E+01 -0.12104025605E+02  0.17699619973E+02  0.51100000000E-03 0. -1.
        -11    1    3    3    0    0 -0.11063188327E+02  0.17331256736E+01 -0.70140102403E+01  0.13213409873E+02  0.51100000000E-03 0.  1.
        -12    1    3    3    0    0 -0.13747542542E+02 -0.11269921449E+02  0.82930478437E+01  0.19615827740E+02  0.00000000000E+00 0.  1.
</event>
<event>
 7    1  0.6624035E-013  0.5052882E+02  0.7816164E-02  0.1300439E+00
        -11   -1    0    0    0    0  0.00000000000E+00  0.00000000000E+00  0.45593999997E+02  0.45594000000E+02  0.51100000000E-03 0.  1.
         11   -1    0    0    0    0 -0.00000000000E+00 -0.00000000000E+00 -0.45593999997E+02  0.45594000000E+02  0.51100000000E-03 0. -1.
    9900012    2    1    2    0    0 -0.25090638099E+02 -0.11638785675E+01  0.31973017513E+02  0.50528824130E+02  0.29999891425E+02 0.  0.
         12    1    1    2    0    0  0.25090638099E+02  0.11638785675E+01 -0.31973017513E+02  0.40659175870E+02  0.00000000000E+00 0. -1.
         11    1    3    3    0    0 -0.56909649285E+01 -0.61106307311E+00 -0.31519111370E+01  0.65341429410E+01  0.51100000000E-03 0. -1.
        -11    1    3    3    0    0 -0.80182935830E+01 -0.73955561812E+01  0.71922133084E+01  0.13065803295E+02  0.51100000000E-03 0.  1.
         12    1    3    3    0    0 -0.11381379588E+02  0.68427406867E+01  0.27932715341E+02  0.30928877894E+02  0.00000000000E+00 0. -1.
</event>
<event>
 7    1  0.6624035E-013  0.5052886E+02  0.7816164E-02  0.1300439E+00
        -11   -1    0    0    0    0  0.00000000000E+00  0.00000000000E+00  0.45593999997E+02  0.45594000000E+02  0.51100000000E-03 0. -1.
         11   -1    0    0    0    0 -0.00000000000E+00 -0.00000000000E+00 -0.45593999997E+02  0.45594000000E+02  0.51100000000E-03 0.  1.
    9900012    2    1    2    0    0 -0.99022337361E+00 -0.40550434008E+02 -0.28013601878E+01  0.50528857615E+02  0.29999993208E+02 0.  0.
         12    1    1    2    0    0  0.99022337361E+00  0.40550434008E+02  0.28013601878E+01  0.40659142385E+02  0.00000000000E+00 0. -1.
         11    1    3    3    0    0 -0.10613599380E+02 -0.67677303958E+01  0.23950156546E+01  0.12813538416E+02  0.51100000000E-03 0. -1.
        -11    1    3    3    0    0  0.20505398941E+00 -0.18708374579E+02  0.13864539656E+01  0.18760799061E+02  0.51100000000E-03 0.  1.
        -12    1    3    3    0    0  0.94183220166E+01 -0.15074329032E+02 -0.65828298080E+01  0.18954520138E+02  0.00000000000E+00 0.  1.
</event>
<event>
 7    1  0.6624035E-013  0.5052886E+02  0.7816164E-02  0.1300439E+00
        -11   -1    0    0    0    0  0.00000000000E+00  0.00000000000E+00  0.45593999997E+02  0.45594000000E+02  0.51100000000E-03 0.  1.
         11   -1    0    0    0    0 -0.00000000000E+00 -0.00000000000E+00 -0.45593999997E+02  0.45594000000E+02  0.51100000000E-03 0. -1.
    9900012    2    1    2    0    0  0.16297518565E+02  0.20615311967E+02  0.31025241143E+02  0.50528858508E+02  0.29999995922E+02 0.  0.
         12    1    1    2    0    0 -0.16297518565E+02 -0.20615311967E+02 -0.31025241143E+02  0.40659141492E+02  0.00000000000E+00 0. -1.
         11    1    3    3    0    0 -0.64023729410E+00  0.87639329215E+01 -0.50543697129E+00  0.88018117930E+01  0.51100000000E-03 0. -1.
        -11    1    3    3    0    0  0.42529737500E+01 -0.47795057714E+01  0.80113531368E+01  0.10252474847E+02  0.51100000000E-03 0.  1.
         12    1    3    3    0    0  0.12684782109E+02  0.16630884817E+02  0.23519324977E+02  0.31474571869E+02  0.00000000000E+00 0. -1.
</event>
<event>
 7    1  0.6624035E-013  0.5052887E+02  0.7816164E-02  0.1300439E+00
        -11   -1    0    0    0    0  0.00000000000E+00  0.00000000000E+00  0.45593999997E+02  0.45594000000E+02  0.51100000000E-03 0.  1.
         11   -1    0    0    0    0 -0.00000000000E+00 -0.00000000000E+00 -0.45593999997E+02  0.45594000000E+02  0.51100000000E-03 0. -1.
    9900012    2    1    2    0    0 -0.16730777430E+02 -0.19977258690E+02  0.31211461703E+02  0.50528866711E+02  0.30000020854E+02 0.  0.
         12    1    1    2    0    0  0.16730777430E+02  0.19977258690E+02 -0.31211461703E+02  0.40659133289E+02  0.00000000000E+00 0. -1.
         11    1    3    3    0    0 -0.10429576104E+02 -0.25851844222E+01  0.12684621806E+02  0.16624044839E+02  0.51100000000E-03 0. -1.
        -11    1    3    3    0    0 -0.72857479391E+01 -0.77137315067E+01  0.21293568093E+02  0.23790750706E+02  0.51100000000E-03 0.  1.
         12    1    3    3    0    0  0.98454661251E+00 -0.96783427608E+01 -0.27667281954E+01  0.10114071165E+02  0.00000000000E+00 0. -1.
</event>
<event>
 7    1  0.6624035E-013  0.5052882E+02  0.7816164E-02  0.1300439E+00
        -11   -1    0    0    0    0  0.00000000000E+00  0.00000000000E+00  0.45593999997E+02  0.45594000000E+02  0.51100000000E-03 0. -1.
         11   -1    0    0    0    0 -0.00000000000E+00 -0.00000000000E+00 -0.45593999997E+02  0.45594000000E+02  0.51100000000E-03 0.  1.
    9900012    2    1    2    0    0 -0.10986696932E+02  0.25052197450E+02 -0.30080711659E+02  0.50528815054E+02  0.29999863838E+02 0.  0.
         12    1    1    2    0    0  0.10986696932E+02 -0.25052197450E+02  0.30080711659E+02  0.40659184946E+02  0.00000000000E+00 0. -1.
         11    1    3    3    0    0  0.94181858147E+00  0.81595438056E+01  0.33713869074E+01  0.88787063977E+01  0.51100000000E-03 0. -1.
        -11    1    3    3    0    0 -0.31219864567E+01 -0.83775025671E+00 -0.59043055328E+00  0.32859143975E+01  0.51100000000E-03 0.  1.
        -12    1    3    3    0    0 -0.88065290570E+01  0.17730403901E+02 -0.32861668013E+02  0.38364194259E+02  0.00000000000E+00 0.  1.
</event>
<event>
 7    1  0.6624035E-013  0.5052884E+02  0.7816164E-02  0.1300439E+00
        -11   -1    0    0    0    0  0.00000000000E+00  0.00000000000E+00  0.45593999997E+02  0.45594000000E+02  0.51100000000E-03 0.  1.
         11   -1    0    0    0    0 -0.00000000000E+00 -0.00000000000E+00 -0.45593999997E+02  0.45594000000E+02  0.51100000000E-03 0. -1.
    9900012    2    1    2    0    0  0.12024052923E+02 -0.34645659565E+02  0.17557549150E+02  0.50528842267E+02  0.29999946555E+02 0.  0.
         12    1    1    2    0    0 -0.12024052923E+02  0.34645659565E+02 -0.17557549150E+02  0.40659157733E+02  0.00000000000E+00 0. -1.
         11    1    3    3    0    0  0.20982890175E+01 -0.50162415416E+01  0.74281173808E+01  0.92055648435E+01  0.51100000000E-03 0. -1.
        -11    1    3    3    0    0 -0.67094643429E+01 -0.29517092497E+01  0.62739824658E+01  0.96484379827E+01  0.51100000000E-03 0.  1.
         12    1    3    3    0    0  0.16635228248E+02 -0.26677708774E+02  0.38554493031E+01  0.31674839441E+02  0.00000000000E+00 0. -1.
</event>
<event>
 7    1  0.6624035E-013  0.5052886E+02  0.7816164E-02  0.1300439E+00
        -11   -1    0    0    0    0  0.00000000000E+00  0.00000000000E+00  0.45593999997E+02  0.45594000000E+02  0.51100000000E-03 0. -1.
         11   -1    0    0    0    0 -0.00000000000E+00 -0.00000000000E+00 -0.45593999997E+02  0.45594000000E+02  0.51100000000E-03 0.  1.
    9900012    2    1    2    0    0  0.10646134669E+02 -0.34294549212E+02 -0.19071164463E+02  0.50528860769E+02  0.30000002792E+02 0.  0.
         12    1    1    2    0    0 -0.10646134669E+02  0.34294549212E+02  0.19071164463E+02  0.40659139231E+02  0.00000000000E+00 0. -1.
         11    1    3    3    0    0  0.10179655031E+01  0.25474185914E+00  0.47426199833E+01  0.48573235169E+01  0.51100000000E-03 0. -1.
        -11    1    3    3    0    0 -0.19105220050E+01 -0.68829368620E+01 -0.10900009711E+02  0.13032080652E+02  0.51100000000E-03 0.  1.
        -12    1    3    3    0    0  0.11538691170E+02 -0.27666354210E+02 -0.12913774736E+02  0.32639456599E+02  0.00000000000E+00 0.  1.
</event>
<event>
 7    1  0.6624035E-013  0.5052886E+02  0.7816164E-02  0.1300439E+00
        -11   -1    0    0    0    0  0.00000000000E+00  0.00000000000E+00  0.45593999997E+02  0.45594000000E+02  0.51100000000E-03 0. -1.
         11   -1    0    0    0    0 -0.00000000000E+00 -0.00000000000E+00 -0.45593999997E+02  0.45594000000E+02  0.51100000000E-03 0.  1.
    9900012    2    1    2    0    0 -0.31544971284E+02  0.23766341365E+02 -0.96561610382E+01  0.50528860299E+02  0.30000001366E+02 0.  0.
         12    1    1    2    0    0  0.31544971284E+02 -0.23766341365E+02  0.96561610382E+01  0.40659139701E+02  0.00000000000E+00 0. -1.
         11    1    3    3    0    0 -0.65198451082E+01 -0.16412576919E+01 -0.26600594394E+01  0.72303543156E+01  0.51100000000E-03 0. -1.
        -11    1    3    3    0    0 -0.12229931602E+02  0.12343075444E+01 -0.99149323142E+01  0.15792423030E+02  0.51100000000E-03 0.  1.
        -12    1    3    3    0    0 -0.12795194574E+02  0.24173291512E+02  0.29188307153E+01  0.27506082954E+02  0.00000000000E+00 0.  1.
</event>
<event>
 7    1  0.6624035E-013  0.5052886E+02  0.7816164E-02  0.1300439E+00
        -11   -1    0    0    0    0  0.00000000000E+00  0.00000000000E+00  0.45593999997E+02  0.45594000000E+02  0.51100000000E-03 0.  1.
         11   -1    0    0    0    0 -0.00000000000E+00 -0.00000000000E+00 -0.45593999997E+02  0.45594000000E+02  0.51100000000E-03 0. -1.
    9900012    2    1    2    0    0 -0.25114362180E+01  0.26375889203E+02  0.30841051560E+02  0.50528864440E+02  0.30000013953E+02 0.  0.
         12    1    1    2    0    0  0.25114362180E+01 -0.26375889203E+02 -0.30841051560E+02  0.40659135560E+02  0.00000000000E+00 0. -1.
         11    1    3    3    0    0 -0.94410018984E+00  0.30763344580E+01  0.21606350924E+01  0.38760163995E+01  0.51100000000E-03 0. -1.
        -11    1    3    3    0    0 -0.45784123812E+01 -0.57496564947E+01  0.80227155135E+01  0.10880458364E+02  0.51100000000E-03 0.  1.
        -12    1    3    3    0    0  0.30110763531E+01  0.29049211240E+02  0.20657700954E+02  0.35772389677E+02  0.00000000000E+00 0.  1.
</event>
<event>
 7    1  0.6624035E-013  0.5052887E+02  0.7816164E-02  0.1300439E+00
        -11   -1    0    0    0    0  0.00000000000E+00  0.00000000000E+00  0.45593999997E+02  0.45594000000E+02  0.51100000000E-03 0.  1.
         11   -1    0    0    0    0 -0.00000000000E+00 -0.00000000000E+00 -0.45593999997E+02  0.45594000000E+02  0.51100000000E-03 0. -1.
    9900012    2    1    2    0    0 -0.12012767934E+02  0.20557627920E+02  0.32958191547E+02  0.50528867579E+02  0.30000023495E+02 0.  0.
         12    1    1    2    0    0  0.12012767934E+02 -0.20557627920E+02 -0.32958191547E+02  0.40659132421E+02  0.00000000000E+00 0. -1.
         11    1    3    3    0    0  0.30974978641E+01  0.72013564547E+01 -0.24387124553E+01  0.82098323068E+01  0.51100000000E-03 0. -1.
        -11    1    3    3    0    0 -0.98121787179E+01  0.87841446311E+01  0.11719693720E+02  0.17629273078E+02  0.51100000000E-03 0.  1.
        -12    1    3    3    0    0 -0.52980870804E+01  0.45721268342E+01  0.23677210282E+02  0.24689762195E+02  0.00000000000E+00 0.  1.
</event>
<event>
 7    1  0.6624035E-013  0.5052885E+02  0.7816164E-02  0.1300439E+00
        -11   -1    0    0    0    0  0.00000000000E+00  0.00000000000E+00  0.45593999997E+02  0.45594000000E+02  0.51100000000E-03 0. -1.
         11   -1    0    0    0    0 -0.00000000000E+00 -0.00000000000E+00 -0.45593999997E+02  0.45594000000E+02  0.51100000000E-03 0.  1.
    9900012    2    1    2    0    0 -0.28385793785E+02 -0.18134526387E+01 -0.29053822393E+02  0.50528849801E+02  0.29999969454E+02 0.  0.
         12    1    1    2    0    0  0.28385793785E+02  0.18134526387E+01  0.29053822393E+02  0.40659150199E+02  0.00000000000E+00 0. -1.
         11    1    3    3    0    0 -0.11283080649E+01 -0.11680874809E+01 -0.63935278085E+01  0.65965677099E+01  0.51100000000E-03 0. -1.
        -11    1    3    3    0    0 -0.28430203204E+02  0.21927340938E+01 -0.26560319237E+02  0.38968385844E+02  0.51100000000E-03 0.  1.
         12    1    3    3    0    0  0.11727174841E+01 -0.28380992516E+01  0.39000246524E+01  0.49638962468E+01  0.00000000000E+00 0. -1.
</event>
<event>
 7    1  0.6624035E-013  0.5052886E+02  0.7816164E-02  0.1300439E+00
        -11   -1    0    0    0    0  0.00000000000E+00  0.00000000000E+00  0.45593999997E+02  0.45594000000E+02  0.51100000000E-03 0.  1.
         11   -1    0    0    0    0 -0.00000000000E+00 -0.00000000000E+00 -0.45593999997E+02  0.45594000000E+02  0.51100000000E-03 0. -1.
    9900012    2    1    2    0    0  0.13606490135E+02  0.36516909277E+02  0.11599345810E+02  0.50528855147E+02  0.29999985704E+02 0.  0.
         12    1    1    2    0    0 -0.13606490135E+02 -0.36516909277E+02 -0.11599345810E+02  0.40659144853E+02  0.00000000000E+00 0. -1.
         11    1    3    3    0    0  0.30334704797E-01  0.75352863972E+01  0.10312423902E+02  0.12772139534E+02  0.51100000000E-03 0. -1.
        -11    1    3    3    0    0  0.58489750662E+01  0.29419357939E+02  0.99662163285E+00  0.30011704147E+02  0.51100000000E-03 0.  1.
        -12    1    3    3    0    0  0.77271803638E+01 -0.43773505905E+00  0.29030027592E+00  0.77450114659E+01  0.00000000000E+00 0.  1.
</event>
<event>
 7    1  0.6624035E-013  0.5052891E+02  0.7816164E-02  0.1300439E+00
        -11   -1    0    0    0    0  0.00000000000E+00  0.00000000000E+00  0.45593999997E+02  0.45594000000E+02  0.51100000000E-03 0.  1.
         11   -1    0    0    0    0 -0.00000000000E+00 -0.00000000000E+00 -0.45593999997E+02  0.45594000000E+02  0.51100000000E-03 0. -1.
    9900012    2    1    2    0    0  0.57740565496E+01  0.25198514091E+02  0.31382422525E+02  0.50528913870E+02  0.30000164199E+02 0.  0.
         12    1    1    2    0    0 -0.57740565496E+01 -0.25198514091E+02 -0.31382422525E+02  0.40659086130E+02  0.00000000000E+00 0. -1.
         11    1    3    3    0    0  0.12771544524E+02  0.45500816773E+01  0.60820500821E+01  0.14859573556E+02  0.51100000000E-03 0. -1.
        -11    1    3    3    0    0  0.27635101444E+01  0.13881001765E+01  0.58078738678E+01  0.65799095391E+01  0.51100000000E-03 0.  1.
        -12    1    3    3    0    0 -0.97609981186E+01  0.19260332237E+02  0.19492498575E+02  0.29089430775E+02  0.00000000000E+00 0.  1.
</event>
<event>
 7    1  0.6624035E-013  0.5052886E+02  0.7816164E-02  0.1300439E+00
        -11   -1    0    0    0    0  0.00000000000E+00  0.00000000000E+00  0.45593999997E+02  0.45594000000E+02  0.51100000000E-03 0. -1.
         11   -1    0    0    0    0 -0.00000000000E+00 -0.00000000000E+00 -0.45593999997E+02  0.45594000000E+02  0.51100000000E-03 0.  1.
    9900012    2    1    2    0    0  0.86661260188E+01 -0.38997426124E+02  0.75673633207E+01  0.50528856230E+02  0.29999988996E+02 0.  0.
         12    1    1    2    0    0 -0.86661260188E+01  0.38997426124E+02 -0.75673633207E+01  0.40659143770E+02  0.00000000000E+00 0. -1.
         11    1    3    3    0    0 -0.79472105222E+01 -0.12575902294E+02 -0.76525227298E+00  0.14896210421E+02  0.51100000000E-03 0. -1.
        -11    1    3    3    0    0  0.27528342779E+01 -0.36395346667E+00 -0.29350104456E+01  0.40404016217E+01  0.51100000000E-03 0.  1.
        -12    1    3    3    0    0  0.13860502263E+02 -0.26057570363E+02  0.11267626039E+02  0.31592244187E+02  0.00000000000E+00 0.  1.
</event>
<event>
 7    1  0.6624035E-013  0.5052886E+02  0.7816164E-02  0.1300439E+00
        -11   -1    0    0    0    0  0.00000000000E+00  0.00000000000E+00  0.45593999997E+02  0.45594000000E+02  0.51100000000E-03 0.  1.
         11   -1    0    0    0    0 -0.00000000000E+00 -0.00000000000E+00 -0.45593999997E+02  0.45594000000E+02  0.51100000000E-03 0. -1.
    9900012    2    1    2    0    0  0.21269780032E+02  0.54974992829E+01  0.34213144494E+02  0.50528864530E+02  0.30000014226E+02 0.  0.
         12    1    1    2    0    0 -0.21269780032E+02 -0.54974992829E+01 -0.34213144494E+02  0.40659135470E+02  0.00000000000E+00 0. -1.
         11    1    3    3    0    0  0.10254249521E+02  0.17399488455E+01 -0.12244397764E+00  0.10401540656E+02  0.51100000000E-03 0. -1.
        -11    1    3    3    0    0 -0.21349546224E+01 -0.41416411053E+01  0.40311165959E+01  0.61612599000E+01  0.51100000000E-03 0.  1.
         12    1    3    3    0    0  0.13150485134E+02  0.78991915427E+01  0.30304471875E+02  0.33966063975E+02  0.00000000000E+00 0. -1.
</event>
<event>
 7    1  0.6624035E-013  0.5052886E+02  0.7816164E-02  0.1300439E+00
        -11   -1    0    0    0    0  0.00000000000E+00  0.00000000000E+00  0.45593999997E+02  0.45594000000E+02  0.51100000000E-03 0.  1.
         11   -1    0    0    0    0 -0.00000000000E+00 -0.00000000000E+00 -0.45593999997E+02  0.45594000000E+02  0.51100000000E-03 0. -1.
    9900012    2    1    2    0    0 -0.21939535715E+02  0.33979591593E+02  0.41485118588E+01  0.50528855606E+02  0.29999987100E+02 0.  0.
         12    1    1    2    0    0  0.21939535715E+02 -0.33979591593E+02 -0.41485118588E+01  0.40659144394E+02  0.00000000000E+00 0. -1.
         11    1    3    3    0    0 -0.50075039764E+01  0.59150880170E+01 -0.75703309264E+01  0.10833894633E+02  0.51100000000E-03 0. -1.
        -11    1    3    3    0    0 -0.29249788085E+01  0.98943236486E+01 -0.48445183404E+01  0.11398355132E+02  0.51100000000E-03 0.  1.
         12    1    3    3    0    0 -0.14007052930E+02  0.18170179927E+02  0.16563361126E+02  0.28296605842E+02  0.00000000000E+00 0. -1.
</event>
<event>
 7    1  0.6624035E-013  0.5052886E+02  0.7816164E-02  0.1300439E+00
        -11   -1    0    0    0    0  0.00000000000E+00  0.00000000000E+00  0.45593999997E+02  0.45594000000E+02  0.51100000000E-03 0.  1.
         11   -1    0    0    0    0 -0.00000000000E+00 -0.00000000000E+00 -0.45593999997E+02  0.45594000000E+02  0.51100000000E-03 0. -1.
    9900012    2    1    2    0    0 -0.83292724075E+01  0.32802019981E+02 -0.22534783155E+02  0.50528859017E+02  0.29999997467E+02 0.  0.
         12    1    1    2    0    0  0.83292724075E+01 -0.32802019981E+02  0.22534783155E+02  0.40659140983E+02  0.00000000000E+00 0. -1.
         11    1    3    3    0    0 -0.27429528652E+01 -0.21237260530E+00  0.31487419405E+01  0.41813237871E+01  0.51100000000E-03 0. -1.
        -11    1    3    3    0    0  0.10100276152E+01 -0.12738496778E+01 -0.61016047328E+01  0.63144619218E+01  0.51100000000E-03 0.  1.
        -12    1    3    3    0    0 -0.65963471576E+01  0.34288242264E+02 -0.19581920362E+02  0.40033073308E+02  0.00000000000E+00 0.  1.
</event>
<event>
 7    1  0.6624035E-013  0.5052886E+02  0.7816164E-02  0.1300439E+00
        -11   -1    0    0    0    0  0.00000000000E+00  0.00000000000E+00  0.45593999997E+02  0.45594000000E+02  0.51100000000E-03 0.  1.
         11   -1    0    0    0    0 -0.00000000000E+00 -0.00000000000E+00 -0.45593999997E+02  0.45594000000E+02  0.51100000000E-03 0. -1.
    9900012    2    1    2    0    0 -0.34436428208E+02 -0.14114680421E+02  0.16372962428E+02  0.50528859702E+02  0.29999999551E+02 0.  0.
         12    1    1    2    0    0  0.34436428208E+02  0.14114680421E+02 -0.16372962428E+02  0.40659140298E+02  0.00000000000E+00 0. -1.
         11    1    3    3    0    0 -0.70789344893E+01 -0.67673441629E+01  0.11933948161E+02  0.15437855404E+02  0.51100000000E-03 0. -1.
        -11    1    3    3    0    0  0.18123438280E+01 -0.37858586737E+01 -0.25147967235E+01  0.48930071398E+01  0.51100000000E-03 0.  1.
        -12    1    3    3    0    0 -0.29169837546E+02 -0.35614775841E+01  0.69538109913E+01  0.30197997158E+02  0.00000000000E+00 0.  1.
</event>
<event>
 7    1  0.6624035E-013  0.5052885E+02  0.7816164E-02  0.1300439E+00
        -11   -1    0    0    0    0  0.00000000000E+00  0.00000000000E+00  0.45593999997E+02  0.45594000000E+02  0.51100000000E-03 0.  1.
         11   -1    0    0    0    0 -0.00000000000E+00 -0.00000000000E+00 -0.45593999997E+02  0.45594000000E+02  0.51100000000E-03 0. -1.
    9900012    2    1    2    0    0  0.42718197616E+01 -0.10853408592E+02  0.38950244526E+02  0.50528850098E+02  0.29999970358E+02 0.  0.
         12    1    1    2    0    0 -0.42718197616E+01  0.10853408592E+02 -0.38950244526E+02  0.40659149902E+02  0.00000000000E+00 0. -1.
         11    1    3    3    0    0 -0.32238363137E+01  0.66740858786E+01  0.75532188800E+01  0.10582422152E+02  0.51100000000E-03 0. -1.
        -11    1    3    3    0    0 -0.22350712329E+00 -0.35697543213E+01  0.20063454889E+02  0.20379777322E+02  0.51100000000E-03 0.  1.
         12    1    3    3    0    0  0.77191631987E+01 -0.13957740149E+02  0.11333570757E+02  0.19566650624E+02  0.00000000000E+00 0. -1.
</event>
<event>
 7    1  0.6624035E-013  0.5052886E+02  0.7816164E-02  0.1300439E+00
        -11   -1    0    0    0    0  0.00000000000E+00  0.00000000000E+00  0.45593999997E+02  0.45594000000E+02  0.51100000000E-03 0.  1.
         11   -1    0    0    0    0 -0.00000000000E+00 -0.00000000000E+00 -0.45593999997E+02  0.45594000000E+02  0.51100000000E-03 0. -1.
    9900012    2    1    2    0    0  0.17878855295E+02  0.13786753087E+02  0.33814755812E+02  0.50528859109E+02  0.29999997748E+02 0.  0.
         12    1    1    2    0    0 -0.17878855295E+02 -0.13786753087E+02 -0.33814755812E+02  0.40659140891E+02  0.00000000000E+00 0. -1.
         11    1    3    3    0    0  0.14239259513E+00 -0.47929945804E+01  0.47856044494E+01  0.67745909770E+01  0.51100000000E-03 0. -1.
        -11    1    3    3    0    0  0.54119783634E+01 -0.12670317191E+01  0.16144756478E+02  0.17074777925E+02  0.51100000000E-03 0.  1.
        -12    1    3    3    0    0  0.12324484336E+02  0.19846779387E+02  0.12884394884E+02  0.26679490207E+02  0.00000000000E+00 0.  1.
</event>
<event>
 7    1  0.6624035E-013  0.5052884E+02  0.7816164E-02  0.1300439E+00
        -11   -1    0    0    0    0  0.00000000000E+00  0.00000000000E+00  0.45593999997E+02  0.45594000000E+02  0.51100000000E-03 0.  1.
         11   -1    0    0    0    0 -0.00000000000E+00 -0.00000000000E+00 -0.45593999997E+02  0.45594000000E+02  0.51100000000E-03 0. -1.
    9900012    2    1    2    0    0  0.14989829567E+02  0.18822985239E+01  0.37748231557E+02  0.50528843296E+02  0.29999949684E+02 0.  0.
         12    1    1    2    0    0 -0.14989829567E+02 -0.18822985239E+01 -0.37748231557E+02  0.40659156704E+02  0.00000000000E+00 0. -1.
         11    1    3    3    0    0 -0.34172300337E+01 -0.94094291445E+01  0.12284799374E+02  0.15847116894E+02  0.51100000000E-03 0. -1.
        -11    1    3    3    0    0  0.27733853915E+01 -0.15556218022E+01  0.23003105165E+01  0.39246725284E+01  0.51100000000E-03 0.  1.
        -12    1    3    3    0    0  0.15633674209E+02  0.12847349471E+02  0.23163121666E+02  0.30757053874E+02  0.00000000000E+00 0.  1.
</event>
<event>
 7    1  0.6624035E-013  0.5052885E+02  0.7816164E-02  0.1300439E+00
        -11   -1    0    0    0    0  0.00000000000E+00  0.00000000000E+00  0.45593999997E+02  0.45594000000E+02  0.51100000000E-03 0.  1.
         11   -1    0    0    0    0 -0.00000000000E+00 -0.00000000000E+00 -0.45593999997E+02  0.45594000000E+02  0.51100000000E-03 0. -1.
    9900012    2    1    2    0    0  0.40237850881E+02 -0.56746520905E+01  0.13712492367E+01  0.50528847963E+02  0.29999963868E+02 0.  0.
         12    1    1    2    0    0 -0.40237850881E+02  0.56746520905E+01 -0.13712492367E+01  0.40659152037E+02  0.00000000000E+00 0. -1.
         11    1    3    3    0    0  0.98372825954E+01 -0.39250420286E+01 -0.10237751124E+02  0.14730567950E+02  0.51100000000E-03 0. -1.
        -11    1    3    3    0    0  0.21538046740E+01 -0.31124932870E+00  0.67607914569E+01  0.71023976306E+01  0.51100000000E-03 0.  1.
         12    1    3    3    0    0  0.28246763612E+02 -0.14383607332E+01  0.48482089033E+01  0.28695882383E+02  0.00000000000E+00 0. -1.
</event>
<event>
 7    1  0.6624035E-013  0.5052886E+02  0.7816164E-02  0.1300439E+00
        -11   -1    0    0    0    0  0.00000000000E+00  0.00000000000E+00  0.45593999997E+02  0.45594000000E+02  0.51100000000E-03 0.  1.
         11   -1    0    0    0    0 -0.00000000000E+00 -0.00000000000E+00 -0.45593999997E+02  0.45594000000E+02  0.51100000000E-03 0. -1.
    9900012    2    1    2    0    0 -0.99919865257E+00 -0.82994762780E+01  0.39790525354E+02  0.50528860654E+02  0.30000002444E+02 0.  0.
         12    1    1    2    0    0  0.99919865257E+00  0.82994762780E+01 -0.39790525354E+02  0.40659139346E+02  0.00000000000E+00 0. -1.
         11    1    3    3    0    0  0.24870320994E+01 -0.49005757320E+01  0.97868051997E+00  0.55820056422E+01  0.51100000000E-03 0. -1.
        -11    1    3    3    0    0 -0.10298033919E+02 -0.27979132668E+01  0.78729697991E+01  0.13261277275E+02  0.51100000000E-03 0.  1.
        -12    1    3    3    0    0  0.68118031674E+01 -0.60098727923E+00  0.30938875034E+02  0.31685577737E+02  0.00000000000E+00 0.  1.
</event>
<event>
 7    1  0.6624035E-013  0.5052885E+02  0.7816164E-02  0.1300439E+00
        -11   -1    0    0    0    0  0.00000000000E+00  0.00000000000E+00  0.45593999997E+02  0.45594000000E+02  0.51100000000E-03 0.  1.
         11   -1    0    0    0    0 -0.00000000000E+00 -0.00000000000E+00 -0.45593999997E+02  0.45594000000E+02  0.51100000000E-03 0. -1.
    9900012    2    1    2    0    0 -0.16241244286E+02 -0.34018991167E+02 -0.15234725181E+02  0.50528848172E+02  0.29999964505E+02 0.  0.
         12    1    1    2    0    0  0.16241244286E+02  0.34018991167E+02  0.15234725181E+02  0.40659151828E+02  0.00000000000E+00 0. -1.
         11    1    3    3    0    0 -0.54023965039E+01  0.64000799704E+00 -0.64254757149E+01  0.84191589037E+01  0.51100000000E-03 0. -1.
        -11    1    3    3    0    0  0.22531168184E+00  0.14975094798E+01  0.22517114170E+01  0.27135778158E+01  0.51100000000E-03 0.  1.
        -12    1    3    3    0    0 -0.11064159464E+02 -0.36156508644E+02 -0.11060960883E+02  0.39396111453E+02  0.00000000000E+00 0.  1.
</event>
<event>
 7    1  0.6624035E-013  0.5052886E+02  0.7816164E-02  0.1300439E+00
        -11   -1    0    0    0    0  0.00000000000E+00  0.00000000000E+00  0.45593999997E+02  0.45594000000E+02  0.51100000000E-03 0. -1.
         11   -1    0    0    0    0 -0.00000000000E+00 -0.00000000000E+00 -0.45593999997E+02  0.45594000000E+02  0.51100000000E-03 0.  1.
    9900012    2    1    2    0    0 -0.16818801374E+01 -0.28197592688E+02 -0.29244363800E+02  0.50528858737E+02  0.29999996618E+02 0.  0.
         12    1    1    2    0    0  0.16818801374E+01  0.28197592688E+02  0.29244363800E+02  0.40659141263E+02  0.00000000000E+00 0. -1.
         11    1    3    3    0    0  0.15862846913E+01  0.38428647087E+01  0.10797955168E+01  0.42953308266E+01  0.51100000000E-03 0. -1.
        -11    1    3    3    0    0 -0.38322336787E+01 -0.20311889963E+02 -0.27049895312E+02  0.34043438802E+02  0.51100000000E-03 0.  1.
         12    1    3    3    0    0  0.56406884994E+00 -0.11728567433E+02 -0.32742640045E+01  0.12190089108E+02  0.00000000000E+00 0. -1.
</event>
<event>
 7    1  0.6624035E-013  0.5052886E+02  0.7816164E-02  0.1300439E+00
        -11   -1    0    0    0    0  0.00000000000E+00  0.00000000000E+00  0.45593999997E+02  0.45594000000E+02  0.51100000000E-03 0. -1.
         11   -1    0    0    0    0 -0.00000000000E+00 -0.00000000000E+00 -0.45593999997E+02  0.45594000000E+02  0.51100000000E-03 0.  1.
    9900012    2    1    2    0    0 -0.13692517961E+02 -0.38222067340E+02 -0.21803964000E+01  0.50528860703E+02  0.30000002594E+02 0.  0.
         12    1    1    2    0    0  0.13692517961E+02  0.38222067340E+02  0.21803964000E+01  0.40659139297E+02  0.00000000000E+00 0. -1.
         11    1    3    3    0    0 -0.20334976127E+01 -0.16179385484E+02  0.66851355369E+00  0.16320371865E+02  0.51100000000E-03 0. -1.
        -11    1    3    3    0    0 -0.37873077200E+01 -0.23079627139E+02 -0.80293502057E+01  0.24728189453E+02  0.51100000000E-03 0.  1.
        -12    1    3    3    0    0 -0.78717126285E+01  0.10369452830E+01  0.51804402520E+01  0.94802993850E+01  0.00000000000E+00 0.  1.
</event>
<event>
 7    1  0.6624035E-013  0.5052895E+02  0.7816164E-02  0.1300438E+00
        -11   -1    0    0    0    0  0.00000000000E+00  0.00000000000E+00  0.45593999997E+02  0.45594000000E+02  0.51100000000E-03 0. -1.
         11   -1    0    0    0    0 -0.00000000000E+00 -0.00000000000E+00 -0.45593999997E+02  0.45594000000E+02  0.51100000000E-03 0.  1.
    9900012    2    1    2    0    0 -0.16491776950E+01 -0.96227835011E+01 -0.39469486160E+02  0.50528953194E+02  0.30000283728E+02 0.  0.
         12    1    1    2    0    0  0.16491776950E+01  0.96227835011E+01  0.39469486160E+02  0.40659046806E+02  0.00000000000E+00 0. -1.
         11    1    3    3    0    0  0.19206569935E+01  0.47026714035E+01 -0.97925927894E+01  0.11031723139E+02  0.51100000000E-03 0. -1.
        -11    1    3    3    0    0 -0.56328826177E+01 -0.18884472102E+02 -0.27959754021E+02  0.34206731769E+02  0.51100000000E-03 0.  1.
         12    1    3    3    0    0  0.20630479292E+01  0.45590171975E+01 -0.17171393498E+01  0.52904982858E+01  0.00000000000E+00 0. -1.
</event>
<event>
 7    1  0.6624035E-013  0.5052887E+02  0.7816164E-02  0.1300439E+00
        -11   -1    0    0    0    0  0.00000000000E+00  0.00000000000E+00  0.45593999997E+02  0.45594000000E+02  0.51100000000E-03 0.  1.
         11   -1    0    0    0    0 -0.00000000000E+00 -0.00000000000E+00 -0.45593999997E+02  0.45594000000E+02  0.51100000000E-03 0. -1.
    9900012    2    1    2    0    0 -0.20019458698E+02  0.51193711608E+01  0.35016829318E+02  0.50528867900E+02  0.30000024470E+02 0.  0.
         12    1    1    2    0    0  0.20019458698E+02 -0.51193711608E+01 -0.35016829318E+02  0.40659132100E+02  0.00000000000E+00 0. -1.
         11    1    3    3    0    0 -0.77165677571E+01 -0.63577337888E+01  0.64032659975E+01  0.11872995097E+02  0.51100000000E-03 0. -1.
        -11    1    3    3    0    0 -0.42602491501E+01  0.23122612557E+01 -0.23434371574E+01  0.53840480038E+01  0.51100000000E-03 0.  1.
        -12    1    3    3    0    0 -0.80426417903E+01  0.91648436939E+01  0.30957000478E+02  0.33271824799E+02  0.00000000000E+00 0.  1.
</event>
<event>
 7    1  0.6624035E-013  0.5052886E+02  0.7816164E-02  0.1300439E+00
        -11   -1    0    0    0    0  0.00000000000E+00  0.00000000000E+00  0.45593999997E+02  0.45594000000E+02  0.51100000000E-03 0.  1.
         11   -1    0    0    0    0 -0.00000000000E+00 -0.00000000000E+00 -0.45593999997E+02  0.45594000000E+02  0.51100000000E-03 0. -1.
    9900012    2    1    2    0    0 -0.27728853366E+02  0.22199485368E+02  0.19785330845E+02  0.50528858638E+02  0.29999996317E+02 0.  0.
         12    1    1    2    0    0  0.27728853366E+02 -0.22199485368E+02 -0.19785330845E+02  0.40659141362E+02  0.00000000000E+00 0. -1.
         11    1    3    3    0    0 -0.11247782959E+02  0.10827483704E+02  0.51384122437E+01  0.16436249740E+02  0.51100000000E-03 0. -1.
        -11    1    3    3    0    0 -0.60822468941E+01  0.12195064302E+02 -0.26602674283E+01  0.13884896242E+02  0.51100000000E-03 0.  1.
         12    1    3    3    0    0 -0.10398823513E+02 -0.82306263716E+00  0.17307186030E+02  0.20207712657E+02  0.00000000000E+00 0. -1.
</event>
<event>
 7    1  0.6624035E-013  0.5052886E+02  0.7816164E-02  0.1300439E+00
        -11   -1    0    0    0    0  0.00000000000E+00  0.00000000000E+00  0.45593999997E+02  0.45594000000E+02  0.51100000000E-03 0.  1.
         11   -1    0    0    0    0 -0.00000000000E+00 -0.00000000000E+00 -0.45593999997E+02  0.45594000000E+02  0.51100000000E-03 0. -1.
    9900012    2    1    2    0    0 -0.19126866511E+02 -0.15444421616E+02  0.32385160101E+02  0.50528858637E+02  0.29999996314E+02 0.  0.
         12    1    1    2    0    0  0.19126866511E+02  0.15444421616E+02 -0.32385160101E+02  0.40659141363E+02  0.00000000000E+00 0. -1.
         11    1    3    3    0    0 -0.14463257139E+02 -0.12896375364E+02  0.19914007529E+02  0.27786147641E+02  0.51100000000E-03 0. -1.
        -11    1    3    3    0    0  0.37010714728E+01 -0.77495010175E+01  0.86162674022E+01  0.12165227506E+02  0.51100000000E-03 0.  1.
        -12    1    3    3    0    0 -0.83646808446E+01  0.52014547656E+01  0.38548851695E+01  0.10577483490E+02  0.00000000000E+00 0.  1.
</event>
<event>
 7    1  0.6624035E-013  0.5052883E+02  0.7816164E-02  0.1300439E+00
        -11   -1    0    0    0    0  0.00000000000E+00  0.00000000000E+00  0.45593999997E+02  0.45594000000E+02  0.51100000000E-03 0. -1.
         11   -1    0    0    0    0 -0.00000000000E+00 -0.00000000000E+00 -0.45593999997E+02  0.45594000000E+02  0.51100000000E-03 0.  1.
    9900012    2    1    2    0    0 -0.80134576511E+01  0.39749221222E+02 -0.29920554559E+01  0.50528825302E+02  0.29999894988E+02 0.  0.
         12    1    1    2    0    0  0.80134576511E+01 -0.39749221222E+02  0.29920554559E+01  0.40659174698E+02  0.00000000000E+00 0. -1.
         11    1    3    3    0    0 -0.25076465582E+01 -0.26553260659E+00 -0.72691712183E+00  0.26243489838E+01  0.51100000000E-03 0. -1.
        -11    1    3    3    0    0 -0.15690061620E+02  0.21873032605E+02 -0.30100991728E+01  0.27086311788E+02  0.51100000000E-03 0.  1.
         12    1    3    3    0    0  0.10184250527E+02  0.18141721223E+02  0.74496083871E+00  0.20818164530E+02  0.00000000000E+00 0. -1.
</event>
<event>
 7    1  0.7186280E-013  0.5052886E+02  0.7816164E-02  0.1300439E+00
        -11   -1    0    0    0    0  0.00000000000E+00  0.00000000000E+00  0.45593999997E+02  0.45594000000E+02  0.51100000000E-03 0. -1.
         11   -1    0    0    0    0 -0.00000000000E+00 -0.00000000000E+00 -0.45593999997E+02  0.45594000000E+02  0.51100000000E-03 0.  1.
    9900012    2    1    2    0    0 -0.27874456369E+02  0.20700001476E+02 -0.21158695559E+02  0.50528858632E+02  0.29999996299E+02 0.  0.
         12    1    1    2    0    0  0.27874456369E+02 -0.20700001476E+02  0.21158695559E+02  0.40659141368E+02  0.00000000000E+00 0. -1.
         11    1    3    3    0    0 -0.91837488616E+01  0.14567625499E+02 -0.11340865329E+01  0.17258131659E+02  0.51100000000E-03 0.  1.
        -11    1    3    3    0    0 -0.12417397583E+02  0.10315157804E+02 -0.57668739120E+01  0.17142085003E+02  0.51100000000E-03 0. -1.
         12    1    3    3    0    0 -0.62733099244E+01 -0.41827818276E+01 -0.14257735114E+02  0.16128641970E+02  0.00000000000E+00 0. -1.
</event>
<event>
 7    1  0.6624035E-013  0.5052890E+02  0.7816164E-02  0.1300439E+00
        -11   -1    0    0    0    0  0.00000000000E+00  0.00000000000E+00  0.45593999997E+02  0.45594000000E+02  0.51100000000E-03 0. -1.
         11   -1    0    0    0    0 -0.00000000000E+00 -0.00000000000E+00 -0.45593999997E+02  0.45594000000E+02  0.51100000000E-03 0.  1.
    9900012    2    1    2    0    0 -0.24594284803E+02  0.50583942519E+01 -0.31979626647E+02  0.50528896249E+02  0.30000110638E+02 0.  0.
         12    1    1    2    0    0  0.24594284803E+02 -0.50583942519E+01  0.31979626647E+02  0.40659103751E+02  0.00000000000E+00 0. -1.
         11    1    3    3    0    0  0.46579472072E+01  0.12619892149E+01 -0.21831151403E+01  0.52967047247E+01  0.51100000000E-03 0. -1.
        -11    1    3    3    0    0 -0.15990709424E+01 -0.47879383214E+01 -0.50971936339E+01  0.71737552545E+01  0.51100000000E-03 0.  1.
        -12    1    3    3    0    0 -0.27653161068E+02  0.85843433584E+01 -0.24699317872E+02  0.38058436270E+02  0.00000000000E+00 0.  1.
</event>
<event>
 7    1  0.6624035E-013  0.5052886E+02  0.7816164E-02  0.1300439E+00
        -11   -1    0    0    0    0  0.00000000000E+00  0.00000000000E+00  0.45593999997E+02  0.45594000000E+02  0.51100000000E-03 0. -1.
         11   -1    0    0    0    0 -0.00000000000E+00 -0.00000000000E+00 -0.45593999997E+02  0.45594000000E+02  0.51100000000E-03 0.  1.
    9900012    2    1    2    0    0 -0.32100763454E+02 -0.16958274689E+02  0.18306387749E+02  0.50528856783E+02  0.29999990676E+02 0.  0.
         12    1    1    2    0    0  0.32100763454E+02  0.16958274689E+02 -0.18306387749E+02  0.40659143217E+02  0.00000000000E+00 0. -1.
         11    1    3    3    0    0  0.35604687050E+00 -0.65876147961E+01  0.79555204544E+00  0.66450238069E+01  0.51100000000E-03 0. -1.
        -11    1    3    3    0    0 -0.13122675679E+02 -0.15200185909E+02  0.11128673101E+02  0.22958606967E+02  0.51100000000E-03 0.  1.
        -12    1    3    3    0    0 -0.19334134646E+02  0.48295260152E+01  0.63821626025E+01  0.20925226009E+02  0.00000000000E+00 0.  1.
</event>
<event>
 7    1  0.6624035E-013  0.5052887E+02  0.7816164E-02  0.1300439E+00
        -11   -1    0    0    0    0  0.00000000000E+00  0.00000000000E+00  0.45593999997E+02  0.45594000000E+02  0.51100000000E-03 0. -1.
         11   -1    0    0    0    0 -0.00000000000E+00 -0.00000000000E+00 -0.45593999997E+02  0.45594000000E+02  0.51100000000E-03 0.  1.
    9900012    2    1    2    0    0 -0.27288328859E+02  0.22605605255E+02 -0.19937375814E+02  0.50528865292E+02  0.30000016541E+02 0.  0.
         12    1    1    2    0    0  0.27288328859E+02 -0.22605605255E+02  0.19937375814E+02  0.40659134708E+02  0.00000000000E+00 0. -1.
         11    1    3    3    0    0 -0.37744851088E+01 -0.37091664612E+01 -0.39181345135E+01  0.65845601220E+01  0.51100000000E-03 0. -1.
        -11    1    3    3    0    0 -0.16240294706E+02  0.44558256874E+01 -0.11699193034E+02  0.20505430320E+02  0.51100000000E-03 0.  1.
        -12    1    3    3    0    0 -0.72735490440E+01  0.21858946029E+02 -0.43200482661E+01  0.23438874850E+02  0.00000000000E+00 0.  1.
</event>
<event>
 7    1  0.6624035E-013  0.5052885E+02  0.7816164E-02  0.1300439E+00
        -11   -1    0    0    0    0  0.00000000000E+00  0.00000000000E+00  0.45593999997E+02  0.45594000000E+02  0.51100000000E-03 0.  1.
         11   -1    0    0    0    0 -0.00000000000E+00 -0.00000000000E+00 -0.45593999997E+02  0.45594000000E+02  0.51100000000E-03 0. -1.
    9900012    2    1    2    0    0  0.39226771624E+02  0.45955528489E+01  0.96596034208E+01  0.50528847817E+02  0.29999963424E+02 0.  0.
         12    1    1    2    0    0 -0.39226771624E+02 -0.45955528489E+01 -0.96596034208E+01  0.40659152183E+02  0.00000000000E+00 0. -1.
         11    1    3    3    0    0  0.13893115453E+02 -0.24126790124E+01  0.25809729489E+00  0.14103414178E+02  0.51100000000E-03 0. -1.
        -11    1    3    3    0    0  0.10056061208E+02 -0.82634689292E+01  0.39580211034E+00  0.13021748935E+02  0.51100000000E-03 0.  1.
        -12    1    3    3    0    0  0.15277594962E+02  0.15271700791E+02  0.90057040156E+01  0.23403684703E+02  0.00000000000E+00 0.  1.
</event>
<event>
 7    1  0.6624035E-013  0.5052886E+02  0.7816164E-02  0.1300439E+00
        -11   -1    0    0    0    0  0.00000000000E+00  0.00000000000E+00  0.45593999997E+02  0.45594000000E+02  0.51100000000E-03 0. -1.
         11   -1    0    0    0    0 -0.00000000000E+00 -0.00000000000E+00 -0.45593999997E+02  0.45594000000E+02  0.51100000000E-03 0.  1.
    9900012    2    1    2    0    0  0.95511954877E+00  0.15423759952E+02 -0.37607994424E+02  0.50528857498E+02  0.29999992852E+02 0.  0.
         12    1    1    2    0    0 -0.95511954877E+00 -0.15423759952E+02  0.37607994424E+02  0.40659142502E+02  0.00000000000E+00 0. -1.
         11    1    3    3    0    0 -0.53686380284E+01  0.14344958771E+02 -0.29750868457E+02  0.33462132189E+02  0.51100000000E-03 0.  1.
        -11    1    3    3    0    0 -0.27484014834E+01  0.25168844831E+01  0.14419545732E+01  0.39959543876E+01  0.51100000000E-03 0. -1.
        -12    1    3    3    0    0  0.90721590607E+01 -0.14380833025E+01 -0.92990805401E+01  0.13070770922E+02  0.00000000000E+00 0.  1.
</event>
<event>
 7    1  0.6624035E-013  0.5052886E+02  0.7816164E-02  0.1300439E+00
        -11   -1    0    0    0    0  0.00000000000E+00  0.00000000000E+00  0.45593999997E+02  0.45594000000E+02  0.51100000000E-03 0. -1.
         11   -1    0    0    0    0 -0.00000000000E+00 -0.00000000000E+00 -0.45593999997E+02  0.45594000000E+02  0.51100000000E-03 0.  1.
    9900012    2    1    2    0    0  0.13511318890E+02  0.32813089327E+02 -0.19847186558E+02  0.50528863467E+02  0.30000010996E+02 0.  0.
         12    1    1    2    0    0 -0.13511318890E+02 -0.32813089327E+02  0.19847186558E+02  0.40659136533E+02  0.00000000000E+00 0. -1.
         11    1    3    3    0    0  0.28214086806E+01  0.37077219596E+01  0.61531261889E+01  0.77180639561E+01  0.51100000000E-03 0. -1.
        -11    1    3    3    0    0 -0.15447271486E+01  0.13608842118E+01  0.92729237304E+00  0.22578882186E+01  0.51100000000E-03 0.  1.
         12    1    3    3    0    0  0.12234637358E+02  0.27744483155E+02 -0.26927605120E+02  0.40552911293E+02  0.00000000000E+00 0. -1.
</event>
<event>
 7    1  0.6624035E-013  0.5052886E+02  0.7816164E-02  0.1300439E+00
        -11   -1    0    0    0    0  0.00000000000E+00  0.00000000000E+00  0.45593999997E+02  0.45594000000E+02  0.51100000000E-03 0.  1.
         11   -1    0    0    0    0 -0.00000000000E+00 -0.00000000000E+00 -0.45593999997E+02  0.45594000000E+02  0.51100000000E-03 0. -1.
    9900012    2    1    2    0    0  0.18564111797E+02  0.31756603089E+02  0.17322172485E+02  0.50528859009E+02  0.29999997443E+02 0.  0.
         12    1    1    2    0    0 -0.18564111797E+02 -0.31756603089E+02 -0.17322172485E+02  0.40659140991E+02  0.00000000000E+00 0. -1.
         11    1    3    3    0    0  0.83526888149E+00  0.10879277643E+01  0.51114406060E+01  0.52922666462E+01  0.51100000000E-03 0. -1.
        -11    1    3    3    0    0  0.48760676087E+01 -0.39485692782E+01 -0.20861420763E+00  0.62777985647E+01  0.51100000000E-03 0.  1.
        -12    1    3    3    0    0  0.12852775306E+02  0.34617244603E+02  0.12419346087E+02  0.38958793798E+02  0.00000000000E+00 0.  1.
</event>
<event>
 7    1  0.6624035E-013  0.5052886E+02  0.7816164E-02  0.1300439E+00
        -11   -1    0    0    0    0  0.00000000000E+00  0.00000000000E+00  0.45593999997E+02  0.45594000000E+02  0.51100000000E-03 0.  1.
         11   -1    0    0    0    0 -0.00000000000E+00 -0.00000000000E+00 -0.45593999997E+02  0.45594000000E+02  0.51100000000E-03 0. -1.
    9900012    2    1    2    0    0  0.11799588496E+02  0.26076667902E+02  0.28878072849E+02  0.50528856022E+02  0.29999988364E+02 0.  0.
         12    1    1    2    0    0 -0.11799588496E+02 -0.26076667902E+02 -0.28878072849E+02  0.40659143978E+02  0.00000000000E+00 0. -1.
         11    1    3    3    0    0 -0.48301691586E+01 -0.24494146019E+01  0.46682670745E+01  0.71500268344E+01  0.51100000000E-03 0. -1.
        -11    1    3    3    0    0 -0.21641072513E+01  0.54815521889E+01  0.18603797717E+01  0.61799504651E+01  0.51100000000E-03 0.  1.
        -12    1    3    3    0    0  0.18793864906E+02  0.23044530315E+02  0.22349426003E+02  0.37198878722E+02  0.00000000000E+00 0.  1.
</event>
<event>
 7    1  0.6624035E-013  0.5052886E+02  0.7816164E-02  0.1300439E+00
        -11   -1    0    0    0    0  0.00000000000E+00  0.00000000000E+00  0.45593999997E+02  0.45594000000E+02  0.51100000000E-03 0.  1.
         11   -1    0    0    0    0 -0.00000000000E+00 -0.00000000000E+00 -0.45593999997E+02  0.45594000000E+02  0.51100000000E-03 0. -1.
    9900012    2    1    2    0    0  0.70199744572E+01 -0.13849944504E+02  0.37577448808E+02  0.50528860030E+02  0.30000000548E+02 0.  0.
         12    1    1    2    0    0 -0.70199744572E+01  0.13849944504E+02 -0.37577448808E+02  0.40659139970E+02  0.00000000000E+00 0. -1.
         11    1    3    3    0    0  0.59934640863E+01 -0.43472067269E+01  0.17141460126E+02  0.18672157711E+02  0.51100000000E-03 0. -1.
        -11    1    3    3    0    0  0.56623941922E+01  0.34485072424E+01  0.16135073010E+02  0.17444067515E+02  0.51100000000E-03 0.  1.
         12    1    3    3    0    0 -0.46358838213E+01 -0.12951245019E+02  0.43009156725E+01  0.14412634804E+02  0.00000000000E+00 0. -1.
</event>
<event>
 7    1  0.6624035E-013  0.5052885E+02  0.7816164E-02  0.1300439E+00
        -11   -1    0    0    0    0  0.00000000000E+00  0.00000000000E+00  0.45593999997E+02  0.45594000000E+02  0.51100000000E-03 0.  1.
         11   -1    0    0    0    0 -0.00000000000E+00 -0.00000000000E+00 -0.45593999997E+02  0.45594000000E+02  0.51100000000E-03 0. -1.
    9900012    2    1    2    0    0  0.20240968236E+02  0.60434118089E+01  0.34741146461E+02  0.50528845080E+02  0.29999955104E+02 0.  0.
         12    1    1    2    0    0 -0.20240968236E+02 -0.60434118089E+01 -0.34741146461E+02  0.40659154920E+02  0.00000000000E+00 0. -1.
         11    1    3    3    0    0  0.55692448359E+01  0.76201491345E+01  0.54631528620E+01  0.10905466534E+02  0.51100000000E-03 0. -1.
        -11    1    3    3    0    0 -0.32022808744E+01  0.23493733401E+01  0.17304064953E+02  0.17754008619E+02  0.51100000000E-03 0.  1.
        -12    1    3    3    0    0  0.17874004274E+02 -0.39261106657E+01  0.11973928646E+02  0.21869369927E+02  0.00000000000E+00 0.  1.
</event>
<event>
 7    1  0.7611969E-013  0.5052886E+02  0.7816164E-02  0.1300439E+00
        -11   -1    0    0    0    0  0.00000000000E+00  0.00000000000E+00  0.45593999997E+02  0.45594000000E+02  0.51100000000E-03 0. -1.
         11   -1    0    0    0    0 -0.00000000000E+00 -0.00000000000E+00 -0.45593999997E+02  0.45594000000E+02  0.51100000000E-03 0.  1.
    9900012    2    1    2    0    0  0.30788973060E+00  0.21158146096E+02 -0.34718927988E+02  0.50528857081E+02  0.29999991583E+02 0.  0.
         12    1    1    2    0    0 -0.30788973060E+00 -0.21158146096E+02  0.34718927988E+02  0.40659142919E+02  0.00000000000E+00 0. -1.
         11    1    3    3    0    0 -0.21872062523E+01  0.66355247361E+01 -0.15695248170E+02  0.17180072034E+02  0.51100000000E-03 0. -1.
        -11    1    3    3    0    0  0.87088180503E+01  0.13274406819E+02 -0.21342621765E+02  0.26600016772E+02  0.51100000000E-03 0.  1.
         12    1    3    3    0    0 -0.62137220674E+01  0.12482145410E+01  0.23189419470E+01  0.67487682747E+01  0.00000000000E+00 0. -1.
</event>
<event>
 7    1  0.6624035E-013  0.5052886E+02  0.7816164E-02  0.1300439E+00
        -11   -1    0    0    0    0  0.00000000000E+00  0.00000000000E+00  0.45593999997E+02  0.45594000000E+02  0.51100000000E-03 0.  1.
         11   -1    0    0    0    0 -0.00000000000E+00 -0.00000000000E+00 -0.45593999997E+02  0.45594000000E+02  0.51100000000E-03 0. -1.
    9900012    2    1    2    0    0 -0.25552022638E+01  0.29707953509E+02 -0.27641895915E+02  0.50528856255E+02  0.29999989072E+02 0.  0.
         12    1    1    2    0    0  0.25552022638E+01 -0.29707953509E+02  0.27641895915E+02  0.40659143745E+02  0.00000000000E+00 0. -1.
         11    1    3    3    0    0 -0.66945747444E+01  0.59212213634E+01 -0.20656708317E+02  0.22507283092E+02  0.51100000000E-03 0. -1.
        -11    1    3    3    0    0  0.20994631072E+01  0.67870048822E+01 -0.82089134663E+01  0.10856216706E+02  0.51100000000E-03 0.  1.
        -12    1    3    3    0    0  0.20399093734E+01  0.16999727264E+02  0.12237258680E+01  0.17165356457E+02  0.00000000000E+00 0.  1.
</event>
<event>
 7    1  0.6624035E-013  0.5052888E+02  0.7816164E-02  0.1300439E+00
        -11   -1    0    0    0    0  0.00000000000E+00  0.00000000000E+00  0.45593999997E+02  0.45594000000E+02  0.51100000000E-03 0. -1.
         11   -1    0    0    0    0 -0.00000000000E+00 -0.00000000000E+00 -0.45593999997E+02  0.45594000000E+02  0.51100000000E-03 0.  1.
    9900012    2    1    2    0    0 -0.18509193032E+02  0.35795361682E+02  0.54098093135E+01  0.50528878250E+02  0.30000055929E+02 0.  0.
         12    1    1    2    0    0  0.18509193032E+02 -0.35795361682E+02 -0.54098093135E+01  0.40659121750E+02  0.00000000000E+00 0. -1.
         11    1    3    3    0    0  0.80942666626E+00  0.35044575812E+00 -0.85573482900E+00  0.12289288491E+01  0.51100000000E-03 0. -1.
        -11    1    3    3    0    0 -0.84022453758E+01  0.27913130480E+02 -0.75876944141E+01  0.30121648151E+02  0.51100000000E-03 0.  1.
         12    1    3    3    0    0 -0.10916374323E+02  0.75317854439E+01  0.13853238557E+02  0.19178301250E+02  0.00000000000E+00 0. -1.
</event>
<event>
 7    1  0.6624035E-013  0.5052885E+02  0.7816164E-02  0.1300439E+00
        -11   -1    0    0    0    0  0.00000000000E+00  0.00000000000E+00  0.45593999997E+02  0.45594000000E+02  0.51100000000E-03 0.  1.
         11   -1    0    0    0    0 -0.00000000000E+00 -0.00000000000E+00 -0.45593999997E+02  0.45594000000E+02  0.51100000000E-03 0. -1.
    9900012    2    1    2    0    0  0.98672813673E+01  0.26192363912E+01  0.39356611353E+02  0.50528849762E+02  0.29999969337E+02 0.  0.
         12    1    1    2    0    0 -0.98672813673E+01 -0.26192363912E+01 -0.39356611353E+02  0.40659150238E+02  0.00000000000E+00 0. -1.
         11    1    3    3    0    0  0.39187840121E+01  0.67833043258E+00  0.67591044512E+01  0.78423525521E+01  0.51100000000E-03 0. -1.
        -11    1    3    3    0    0  0.78529162603E+01  0.12035700268E+02  0.90174578453E+01  0.16965875191E+02  0.51100000000E-03 0.  1.
        -12    1    3    3    0    0 -0.19044189051E+01 -0.10094794310E+02  0.23580049057E+02  0.25720622019E+02  0.00000000000E+00 0.  1.
</event>
<event>
 7    1  0.6624035E-013  0.5052891E+02  0.7816164E-02  0.1300439E+00
        -11   -1    0    0    0    0  0.00000000000E+00  0.00000000000E+00  0.45593999997E+02  0.45594000000E+02  0.51100000000E-03 0. -1.
         11   -1    0    0    0    0 -0.00000000000E+00 -0.00000000000E+00 -0.45593999997E+02  0.45594000000E+02  0.51100000000E-03 0.  1.
    9900012    2    1    2    0    0  0.31477936180E+02 -0.54661237273E+01 -0.25148015730E+02  0.50528909136E+02  0.30000149809E+02 0.  0.
         12    1    1    2    0    0 -0.31477936180E+02  0.54661237273E+01  0.25148015730E+02  0.40659090864E+02  0.00000000000E+00 0. -1.
         11    1    3    3    0    0  0.61693856330E-01 -0.10289893801E+01  0.21435347020E+01  0.23785219268E+01  0.51100000000E-03 0. -1.
        -11    1    3    3    0    0  0.10125265530E+02 -0.13199342410E+02 -0.10918239516E+02  0.19898532521E+02  0.51100000000E-03 0.  1.
        -12    1    3    3    0    0  0.21290976793E+02  0.87622080625E+01 -0.16373310916E+02  0.28251854688E+02  0.00000000000E+00 0.  1.
</event>
<event>
 7    1  0.6624035E-013  0.5052886E+02  0.7816164E-02  0.1300439E+00
        -11   -1    0    0    0    0  0.00000000000E+00  0.00000000000E+00  0.45593999997E+02  0.45594000000E+02  0.51100000000E-03 0.  1.
         11   -1    0    0    0    0 -0.00000000000E+00 -0.00000000000E+00 -0.45593999997E+02  0.45594000000E+02  0.51100000000E-03 0. -1.
    9900012    2    1    2    0    0  0.15829371001E+02  0.35601545195E+02  0.11624393295E+02  0.50528861715E+02  0.30000005669E+02 0.  0.
         12    1    1    2    0    0 -0.15829371001E+02 -0.35601545195E+02 -0.11624393295E+02  0.40659138285E+02  0.00000000000E+00 0. -1.
         11    1    3    3    0    0  0.10694200798E+01  0.96955703573E+01 -0.85408460388E+01  0.12965099120E+02  0.51100000000E-03 0. -1.
        -11    1    3    3    0    0 -0.13607151975E-01 -0.96692907846E+00  0.25151644032E+00  0.99919856796E+00  0.51100000000E-03 0.  1.
        -12    1    3    3    0    0  0.14773558073E+02  0.26872903916E+02  0.19913722893E+02  0.36564564028E+02  0.00000000000E+00 0.  1.
</event>
<event>
 7    1  0.6624035E-013  0.5052886E+02  0.7816164E-02  0.1300439E+00
        -11   -1    0    0    0    0  0.00000000000E+00  0.00000000000E+00  0.45593999997E+02  0.45594000000E+02  0.51100000000E-03 0.  1.
         11   -1    0    0    0    0 -0.00000000000E+00 -0.00000000000E+00 -0.45593999997E+02  0.45594000000E+02  0.51100000000E-03 0. -1.
    9900012    2    1    2    0    0 -0.64905357626E+00  0.17356982057E+02  0.36762476715E+02  0.50528858458E+02  0.29999995769E+02 0.  0.
         12    1    1    2    0    0  0.64905357626E+00 -0.17356982057E+02 -0.36762476715E+02  0.40659141542E+02  0.00000000000E+00 0. -1.
         11    1    3    3    0    0  0.69927252350E+00  0.93927736236E+01  0.12477338814E+02  0.15633207046E+02  0.51100000000E-03 0.  1.
        -11    1    3    3    0    0  0.33342827688E+01  0.15565592444E+02  0.17676615446E+02  0.23787976871E+02  0.51100000000E-03 0. -1.
         12    1    3    3    0    0 -0.46826088685E+01 -0.76013840098E+01  0.66085224553E+01  0.11107674542E+02  0.00000000000E+00 0. -1.
</event>
<event>
 7    1  0.6624035E-013  0.5052879E+02  0.7816164E-02  0.1300439E+00
        -11   -1    0    0    0    0  0.00000000000E+00  0.00000000000E+00  0.45593999997E+02  0.45594000000E+02  0.51100000000E-03 0.  1.
         11   -1    0    0    0    0 -0.00000000000E+00 -0.00000000000E+00 -0.45593999997E+02  0.45594000000E+02  0.51100000000E-03 0. -1.
    9900012    2    1    2    0    0 -0.31801437744E+02  0.22228079872E+01 -0.25236853844E+02  0.50528793049E+02  0.29999796951E+02 0.  0.
         12    1    1    2    0    0  0.31801437744E+02 -0.22228079872E+01  0.25236853844E+02  0.40659206951E+02  0.00000000000E+00 0. -1.
         11    1    3    3    0    0 -0.60357861155E+01  0.57983844470E+01 -0.10722400488E+02  0.13602273660E+02  0.51100000000E-03 0. -1.
        -11    1    3    3    0    0  0.35503753493E+01  0.22238927702E+00 -0.44544814896E+01  0.57006164328E+01  0.51100000000E-03 0.  1.
        -12    1    3    3    0    0 -0.29316026978E+02 -0.37979657368E+01 -0.10059971866E+02  0.31225902956E+02  0.00000000000E+00 0.  1.
</event>
<event>
 7    1  0.6624035E-013  0.5052885E+02  0.7816164E-02  0.1300439E+00
        -11   -1    0    0    0    0  0.00000000000E+00  0.00000000000E+00  0.45593999997E+02  0.45594000000E+02  0.51100000000E-03 0.  1.
         11   -1    0    0    0    0 -0.00000000000E+00 -0.00000000000E+00 -0.45593999997E+02  0.45594000000E+02  0.51100000000E-03 0. -1.
    9900012    2    1    2    0    0 -0.19863701832E+02 -0.20550729561E+02  0.28918283751E+02  0.50528852554E+02  0.29999977823E+02 0.  0.
         12    1    1    2    0    0  0.19863701832E+02  0.20550729561E+02 -0.28918283751E+02  0.40659147446E+02  0.00000000000E+00 0. -1.
         11    1    3    3    0    0 -0.36896142500E+01 -0.32297242527E+01 -0.96501078035E+00  0.49975612182E+01  0.51100000000E-03 0. -1.
        -11    1    3    3    0    0 -0.95300447891E+01 -0.17946126007E+02  0.66831080920E+01  0.21390397994E+02  0.51100000000E-03 0.  1.
         12    1    3    3    0    0 -0.66440427933E+01  0.62512069861E+00  0.23200186439E+02  0.24140893342E+02  0.00000000000E+00 0. -1.
</event>
<event>
 7    1  0.6624035E-013  0.5052886E+02  0.7816164E-02  0.1300439E+00
        -11   -1    0    0    0    0  0.00000000000E+00  0.00000000000E+00  0.45593999997E+02  0.45594000000E+02  0.51100000000E-03 0. -1.
         11   -1    0    0    0    0 -0.00000000000E+00 -0.00000000000E+00 -0.45593999997E+02  0.45594000000E+02  0.51100000000E-03 0.  1.
    9900012    2    1    2    0    0 -0.27854198794E+02  0.29523619849E+02  0.23801311274E+01  0.50528861499E+02  0.30000005013E+02 0.  0.
         12    1    1    2    0    0  0.27854198794E+02 -0.29523619849E+02 -0.23801311274E+01  0.40659138501E+02  0.00000000000E+00 0. -1.
         11    1    3    3    0    0 -0.17006476468E+02  0.90722427030E+01 -0.66270732211E+01  0.20382441690E+02  0.51100000000E-03 0. -1.
        -11    1    3    3    0    0 -0.68670078988E+01  0.83161753002E+01  0.12881553055E+02  0.16800267214E+02  0.51100000000E-03 0.  1.
        -12    1    3    3    0    0 -0.39807144274E+01  0.12135201845E+02 -0.38743487061E+01  0.13346152595E+02  0.00000000000E+00 0.  1.
</event>
<event>
 7    1  0.6624035E-013  0.5052885E+02  0.7816164E-02  0.1300439E+00
        -11   -1    0    0    0    0  0.00000000000E+00  0.00000000000E+00  0.45593999997E+02  0.45594000000E+02  0.51100000000E-03 0.  1.
         11   -1    0    0    0    0 -0.00000000000E+00 -0.00000000000E+00 -0.45593999997E+02  0.45594000000E+02  0.51100000000E-03 0. -1.
    9900012    2    1    2    0    0  0.16556713964E+02 -0.13425117276E+02  0.34623804262E+02  0.50528851303E+02  0.29999974022E+02 0.  0.
         12    1    1    2    0    0 -0.16556713964E+02  0.13425117276E+02 -0.34623804262E+02  0.40659148697E+02  0.00000000000E+00 0. -1.
         11    1    3    3    0    0 -0.17182619169E+01 -0.12845698481E+02  0.15520966332E+02  0.20220405278E+02  0.51100000000E-03 0. -1.
        -11    1    3    3    0    0  0.96491411367E+01 -0.54301088419E+01  0.16844916911E+02  0.20157957057E+02  0.51100000000E-03 0.  1.
         12    1    3    3    0    0  0.86258347444E+01  0.48506900470E+01  0.22579210195E+01  0.10150488969E+02  0.00000000000E+00 0. -1.
</event>
<event>
 7    1  0.6624035E-013  0.5052872E+02  0.7816164E-02  0.1300439E+00
        -11   -1    0    0    0    0  0.00000000000E+00  0.00000000000E+00  0.45593999997E+02  0.45594000000E+02  0.51100000000E-03 0. -1.
         11   -1    0    0    0    0 -0.00000000000E+00 -0.00000000000E+00 -0.45593999997E+02  0.45594000000E+02  0.51100000000E-03 0.  1.
    9900012    2    1    2    0    0 -0.15791233719E+02  0.36667874798E+02 -0.76993889829E+01  0.50528724363E+02  0.29999588171E+02 0.  0.
         12    1    1    2    0    0  0.15791233719E+02 -0.36667874798E+02  0.76993889829E+01  0.40659275637E+02  0.00000000000E+00 0. -1.
         11    1    3    3    0    0 -0.21057297794E+01  0.18118186915E+02 -0.37122147793E+00  0.18243919553E+02  0.51100000000E-03 0.  1.
        -11    1    3    3    0    0  0.54460581200E+01  0.39820131098E+01 -0.44143614421E+01  0.80624168000E+01  0.51100000000E-03 0. -1.
        -12    1    3    3    0    0 -0.19131562060E+02  0.14567674773E+02 -0.29138060629E+01  0.24222388011E+02  0.00000000000E+00 0.  1.
</event>
<event>
 7    1  0.6624035E-013  0.5052890E+02  0.7816164E-02  0.1300439E+00
        -11   -1    0    0    0    0  0.00000000000E+00  0.00000000000E+00  0.45593999997E+02  0.45594000000E+02  0.51100000000E-03 0. -1.
         11   -1    0    0    0    0 -0.00000000000E+00 -0.00000000000E+00 -0.45593999997E+02  0.45594000000E+02  0.51100000000E-03 0.  1.
    9900012    2    1    2    0    0 -0.18266373175E+00  0.23513513922E+02  0.33169922254E+02  0.50528899600E+02  0.30000120824E+02 0.  0.
         12    1    1    2    0    0  0.18266373175E+00 -0.23513513922E+02 -0.33169922254E+02  0.40659100400E+02  0.00000000000E+00 0. -1.
         11    1    3    3    0    0 -0.15685975892E+00  0.13913921014E+02  0.18253231919E+02  0.22952173726E+02  0.51100000000E-03 0. -1.
        -11    1    3    3    0    0 -0.37100871425E+01  0.12136699523E+02  0.18085951263E+02  0.22094475672E+02  0.51100000000E-03 0.  1.
         12    1    3    3    0    0  0.36842831696E+01 -0.25371066144E+01 -0.31692609279E+01  0.54822502019E+01  0.00000000000E+00 0. -1.
</event>
<event>
 7    1  0.6624035E-013  0.5052889E+02  0.7816164E-02  0.1300439E+00
        -11   -1    0    0    0    0  0.00000000000E+00  0.00000000000E+00  0.45593999997E+02  0.45594000000E+02  0.51100000000E-03 0. -1.
         11   -1    0    0    0    0 -0.00000000000E+00 -0.00000000000E+00 -0.45593999997E+02  0.45594000000E+02  0.51100000000E-03 0.  1.
    9900012    2    1    2    0    0  0.22049994842E+01 -0.37660879066E+02  0.15164421307E+02  0.50528886528E+02  0.30000081091E+02 0.  0.
         12    1    1    2    0    0 -0.22049994842E+01  0.37660879066E+02 -0.15164421307E+02  0.40659113472E+02  0.00000000000E+00 0. -1.
         11    1    3    3    0    0  0.83301999808E+01 -0.58082111582E+01 -0.12285454936E+01  0.10229216630E+02  0.51100000000E-03 0. -1.
        -11    1    3    3    0    0  0.23214798768E+01 -0.15507438866E+02  0.15238000344E+02  0.21864733791E+02  0.51100000000E-03 0.  1.
        -12    1    3    3    0    0 -0.84466803734E+01 -0.16345229041E+02  0.11549664561E+01  0.18434936107E+02  0.00000000000E+00 0.  1.
</event>
<event>
 7    1  0.6624035E-013  0.5052886E+02  0.7816164E-02  0.1300439E+00
        -11   -1    0    0    0    0  0.00000000000E+00  0.00000000000E+00  0.45593999997E+02  0.45594000000E+02  0.51100000000E-03 0.  1.
         11   -1    0    0    0    0 -0.00000000000E+00 -0.00000000000E+00 -0.45593999997E+02  0.45594000000E+02  0.51100000000E-03 0. -1.
    9900012    2    1    2    0    0  0.13158005838E+02 -0.12266165354E+02  0.36463325617E+02  0.50528855331E+02  0.29999986265E+02 0.  0.
         12    1    1    2    0    0 -0.13158005838E+02  0.12266165354E+02 -0.36463325617E+02  0.40659144669E+02  0.00000000000E+00 0. -1.
         11    1    3    3    0    0  0.13306206725E+02 -0.33465677463E+01  0.12614362349E+02  0.18638046862E+02  0.51100000000E-03 0. -1.
        -11    1    3    3    0    0 -0.51298354128E+01 -0.11567612599E+02  0.22908796987E+02  0.26171317358E+02  0.51100000000E-03 0.  1.
         12    1    3    3    0    0  0.49816345252E+01  0.26480149907E+01  0.94016628076E+00  0.57194911111E+01  0.00000000000E+00 0. -1.
</event>
<event>
 7    1  0.6624035E-013  0.5052886E+02  0.7816164E-02  0.1300439E+00
        -11   -1    0    0    0    0  0.00000000000E+00  0.00000000000E+00  0.45593999997E+02  0.45594000000E+02  0.51100000000E-03 0.  1.
         11   -1    0    0    0    0 -0.00000000000E+00 -0.00000000000E+00 -0.45593999997E+02  0.45594000000E+02  0.51100000000E-03 0. -1.
    9900012    2    1    2    0    0  0.18308935331E+02 -0.24635150663E+02  0.26665669302E+02  0.50528859817E+02  0.29999999898E+02 0.  0.
         12    1    1    2    0    0 -0.18308935331E+02  0.24635150663E+02 -0.26665669302E+02  0.40659140183E+02  0.00000000000E+00 0. -1.
         11    1    3    3    0    0  0.22267622295E+01 -0.80474741126E+01  0.17748771082E+02  0.19614769558E+02  0.51100000000E-03 0. -1.
        -11    1    3    3    0    0  0.30745648001E+01 -0.78316487322E+01  0.12271882736E+02  0.14879071769E+02  0.51100000000E-03 0.  1.
        -12    1    3    3    0    0  0.13007608301E+02 -0.87560278183E+01 -0.33549845155E+01  0.16035018490E+02  0.00000000000E+00 0.  1.
</event>
<event>
 7    1  0.6624035E-013  0.5052885E+02  0.7816164E-02  0.1300439E+00
        -11   -1    0    0    0    0  0.00000000000E+00  0.00000000000E+00  0.45593999997E+02  0.45594000000E+02  0.51100000000E-03 0. -1.
         11   -1    0    0    0    0 -0.00000000000E+00 -0.00000000000E+00 -0.45593999997E+02  0.45594000000E+02  0.51100000000E-03 0.  1.
    9900012    2    1    2    0    0  0.10159036052E+02  0.84827366192E+01 -0.38444809451E+02  0.50528853332E+02  0.29999980189E+02 0.  0.
         12    1    1    2    0    0 -0.10159036052E+02 -0.84827366192E+01  0.38444809451E+02  0.40659146668E+02  0.00000000000E+00 0. -1.
         11    1    3    3    0    0 -0.39980081776E+01 -0.67890145999E+01 -0.12560384522E+02  0.14826936576E+02  0.51100000000E-03 0. -1.
        -11    1    3    3    0    0  0.21866793035E+01  0.65080607865E+01 -0.17180751519E+02  0.18501747069E+02  0.51100000000E-03 0.  1.
         12    1    3    3    0    0  0.11970364926E+02  0.87636904326E+01 -0.87036734093E+01  0.17200169687E+02  0.00000000000E+00 0. -1.
</event>
<event>
 7    1  0.6624035E-013  0.5052886E+02  0.7816164E-02  0.1300439E+00
        -11   -1    0    0    0    0  0.00000000000E+00  0.00000000000E+00  0.45593999997E+02  0.45594000000E+02  0.51100000000E-03 0. -1.
         11   -1    0    0    0    0 -0.00000000000E+00 -0.00000000000E+00 -0.45593999997E+02  0.45594000000E+02  0.51100000000E-03 0.  1.
    9900012    2    1    2    0    0  0.36409063839E+01  0.20583818007E+02 -0.34874286879E+02  0.50528860211E+02  0.30000001099E+02 0.  0.
         12    1    1    2    0    0 -0.36409063839E+01 -0.20583818007E+02  0.34874286879E+02  0.40659139789E+02  0.00000000000E+00 0. -1.
         11    1    3    3    0    0  0.10790625988E+01 -0.37632220261E+01 -0.58630675167E+01  0.70499487287E+01  0.51100000000E-03 0. -1.
        -11    1    3    3    0    0  0.80760284300E+01  0.11101072587E+01 -0.10323954199E+02  0.13154413856E+02  0.51100000000E-03 0.  1.
         12    1    3    3    0    0 -0.55141846449E+01  0.23236932774E+02 -0.18687265164E+02  0.30324497627E+02  0.00000000000E+00 0. -1.
</event>
<event>
 7    1  0.6624035E-013  0.5052884E+02  0.7816164E-02  0.1300439E+00
        -11   -1    0    0    0    0  0.00000000000E+00  0.00000000000E+00  0.45593999997E+02  0.45594000000E+02  0.51100000000E-03 0.  1.
         11   -1    0    0    0    0 -0.00000000000E+00 -0.00000000000E+00 -0.45593999997E+02  0.45594000000E+02  0.51100000000E-03 0. -1.
    9900012    2    1    2    0    0  0.40256291130E+02 -0.45244082116E+01  0.34825244430E+01  0.50528840864E+02  0.29999942289E+02 0.  0.
         12    1    1    2    0    0 -0.40256291130E+02  0.45244082116E+01 -0.34825244430E+01  0.40659159136E+02  0.00000000000E+00 0. -1.
         11    1    3    3    0    0  0.92753281651E+01  0.13779505392E+00 -0.44617898092E-01  0.92764589724E+01  0.51100000000E-03 0. -1.
        -11    1    3    3    0    0  0.18526543308E+02 -0.63515684404E+01 -0.10660398729E+02  0.22298415412E+02  0.51100000000E-03 0.  1.
         12    1    3    3    0    0  0.12454419657E+02  0.16893651749E+01  0.14187541070E+02  0.18953966479E+02  0.00000000000E+00 0. -1.
</event>
<event>
 7    1  0.8858605E-013  0.5052886E+02  0.7816164E-02  0.1300439E+00
        -11   -1    0    0    0    0  0.00000000000E+00  0.00000000000E+00  0.45593999997E+02  0.45594000000E+02  0.51100000000E-03 0. -1.
         11   -1    0    0    0    0 -0.00000000000E+00 -0.00000000000E+00 -0.45593999997E+02  0.45594000000E+02  0.51100000000E-03 0.  1.
    9900012    2    1    2    0    0 -0.12801084026E+02 -0.15024781052E+02 -0.35546503095E+02  0.50528859820E+02  0.29999999909E+02 0.  0.
         12    1    1    2    0    0  0.12801084026E+02  0.15024781052E+02  0.35546503095E+02  0.40659140180E+02  0.00000000000E+00 0. -1.
         11    1    3    3    0    0 -0.48253280101E+01 -0.12741104256E+02 -0.18808505360E+02  0.23224543100E+02  0.51100000000E-03 0. -1.
        -11    1    3    3    0    0 -0.97705076587E+01 -0.57524887701E+01 -0.19475051191E+02  0.22535118507E+02  0.51100000000E-03 0.  1.
         12    1    3    3    0    0  0.17947516431E+01  0.34688119742E+01  0.27370534563E+01  0.47691982131E+01  0.00000000000E+00 0. -1.
</event>
<event>
 7    1  0.7588042E-013  0.5052886E+02  0.7816164E-02  0.1300439E+00
        -11   -1    0    0    0    0  0.00000000000E+00  0.00000000000E+00  0.45593999997E+02  0.45594000000E+02  0.51100000000E-03 0.  1.
         11   -1    0    0    0    0 -0.00000000000E+00 -0.00000000000E+00 -0.45593999997E+02  0.45594000000E+02  0.51100000000E-03 0. -1.
    9900012    2    1    2    0    0  0.20447646205E+02  0.35034583069E+02 -0.27635229940E+01  0.50528864428E+02  0.30000013915E+02 0.  0.
         12    1    1    2    0    0 -0.20447646205E+02 -0.35034583069E+02  0.27635229940E+01  0.40659135572E+02  0.00000000000E+00 0. -1.
         11    1    3    3    0    0  0.62897929068E+01  0.14708968270E+02 -0.11126146453E+01  0.16035995572E+02  0.51100000000E-03 0. -1.
        -11    1    3    3    0    0  0.20655052352E+02  0.17225268688E+02 -0.33307674334E+01  0.27100462746E+02  0.51100000000E-03 0.  1.
         12    1    3    3    0    0 -0.64971990542E+01  0.31003461101E+01  0.16798590847E+01  0.73924061101E+01  0.00000000000E+00 0. -1.
</event>
<event>
 7    1  0.6624035E-013  0.5052886E+02  0.7816164E-02  0.1300439E+00
        -11   -1    0    0    0    0  0.00000000000E+00  0.00000000000E+00  0.45593999997E+02  0.45594000000E+02  0.51100000000E-03 0. -1.
         11   -1    0    0    0    0 -0.00000000000E+00 -0.00000000000E+00 -0.45593999997E+02  0.45594000000E+02  0.51100000000E-03 0.  1.
    9900012    2    1    2    0    0  0.28314594772E+02 -0.26921181444E+02  0.11256090173E+02  0.50528857689E+02  0.29999993433E+02 0.  0.
         12    1    1    2    0    0 -0.28314594772E+02  0.26921181444E+02 -0.11256090173E+02  0.40659142311E+02  0.00000000000E+00 0. -1.
         11    1    3    3    0    0  0.15201102014E+02 -0.16528102268E+02  0.11058320550E+02  0.25030743510E+02  0.51100000000E-03 0. -1.
        -11    1    3    3    0    0  0.13609079279E+02 -0.15077087296E+02  0.20986328135E+01  0.20418860402E+02  0.51100000000E-03 0.  1.
         12    1    3    3    0    0 -0.49558652127E+00  0.46840081201E+01 -0.19008631897E+01  0.50792537775E+01  0.00000000000E+00 0. -1.
</event>
<event>
 7    1  0.6624035E-013  0.5052885E+02  0.7816164E-02  0.1300439E+00
        -11   -1    0    0    0    0  0.00000000000E+00  0.00000000000E+00  0.45593999997E+02  0.45594000000E+02  0.51100000000E-03 0. -1.
         11   -1    0    0    0    0 -0.00000000000E+00 -0.00000000000E+00 -0.45593999997E+02  0.45594000000E+02  0.51100000000E-03 0.  1.
    9900012    2    1    2    0    0 -0.23950688556E+01 -0.38139742742E+02 -0.13884885581E+02  0.50528851229E+02  0.29999973795E+02 0.  0.
         12    1    1    2    0    0  0.23950688556E+01  0.38139742742E+02  0.13884885581E+02  0.40659148771E+02  0.00000000000E+00 0. -1.
         11    1    3    3    0    0  0.44115296166E+01  0.29730474400E+01 -0.30920689646E+01  0.61531695395E+01  0.51100000000E-03 0. -1.
        -11    1    3    3    0    0 -0.15338365193E+01 -0.73954200111E+01 -0.65281902709E+01  0.99830937131E+01  0.51100000000E-03 0.  1.
         12    1    3    3    0    0 -0.52727619529E+01 -0.33717370171E+02 -0.42646263452E+01  0.34392587976E+02  0.00000000000E+00 0. -1.
</event>
<event>
 7    1  0.6624035E-013  0.5052885E+02  0.7816164E-02  0.1300439E+00
        -11   -1    0    0    0    0  0.00000000000E+00  0.00000000000E+00  0.45593999997E+02  0.45594000000E+02  0.51100000000E-03 0. -1.
         11   -1    0    0    0    0 -0.00000000000E+00 -0.00000000000E+00 -0.45593999997E+02  0.45594000000E+02  0.51100000000E-03 0.  1.
    9900012    2    1    2    0    0 -0.49229450052E+01  0.82629525144E+01 -0.39505120778E+02  0.50528851712E+02  0.29999975264E+02 0.  0.
         12    1    1    2    0    0  0.49229450052E+01 -0.82629525144E+01  0.39505120778E+02  0.40659148288E+02  0.00000000000E+00 0. -1.
         11    1    3    3    0    0  0.67356068813E+01  0.29958696064E+01 -0.64168834110E+01  0.97734347969E+01  0.51100000000E-03 0. -1.
        -11    1    3    3    0    0 -0.53437581317E+01  0.11230138965E+02 -0.28124922496E+02  0.30751959902E+02  0.51100000000E-03 0.  1.
        -12    1    3    3    0    0 -0.63147937548E+01 -0.59630560569E+01 -0.49633148713E+01  0.10003457013E+02  0.00000000000E+00 0.  1.
</event>
<event>
 7    1  0.6624035E-013  0.5052883E+02  0.7816164E-02  0.1300439E+00
        -11   -1    0    0    0    0  0.00000000000E+00  0.00000000000E+00  0.45593999997E+02  0.45594000000E+02  0.51100000000E-03 0. -1.
         11   -1    0    0    0    0 -0.00000000000E+00 -0.00000000000E+00 -0.45593999997E+02  0.45594000000E+02  0.51100000000E-03 0.  1.
    9900012    2    1    2    0    0 -0.14666825760E+01 -0.26551741198E+02 -0.30757464209E+02  0.50528834699E+02  0.29999923550E+02 0.  0.
         12    1    1    2    0    0  0.14666825760E+01  0.26551741198E+02  0.30757464209E+02  0.40659165301E+02  0.00000000000E+00 0. -1.
         11    1    3    3    0    0  0.84022025530E+01 -0.27805438447E+01 -0.55056874793E+01  0.10423100628E+02  0.51100000000E-03 0. -1.
        -11    1    3    3    0    0  0.39564290936E+01 -0.92622517042E+01 -0.38427130677E+01  0.10780031623E+02  0.51100000000E-03 0.  1.
        -12    1    3    3    0    0 -0.13825314223E+02 -0.14508945649E+02 -0.21409063662E+02  0.29325702448E+02  0.00000000000E+00 0.  1.
</event>
<event>
 7    1  0.6624035E-013  0.5052886E+02  0.7816164E-02  0.1300439E+00
        -11   -1    0    0    0    0  0.00000000000E+00  0.00000000000E+00  0.45593999997E+02  0.45594000000E+02  0.51100000000E-03 0.  1.
         11   -1    0    0    0    0 -0.00000000000E+00 -0.00000000000E+00 -0.45593999997E+02  0.45594000000E+02  0.51100000000E-03 0. -1.
    9900012    2    1    2    0    0  0.31335347399E+02  0.21948299100E+02  0.13767130505E+02  0.50528859425E+02  0.29999998708E+02 0.  0.
         12    1    1    2    0    0 -0.31335347399E+02 -0.21948299100E+02 -0.13767130505E+02  0.40659140575E+02  0.00000000000E+00 0. -1.
         11    1    3    3    0    0  0.20968505635E+02  0.16344558687E+02  0.71386497024E+01  0.27527861288E+02  0.51100000000E-03 0. -1.
        -11    1    3    3    0    0  0.14778730086E+02  0.54038877506E+01  0.88538837859E+01  0.18055584292E+02  0.51100000000E-03 0.  1.
         12    1    3    3    0    0 -0.44118883227E+01  0.19985266248E+00 -0.22254029833E+01  0.49454138448E+01  0.00000000000E+00 0. -1.
</event>
<event>
 7    1  0.6624035E-013  0.5052886E+02  0.7816164E-02  0.1300439E+00
        -11   -1    0    0    0    0  0.00000000000E+00  0.00000000000E+00  0.45593999997E+02  0.45594000000E+02  0.51100000000E-03 0. -1.
         11   -1    0    0    0    0 -0.00000000000E+00 -0.00000000000E+00 -0.45593999997E+02  0.45594000000E+02  0.51100000000E-03 0.  1.
    9900012    2    1    2    0    0 -0.52845796336E+01 -0.16371710601E+02 -0.36840278212E+02  0.50528858486E+02  0.29999995855E+02 0.  0.
         12    1    1    2    0    0  0.52845796336E+01  0.16371710601E+02  0.36840278212E+02  0.40659141514E+02  0.00000000000E+00 0. -1.
         11    1    3    3    0    0  0.12862850697E+01 -0.41791885632E+01 -0.17463498130E+02  0.18002608520E+02  0.51100000000E-03 0. -1.
        -11    1    3    3    0    0 -0.63742419544E+01  0.55071406885E+01 -0.62987198713E+01  0.10518242787E+02  0.51100000000E-03 0.  1.
         12    1    3    3    0    0 -0.19662274896E+00 -0.17699662726E+02 -0.13078060211E+02  0.22008007179E+02  0.00000000000E+00 0. -1.
</event>
<event>
 7    1  0.6871627E-013  0.5052886E+02  0.7816164E-02  0.1300439E+00
        -11   -1    0    0    0    0  0.00000000000E+00  0.00000000000E+00  0.45593999997E+02  0.45594000000E+02  0.51100000000E-03 0.  1.
         11   -1    0    0    0    0 -0.00000000000E+00 -0.00000000000E+00 -0.45593999997E+02  0.45594000000E+02  0.51100000000E-03 0. -1.
    9900012    2    1    2    0    0  0.39293136423E+02  0.91533056075E+01  0.50430511558E+01  0.50528856644E+02  0.29999990256E+02 0.  0.
         12    1    1    2    0    0 -0.39293136423E+02 -0.91533056075E+01 -0.50430511558E+01  0.40659143356E+02  0.00000000000E+00 0. -1.
         11    1    3    3    0    0  0.17663908927E+02  0.13324925936E+02  0.34082999674E+01  0.22387135563E+02  0.51100000000E-03 0. -1.
        -11    1    3    3    0    0  0.23138306067E+02 -0.59604372428E+01  0.46324932911E+01  0.24338611590E+02  0.51100000000E-03 0.  1.
         12    1    3    3    0    0 -0.15090785717E+01  0.17888169146E+01 -0.29977421026E+01  0.38031094914E+01  0.00000000000E+00 0. -1.
</event>
<event>
 7    1  0.6624035E-013  0.5052886E+02  0.7816164E-02  0.1300439E+00
        -11   -1    0    0    0    0  0.00000000000E+00  0.00000000000E+00  0.45593999997E+02  0.45594000000E+02  0.51100000000E-03 0. -1.
         11   -1    0    0    0    0 -0.00000000000E+00 -0.00000000000E+00 -0.45593999997E+02  0.45594000000E+02  0.51100000000E-03 0.  1.
    9900012    2    1    2    0    0  0.29674771950E+02 -0.25611935121E+02 -0.10798262743E+02  0.50528858479E+02  0.29999995833E+02 0.  0.
         12    1    1    2    0    0 -0.29674771950E+02  0.25611935121E+02  0.10798262743E+02  0.40659141521E+02  0.00000000000E+00 0. -1.
         11    1    3    3    0    0  0.80270380148E+00 -0.10080697179E+02 -0.57042334319E+01  0.11610472355E+02  0.51100000000E-03 0. -1.
        -11    1    3    3    0    0  0.69860863231E+00 -0.92225186961E+01  0.13218880657E+01  0.93429274556E+01  0.51100000000E-03 0.  1.
        -12    1    3    3    0    0  0.28173459517E+02 -0.63087192457E+01 -0.64159173772E+01  0.29575458668E+02  0.00000000000E+00 0.  1.
</event>
<event>
 7    1  0.6624035E-013  0.5052888E+02  0.7816164E-02  0.1300439E+00
        -11   -1    0    0    0    0  0.00000000000E+00  0.00000000000E+00  0.45593999997E+02  0.45594000000E+02  0.51100000000E-03 0. -1.
         11   -1    0    0    0    0 -0.00000000000E+00 -0.00000000000E+00 -0.45593999997E+02  0.45594000000E+02  0.51100000000E-03 0.  1.
    9900012    2    1    2    0    0  0.88921834300E+01  0.39508475926E+02  0.36295415364E+01  0.50528878417E+02  0.30000056437E+02 0.  0.
         12    1    1    2    0    0 -0.88921834300E+01 -0.39508475926E+02 -0.36295415364E+01  0.40659121583E+02  0.00000000000E+00 0. -1.
         11    1    3    3    0    0 -0.56918054025E+01  0.18100976922E+02  0.27515896512E+01  0.19173243339E+02  0.51100000000E-03 0.  1.
        -11    1    3    3    0    0 -0.34048031429E+01  0.56121130306E-01  0.43546244734E+00  0.34329960424E+01  0.51100000000E-03 0. -1.
         12    1    3    3    0    0  0.17988791975E+02  0.21351377873E+02  0.44248943783E+00  0.27922639036E+02  0.00000000000E+00 0. -1.
</event>
<event>
 7    1  0.6624035E-013  0.5052886E+02  0.7816164E-02  0.1300439E+00
        -11   -1    0    0    0    0  0.00000000000E+00  0.00000000000E+00  0.45593999997E+02  0.45594000000E+02  0.51100000000E-03 0. -1.
         11   -1    0    0    0    0 -0.00000000000E+00 -0.00000000000E+00 -0.45593999997E+02  0.45594000000E+02  0.51100000000E-03 0.  1.
    9900012    2    1    2    0    0  0.78286786418E+00  0.32491605899E+02 -0.24430477126E+02  0.50528861438E+02  0.30000004827E+02 0.  0.
         12    1    1    2    0    0 -0.78286786418E+00 -0.32491605899E+02  0.24430477126E+02  0.40659138562E+02  0.00000000000E+00 0. -1.
         11    1    3    3    0    0 -0.43605047583E+01  0.30978094045E+01  0.10139804117E+01  0.54441327491E+01  0.51100000000E-03 0. -1.
        -11    1    3    3    0    0  0.42325933324E+01  0.16856642232E+01 -0.14636819081E+02  0.15329474331E+02  0.51100000000E-03 0.  1.
        -12    1    3    3    0    0  0.91077929009E+00  0.27708132272E+02 -0.10807638457E+02  0.29755254358E+02  0.00000000000E+00 0.  1.
</event>
<event>
 7    1  0.6624035E-013  0.5052886E+02  0.7816164E-02  0.1300439E+00
        -11   -1    0    0    0    0  0.00000000000E+00  0.00000000000E+00  0.45593999997E+02  0.45594000000E+02  0.51100000000E-03 0.  1.
         11   -1    0    0    0    0 -0.00000000000E+00 -0.00000000000E+00 -0.45593999997E+02  0.45594000000E+02  0.51100000000E-03 0. -1.
    9900012    2    1    2    0    0  0.39445471312E+02  0.50584431548E+01  0.84635825981E+01  0.50528864685E+02  0.30000014696E+02 0.  0.
         12    1    1    2    0    0 -0.39445471312E+02 -0.50584431548E+01 -0.84635825981E+01  0.40659135315E+02  0.00000000000E+00 0. -1.
         11    1    3    3    0    0  0.98356860425E+01 -0.24888584453E+01 -0.15134762108E+01  0.10257960167E+02  0.51100000000E-03 0. -1.
        -11    1    3    3    0    0  0.28690415688E+02 -0.22792596810E+01  0.97878302935E+01  0.30399615115E+02  0.51100000000E-03 0.  1.
        -12    1    3    3    0    0  0.91936958199E+00  0.98265612811E+01  0.18922851543E+00  0.98712894027E+01  0.00000000000E+00 0.  1.
</event>
<event>
 7    1  0.6624035E-013  0.5052886E+02  0.7816164E-02  0.1300439E+00
        -11   -1    0    0    0    0  0.00000000000E+00  0.00000000000E+00  0.45593999997E+02  0.45594000000E+02  0.51100000000E-03 0. -1.
         11   -1    0    0    0    0 -0.00000000000E+00 -0.00000000000E+00 -0.45593999997E+02  0.45594000000E+02  0.51100000000E-03 0.  1.
    9900012    2    1    2    0    0  0.16852454933E+02  0.27048916257E+02 -0.25249093381E+02  0.50528858045E+02  0.29999994513E+02 0.  0.
         12    1    1    2    0    0 -0.16852454933E+02 -0.27048916257E+02  0.25249093381E+02  0.40659141955E+02  0.00000000000E+00 0. -1.
         11    1    3    3    0    0 -0.51653819527E-01  0.20707108547E+02 -0.84438338274E+01  0.22362588009E+02  0.51100000000E-03 0. -1.
        -11    1    3    3    0    0  0.58904616423E+01  0.30788206305E+01 -0.15171861664E+02  0.16563878213E+02  0.51100000000E-03 0.  1.
        -12    1    3    3    0    0  0.11013647110E+02  0.32629870798E+01 -0.16333978900E+01  0.11602391823E+02  0.00000000000E+00 0.  1.
</event>
<event>
 7    1  0.6624035E-013  0.5052886E+02  0.7816164E-02  0.1300439E+00
        -11   -1    0    0    0    0  0.00000000000E+00  0.00000000000E+00  0.45593999997E+02  0.45594000000E+02  0.51100000000E-03 0.  1.
         11   -1    0    0    0    0 -0.00000000000E+00 -0.00000000000E+00 -0.45593999997E+02  0.45594000000E+02  0.51100000000E-03 0. -1.
    9900012    2    1    2    0    0  0.13265314271E+00  0.62144104347E+01  0.40181207301E+02  0.50528856944E+02  0.29999991167E+02 0.  0.
         12    1    1    2    0    0 -0.13265314271E+00 -0.62144104347E+01 -0.40181207301E+02  0.40659143056E+02  0.00000000000E+00 0. -1.
         11    1    3    3    0    0 -0.75926322708E+00  0.15298945538E+02  0.18561258985E+02  0.24065630068E+02  0.51100000000E-03 0. -1.
        -11    1    3    3    0    0 -0.48895610635E+01 -0.13362753541E+01  0.10942121559E+02  0.12059165132E+02  0.51100000000E-03 0.  1.
        -12    1    3    3    0    0  0.57814774333E+01 -0.77482597496E+01  0.10677826757E+02  0.14404061744E+02  0.00000000000E+00 0.  1.
</event>
<event>
 7    1  0.6624035E-013  0.5052886E+02  0.7816164E-02  0.1300439E+00
        -11   -1    0    0    0    0  0.00000000000E+00  0.00000000000E+00  0.45593999997E+02  0.45594000000E+02  0.51100000000E-03 0.  1.
         11   -1    0    0    0    0 -0.00000000000E+00 -0.00000000000E+00 -0.45593999997E+02  0.45594000000E+02  0.51100000000E-03 0. -1.
    9900012    2    1    2    0    0 -0.12875697239E+02  0.27182264967E+02 -0.27358840473E+02  0.50528864985E+02  0.30000015608E+02 0.  0.
         12    1    1    2    0    0  0.12875697239E+02 -0.27182264967E+02  0.27358840473E+02  0.40659135015E+02  0.00000000000E+00 0. -1.
         11    1    3    3    0    0 -0.18144346504E+01  0.55785436409E+01 -0.46062811305E+01  0.74585620845E+01  0.51100000000E-03 0. -1.
        -11    1    3    3    0    0 -0.15492379573E+02  0.25047331018E+02 -0.13847275961E+02  0.32544272426E+02  0.51100000000E-03 0.  1.
         12    1    3    3    0    0  0.44311169838E+01 -0.34436096920E+01 -0.89052833819E+01  0.10526030474E+02  0.00000000000E+00 0. -1.
</event>
<event>
 7    1  0.6624035E-013  0.5052886E+02  0.7816164E-02  0.1300439E+00
        -11   -1    0    0    0    0  0.00000000000E+00  0.00000000000E+00  0.45593999997E+02  0.45594000000E+02  0.51100000000E-03 0.  1.
         11   -1    0    0    0    0 -0.00000000000E+00 -0.00000000000E+00 -0.45593999997E+02  0.45594000000E+02  0.51100000000E-03 0. -1.
    9900012    2    1    2    0    0  0.19372017434E+02  0.12218770126E+02  0.33594528321E+02  0.50528859134E+02  0.29999997825E+02 0.  0.
         12    1    1    2    0    0 -0.19372017434E+02 -0.12218770126E+02 -0.33594528321E+02  0.40659140866E+02  0.00000000000E+00 0. -1.
         11    1    3    3    0    0  0.91489725123E+01 -0.22575590448E+01  0.11755536010E+02  0.15066283484E+02  0.51100000000E-03 0. -1.
        -11    1    3    3    0    0  0.13921798327E+02  0.11332336772E+01  0.12649192021E+02  0.18844170087E+02  0.51100000000E-03 0.  1.
        -12    1    3    3    0    0 -0.36987534056E+01  0.13343095493E+02  0.91898002895E+01  0.16618405563E+02  0.00000000000E+00 0.  1.
</event>
<event>
 7    1  0.6624035E-013  0.5052886E+02  0.7816164E-02  0.1300439E+00
        -11   -1    0    0    0    0  0.00000000000E+00  0.00000000000E+00  0.45593999997E+02  0.45594000000E+02  0.51100000000E-03 0.  1.
         11   -1    0    0    0    0 -0.00000000000E+00 -0.00000000000E+00 -0.45593999997E+02  0.45594000000E+02  0.51100000000E-03 0. -1.
    9900012    2    1    2    0    0 -0.10595788337E+02 -0.30022079996E+02  0.25289713293E+02  0.50528860607E+02  0.30000002301E+02 0.  0.
         12    1    1    2    0    0  0.10595788337E+02  0.30022079996E+02 -0.25289713293E+02  0.40659139393E+02  0.00000000000E+00 0. -1.
         11    1    3    3    0    0 -0.65411359563E+01 -0.21428275971E+02  0.65944067829E+01  0.23354735532E+02  0.51100000000E-03 0. -1.
        -11    1    3    3    0    0 -0.18939084526E+01 -0.13102127015E+02  0.82621131179E+01  0.15604971482E+02  0.51100000000E-03 0.  1.
         12    1    3    3    0    0 -0.21607439285E+01  0.45083229895E+01  0.10433193392E+02  0.11569153593E+02  0.00000000000E+00 0. -1.
</event>
<event>
 7    1  0.8056191E-013  0.5052886E+02  0.7816164E-02  0.1300439E+00
        -11   -1    0    0    0    0  0.00000000000E+00  0.00000000000E+00  0.45593999997E+02  0.45594000000E+02  0.51100000000E-03 0. -1.
         11   -1    0    0    0    0 -0.00000000000E+00 -0.00000000000E+00 -0.45593999997E+02  0.45594000000E+02  0.51100000000E-03 0.  1.
    9900012    2    1    2    0    0 -0.90698008607E+01 -0.30463803401E+02 -0.25354704510E+02  0.50528860239E+02  0.30000001181E+02 0.  0.
         12    1    1    2    0    0  0.90698008607E+01  0.30463803401E+02  0.25354704510E+02  0.40659139761E+02  0.00000000000E+00 0. -1.
         11    1    3    3    0    0 -0.50460439154E+00 -0.91467604950E+01 -0.19880930462E+02  0.21889934889E+02  0.51100000000E-03 0. -1.
        -11    1    3    3    0    0 -0.10795757811E+02 -0.18863275533E+02 -0.92436435313E+01  0.23618139143E+02  0.51100000000E-03 0.  1.
         12    1    3    3    0    0  0.22305613422E+01 -0.24537673728E+01  0.37698694826E+01  0.50207862071E+01  0.00000000000E+00 0. -1.
</event>
<event>
 7    1  0.6624035E-013  0.5052885E+02  0.7816164E-02  0.1300439E+00
        -11   -1    0    0    0    0  0.00000000000E+00  0.00000000000E+00  0.45593999997E+02  0.45594000000E+02  0.51100000000E-03 0. -1.
         11   -1    0    0    0    0 -0.00000000000E+00 -0.00000000000E+00 -0.45593999997E+02  0.45594000000E+02  0.51100000000E-03 0.  1.
    9900012    2    1    2    0    0  0.40109569137E+02  0.66074203992E+01 -0.85488535886E+00  0.50528851341E+02  0.29999974136E+02 0.  0.
         12    1    1    2    0    0 -0.40109569137E+02 -0.66074203992E+01  0.85488535886E+00  0.40659148659E+02  0.00000000000E+00 0. -1.
         11    1    3    3    0    0  0.22196805727E+01  0.14855432773E+01 -0.26951065657E+01  0.37943932763E+01  0.51100000000E-03 0. -1.
        -11    1    3    3    0    0  0.25610118301E+02  0.45460645246E+00 -0.11441547216E+02  0.28053410298E+02  0.51100000000E-03 0.  1.
         12    1    3    3    0    0  0.12279770264E+02  0.46672706695E+01  0.13281768423E+02  0.18681047767E+02  0.00000000000E+00 0. -1.
</event>
<event>
 7    1  0.6624035E-013  0.5052886E+02  0.7816164E-02  0.1300439E+00
        -11   -1    0    0    0    0  0.00000000000E+00  0.00000000000E+00  0.45593999997E+02  0.45594000000E+02  0.51100000000E-03 0.  1.
         11   -1    0    0    0    0 -0.00000000000E+00 -0.00000000000E+00 -0.45593999997E+02  0.45594000000E+02  0.51100000000E-03 0. -1.
    9900012    2    1    2    0    0 -0.46313480709E+01  0.54373356649E+01  0.40026885754E+02  0.50528860963E+02  0.30000003384E+02 0.  0.
         12    1    1    2    0    0  0.46313480709E+01 -0.54373356649E+01 -0.40026885754E+02  0.40659139037E+02  0.00000000000E+00 0. -1.
         11    1    3    3    0    0  0.86785883602E+00  0.84181801085E+01  0.22645270907E+02  0.24174929783E+02  0.51100000000E-03 0. -1.
        -11    1    3    3    0    0 -0.33175710086E+01 -0.51157791824E+01  0.20856062611E+02  0.21729077798E+02  0.51100000000E-03 0.  1.
        -12    1    3    3    0    0 -0.21816358983E+01  0.21349347387E+01 -0.34744477652E+01  0.46248533819E+01  0.00000000000E+00 0.  1.
</event>
<event>
 7    1  0.6624035E-013  0.5052885E+02  0.7816164E-02  0.1300439E+00
        -11   -1    0    0    0    0  0.00000000000E+00  0.00000000000E+00  0.45593999997E+02  0.45594000000E+02  0.51100000000E-03 0.  1.
         11   -1    0    0    0    0 -0.00000000000E+00 -0.00000000000E+00 -0.45593999997E+02  0.45594000000E+02  0.51100000000E-03 0. -1.
    9900012    2    1    2    0    0  0.26274520837E+02  0.31024538903E+02 -0.54219537070E+00  0.50528850535E+02  0.29999971686E+02 0.  0.
         12    1    1    2    0    0 -0.26274520837E+02 -0.31024538903E+02  0.54219537070E+00  0.40659149465E+02  0.00000000000E+00 0. -1.
         11    1    3    3    0    0 -0.37349150665E+01  0.10415147922E+01  0.23034760559E+01  0.45100272524E+01  0.51100000000E-03 0. -1.
        -11    1    3    3    0    0 -0.21971272132E+01  0.21757653712E+01  0.11099286463E+01  0.32853104576E+01  0.51100000000E-03 0.  1.
        -12    1    3    3    0    0  0.32206563117E+02  0.27807258740E+02 -0.39556000729E+01  0.42733512825E+02  0.00000000000E+00 0.  1.
</event>
<event>
 7    1  0.6624035E-013  0.5052887E+02  0.7816164E-02  0.1300439E+00
        -11   -1    0    0    0    0  0.00000000000E+00  0.00000000000E+00  0.45593999997E+02  0.45594000000E+02  0.51100000000E-03 0.  1.
         11   -1    0    0    0    0 -0.00000000000E+00 -0.00000000000E+00 -0.45593999997E+02  0.45594000000E+02  0.51100000000E-03 0. -1.
    9900012    2    1    2    0    0  0.35328350725E+02 -0.16597047227E+02 -0.11384670612E+02  0.50528867367E+02  0.30000022847E+02 0.  0.
         12    1    1    2    0    0 -0.35328350725E+02  0.16597047227E+02  0.11384670612E+02  0.40659132633E+02  0.00000000000E+00 0. -1.
         11    1    3    3    0    0  0.12992978363E+02  0.29873797857E+01 -0.10531980651E+02  0.16990130706E+02  0.51100000000E-03 0. -1.
        -11    1    3    3    0    0  0.83473705853E+01  0.10763392439E+01 -0.16443316987E+01  0.85756007867E+01  0.51100000000E-03 0.  1.
         12    1    3    3    0    0  0.13988001777E+02 -0.20660766256E+02  0.79164173824E+00  0.24963135874E+02  0.00000000000E+00 0. -1.
</event>
<event>
 7    1  0.6624035E-013  0.5052889E+02  0.7816164E-02  0.1300439E+00
        -11   -1    0    0    0    0  0.00000000000E+00  0.00000000000E+00  0.45593999997E+02  0.45594000000E+02  0.51100000000E-03 0.  1.
         11   -1    0    0    0    0 -0.00000000000E+00 -0.00000000000E+00 -0.45593999997E+02  0.45594000000E+02  0.51100000000E-03 0. -1.
    9900012    2    1    2    0    0 -0.19895563613E+02 -0.57426006000E+01  0.34990748855E+02  0.50528887632E+02  0.30000084447E+02 0.  0.
         12    1    1    2    0    0  0.19895563613E+02  0.57426006000E+01 -0.34990748855E+02  0.40659112368E+02  0.00000000000E+00 0. -1.
         11    1    3    3    0    0 -0.49222502281E+01 -0.43818511976E+01  0.18440132531E+02  0.19582330179E+02  0.51100000000E-03 0. -1.
        -11    1    3    3    0    0 -0.12777532979E+01 -0.49881950003E+01  0.15955981424E+02  0.16766278249E+02  0.51100000000E-03 0.  1.
         12    1    3    3    0    0 -0.13695560087E+02  0.36274455979E+01  0.59463490000E+00  0.14180279204E+02  0.00000000000E+00 0. -1.
</event>
<event>
 7    1  0.6624035E-013  0.5052886E+02  0.7816164E-02  0.1300439E+00
        -11   -1    0    0    0    0  0.00000000000E+00  0.00000000000E+00  0.45593999997E+02  0.45594000000E+02  0.51100000000E-03 0. -1.
         11   -1    0    0    0    0 -0.00000000000E+00 -0.00000000000E+00 -0.45593999997E+02  0.45594000000E+02  0.51100000000E-03 0.  1.
    9900012    2    1    2    0    0 -0.16820754156E+02 -0.36056643702E+02 -0.83753293654E+01  0.50528862436E+02  0.30000007861E+02 0.  0.
         12    1    1    2    0    0  0.16820754156E+02  0.36056643702E+02  0.83753293654E+01  0.40659137564E+02  0.00000000000E+00 0. -1.
         11    1    3    3    0    0  0.45623680810E+01  0.84633820281E+00  0.99365054603E+00  0.47454011979E+01  0.51100000000E-03 0. -1.
        -11    1    3    3    0    0 -0.40920942971E+01 -0.58106152004E+00 -0.28757712048E+01  0.50351691640E+01  0.51100000000E-03 0.  1.
        -12    1    3    3    0    0 -0.17291027940E+02 -0.36321920385E+02 -0.64932087066E+01  0.40748292074E+02  0.00000000000E+00 0.  1.
</event>
<event>
 7    1  0.6624035E-013  0.5052885E+02  0.7816164E-02  0.1300439E+00
        -11   -1    0    0    0    0  0.00000000000E+00  0.00000000000E+00  0.45593999997E+02  0.45594000000E+02  0.51100000000E-03 0.  1.
         11   -1    0    0    0    0 -0.00000000000E+00 -0.00000000000E+00 -0.45593999997E+02  0.45594000000E+02  0.51100000000E-03 0. -1.
    9900012    2    1    2    0    0  0.21413170426E+02  0.11329064140E+02  0.32654166215E+02  0.50528854249E+02  0.29999982976E+02 0.  0.
         12    1    1    2    0    0 -0.21413170426E+02 -0.11329064140E+02 -0.32654166215E+02  0.40659145751E+02  0.00000000000E+00 0. -1.
         11    1    3    3    0    0  0.80264731783E+01 -0.50855631583E+01  0.12958031672E+02  0.16068534762E+02  0.51100000000E-03 0. -1.
        -11    1    3    3    0    0 -0.32870213981E+01  0.67785536833E+01  0.10994204160E+02  0.13327633889E+02  0.51100000000E-03 0.  1.
         12    1    3    3    0    0  0.16673718646E+02  0.96360736145E+01  0.87019303828E+01  0.21132685598E+02  0.00000000000E+00 0. -1.
</event>
<event>
 7    1  0.6624035E-013  0.5052886E+02  0.7816164E-02  0.1300439E+00
        -11   -1    0    0    0    0  0.00000000000E+00  0.00000000000E+00  0.45593999997E+02  0.45594000000E+02  0.51100000000E-03 0.  1.
         11   -1    0    0    0    0 -0.00000000000E+00 -0.00000000000E+00 -0.45593999997E+02  0.45594000000E+02  0.51100000000E-03 0. -1.
    9900012    2    1    2    0    0  0.10935332162E+02 -0.26535582954E+02  0.28800123689E+02  0.50528858633E+02  0.29999996301E+02 0.  0.
         12    1    1    2    0    0 -0.10935332162E+02  0.26535582954E+02 -0.28800123689E+02  0.40659141367E+02  0.00000000000E+00 0. -1.
         11    1    3    3    0    0  0.30401378691E+00 -0.76981607061E+01  0.59996361546E+01  0.97647189867E+01  0.51100000000E-03 0. -1.
        -11    1    3    3    0    0  0.64602466653E+01 -0.24860484562E+02  0.13799025959E+02  0.29158045156E+02  0.51100000000E-03 0.  1.
         12    1    3    3    0    0  0.41710717102E+01  0.60230623136E+01  0.90014615746E+01  0.11606094491E+02  0.00000000000E+00 0. -1.
</event>
<event>
 7    1  0.6624035E-013  0.5052885E+02  0.7816164E-02  0.1300439E+00
        -11   -1    0    0    0    0  0.00000000000E+00  0.00000000000E+00  0.45593999997E+02  0.45594000000E+02  0.51100000000E-03 0.  1.
         11   -1    0    0    0    0 -0.00000000000E+00 -0.00000000000E+00 -0.45593999997E+02  0.45594000000E+02  0.51100000000E-03 0. -1.
    9900012    2    1    2    0    0 -0.63088810692E+00  0.19484147344E+01  0.40607536211E+02  0.50528851744E+02  0.29999975362E+02 0.  0.
         12    1    1    2    0    0  0.63088810692E+00 -0.19484147344E+01 -0.40607536211E+02  0.40659148256E+02  0.00000000000E+00 0. -1.
         11    1    3    3    0    0  0.18410047713E+01  0.45286043896E+01 -0.31592341951E+01  0.58205083323E+01  0.51100000000E-03 0. -1.
        -11    1    3    3    0    0 -0.28245497208E+01  0.25473642568E+01  0.14327125786E+02  0.14823416588E+02  0.51100000000E-03 0.  1.
        -12    1    3    3    0    0  0.35265684258E+00 -0.51275539121E+01  0.29439644620E+02  0.29884926824E+02  0.00000000000E+00 0.  1.
</event>
<event>
 7    1  0.6624035E-013  0.5052883E+02  0.7816164E-02  0.1300439E+00
        -11   -1    0    0    0    0  0.00000000000E+00  0.00000000000E+00  0.45593999997E+02  0.45594000000E+02  0.51100000000E-03 0.  1.
         11   -1    0    0    0    0 -0.00000000000E+00 -0.00000000000E+00 -0.45593999997E+02  0.45594000000E+02  0.51100000000E-03 0. -1.
    9900012    2    1    2    0    0  0.91014030415E+01  0.38565643489E+02 -0.91117570468E+01  0.50528825002E+02  0.29999894076E+02 0.  0.
         12    1    1    2    0    0 -0.91014030415E+01 -0.38565643489E+02  0.91117570468E+01  0.40659174998E+02  0.00000000000E+00 0. -1.
         11    1    3    3    0    0  0.20640974059E+01  0.92519587092E+01  0.61269795536E+01  0.11287121722E+02  0.51100000000E-03 0. -1.
        -11    1    3    3    0    0 -0.48731611086E+01  0.21067849497E+02 -0.10148500753E+02  0.23887110528E+02  0.51100000000E-03 0.  1.
         12    1    3    3    0    0  0.11910466744E+02  0.82458352832E+01 -0.50902358475E+01  0.15354592751E+02  0.00000000000E+00 0. -1.
</event>
<event>
 7    1  0.6624035E-013  0.5052886E+02  0.7816164E-02  0.1300439E+00
        -11   -1    0    0    0    0  0.00000000000E+00  0.00000000000E+00  0.45593999997E+02  0.45594000000E+02  0.51100000000E-03 0.  1.
         11   -1    0    0    0    0 -0.00000000000E+00 -0.00000000000E+00 -0.45593999997E+02  0.45594000000E+02  0.51100000000E-03 0. -1.
    9900012    2    1    2    0    0  0.25645466578E+02  0.87609683309E+01  0.30310407143E+02  0.50528864455E+02  0.30000013997E+02 0.  0.
         12    1    1    2    0    0 -0.25645466578E+02 -0.87609683309E+01 -0.30310407143E+02  0.40659135545E+02  0.00000000000E+00 0. -1.
         11    1    3    3    0    0  0.14645250356E+02 -0.86799888836E+00  0.12845335049E+02  0.19499728533E+02  0.51100000000E-03 0. -1.
        -11    1    3    3    0    0  0.91516972040E+01 -0.45122906437E+01  0.28175530479E+01  0.10585505846E+02  0.51100000000E-03 0.  1.
         12    1    3    3    0    0  0.18485190175E+01  0.14141257863E+02  0.14647519046E+02  0.20443630077E+02  0.00000000000E+00 0. -1.
</event>
<event>
 7    1  0.6624035E-013  0.5052886E+02  0.7816164E-02  0.1300439E+00
        -11   -1    0    0    0    0  0.00000000000E+00  0.00000000000E+00  0.45593999997E+02  0.45594000000E+02  0.51100000000E-03 0. -1.
         11   -1    0    0    0    0 -0.00000000000E+00 -0.00000000000E+00 -0.45593999997E+02  0.45594000000E+02  0.51100000000E-03 0.  1.
    9900012    2    1    2    0    0  0.71147369970E+01  0.38881772497E+00 -0.40029930133E+02  0.50528856278E+02  0.29999989141E+02 0.  0.
         12    1    1    2    0    0 -0.71147369970E+01 -0.38881772497E+00  0.40029930133E+02  0.40659143722E+02  0.00000000000E+00 0. -1.
         11    1    3    3    0    0 -0.50376777132E+01  0.34204576525E+01 -0.27498904802E+01  0.66812891876E+01  0.51100000000E-03 0. -1.
        -11    1    3    3    0    0 -0.51230583267E+01  0.82427897582E+00 -0.62427765101E+01  0.81177226649E+01  0.51100000000E-03 0.  1.
        -12    1    3    3    0    0  0.17275473037E+02 -0.38559189033E+01 -0.31037263143E+02  0.35729844425E+02  0.00000000000E+00 0.  1.
</event>
<event>
 7    1  0.6624035E-013  0.5052887E+02  0.7816164E-02  0.1300439E+00
        -11   -1    0    0    0    0  0.00000000000E+00  0.00000000000E+00  0.45593999997E+02  0.45594000000E+02  0.51100000000E-03 0.  1.
         11   -1    0    0    0    0 -0.00000000000E+00 -0.00000000000E+00 -0.45593999997E+02  0.45594000000E+02  0.51100000000E-03 0. -1.
    9900012    2    1    2    0    0  0.22419255653E+02  0.49719476146E+00  0.33915993830E+02  0.50528869855E+02  0.30000030411E+02 0.  0.
         12    1    1    2    0    0 -0.22419255653E+02 -0.49719476146E+00 -0.33915993830E+02  0.40659130145E+02  0.00000000000E+00 0. -1.
         11    1    3    3    0    0  0.11824422338E+02  0.55469779583E+01  0.39174157827E+01  0.13635691210E+02  0.51100000000E-03 0. -1.
        -11    1    3    3    0    0  0.10099974769E+02  0.46382494295E+01  0.11425754728E+02  0.15939595963E+02  0.51100000000E-03 0.  1.
         12    1    3    3    0    0  0.49485854601E+00 -0.96880326264E+01  0.18572823320E+02  0.20953582682E+02  0.00000000000E+00 0. -1.
</event>
<event>
 7    1  0.6624035E-013  0.5052886E+02  0.7816164E-02  0.1300439E+00
        -11   -1    0    0    0    0  0.00000000000E+00  0.00000000000E+00  0.45593999997E+02  0.45594000000E+02  0.51100000000E-03 0.  1.
         11   -1    0    0    0    0 -0.00000000000E+00 -0.00000000000E+00 -0.45593999997E+02  0.45594000000E+02  0.51100000000E-03 0. -1.
    9900012    2    1    2    0    0 -0.34415176257E+02  0.63474212253E+00  0.21641599035E+02  0.50528855110E+02  0.29999985593E+02 0.  0.
         12    1    1    2    0    0  0.34415176257E+02 -0.63474212253E+00 -0.21641599035E+02  0.40659144890E+02  0.00000000000E+00 0. -1.
         11    1    3    3    0    0 -0.50657762287E+01 -0.66917555787E+01 -0.38637435862E+01  0.92395993574E+01  0.51100000000E-03 0. -1.
        -11    1    3    3    0    0 -0.39926976582E+01 -0.17227485541E+01  0.21982021950E+00  0.43540576892E+01  0.51100000000E-03 0.  1.
        -12    1    3    3    0    0 -0.25356702370E+02  0.90492462553E+01  0.25285522402E+02  0.36935198064E+02  0.00000000000E+00 0.  1.
</event>
<event>
 7    1  0.6624035E-013  0.5052886E+02  0.7816164E-02  0.1300439E+00
        -11   -1    0    0    0    0  0.00000000000E+00  0.00000000000E+00  0.45593999997E+02  0.45594000000E+02  0.51100000000E-03 0. -1.
         11   -1    0    0    0    0 -0.00000000000E+00 -0.00000000000E+00 -0.45593999997E+02  0.45594000000E+02  0.51100000000E-03 0.  1.
    9900012    2    1    2    0    0 -0.37209744463E+02  0.16116397502E+02 -0.29769295238E+01  0.50528862517E+02  0.30000008107E+02 0.  0.
         12    1    1    2    0    0  0.37209744463E+02 -0.16116397502E+02  0.29769295238E+01  0.40659137483E+02  0.00000000000E+00 0. -1.
         11    1    3    3    0    0  0.11897669882E+01 -0.21783651698E+01  0.11879862395E+01  0.27517506910E+01  0.51100000000E-03 0. -1.
        -11    1    3    3    0    0  0.20997881087E+01  0.21309750616E+01  0.21942589549E+01  0.37101128604E+01  0.51100000000E-03 0.  1.
        -12    1    3    3    0    0 -0.40499299560E+02  0.16163787610E+02 -0.63591747181E+01  0.44066998966E+02  0.00000000000E+00 0.  1.
</event>
<event>
 7    1  0.6624035E-013  0.5052885E+02  0.7816164E-02  0.1300439E+00
        -11   -1    0    0    0    0  0.00000000000E+00  0.00000000000E+00  0.45593999997E+02  0.45594000000E+02  0.51100000000E-03 0.  1.
         11   -1    0    0    0    0 -0.00000000000E+00 -0.00000000000E+00 -0.45593999997E+02  0.45594000000E+02  0.51100000000E-03 0. -1.
    9900012    2    1    2    0    0 -0.85709158129E+01 -0.94589958644E+01  0.38603534970E+02  0.50528854499E+02  0.29999983736E+02 0.  0.
         12    1    1    2    0    0  0.85709158129E+01  0.94589958644E+01 -0.38603534970E+02  0.40659145501E+02  0.00000000000E+00 0. -1.
         11    1    3    3    0    0  0.26033355219E+00  0.84209311639E+01  0.46309075444E+01  0.96138005061E+01  0.51100000000E-03 0. -1.
        -11    1    3    3    0    0 -0.15107293456E+01  0.40477831468E+00  0.88757086486E+01  0.90124554321E+01  0.51100000000E-03 0.  1.
         12    1    3    3    0    0 -0.73205200195E+01 -0.18284705343E+02  0.25096918777E+02  0.31902598561E+02  0.00000000000E+00 0. -1.
</event>
<event>
 7    1  0.6624035E-013  0.5052883E+02  0.7816164E-02  0.1300439E+00
        -11   -1    0    0    0    0  0.00000000000E+00  0.00000000000E+00  0.45593999997E+02  0.45594000000E+02  0.51100000000E-03 0. -1.
         11   -1    0    0    0    0 -0.00000000000E+00 -0.00000000000E+00 -0.45593999997E+02  0.45594000000E+02  0.51100000000E-03 0.  1.
    9900012    2    1    2    0    0  0.10124961891E+02 -0.37668037823E+02 -0.11479222550E+02  0.50528825425E+02  0.29999895363E+02 0.  0.
         12    1    1    2    0    0 -0.10124961891E+02  0.37668037823E+02  0.11479222550E+02  0.40659174575E+02  0.00000000000E+00 0. -1.
         11    1    3    3    0    0  0.18981698162E+01  0.16232488160E+01  0.16613772977E+01  0.29996933437E+01  0.51100000000E-03 0. -1.
        -11    1    3    3    0    0  0.18915497126E+01 -0.33943606175E+02 -0.25672934600E+01  0.34093069038E+02  0.51100000000E-03 0.  1.
         12    1    3    3    0    0  0.63352423625E+01 -0.53476804640E+01 -0.10573306388E+02  0.13436063044E+02  0.00000000000E+00 0. -1.
</event>
<event>
 7    1  0.6624035E-013  0.5052886E+02  0.7816164E-02  0.1300439E+00
        -11   -1    0    0    0    0  0.00000000000E+00  0.00000000000E+00  0.45593999997E+02  0.45594000000E+02  0.51100000000E-03 0.  1.
         11   -1    0    0    0    0 -0.00000000000E+00 -0.00000000000E+00 -0.45593999997E+02  0.45594000000E+02  0.51100000000E-03 0. -1.
    9900012    2    1    2    0    0  0.36971348821E+02  0.16919938636E+02 -0.19188830905E-01  0.50528864184E+02  0.30000013173E+02 0.  0.
         12    1    1    2    0    0 -0.36971348821E+02 -0.16919938636E+02  0.19188830905E-01  0.40659135816E+02  0.00000000000E+00 0. -1.
         11    1    3    3    0    0  0.11243394839E+01 -0.17872046830E+01  0.25325840605E+01  0.32973052844E+01  0.51100000000E-03 0. -1.
        -11    1    3    3    0    0  0.23650436926E+01  0.10255848506E+02  0.53503260116E+01  0.11806856014E+02  0.51100000000E-03 0.  1.
         12    1    3    3    0    0  0.33481965645E+02  0.84512948126E+01 -0.79020989029E+01  0.35424702885E+02  0.00000000000E+00 0. -1.
</event>
<event>
 7    1  0.6624035E-013  0.5052895E+02  0.7816164E-02  0.1300438E+00
        -11   -1    0    0    0    0  0.00000000000E+00  0.00000000000E+00  0.45593999997E+02  0.45594000000E+02  0.51100000000E-03 0.  1.
         11   -1    0    0    0    0 -0.00000000000E+00 -0.00000000000E+00 -0.45593999997E+02  0.45594000000E+02  0.51100000000E-03 0. -1.
    9900012    2    1    2    0    0  0.32441856483E+01  0.24329390312E+02  0.32414724216E+02  0.50528950338E+02  0.30000275045E+02 0.  0.
         12    1    1    2    0    0 -0.32441856483E+01 -0.24329390312E+02 -0.32414724216E+02  0.40659049662E+02  0.00000000000E+00 0. -1.
         11    1    3    3    0    0  0.59701692420E+00 -0.31600702280E+00  0.71277079736E+01  0.71596446046E+01  0.51100000000E-03 0. -1.
        -11    1    3    3    0    0  0.98266410273E+01  0.54691511054E+00  0.48802406209E+01  0.10985387512E+02  0.51100000000E-03 0.  1.
         12    1    3    3    0    0 -0.71794723032E+01  0.24098482224E+02  0.20406775621E+02  0.32383918221E+02  0.00000000000E+00 0. -1.
</event>
<event>
 7    1  0.6624035E-013  0.5052886E+02  0.7816164E-02  0.1300439E+00
        -11   -1    0    0    0    0  0.00000000000E+00  0.00000000000E+00  0.45593999997E+02  0.45594000000E+02  0.51100000000E-03 0.  1.
         11   -1    0    0    0    0 -0.00000000000E+00 -0.00000000000E+00 -0.45593999997E+02  0.45594000000E+02  0.51100000000E-03 0. -1.
    9900012    2    1    2    0    0  0.13333595610E+02 -0.33739514287E+02  0.18358277554E+02  0.50528856490E+02  0.29999989787E+02 0.  0.
         12    1    1    2    0    0 -0.13333595610E+02  0.33739514287E+02 -0.18358277554E+02  0.40659143510E+02  0.00000000000E+00 0. -1.
         11    1    3    3    0    0  0.50121432306E+01 -0.42291391472E+01  0.45137538865E+01  0.79612293083E+01  0.51100000000E-03 0. -1.
        -11    1    3    3    0    0  0.84524963231E+01 -0.71265695584E+01  0.16672898074E+02  0.20005454711E+02  0.51100000000E-03 0.  1.
         12    1    3    3    0    0 -0.13104394330E+00 -0.22383805581E+02 -0.28283744061E+01  0.22562172470E+02  0.00000000000E+00 0. -1.
</event>
<event>
 7    1  0.6624035E-013  0.5052886E+02  0.7816164E-02  0.1300439E+00
        -11   -1    0    0    0    0  0.00000000000E+00  0.00000000000E+00  0.45593999997E+02  0.45594000000E+02  0.51100000000E-03 0. -1.
         11   -1    0    0    0    0 -0.00000000000E+00 -0.00000000000E+00 -0.45593999997E+02  0.45594000000E+02  0.51100000000E-03 0.  1.
    9900012    2    1    2    0    0  0.53184074722E+01  0.32132139273E+02 -0.24339386377E+02  0.50528861279E+02  0.30000004345E+02 0.  0.
         12    1    1    2    0    0 -0.53184074722E+01 -0.32132139273E+02  0.24339386377E+02  0.40659138721E+02  0.00000000000E+00 0. -1.
         11    1    3    3    0    0  0.54812984237E+01  0.40468755757E+01  0.26332154274E+01  0.73044957446E+01  0.51100000000E-03 0. -1.
        -11    1    3    3    0    0 -0.80625541017E+01  0.60840755717E+01 -0.55933585304E+01  0.11545839689E+02  0.51100000000E-03 0.  1.
         12    1    3    3    0    0  0.78996631502E+01  0.22001188126E+02 -0.21379243274E+02  0.31678525846E+02  0.00000000000E+00 0. -1.
</event>
<event>
 7    1  0.6624035E-013  0.5052886E+02  0.7816164E-02  0.1300439E+00
        -11   -1    0    0    0    0  0.00000000000E+00  0.00000000000E+00  0.45593999997E+02  0.45594000000E+02  0.51100000000E-03 0.  1.
         11   -1    0    0    0    0 -0.00000000000E+00 -0.00000000000E+00 -0.45593999997E+02  0.45594000000E+02  0.51100000000E-03 0. -1.
    9900012    2    1    2    0    0  0.34663136278E+01 -0.36511870347E+02  0.17550888079E+02  0.50528859838E+02  0.29999999963E+02 0.  0.
         12    1    1    2    0    0 -0.34663136278E+01  0.36511870347E+02 -0.17550888079E+02  0.40659140162E+02  0.00000000000E+00 0. -1.
         11    1    3    3    0    0  0.51438494616E+01 -0.84301178192E+01  0.17128022252E+02  0.19771070286E+02  0.51100000000E-03 0. -1.
        -11    1    3    3    0    0  0.19461248315E+01 -0.24348969542E+02  0.35570694158E+01  0.24684255361E+02  0.51100000000E-03 0.  1.
        -12    1    3    3    0    0 -0.36236606654E+01 -0.37327829854E+01 -0.31342035892E+01  0.60735341913E+01  0.00000000000E+00 0.  1.
</event>
<event>
 7    1  0.8155048E-013  0.5052886E+02  0.7816164E-02  0.1300439E+00
        -11   -1    0    0    0    0  0.00000000000E+00  0.00000000000E+00  0.45593999997E+02  0.45594000000E+02  0.51100000000E-03 0. -1.
         11   -1    0    0    0    0 -0.00000000000E+00 -0.00000000000E+00 -0.45593999997E+02  0.45594000000E+02  0.51100000000E-03 0.  1.
    9900012    2    1    2    0    0 -0.29735487931E+01 -0.10040650560E+02 -0.39287515364E+02  0.50528861795E+02  0.30000005912E+02 0.  0.
         12    1    1    2    0    0  0.29735487931E+01  0.10040650560E+02  0.39287515364E+02  0.40659138205E+02  0.00000000000E+00 0. -1.
         11    1    3    3    0    0 -0.10499193684E+02 -0.13681654511E+02 -0.19597153123E+02  0.26104964068E+02  0.51100000000E-03 0. -1.
        -11    1    3    3    0    0 -0.20663508036E+01 -0.50428575739E+00 -0.98272799389E+01  0.10054826753E+02  0.51100000000E-03 0.  1.
         12    1    3    3    0    0  0.95919956944E+01  0.41452897089E+01 -0.98630823020E+01  0.14369070974E+02  0.00000000000E+00 0. -1.
</event>
<event>
 7    1  0.6624035E-013  0.5052884E+02  0.7816164E-02  0.1300439E+00
        -11   -1    0    0    0    0  0.00000000000E+00  0.00000000000E+00  0.45593999997E+02  0.45594000000E+02  0.51100000000E-03 0.  1.
         11   -1    0    0    0    0 -0.00000000000E+00 -0.00000000000E+00 -0.45593999997E+02  0.45594000000E+02  0.51100000000E-03 0. -1.
    9900012    2    1    2    0    0 -0.22445377274E+02 -0.13400194679E+02  0.31141732179E+02  0.50528835454E+02  0.29999925847E+02 0.  0.
         12    1    1    2    0    0  0.22445377274E+02  0.13400194679E+02 -0.31141732179E+02  0.40659164546E+02  0.00000000000E+00 0. -1.
         11    1    3    3    0    0 -0.80150832251E+01 -0.10957857393E+02  0.11197991085E+02  0.17598613648E+02  0.51100000000E-03 0. -1.
        -11    1    3    3    0    0 -0.31606254861E+01 -0.11300780437E+02  0.10648563523E+02  0.15845791155E+02  0.51100000000E-03 0.  1.
         12    1    3    3    0    0 -0.11269668563E+02  0.88584431511E+01  0.92951775710E+01  0.17084430651E+02  0.00000000000E+00 0. -1.
</event>
<event>
 7    1  0.6624035E-013  0.5052886E+02  0.7816164E-02  0.1300439E+00
        -11   -1    0    0    0    0  0.00000000000E+00  0.00000000000E+00  0.45593999997E+02  0.45594000000E+02  0.51100000000E-03 0. -1.
         11   -1    0    0    0    0 -0.00000000000E+00 -0.00000000000E+00 -0.45593999997E+02  0.45594000000E+02  0.51100000000E-03 0.  1.
    9900012    2    1    2    0    0  0.35371285519E+01  0.34329210547E+02  0.21497893382E+02  0.50528863327E+02  0.30000010568E+02 0.  0.
         12    1    1    2    0    0 -0.35371285519E+01 -0.34329210547E+02 -0.21497893382E+02  0.40659136673E+02  0.00000000000E+00 0. -1.
         11    1    3    3    0    0  0.10882582852E+02  0.19373954921E+02  0.12705757940E+02  0.25597207345E+02  0.51100000000E-03 0. -1.
        -11    1    3    3    0    0 -0.26299412833E+01  0.94505207486E+01 -0.37038846653E+01  0.10485594664E+02  0.51100000000E-03 0.  1.
        -12    1    3    3    0    0 -0.47155130165E+01  0.55047348776E+01  0.12496020107E+02  0.14446061318E+02  0.00000000000E+00 0.  1.
</event>
<event>
 7    1  0.6624035E-013  0.5052886E+02  0.7816164E-02  0.1300439E+00
        -11   -1    0    0    0    0  0.00000000000E+00  0.00000000000E+00  0.45593999997E+02  0.45594000000E+02  0.51100000000E-03 0.  1.
         11   -1    0    0    0    0 -0.00000000000E+00 -0.00000000000E+00 -0.45593999997E+02  0.45594000000E+02  0.51100000000E-03 0. -1.
    9900012    2    1    2    0    0  0.13757980521E+02 -0.11725419583E+02  0.36419754232E+02  0.50528856000E+02  0.29999988299E+02 0.  0.
         12    1    1    2    0    0 -0.13757980521E+02  0.11725419583E+02 -0.36419754232E+02  0.40659144000E+02  0.00000000000E+00 0. -1.
         11    1    3    3    0    0 -0.66754786008E+00 -0.63337200866E+01 -0.61163354189E-01  0.63690950297E+01  0.51100000000E-03 0. -1.
        -11    1    3    3    0    0  0.96455168878E-01  0.80224434202E+00  0.24418543771E+02  0.24431909048E+02  0.51100000000E-03 0.  1.
        -12    1    3    3    0    0  0.14329073213E+02 -0.61939438389E+01  0.12062373816E+02  0.19727851923E+02  0.00000000000E+00 0.  1.
</event>
<event>
 7    1  0.6624035E-013  0.5052886E+02  0.7816164E-02  0.1300439E+00
        -11   -1    0    0    0    0  0.00000000000E+00  0.00000000000E+00  0.45593999997E+02  0.45594000000E+02  0.51100000000E-03 0.  1.
         11   -1    0    0    0    0 -0.00000000000E+00 -0.00000000000E+00 -0.45593999997E+02  0.45594000000E+02  0.51100000000E-03 0. -1.
    9900012    2    1    2    0    0  0.30411329819E+02 -0.11600399455E+02  0.24366934507E+02  0.50528859009E+02  0.29999997443E+02 0.  0.
         12    1    1    2    0    0 -0.30411329819E+02  0.11600399455E+02 -0.24366934507E+02  0.40659140991E+02  0.00000000000E+00 0. -1.
         11    1    3    3    0    0  0.22221472797E+02 -0.22711672719E+00  0.11508787996E+02  0.25025939277E+02  0.51100000000E-03 0.  1.
        -11    1    3    3    0    0 -0.30329351505E+00  0.40334055214E+01  0.44198194446E+01  0.59912562322E+01  0.51100000000E-03 0. -1.
         12    1    3    3    0    0  0.84931505365E+01 -0.15406688250E+02  0.84383270668E+01  0.19511663500E+02  0.00000000000E+00 0. -1.
</event>
<event>
 7    1  0.6624035E-013  0.5052886E+02  0.7816164E-02  0.1300439E+00
        -11   -1    0    0    0    0  0.00000000000E+00  0.00000000000E+00  0.45593999997E+02  0.45594000000E+02  0.51100000000E-03 0. -1.
         11   -1    0    0    0    0 -0.00000000000E+00 -0.00000000000E+00 -0.45593999997E+02  0.45594000000E+02  0.51100000000E-03 0.  1.
    9900012    2    1    2    0    0 -0.39536133084E+02 -0.81145193580E+01 -0.49208237630E+01  0.50528858959E+02  0.29999997292E+02 0.  0.
         12    1    1    2    0    0  0.39536133084E+02  0.81145193580E+01  0.49208237630E+01  0.40659141041E+02  0.00000000000E+00 0. -1.
         11    1    3    3    0    0 -0.13309013782E+02 -0.27132970451E+01  0.39381264835E+01  0.14142159282E+02  0.51100000000E-03 0. -1.
        -11    1    3    3    0    0 -0.48696459821E+01 -0.82835793095E+01 -0.11144218819E+02  0.14714780036E+02  0.51100000000E-03 0.  1.
         12    1    3    3    0    0 -0.21357473320E+02  0.28823569966E+01  0.22852685721E+01  0.21671919641E+02  0.00000000000E+00 0. -1.
</event>
<event>
 7    1  0.6624035E-013  0.5052886E+02  0.7816164E-02  0.1300439E+00
        -11   -1    0    0    0    0  0.00000000000E+00  0.00000000000E+00  0.45593999997E+02  0.45594000000E+02  0.51100000000E-03 0.  1.
         11   -1    0    0    0    0 -0.00000000000E+00 -0.00000000000E+00 -0.45593999997E+02  0.45594000000E+02  0.51100000000E-03 0. -1.
    9900012    2    1    2    0    0 -0.26723982647E+01  0.11350795465E+02  0.38951035852E+02  0.50528862477E+02  0.30000007984E+02 0.  0.
         12    1    1    2    0    0  0.26723982647E+01 -0.11350795465E+02 -0.38951035852E+02  0.40659137523E+02  0.00000000000E+00 0. -1.
         11    1    3    3    0    0  0.11406545226E+02  0.76678901208E+01  0.10060503186E+02  0.17032895747E+02  0.51100000000E-03 0. -1.
        -11    1    3    3    0    0 -0.39806752640E+01 -0.28660564034E+01  0.88770023866E+01  0.10142052381E+02  0.51100000000E-03 0.  1.
        -12    1    3    3    0    0 -0.10098268227E+02  0.65489617478E+01  0.20013530279E+02  0.23353914349E+02  0.00000000000E+00 0.  1.
</event>
<event>
 7    1  0.6624035E-013  0.5052885E+02  0.7816164E-02  0.1300439E+00
        -11   -1    0    0    0    0  0.00000000000E+00  0.00000000000E+00  0.45593999997E+02  0.45594000000E+02  0.51100000000E-03 0.  1.
         11   -1    0    0    0    0 -0.00000000000E+00 -0.00000000000E+00 -0.45593999997E+02  0.45594000000E+02  0.51100000000E-03 0. -1.
    9900012    2    1    2    0    0  0.26705004322E+02 -0.31720998251E+01  0.30495030185E+02  0.50528851717E+02  0.29999975278E+02 0.  0.
         12    1    1    2    0    0 -0.26705004322E+02  0.31720998251E+01 -0.30495030185E+02  0.40659148283E+02  0.00000000000E+00 0. -1.
         11    1    3    3    0    0  0.84532268111E+01  0.53518512312E+01  0.13039626920E+02  0.16435669308E+02  0.51100000000E-03 0. -1.
        -11    1    3    3    0    0 -0.46766143994E+01 -0.73959310686E+00  0.10633196861E+01  0.48526661971E+01  0.51100000000E-03 0.  1.
        -12    1    3    3    0    0  0.22928391910E+02 -0.77843579494E+01  0.16392083578E+02  0.29240516212E+02  0.00000000000E+00 0.  1.
</event>
<event>
 7    1  0.6624035E-013  0.5052886E+02  0.7816164E-02  0.1300439E+00
        -11   -1    0    0    0    0  0.00000000000E+00  0.00000000000E+00  0.45593999997E+02  0.45594000000E+02  0.51100000000E-03 0.  1.
         11   -1    0    0    0    0 -0.00000000000E+00 -0.00000000000E+00 -0.45593999997E+02  0.45594000000E+02  0.51100000000E-03 0. -1.
    9900012    2    1    2    0    0 -0.13886276599E+02  0.23537871455E+02  0.30104905693E+02  0.50528863054E+02  0.30000009740E+02 0.  0.
         12    1    1    2    0    0  0.13886276599E+02 -0.23537871455E+02 -0.30104905693E+02  0.40659136946E+02  0.00000000000E+00 0. -1.
         11    1    3    3    0    0 -0.42808779470E+01  0.18957605184E+02  0.17045273565E+02  0.25850687833E+02  0.51100000000E-03 0.  1.
        -11    1    3    3    0    0  0.12985833345E+00  0.11688669325E+01  0.14246050631E+02  0.14294511952E+02  0.51100000000E-03 0. -1.
         12    1    3    3    0    0 -0.97352569856E+01  0.34113993383E+01 -0.11864185031E+01  0.10383663269E+02  0.00000000000E+00 0. -1.
</event>
<event>
 7    1  0.6624035E-013  0.5052886E+02  0.7816164E-02  0.1300439E+00
        -11   -1    0    0    0    0  0.00000000000E+00  0.00000000000E+00  0.45593999997E+02  0.45594000000E+02  0.51100000000E-03 0.  1.
         11   -1    0    0    0    0 -0.00000000000E+00 -0.00000000000E+00 -0.45593999997E+02  0.45594000000E+02  0.51100000000E-03 0. -1.
    9900012    2    1    2    0    0  0.94739517202E+01 -0.39139331364E+02  0.56144686656E+01  0.50528864751E+02  0.30000014896E+02 0.  0.
         12    1    1    2    0    0 -0.94739517202E+01  0.39139331364E+02 -0.56144686656E+01  0.40659135249E+02  0.00000000000E+00 0. -1.
         11    1    3    3    0    0  0.10070170291E+02 -0.19165591772E+02  0.28526540519E+01  0.21837258827E+02  0.51100000000E-03 0. -1.
        -11    1    3    3    0    0  0.86945662214E+01 -0.59370387455E+01  0.50975536258E+01  0.11697391336E+02  0.51100000000E-03 0.  1.
        -12    1    3    3    0    0 -0.92907847922E+01 -0.14036700847E+02 -0.23357390121E+01  0.16994214587E+02  0.00000000000E+00 0.  1.
</event>
<event>
 7    1  0.6624035E-013  0.5052886E+02  0.7816164E-02  0.1300439E+00
        -11   -1    0    0    0    0  0.00000000000E+00  0.00000000000E+00  0.45593999997E+02  0.45594000000E+02  0.51100000000E-03 0.  1.
         11   -1    0    0    0    0 -0.00000000000E+00 -0.00000000000E+00 -0.45593999997E+02  0.45594000000E+02  0.51100000000E-03 0. -1.
    9900012    2    1    2    0    0 -0.17407720785E+01 -0.40608530476E+02 -0.10405673388E+01  0.50528858159E+02  0.29999994861E+02 0.  0.
         12    1    1    2    0    0  0.17407720785E+01  0.40608530476E+02  0.10405673388E+01  0.40659141841E+02  0.00000000000E+00 0. -1.
         11    1    3    3    0    0 -0.65019773434E+00 -0.20185417231E+01  0.72985560944E+01  0.76004071671E+01  0.51100000000E-03 0.  1.
        -11    1    3    3    0    0 -0.37054472434E+01 -0.44254464907E+00 -0.17740118723E+01  0.41319854095E+01  0.51100000000E-03 0. -1.
        -12    1    3    3    0    0  0.26148728993E+01 -0.38147444104E+02 -0.65651115609E+01  0.38796465583E+02  0.00000000000E+00 0.  1.
</event>
<event>
 7    1  0.6624035E-013  0.5052884E+02  0.7816164E-02  0.1300439E+00
        -11   -1    0    0    0    0  0.00000000000E+00  0.00000000000E+00  0.45593999997E+02  0.45594000000E+02  0.51100000000E-03 0. -1.
         11   -1    0    0    0    0 -0.00000000000E+00 -0.00000000000E+00 -0.45593999997E+02  0.45594000000E+02  0.51100000000E-03 0.  1.
    9900012    2    1    2    0    0 -0.12560210328E+02 -0.38603769287E+02  0.22709069597E+01  0.50528844757E+02  0.29999954122E+02 0.  0.
         12    1    1    2    0    0  0.12560210328E+02  0.38603769287E+02 -0.22709069597E+01  0.40659155243E+02  0.00000000000E+00 0. -1.
         11    1    3    3    0    0 -0.35805250122E+00 -0.90654370110E+01  0.10634073333E+02  0.13978335584E+02  0.51100000000E-03 0. -1.
        -11    1    3    3    0    0 -0.55042449351E+01 -0.55687342115E+01  0.39650518352E+01  0.87766251681E+01  0.51100000000E-03 0.  1.
        -12    1    3    3    0    0 -0.66979128920E+01 -0.23969598065E+02 -0.12328218208E+02  0.27773884004E+02  0.00000000000E+00 0.  1.
</event>
<event>
 7    1  0.6624035E-013  0.5052886E+02  0.7816164E-02  0.1300439E+00
        -11   -1    0    0    0    0  0.00000000000E+00  0.00000000000E+00  0.45593999997E+02  0.45594000000E+02  0.51100000000E-03 0. -1.
         11   -1    0    0    0    0 -0.00000000000E+00 -0.00000000000E+00 -0.45593999997E+02  0.45594000000E+02  0.51100000000E-03 0.  1.
    9900012    2    1    2    0    0  0.60490349717E+01 -0.40170458263E+02 -0.17056549356E+01  0.50528858347E+02  0.29999995433E+02 0.  0.
         12    1    1    2    0    0 -0.60490349717E+01  0.40170458263E+02  0.17056549356E+01  0.40659141653E+02  0.00000000000E+00 0. -1.
         11    1    3    3    0    0  0.10350152486E+02 -0.19348918557E+02  0.28606750544E+01  0.22128935081E+02  0.51100000000E-03 0. -1.
        -11    1    3    3    0    0  0.45852960338E+01 -0.35739521452E+01  0.41367057695E+01  0.71351530144E+01  0.51100000000E-03 0.  1.
         12    1    3    3    0    0 -0.88864135482E+01 -0.17247587561E+02 -0.87030357595E+01  0.21264770252E+02  0.00000000000E+00 0. -1.
</event>
<event>
 7    1  0.6624035E-013  0.5052886E+02  0.7816164E-02  0.1300439E+00
        -11   -1    0    0    0    0  0.00000000000E+00  0.00000000000E+00  0.45593999997E+02  0.45594000000E+02  0.51100000000E-03 0.  1.
         11   -1    0    0    0    0 -0.00000000000E+00 -0.00000000000E+00 -0.45593999997E+02  0.45594000000E+02  0.51100000000E-03 0. -1.
    9900012    2    1    2    0    0 -0.27637121939E+02  0.16659573436E+02  0.24734869537E+02  0.50528859981E+02  0.30000000397E+02 0.  0.
         12    1    1    2    0    0  0.27637121939E+02 -0.16659573436E+02 -0.24734869537E+02  0.40659140019E+02  0.00000000000E+00 0. -1.
         11    1    3    3    0    0  0.30987147363E+01  0.13726525815E+01  0.53688151636E+01  0.63490459637E+01  0.51100000000E-03 0.  1.
        -11    1    3    3    0    0  0.11923816238E+01  0.43643909792E+00  0.66050038650E+01  0.67259444944E+01  0.51100000000E-03 0. -1.
         12    1    3    3    0    0 -0.31928218299E+02  0.14850481756E+02  0.12761050508E+02  0.37453869523E+02  0.00000000000E+00 0. -1.
</event>
<event>
 7    1  0.6624035E-013  0.5052886E+02  0.7816164E-02  0.1300439E+00
        -11   -1    0    0    0    0  0.00000000000E+00  0.00000000000E+00  0.45593999997E+02  0.45594000000E+02  0.51100000000E-03 0. -1.
         11   -1    0    0    0    0 -0.00000000000E+00 -0.00000000000E+00 -0.45593999997E+02  0.45594000000E+02  0.51100000000E-03 0.  1.
    9900012    2    1    2    0    0 -0.68971218446E+01 -0.37273243510E+02  0.14707158864E+02  0.50528862118E+02  0.30000006894E+02 0.  0.
         12    1    1    2    0    0  0.68971218446E+01  0.37273243510E+02 -0.14707158864E+02  0.40659137882E+02  0.00000000000E+00 0. -1.
         11    1    3    3    0    0 -0.70956336390E+01 -0.51806164653E+01  0.80625253674E+01  0.11924391777E+02  0.51100000000E-03 0. -1.
        -11    1    3    3    0    0 -0.79108737627E+01 -0.42497901365E+01  0.24037133647E+01  0.92962615118E+01  0.51100000000E-03 0.  1.
        -12    1    3    3    0    0  0.81093855571E+01 -0.27842836908E+02  0.42409201320E+01  0.29308208829E+02  0.00000000000E+00 0.  1.
</event>
<event>
 7    1  0.6624035E-013  0.5052886E+02  0.7816164E-02  0.1300439E+00
        -11   -1    0    0    0    0  0.00000000000E+00  0.00000000000E+00  0.45593999997E+02  0.45594000000E+02  0.51100000000E-03 0. -1.
         11   -1    0    0    0    0 -0.00000000000E+00 -0.00000000000E+00 -0.45593999997E+02  0.45594000000E+02  0.51100000000E-03 0.  1.
    9900012    2    1    2    0    0  0.17206712250E+02 -0.74463453904E+01 -0.36078341654E+02  0.50528859052E+02  0.29999997574E+02 0.  0.
         12    1    1    2    0    0 -0.17206712250E+02  0.74463453904E+01  0.36078341654E+02  0.40659140948E+02  0.00000000000E+00 0. -1.
         11    1    3    3    0    0  0.99576567145E+01  0.71793159405E+01 -0.23580463890E+02  0.26584502669E+02  0.51100000000E-03 0.  1.
        -11    1    3    3    0    0  0.85420018840E+00  0.59812279664E+00  0.18143271475E+01  0.20926519302E+01  0.51100000000E-03 0. -1.
        -12    1    3    3    0    0  0.63948553473E+01 -0.15223784128E+02 -0.14312204911E+02  0.21851704453E+02  0.00000000000E+00 0.  1.
</event>
<event>
 7    1  0.6624035E-013  0.5052886E+02  0.7816164E-02  0.1300439E+00
        -11   -1    0    0    0    0  0.00000000000E+00  0.00000000000E+00  0.45593999997E+02  0.45594000000E+02  0.51100000000E-03 0.  1.
         11   -1    0    0    0    0 -0.00000000000E+00 -0.00000000000E+00 -0.45593999997E+02  0.45594000000E+02  0.51100000000E-03 0. -1.
    9900012    2    1    2    0    0 -0.27481720311E+02 -0.29898496196E+02  0.20001910143E+01  0.50528858468E+02  0.29999995799E+02 0.  0.
         12    1    1    2    0    0  0.27481720311E+02  0.29898496196E+02 -0.20001910143E+01  0.40659141532E+02  0.00000000000E+00 0. -1.
         11    1    3    3    0    0  0.33869629928E+01 -0.43554093014E+00  0.14201964612E+01  0.36984013392E+01  0.51100000000E-03 0. -1.
        -11    1    3    3    0    0  0.16101271803E+01 -0.47191067522E+01  0.31854606877E+01  0.59168942977E+01  0.51100000000E-03 0.  1.
         12    1    3    3    0    0 -0.32478810484E+02 -0.24743848513E+02 -0.26054661346E+01  0.40913562831E+02  0.00000000000E+00 0. -1.
</event>
<event>
 7    1  0.6624035E-013  0.5052886E+02  0.7816164E-02  0.1300439E+00
        -11   -1    0    0    0    0  0.00000000000E+00  0.00000000000E+00  0.45593999997E+02  0.45594000000E+02  0.51100000000E-03 0.  1.
         11   -1    0    0    0    0 -0.00000000000E+00 -0.00000000000E+00 -0.45593999997E+02  0.45594000000E+02  0.51100000000E-03 0. -1.
    9900012    2    1    2    0    0 -0.40348079648E+01 -0.39568514832E+02 -0.84391307004E+01  0.50528856277E+02  0.29999989139E+02 0.  0.
         12    1    1    2    0    0  0.40348079648E+01  0.39568514832E+02  0.84391307004E+01  0.40659143723E+02  0.00000000000E+00 0. -1.
         11    1    3    3    0    0 -0.23374636599E+01 -0.29581132182E+02 -0.78537549612E+01  0.30695090565E+02  0.51100000000E-03 0. -1.
        -11    1    3    3    0    0 -0.42615852824E+01 -0.13275171219E+02 -0.39331433169E+01  0.14486576429E+02  0.51100000000E-03 0.  1.
         12    1    3    3    0    0  0.25642409775E+01  0.32877885697E+01  0.33477675777E+01  0.53471892826E+01  0.00000000000E+00 0. -1.
</event>
<event>
 7    1  0.6624035E-013  0.5052892E+02  0.7816164E-02  0.1300439E+00
        -11   -1    0    0    0    0  0.00000000000E+00  0.00000000000E+00  0.45593999997E+02  0.45594000000E+02  0.51100000000E-03 0.  1.
         11   -1    0    0    0    0 -0.00000000000E+00 -0.00000000000E+00 -0.45593999997E+02  0.45594000000E+02  0.51100000000E-03 0. -1.
    9900012    2    1    2    0    0  0.36091987337E+02 -0.10099538245E+02  0.15764784427E+02  0.50528921668E+02  0.30000187903E+02 0.  0.
         12    1    1    2    0    0 -0.36091987337E+02  0.10099538245E+02 -0.15764784427E+02  0.40659078332E+02  0.00000000000E+00 0. -1.
         11    1    3    3    0    0  0.23030915724E+00  0.66036490060E+00 -0.48911471610E+00  0.85343867763E+00  0.51100000000E-03 0. -1.
        -11    1    3    3    0    0  0.26142710153E+02 -0.19137059183E+01  0.23027229178E+02  0.34890641271E+02  0.51100000000E-03 0.  1.
         12    1    3    3    0    0  0.97189680276E+01 -0.88461972278E+01 -0.67733300343E+01  0.14784841719E+02  0.00000000000E+00 0. -1.
</event>
<event>
 7    1  0.6624035E-013  0.5052886E+02  0.7816164E-02  0.1300439E+00
        -11   -1    0    0    0    0  0.00000000000E+00  0.00000000000E+00  0.45593999997E+02  0.45594000000E+02  0.51100000000E-03 0.  1.
         11   -1    0    0    0    0 -0.00000000000E+00 -0.00000000000E+00 -0.45593999997E+02  0.45594000000E+02  0.51100000000E-03 0. -1.
    9900012    2    1    2    0    0 -0.29363410710E+02  0.52134023649E+01  0.27636494732E+02  0.50528864571E+02  0.30000014350E+02 0.  0.
         12    1    1    2    0    0  0.29363410710E+02 -0.52134023649E+01 -0.27636494732E+02  0.40659135429E+02  0.00000000000E+00 0. -1.
         11    1    3    3    0    0 -0.11525403885E+02 -0.38740851208E+01  0.41339857367E+01  0.12842636356E+02  0.51100000000E-03 0. -1.
        -11    1    3    3    0    0 -0.19834020458E+02  0.13398179311E+02  0.15946165334E+02  0.28760733049E+02  0.51100000000E-03 0.  1.
         12    1    3    3    0    0  0.19960136329E+01 -0.43106918251E+01  0.75563436616E+01  0.89254951664E+01  0.00000000000E+00 0. -1.
</event>
<event>
 7    1  0.6624035E-013  0.5052886E+02  0.7816164E-02  0.1300439E+00
        -11   -1    0    0    0    0  0.00000000000E+00  0.00000000000E+00  0.45593999997E+02  0.45594000000E+02  0.51100000000E-03 0. -1.
         11   -1    0    0    0    0 -0.00000000000E+00 -0.00000000000E+00 -0.45593999997E+02  0.45594000000E+02  0.51100000000E-03 0.  1.
    9900012    2    1    2    0    0  0.14160155294E+02  0.18280910110E+02 -0.33443448811E+02  0.50528856616E+02  0.29999990169E+02 0.  0.
         12    1    1    2    0    0 -0.14160155294E+02 -0.18280910110E+02  0.33443448811E+02  0.40659143384E+02  0.00000000000E+00 0. -1.
         11    1    3    3    0    0 -0.34193993404E+01 -0.40191689342E+01  0.10485824988E+01  0.53801056020E+01  0.51100000000E-03 0. -1.
        -11    1    3    3    0    0  0.41315245665E+01  0.16725663184E+01 -0.43619715505E+01  0.62364869439E+01  0.51100000000E-03 0.  1.
        -12    1    3    3    0    0  0.13448030068E+02  0.20627512725E+02 -0.30130059759E+02  0.38912264070E+02  0.00000000000E+00 0.  1.
</event>
<event>
 7    1  0.6624035E-013  0.5052886E+02  0.7816164E-02  0.1300439E+00
        -11   -1    0    0    0    0  0.00000000000E+00  0.00000000000E+00  0.45593999997E+02  0.45594000000E+02  0.51100000000E-03 0.  1.
         11   -1    0    0    0    0 -0.00000000000E+00 -0.00000000000E+00 -0.45593999997E+02  0.45594000000E+02  0.51100000000E-03 0. -1.
    9900012    2    1    2    0    0  0.12554065594E+02  0.32136728276E+02  0.21512588631E+02  0.50528864042E+02  0.30000012743E+02 0.  0.
         12    1    1    2    0    0 -0.12554065594E+02 -0.32136728276E+02 -0.21512588631E+02  0.40659135958E+02  0.00000000000E+00 0. -1.
         11    1    3    3    0    0  0.79187850742E+01  0.17062157912E+02  0.49212926758E+01  0.19443341059E+02  0.51100000000E-03 0. -1.
        -11    1    3    3    0    0 -0.12842557165E+01  0.16595256636E+02  0.18301940287E+02  0.24738893955E+02  0.51100000000E-03 0.  1.
         12    1    3    3    0    0  0.59195362366E+01 -0.15206862724E+01 -0.17106443321E+01  0.63466290286E+01  0.00000000000E+00 0. -1.
</event>
<event>
 7    1  0.6624035E-013  0.5052886E+02  0.7816164E-02  0.1300439E+00
        -11   -1    0    0    0    0  0.00000000000E+00  0.00000000000E+00  0.45593999997E+02  0.45594000000E+02  0.51100000000E-03 0.  1.
         11   -1    0    0    0    0 -0.00000000000E+00 -0.00000000000E+00 -0.45593999997E+02  0.45594000000E+02  0.51100000000E-03 0. -1.
    9900012    2    1    2    0    0 -0.40259034680E+01 -0.18775814773E+02  0.35838896234E+02  0.50528860776E+02  0.30000002814E+02 0.  0.
         12    1    1    2    0    0  0.40259034680E+01  0.18775814773E+02 -0.35838896234E+02  0.40659139224E+02  0.00000000000E+00 0. -1.
         11    1    3    3    0    0 -0.50989592215E+01  0.30201336783E+01  0.84768938693E+00  0.59865825088E+01  0.51100000000E-03 0. -1.
        -11    1    3    3    0    0 -0.23416460794E+01 -0.60530907012E+01  0.54210884599E+00  0.65128408287E+01  0.51100000000E-03 0.  1.
        -12    1    3    3    0    0  0.34147018329E+01 -0.15742857750E+02  0.34449098002E+02  0.38029437438E+02  0.00000000000E+00 0.  1.
</event>
<event>
 7    1  0.6624035E-013  0.5052886E+02  0.7816164E-02  0.1300439E+00
        -11   -1    0    0    0    0  0.00000000000E+00  0.00000000000E+00  0.45593999997E+02  0.45594000000E+02  0.51100000000E-03 0. -1.
         11   -1    0    0    0    0 -0.00000000000E+00 -0.00000000000E+00 -0.45593999997E+02  0.45594000000E+02  0.51100000000E-03 0.  1.
    9900012    2    1    2    0    0 -0.39687477163E+02  0.60464186469E+01 -0.64428820094E+01  0.50528858954E+02  0.29999997276E+02 0.  0.
         12    1    1    2    0    0  0.39687477163E+02 -0.60464186469E+01  0.64428820094E+01  0.40659141046E+02  0.00000000000E+00 0. -1.
         11    1    3    3    0    0 -0.10154481522E+01  0.67331427227E+01 -0.60970544250E+01  0.91400447918E+01  0.51100000000E-03 0. -1.
        -11    1    3    3    0    0 -0.21958749782E+00 -0.17844433239E+01  0.21944643877E+01  0.28369227792E+01  0.51100000000E-03 0.  1.
        -12    1    3    3    0    0 -0.38452441513E+02  0.10977192481E+01 -0.25402919721E+01  0.38551891383E+02  0.00000000000E+00 0.  1.
</event>
<event>
 7    1  0.6624035E-013  0.5052887E+02  0.7816164E-02  0.1300439E+00
        -11   -1    0    0    0    0  0.00000000000E+00  0.00000000000E+00  0.45593999997E+02  0.45594000000E+02  0.51100000000E-03 0.  1.
         11   -1    0    0    0    0 -0.00000000000E+00 -0.00000000000E+00 -0.45593999997E+02  0.45594000000E+02  0.51100000000E-03 0. -1.
    9900012    2    1    2    0    0  0.43352279439E+01  0.14868954009E+02  0.37593677306E+02  0.50528873496E+02  0.30000041479E+02 0.  0.
         12    1    1    2    0    0 -0.43352279439E+01 -0.14868954009E+02 -0.37593677306E+02  0.40659126504E+02  0.00000000000E+00 0. -1.
         11    1    3    3    0    0  0.79590125872E+00  0.11817504845E+02  0.59969347768E+01  0.13275922060E+02  0.51100000000E-03 0. -1.
        -11    1    3    3    0    0 -0.41229737183E+01  0.80264318554E+01  0.84244510458E+01  0.12344792274E+02  0.51100000000E-03 0.  1.
        -12    1    3    3    0    0  0.76623004034E+01 -0.49749826909E+01  0.23172291483E+02  0.24908159162E+02  0.00000000000E+00 0.  1.
</event>
<event>
 7    1  0.6624035E-013  0.5052883E+02  0.7816164E-02  0.1300439E+00
        -11   -1    0    0    0    0  0.00000000000E+00  0.00000000000E+00  0.45593999997E+02  0.45594000000E+02  0.51100000000E-03 0. -1.
         11   -1    0    0    0    0 -0.00000000000E+00 -0.00000000000E+00 -0.45593999997E+02  0.45594000000E+02  0.51100000000E-03 0.  1.
    9900012    2    1    2    0    0  0.26779789453E+02 -0.16293491791E+02 -0.25894651180E+02  0.50528831813E+02  0.29999914779E+02 0.  0.
         12    1    1    2    0    0 -0.26779789453E+02  0.16293491791E+02  0.25894651180E+02  0.40659168187E+02  0.00000000000E+00 0. -1.
         11    1    3    3    0    0  0.47130352788E+01  0.25770070978E+00 -0.21283187586E+01  0.51777265469E+01  0.51100000000E-03 0. -1.
        -11    1    3    3    0    0  0.22519219274E+02 -0.82134936167E+00 -0.10938621032E+02  0.25048817973E+02  0.51100000000E-03 0.  1.
         12    1    3    3    0    0 -0.45246509946E+00 -0.15729843139E+02 -0.12827711390E+02  0.20302287294E+02  0.00000000000E+00 0. -1.
</event>
<event>
 7    1  0.6624035E-013  0.5052886E+02  0.7816164E-02  0.1300439E+00
        -11   -1    0    0    0    0  0.00000000000E+00  0.00000000000E+00  0.45593999997E+02  0.45594000000E+02  0.51100000000E-03 0. -1.
         11   -1    0    0    0    0 -0.00000000000E+00 -0.00000000000E+00 -0.45593999997E+02  0.45594000000E+02  0.51100000000E-03 0.  1.
    9900012    2    1    2    0    0  0.40262843220E+02 -0.51277424649E+01 -0.24032581542E+01  0.50528856665E+02  0.29999990319E+02 0.  0.
         12    1    1    2    0    0 -0.40262843220E+02  0.51277424649E+01  0.24032581542E+01  0.40659143335E+02  0.00000000000E+00 0. -1.
         11    1    3    3    0    0 -0.57081134366E-01 -0.16862840278E+01  0.45841901140E+01  0.48848348325E+01  0.51100000000E-03 0. -1.
        -11    1    3    3    0    0  0.72582468750E+01 -0.73130869664E+01 -0.68196352846E+01  0.12356003171E+02  0.51100000000E-03 0.  1.
        -12    1    3    3    0    0  0.33061677480E+02  0.38716285294E+01 -0.16781298353E+00  0.33288018662E+02  0.00000000000E+00 0.  1.
</event>
<event>
 7    1  0.6624035E-013  0.5052886E+02  0.7816164E-02  0.1300439E+00
        -11   -1    0    0    0    0  0.00000000000E+00  0.00000000000E+00  0.45593999997E+02  0.45594000000E+02  0.51100000000E-03 0.  1.
         11   -1    0    0    0    0 -0.00000000000E+00 -0.00000000000E+00 -0.45593999997E+02  0.45594000000E+02  0.51100000000E-03 0. -1.
    9900012    2    1    2    0    0  0.22739505007E+02  0.10653051875E+01  0.33688955487E+02  0.50528859762E+02  0.29999999732E+02 0.  0.
         12    1    1    2    0    0 -0.22739505007E+02 -0.10653051875E+01 -0.33688955487E+02  0.40659140238E+02  0.00000000000E+00 0. -1.
         11    1    3    3    0    0 -0.38187214349E+01 -0.47681725552E+00  0.10687333713E+02  0.11359097246E+02  0.51100000000E-03 0. -1.
        -11    1    3    3    0    0  0.11291221758E+02 -0.77723517778E+01  0.83534173551E+01  0.16052436660E+02  0.51100000000E-03 0.  1.
         12    1    3    3    0    0  0.15267004683E+02  0.93144742208E+01  0.14648204419E+02  0.23117325856E+02  0.00000000000E+00 0. -1.
</event>
<event>
 7    1  0.6624035E-013  0.5052885E+02  0.7816164E-02  0.1300439E+00
        -11   -1    0    0    0    0  0.00000000000E+00  0.00000000000E+00  0.45593999997E+02  0.45594000000E+02  0.51100000000E-03 0.  1.
         11   -1    0    0    0    0 -0.00000000000E+00 -0.00000000000E+00 -0.45593999997E+02  0.45594000000E+02  0.51100000000E-03 0. -1.
    9900012    2    1    2    0    0  0.32744297630E+02 -0.23215462852E+02  0.64822345544E+01  0.50528854565E+02  0.29999983935E+02 0.  0.
         12    1    1    2    0    0 -0.32744297630E+02  0.23215462852E+02 -0.64822345544E+01  0.40659145435E+02  0.00000000000E+00 0. -1.
         11    1    3    3    0    0  0.13944221489E+02 -0.19021841368E+01  0.38057980541E+01  0.14578879124E+02  0.51100000000E-03 0. -1.
        -11    1    3    3    0    0  0.19949009357E+02 -0.88792410972E+01 -0.33388577438E+01  0.22089632593E+02  0.51100000000E-03 0.  1.
        -12    1    3    3    0    0 -0.11489332162E+01 -0.12434037618E+02  0.60152942441E+01  0.13860342848E+02  0.00000000000E+00 0.  1.
</event>
<event>
 7    1  0.6624035E-013  0.5052885E+02  0.7816164E-02  0.1300439E+00
        -11   -1    0    0    0    0  0.00000000000E+00  0.00000000000E+00  0.45593999997E+02  0.45594000000E+02  0.51100000000E-03 0.  1.
         11   -1    0    0    0    0 -0.00000000000E+00 -0.00000000000E+00 -0.45593999997E+02  0.45594000000E+02  0.51100000000E-03 0. -1.
    9900012    2    1    2    0    0  0.11541933445E+01  0.33417491947E+02  0.23132345385E+02  0.50528851788E+02  0.29999975495E+02 0.  0.
         12    1    1    2    0    0 -0.11541933445E+01 -0.33417491947E+02 -0.23132345385E+02  0.40659148212E+02  0.00000000000E+00 0. -1.
         11    1    3    3    0    0 -0.71551604994E+01  0.90201411411E+01  0.30584282913E+00  0.11517500079E+02  0.51100000000E-03 0. -1.
        -11    1    3    3    0    0  0.63900543615E+00  0.46122923697E+00 -0.29233112230E+01  0.30276738800E+01  0.51100000000E-03 0.  1.
        -12    1    3    3    0    0  0.76703484078E+01  0.23936121569E+02  0.25749813779E+02  0.35983677829E+02  0.00000000000E+00 0.  1.
</event>
<event>
 7    1  0.6624035E-013  0.5052887E+02  0.7816164E-02  0.1300439E+00
        -11   -1    0    0    0    0  0.00000000000E+00  0.00000000000E+00  0.45593999997E+02  0.45594000000E+02  0.51100000000E-03 0.  1.
         11   -1    0    0    0    0 -0.00000000000E+00 -0.00000000000E+00 -0.45593999997E+02  0.45594000000E+02  0.51100000000E-03 0. -1.
    9900012    2    1    2    0    0  0.30202449942E+02  0.22364136731E+02  0.15518454312E+02  0.50528867958E+02  0.30000024644E+02 0.  0.
         12    1    1    2    0    0 -0.30202449942E+02 -0.22364136731E+02 -0.15518454312E+02  0.40659132042E+02  0.00000000000E+00 0. -1.
         11    1    3    3    0    0  0.17831724467E+01  0.74930187437E+01  0.14245450040E+02  0.16194378067E+02  0.51100000000E-03 0. -1.
        -11    1    3    3    0    0  0.91820380965E+01  0.54507871048E+01  0.62105819323E+01  0.12352822830E+02  0.51100000000E-03 0.  1.
        -12    1    3    3    0    0  0.19237239398E+02  0.94203308826E+01 -0.49375776606E+01  0.21981667061E+02  0.00000000000E+00 0.  1.
</event>
<event>
 7    1  0.6624035E-013  0.5052885E+02  0.7816164E-02  0.1300439E+00
        -11   -1    0    0    0    0  0.00000000000E+00  0.00000000000E+00  0.45593999997E+02  0.45594000000E+02  0.51100000000E-03 0.  1.
         11   -1    0    0    0    0 -0.00000000000E+00 -0.00000000000E+00 -0.45593999997E+02  0.45594000000E+02  0.51100000000E-03 0. -1.
    9900012    2    1    2    0    0 -0.36314096686E+01  0.18850053937E+02  0.35842086538E+02  0.50528845594E+02  0.29999956669E+02 0.  0.
         12    1    1    2    0    0  0.36314096686E+01 -0.18850053937E+02 -0.35842086538E+02  0.40659154406E+02  0.00000000000E+00 0. -1.
         11    1    3    3    0    0  0.51212293186E+00  0.74580502502E+01 -0.65248870353E+00  0.75040339286E+01  0.51100000000E-03 0. -1.
        -11    1    3    3    0    0 -0.73729081086E+01  0.15660826019E+02  0.25850279062E+02  0.31110419049E+02  0.51100000000E-03 0.  1.
         12    1    3    3    0    0  0.32293755081E+01 -0.42688223322E+01  0.10644296179E+02  0.11914392616E+02  0.00000000000E+00 0. -1.
</event>
<event>
 7    1  0.6624035E-013  0.5052886E+02  0.7816164E-02  0.1300439E+00
        -11   -1    0    0    0    0  0.00000000000E+00  0.00000000000E+00  0.45593999997E+02  0.45594000000E+02  0.51100000000E-03 0. -1.
         11   -1    0    0    0    0 -0.00000000000E+00 -0.00000000000E+00 -0.45593999997E+02  0.45594000000E+02  0.51100000000E-03 0.  1.
    9900012    2    1    2    0    0  0.11380956515E+02  0.36949576620E+02 -0.12584453964E+02  0.50528857545E+02  0.29999992993E+02 0.  0.
         12    1    1    2    0    0 -0.11380956515E+02 -0.36949576620E+02  0.12584453964E+02  0.40659142455E+02  0.00000000000E+00 0. -1.
         11    1    3    3    0    0 -0.57594963986E+01  0.17632266699E+02 -0.93524960341E+01  0.20773488153E+02  0.51100000000E-03 0. -1.
        -11    1    3    3    0    0 -0.17913402249E+01  0.64034150066E+01 -0.10992307861E+01  0.67395053327E+01  0.51100000000E-03 0.  1.
        -12    1    3    3    0    0  0.18931793139E+02  0.12913894914E+02 -0.21327271433E+01  0.23015864059E+02  0.00000000000E+00 0.  1.
</event>
<event>
 7    1  0.6624035E-013  0.5052887E+02  0.7816164E-02  0.1300439E+00
        -11   -1    0    0    0    0  0.00000000000E+00  0.00000000000E+00  0.45593999997E+02  0.45594000000E+02  0.51100000000E-03 0.  1.
         11   -1    0    0    0    0 -0.00000000000E+00 -0.00000000000E+00 -0.45593999997E+02  0.45594000000E+02  0.51100000000E-03 0. -1.
    9900012    2    1    2    0    0 -0.17648495777E+02  0.26016975889E+00  0.36628235212E+02  0.50528871797E+02  0.30000036314E+02 0.  0.
         12    1    1    2    0    0  0.17648495777E+02 -0.26016975889E+00 -0.36628235212E+02  0.40659128203E+02  0.00000000000E+00 0. -1.
         11    1    3    3    0    0 -0.77799073355E+01  0.60699645909E+01  0.19312880470E+01  0.10054914324E+02  0.51100000000E-03 0. -1.
        -11    1    3    3    0    0  0.18711778137E+01  0.39309452045E+01  0.29698156628E+01  0.52700514175E+01  0.51100000000E-03 0.  1.
        -12    1    3    3    0    0 -0.11739766255E+02 -0.97407400365E+01  0.31727131502E+02  0.35203906055E+02  0.00000000000E+00 0.  1.
</event>
<event>
 7    1  0.6624035E-013  0.5052887E+02  0.7816164E-02  0.1300439E+00
        -11   -1    0    0    0    0  0.00000000000E+00  0.00000000000E+00  0.45593999997E+02  0.45594000000E+02  0.51100000000E-03 0.  1.
         11   -1    0    0    0    0 -0.00000000000E+00 -0.00000000000E+00 -0.45593999997E+02  0.45594000000E+02  0.51100000000E-03 0. -1.
    9900012    2    1    2    0    0  0.29348161038E+02 -0.11736104229E+02  0.25575661392E+02  0.50528866285E+02  0.30000019561E+02 0.  0.
         12    1    1    2    0    0 -0.29348161038E+02  0.11736104229E+02 -0.25575661392E+02  0.40659133715E+02  0.00000000000E+00 0. -1.
         11    1    3    3    0    0  0.44210859562E+01 -0.55441193589E+01 -0.58888672127E+01  0.92174843536E+01  0.51100000000E-03 0. -1.
        -11    1    3    3    0    0  0.12837308833E+02 -0.62309042172E+01  0.13403283265E+02  0.19577248733E+02  0.51100000000E-03 0.  1.
        -12    1    3    3    0    0  0.12089766249E+02  0.38919346963E-01  0.18061245340E+02  0.21734133199E+02  0.00000000000E+00 0.  1.
</event>
<event>
 7    1  0.6624035E-013  0.5052886E+02  0.7816164E-02  0.1300439E+00
        -11   -1    0    0    0    0  0.00000000000E+00  0.00000000000E+00  0.45593999997E+02  0.45594000000E+02  0.51100000000E-03 0.  1.
         11   -1    0    0    0    0 -0.00000000000E+00 -0.00000000000E+00 -0.45593999997E+02  0.45594000000E+02  0.51100000000E-03 0. -1.
    9900012    2    1    2    0    0  0.10915354080E+02  0.35820983631E+02  0.15839123068E+02  0.50528860283E+02  0.30000001315E+02 0.  0.
         12    1    1    2    0    0 -0.10915354080E+02 -0.35820983631E+02 -0.15839123068E+02  0.40659139717E+02  0.00000000000E+00 0. -1.
         11    1    3    3    0    0  0.11762184592E+02  0.75835156902E+01  0.11222776636E+01  0.14039879060E+02  0.51100000000E-03 0. -1.
        -11    1    3    3    0    0  0.21360032655E+01 -0.17452626134E+01 -0.38565062110E+00  0.27851711263E+01  0.51100000000E-03 0.  1.
        -12    1    3    3    0    0 -0.29828337775E+01  0.29982730554E+02  0.15102496026E+02  0.33703810097E+02  0.00000000000E+00 0.  1.
</event>
<event>
 7    1  0.6624035E-013  0.5052886E+02  0.7816164E-02  0.1300439E+00
        -11   -1    0    0    0    0  0.00000000000E+00  0.00000000000E+00  0.45593999997E+02  0.45594000000E+02  0.51100000000E-03 0. -1.
         11   -1    0    0    0    0 -0.00000000000E+00 -0.00000000000E+00 -0.45593999997E+02  0.45594000000E+02  0.51100000000E-03 0.  1.
    9900012    2    1    2    0    0  0.23551852168E+02  0.32631359881E+02 -0.58026313829E+01  0.50528856881E+02  0.29999990975E+02 0.  0.
         12    1    1    2    0    0 -0.23551852168E+02 -0.32631359881E+02  0.58026313829E+01  0.40659143119E+02  0.00000000000E+00 0. -1.
         11    1    3    3    0    0  0.11643193236E+02  0.18014922815E+02  0.64833437765E+01  0.22408372086E+02  0.51100000000E-03 0. -1.
        -11    1    3    3    0    0  0.63737037962E+01  0.16347841123E+01  0.30732013024E+01  0.72623126951E+01  0.51100000000E-03 0.  1.
        -12    1    3    3    0    0  0.55349551355E+01  0.12981652954E+02 -0.15359176462E+02  0.20858172100E+02  0.00000000000E+00 0.  1.
</event>
<event>
 7    1  0.6624035E-013  0.5052887E+02  0.7816164E-02  0.1300439E+00
        -11   -1    0    0    0    0  0.00000000000E+00  0.00000000000E+00  0.45593999997E+02  0.45594000000E+02  0.51100000000E-03 0. -1.
         11   -1    0    0    0    0 -0.00000000000E+00 -0.00000000000E+00 -0.45593999997E+02  0.45594000000E+02  0.51100000000E-03 0.  1.
    9900012    2    1    2    0    0  0.34275853830E+02 -0.21729403332E+02 -0.24826126506E+01  0.50528874450E+02  0.30000044377E+02 0.  0.
         12    1    1    2    0    0 -0.34275853830E+02  0.21729403332E+02  0.24826126506E+01  0.40659125550E+02  0.00000000000E+00 0. -1.
         11    1    3    3    0    0  0.55488358437E+01 -0.21500205556E+01  0.10198641857E+02  0.11807813667E+02  0.51100000000E-03 0. -1.
        -11    1    3    3    0    0  0.26307143191E+01 -0.23101477826E+01 -0.56518821278E+01  0.66483992399E+01  0.51100000000E-03 0.  1.
        -12    1    3    3    0    0  0.26096303667E+02 -0.17269234994E+02 -0.70293723798E+01  0.32072661543E+02  0.00000000000E+00 0.  1.
</event>
<event>
 7    1  0.6624035E-013  0.5052886E+02  0.7816164E-02  0.1300439E+00
        -11   -1    0    0    0    0  0.00000000000E+00  0.00000000000E+00  0.45593999997E+02  0.45594000000E+02  0.51100000000E-03 0.  1.
         11   -1    0    0    0    0 -0.00000000000E+00 -0.00000000000E+00 -0.45593999997E+02  0.45594000000E+02  0.51100000000E-03 0. -1.
    9900012    2    1    2    0    0 -0.17904759735E+02 -0.36190968395E+02  0.47748518591E+01  0.50528858042E+02  0.29999994503E+02 0.  0.
         12    1    1    2    0    0  0.17904759735E+02  0.36190968395E+02 -0.47748518591E+01  0.40659141958E+02  0.00000000000E+00 0. -1.
         11    1    3    3    0    0 -0.78963358049E+01 -0.16160518085E+02  0.71216809028E+01  0.19345097649E+02  0.51100000000E-03 0. -1.
        -11    1    3    3    0    0 -0.43364806087E+01 -0.93968759617E+01  0.96706051863E+01  0.14164284198E+02  0.51100000000E-03 0.  1.
         12    1    3    3    0    0 -0.56719433209E+01 -0.10633574348E+02 -0.12017434230E+02  0.17019476194E+02  0.00000000000E+00 0. -1.
</event>
<event>
 7    1  0.6624035E-013  0.5052886E+02  0.7816164E-02  0.1300439E+00
        -11   -1    0    0    0    0  0.00000000000E+00  0.00000000000E+00  0.45593999997E+02  0.45594000000E+02  0.51100000000E-03 0.  1.
         11   -1    0    0    0    0 -0.00000000000E+00 -0.00000000000E+00 -0.45593999997E+02  0.45594000000E+02  0.51100000000E-03 0. -1.
    9900012    2    1    2    0    0  0.26585510051E+02  0.21617986192E+02  0.21886961610E+02  0.50528858836E+02  0.29999996918E+02 0.  0.
         12    1    1    2    0    0 -0.26585510051E+02 -0.21617986192E+02 -0.21886961610E+02  0.40659141164E+02  0.00000000000E+00 0. -1.
         11    1    3    3    0    0  0.14456569370E+02  0.90663593550E+01  0.11834030760E+02  0.20766211840E+02  0.51100000000E-03 0. -1.
        -11    1    3    3    0    0  0.11280292652E+02  0.14443168985E+02  0.15457131266E+02  0.23974424704E+02  0.51100000000E-03 0.  1.
         12    1    3    3    0    0  0.84864802868E+00 -0.18915421475E+01 -0.54042004156E+01  0.57882222922E+01  0.00000000000E+00 0. -1.
</event>
<event>
 7    1  0.6624035E-013  0.5052887E+02  0.7816164E-02  0.1300439E+00
        -11   -1    0    0    0    0  0.00000000000E+00  0.00000000000E+00  0.45593999997E+02  0.45594000000E+02  0.51100000000E-03 0.  1.
         11   -1    0    0    0    0 -0.00000000000E+00 -0.00000000000E+00 -0.45593999997E+02  0.45594000000E+02  0.51100000000E-03 0. -1.
    9900012    2    1    2    0    0  0.37972336857E+02 -0.13162655006E+02  0.61653128415E+01  0.50528868976E+02  0.30000027740E+02 0.  0.
         12    1    1    2    0    0 -0.37972336857E+02  0.13162655006E+02 -0.61653128415E+01  0.40659131024E+02  0.00000000000E+00 0. -1.
         11    1    3    3    0    0 -0.83095749317E+00 -0.81702065575E+00  0.70713887985E+01  0.71667672564E+01  0.51100000000E-03 0. -1.
        -11    1    3    3    0    0  0.81030766727E+01 -0.65339257262E+01  0.50250457352E+01  0.11558681666E+02  0.51100000000E-03 0.  1.
         12    1    3    3    0    0  0.30700217677E+02 -0.58117086244E+01 -0.59311216921E+01  0.31803420053E+02  0.00000000000E+00 0. -1.
</event>
<event>
 7    1  0.6624035E-013  0.5052885E+02  0.7816164E-02  0.1300439E+00
        -11   -1    0    0    0    0  0.00000000000E+00  0.00000000000E+00  0.45593999997E+02  0.45594000000E+02  0.51100000000E-03 0. -1.
         11   -1    0    0    0    0 -0.00000000000E+00 -0.00000000000E+00 -0.45593999997E+02  0.45594000000E+02  0.51100000000E-03 0.  1.
    9900012    2    1    2    0    0  0.31838183841E+02  0.10757996241E+02 -0.22885841356E+02  0.50528853821E+02  0.29999981676E+02 0.  0.
         12    1    1    2    0    0 -0.31838183841E+02 -0.10757996241E+02  0.22885841356E+02  0.40659146179E+02  0.00000000000E+00 0. -1.
         11    1    3    3    0    0  0.59779452157E+00  0.16940006153E+01 -0.15209496160E+02  0.15315213681E+02  0.51100000000E-03 0. -1.
        -11    1    3    3    0    0  0.13278536907E+02  0.28348899738E+01 -0.87817893390E+01  0.16170218545E+02  0.51100000000E-03 0.  1.
        -12    1    3    3    0    0  0.17961852413E+02  0.62291056516E+01  0.11054441432E+01  0.19043421596E+02  0.00000000000E+00 0.  1.
</event>
<event>
 7    1  0.6624035E-013  0.5052887E+02  0.7816164E-02  0.1300439E+00
        -11   -1    0    0    0    0  0.00000000000E+00  0.00000000000E+00  0.45593999997E+02  0.45594000000E+02  0.51100000000E-03 0. -1.
         11   -1    0    0    0    0 -0.00000000000E+00 -0.00000000000E+00 -0.45593999997E+02  0.45594000000E+02  0.51100000000E-03 0.  1.
    9900012    2    1    2    0    0  0.87986016206E+01  0.30648164223E+02 -0.25227758260E+02  0.50528866370E+02  0.30000019818E+02 0.  0.
         12    1    1    2    0    0 -0.87986016206E+01 -0.30648164223E+02  0.25227758260E+02  0.40659133630E+02  0.00000000000E+00 0. -1.
         11    1    3    3    0    0  0.18550443594E+02  0.17446390066E+02 -0.11847411651E+02  0.28086591943E+02  0.51100000000E-03 0. -1.
        -11    1    3    3    0    0  0.79142547145E+00  0.95529773911E+00 -0.29723813663E+01  0.32208693384E+01  0.51100000000E-03 0.  1.
        -12    1    3    3    0    0 -0.10543267445E+02  0.12246476418E+02 -0.10407965243E+02  0.19221405088E+02  0.00000000000E+00 0.  1.
</event>
<event>
 7    1  0.6624035E-013  0.5052886E+02  0.7816164E-02  0.1300439E+00
        -11   -1    0    0    0    0  0.00000000000E+00  0.00000000000E+00  0.45593999997E+02  0.45594000000E+02  0.51100000000E-03 0.  1.
         11   -1    0    0    0    0 -0.00000000000E+00 -0.00000000000E+00 -0.45593999997E+02  0.45594000000E+02  0.51100000000E-03 0. -1.
    9900012    2    1    2    0    0 -0.16232083737E+02  0.27525769719E+02  0.25139954809E+02  0.50528857500E+02  0.29999992856E+02 0.  0.
         12    1    1    2    0    0  0.16232083737E+02 -0.27525769719E+02 -0.25139954809E+02  0.40659142500E+02  0.00000000000E+00 0. -1.
         11    1    3    3    0    0  0.26301533867E+01  0.59922608734E+01  0.83024744387E+01  0.10571470062E+02  0.51100000000E-03 0. -1.
        -11    1    3    3    0    0 -0.15049844251E+02  0.34575977829E+01  0.14770256702E+02  0.21368511359E+02  0.51100000000E-03 0.  1.
         12    1    3    3    0    0 -0.38123928727E+01  0.18075911063E+02  0.20672236685E+01  0.18588876078E+02  0.00000000000E+00 0. -1.
</event>
<event>
 7    1  0.6624035E-013  0.5052885E+02  0.7816164E-02  0.1300439E+00
        -11   -1    0    0    0    0  0.00000000000E+00  0.00000000000E+00  0.45593999997E+02  0.45594000000E+02  0.51100000000E-03 0. -1.
         11   -1    0    0    0    0 -0.00000000000E+00 -0.00000000000E+00 -0.45593999997E+02  0.45594000000E+02  0.51100000000E-03 0.  1.
    9900012    2    1    2    0    0 -0.11289677453E+02  0.31451460039E+02 -0.23162795491E+02  0.50528852806E+02  0.29999978590E+02 0.  0.
         12    1    1    2    0    0  0.11289677453E+02 -0.31451460039E+02  0.23162795491E+02  0.40659147194E+02  0.00000000000E+00 0. -1.
         11    1    3    3    0    0 -0.38418001387E+01  0.22537139932E+01 -0.50748381271E+01  0.67522320270E+01  0.51100000000E-03 0. -1.
        -11    1    3    3    0    0 -0.16134475126E+02  0.16154071545E+02 -0.16193329748E+02  0.27991056494E+02  0.51100000000E-03 0.  1.
        -12    1    3    3    0    0  0.86865978112E+01  0.13043674500E+02 -0.18946276164E+01  0.15785564285E+02  0.00000000000E+00 0.  1.
</event>
<event>
 7    1  0.6624035E-013  0.5052887E+02  0.7816164E-02  0.1300439E+00
        -11   -1    0    0    0    0  0.00000000000E+00  0.00000000000E+00  0.45593999997E+02  0.45594000000E+02  0.51100000000E-03 0. -1.
         11   -1    0    0    0    0 -0.00000000000E+00 -0.00000000000E+00 -0.45593999997E+02  0.45594000000E+02  0.51100000000E-03 0.  1.
    9900012    2    1    2    0    0  0.33021566297E+02 -0.23540432518E+02  0.29306911630E+01  0.50528871203E+02  0.30000034509E+02 0.  0.
         12    1    1    2    0    0 -0.33021566297E+02  0.23540432518E+02 -0.29306911630E+01  0.40659128797E+02  0.00000000000E+00 0. -1.
         11    1    3    3    0    0  0.45078173714E+01  0.29840214034E+01 -0.11336537804E+01  0.55235832885E+01  0.51100000000E-03 0. -1.
        -11    1    3    3    0    0  0.44232815637E+01  0.38471248152E+01 -0.87117993317E+00  0.59266131874E+01  0.51100000000E-03 0.  1.
        -12    1    3    3    0    0  0.24090467362E+02 -0.30371578736E+02  0.49355248766E+01  0.39078674727E+02  0.00000000000E+00 0.  1.
</event>
<event>
 7    1  0.6624035E-013  0.5052886E+02  0.7816164E-02  0.1300439E+00
        -11   -1    0    0    0    0  0.00000000000E+00  0.00000000000E+00  0.45593999997E+02  0.45594000000E+02  0.51100000000E-03 0.  1.
         11   -1    0    0    0    0 -0.00000000000E+00 -0.00000000000E+00 -0.45593999997E+02  0.45594000000E+02  0.51100000000E-03 0. -1.
    9900012    2    1    2    0    0  0.85040420007E+01 -0.10540222739E+01  0.39745891605E+02  0.50528860894E+02  0.30000003175E+02 0.  0.
         12    1    1    2    0    0 -0.85040420007E+01  0.10540222739E+01 -0.39745891605E+02  0.40659139106E+02  0.00000000000E+00 0. -1.
         11    1    3    3    0    0  0.56409272769E+00 -0.51856396411E+01 -0.15828970239E+01  0.54511120280E+01  0.51100000000E-03 0. -1.
        -11    1    3    3    0    0  0.31136625873E-01 -0.36868464012E+01  0.25309177041E+02  0.25576322030E+02  0.51100000000E-03 0.  1.
        -12    1    3    3    0    0  0.79088126471E+01  0.78184637684E+01  0.16019611589E+02  0.19501426836E+02  0.00000000000E+00 0.  1.
</event>
<event>
 7    1  0.6624035E-013  0.5052886E+02  0.7816164E-02  0.1300439E+00
        -11   -1    0    0    0    0  0.00000000000E+00  0.00000000000E+00  0.45593999997E+02  0.45594000000E+02  0.51100000000E-03 0. -1.
         11   -1    0    0    0    0 -0.00000000000E+00 -0.00000000000E+00 -0.45593999997E+02  0.45594000000E+02  0.51100000000E-03 0.  1.
    9900012    2    1    2    0    0 -0.31254330637E+02 -0.12172958372E+02  0.22981545456E+02  0.50528861659E+02  0.30000005499E+02 0.  0.
         12    1    1    2    0    0  0.31254330637E+02  0.12172958372E+02 -0.22981545456E+02  0.40659138341E+02  0.00000000000E+00 0. -1.
         11    1    3    3    0    0 -0.83800899878E+01  0.12422314658E+01  0.13094606879E+02  0.15596082097E+02  0.51100000000E-03 0. -1.
        -11    1    3    3    0    0  0.29589880602E+01  0.11376786900E+01 -0.10349865794E+01  0.33348344221E+01  0.51100000000E-03 0.  1.
        -12    1    3    3    0    0 -0.25833228709E+02 -0.14552868527E+02  0.10921925157E+02  0.31597945140E+02  0.00000000000E+00 0.  1.
</event>
<event>
 7    1  0.6624035E-013  0.5052886E+02  0.7816164E-02  0.1300439E+00
        -11   -1    0    0    0    0  0.00000000000E+00  0.00000000000E+00  0.45593999997E+02  0.45594000000E+02  0.51100000000E-03 0.  1.
         11   -1    0    0    0    0 -0.00000000000E+00 -0.00000000000E+00 -0.45593999997E+02  0.45594000000E+02  0.51100000000E-03 0. -1.
    9900012    2    1    2    0    0 -0.27116028309E+02  0.16384954103E+02  0.25483716736E+02  0.50528861655E+02  0.30000005487E+02 0.  0.
         12    1    1    2    0    0  0.27116028309E+02 -0.16384954103E+02 -0.25483716736E+02  0.40659138345E+02  0.00000000000E+00 0. -1.
         11    1    3    3    0    0 -0.13031553976E+02  0.18256908052E+02  0.15233200877E+02  0.27114322781E+02  0.51100000000E-03 0. -1.
        -11    1    3    3    0    0 -0.85878850184E+01  0.60652570766E+01  0.86782595936E+01  0.13632729086E+02  0.51100000000E-03 0.  1.
         12    1    3    3    0    0 -0.54965893153E+01 -0.79372110257E+01  0.15722562656E+01  0.97818097882E+01  0.00000000000E+00 0. -1.
</event>
<event>
 7    1  0.6624035E-013  0.5052886E+02  0.7816164E-02  0.1300439E+00
        -11   -1    0    0    0    0  0.00000000000E+00  0.00000000000E+00  0.45593999997E+02  0.45594000000E+02  0.51100000000E-03 0. -1.
         11   -1    0    0    0    0 -0.00000000000E+00 -0.00000000000E+00 -0.45593999997E+02  0.45594000000E+02  0.51100000000E-03 0.  1.
    9900012    2    1    2    0    0  0.38005628863E+02 -0.36718436344E+01 -0.13973388919E+02  0.50528857623E+02  0.29999993232E+02 0.  0.
         12    1    1    2    0    0 -0.38005628863E+02  0.36718436344E+01  0.13973388919E+02  0.40659142377E+02  0.00000000000E+00 0. -1.
         11    1    3    3    0    0  0.54121841161E+01 -0.29455919233E+01 -0.71100041898E+01  0.94085284995E+01  0.51100000000E-03 0. -1.
        -11    1    3    3    0    0  0.25593263932E+02 -0.61042848728E+01 -0.13967938276E+02  0.29788936746E+02  0.51100000000E-03 0.  1.
         12    1    3    3    0    0  0.70001808146E+01  0.53780331617E+01  0.71045535467E+01  0.11331392378E+02  0.00000000000E+00 0. -1.
</event>
<event>
 7    1  0.6624035E-013  0.5052887E+02  0.7816164E-02  0.1300439E+00
        -11   -1    0    0    0    0  0.00000000000E+00  0.00000000000E+00  0.45593999997E+02  0.45594000000E+02  0.51100000000E-03 0. -1.
         11   -1    0    0    0    0 -0.00000000000E+00 -0.00000000000E+00 -0.45593999997E+02  0.45594000000E+02  0.51100000000E-03 0.  1.
    9900012    2    1    2    0    0 -0.31124103129E+02  0.15405882638E+01 -0.26116691483E+02  0.50528870867E+02  0.30000033488E+02 0.  0.
         12    1    1    2    0    0  0.31124103129E+02 -0.15405882638E+01  0.26116691483E+02  0.40659129133E+02  0.00000000000E+00 0. -1.
         11    1    3    3    0    0 -0.14167412826E+01 -0.42701170513E+01  0.37586906053E+01  0.58624918611E+01  0.51100000000E-03 0. -1.
        -11    1    3    3    0    0 -0.77947174727E+01  0.79547054904E+01 -0.88901500782E+01  0.14250253633E+02  0.51100000000E-03 0.  1.
        -12    1    3    3    0    0 -0.21912644374E+02 -0.21440001753E+01 -0.20985232010E+02  0.30416125374E+02  0.00000000000E+00 0.  1.
</event>
<event>
 7    1  0.6624035E-013  0.5052879E+02  0.7816164E-02  0.1300439E+00
        -11   -1    0    0    0    0  0.00000000000E+00  0.00000000000E+00  0.45593999997E+02  0.45594000000E+02  0.51100000000E-03 0. -1.
         11   -1    0    0    0    0 -0.00000000000E+00 -0.00000000000E+00 -0.45593999997E+02  0.45594000000E+02  0.51100000000E-03 0.  1.
    9900012    2    1    2    0    0 -0.62588786687E+01 -0.25297144016E+02 -0.31209809128E+02  0.50528791407E+02  0.29999791960E+02 0.  0.
         12    1    1    2    0    0  0.62588786687E+01  0.25297144016E+02  0.31209809128E+02  0.40659208593E+02  0.00000000000E+00 0. -1.
         11    1    3    3    0    0  0.59101254336E+00  0.19869903898E+01 -0.39371691433E+01  0.44495761326E+01  0.51100000000E-03 0.  1.
        -11    1    3    3    0    0  0.11744415243E+01  0.43123666873E+01 -0.23883295417E+01  0.50675376270E+01  0.51100000000E-03 0. -1.
        -12    1    3    3    0    0 -0.80243327364E+01 -0.31596501094E+02 -0.24884310443E+02  0.41011677648E+02  0.00000000000E+00 0.  1.
</event>
<event>
 7    1  0.6624035E-013  0.5052888E+02  0.7816164E-02  0.1300439E+00
        -11   -1    0    0    0    0  0.00000000000E+00  0.00000000000E+00  0.45593999997E+02  0.45594000000E+02  0.51100000000E-03 0. -1.
         11   -1    0    0    0    0 -0.00000000000E+00 -0.00000000000E+00 -0.45593999997E+02  0.45594000000E+02  0.51100000000E-03 0.  1.
    9900012    2    1    2    0    0  0.20519451754E+02  0.34549431747E+02  0.62010392948E+01  0.50528880203E+02  0.30000061865E+02 0.  0.
         12    1    1    2    0    0 -0.20519451754E+02 -0.34549431747E+02 -0.62010392948E+01  0.40659119797E+02  0.00000000000E+00 0. -1.
         11    1    3    3    0    0  0.56668869182E+01  0.37821607187E+01  0.80254786387E+01  0.10527423934E+02  0.51100000000E-03 0. -1.
        -11    1    3    3    0    0 -0.52420086369E+01  0.66396585201E+01 -0.15518426099E+01  0.86006938999E+01  0.51100000000E-03 0.  1.
        -12    1    3    3    0    0  0.20094573473E+02  0.24127612508E+02 -0.27259673398E+00  0.31400762369E+02  0.00000000000E+00 0.  1.
</event>
<event>
 7    1  0.6624035E-013  0.5052885E+02  0.7816164E-02  0.1300439E+00
        -11   -1    0    0    0    0  0.00000000000E+00  0.00000000000E+00  0.45593999997E+02  0.45594000000E+02  0.51100000000E-03 0. -1.
         11   -1    0    0    0    0 -0.00000000000E+00 -0.00000000000E+00 -0.45593999997E+02  0.45594000000E+02  0.51100000000E-03 0.  1.
    9900012    2    1    2    0    0  0.79607924927E+01  0.20816283528E+02 -0.34006975826E+02  0.50528852421E+02  0.29999977420E+02 0.  0.
         12    1    1    2    0    0 -0.79607924927E+01 -0.20816283528E+02  0.34006975826E+02  0.40659147579E+02  0.00000000000E+00 0. -1.
         11    1    3    3    0    0  0.65064661908E+01  0.60449921437E+01 -0.13380213966E+02  0.16059456976E+02  0.51100000000E-03 0. -1.
        -11    1    3    3    0    0  0.82869849146E+01  0.43657199565E+00 -0.15842782041E+02  0.17884587139E+02  0.51100000000E-03 0.  1.
         12    1    3    3    0    0 -0.68326586126E+01  0.14334719388E+02 -0.47839798181E+01  0.16584808306E+02  0.00000000000E+00 0. -1.
</event>
<event>
 7    1  0.6624035E-013  0.5052891E+02  0.7816164E-02  0.1300439E+00
        -11   -1    0    0    0    0  0.00000000000E+00  0.00000000000E+00  0.45593999997E+02  0.45594000000E+02  0.51100000000E-03 0.  1.
         11   -1    0    0    0    0 -0.00000000000E+00 -0.00000000000E+00 -0.45593999997E+02  0.45594000000E+02  0.51100000000E-03 0. -1.
    9900012    2    1    2    0    0 -0.30813507042E+01  0.18831873941E+02  0.35903032733E+02  0.50528905596E+02  0.30000139049E+02 0.  0.
         12    1    1    2    0    0  0.30813507042E+01 -0.18831873941E+02 -0.35903032733E+02  0.40659094404E+02  0.00000000000E+00 0. -1.
         11    1    3    3    0    0  0.42863387135E+01  0.66356656185E+01  0.93572214633E+01  0.12245911626E+02  0.51100000000E-03 0.  1.
        -11    1    3    3    0    0  0.19666666846E+01  0.50763620419E+01  0.25964224274E+02  0.26528817762E+02  0.51100000000E-03 0. -1.
         12    1    3    3    0    0 -0.93343561023E+01  0.71198462809E+01  0.58158699628E+00  0.11754176209E+02  0.00000000000E+00 0. -1.
</event>
<event>
 7    1  0.6624035E-013  0.5052887E+02  0.7816164E-02  0.1300439E+00
        -11   -1    0    0    0    0  0.00000000000E+00  0.00000000000E+00  0.45593999997E+02  0.45594000000E+02  0.51100000000E-03 0. -1.
         11   -1    0    0    0    0 -0.00000000000E+00 -0.00000000000E+00 -0.45593999997E+02  0.45594000000E+02  0.51100000000E-03 0.  1.
    9900012    2    1    2    0    0  0.38881955866E+02 -0.43049693867E+01 -0.11082688173E+02  0.50528865350E+02  0.30000016717E+02 0.  0.
         12    1    1    2    0    0 -0.38881955866E+02  0.43049693867E+01  0.11082688173E+02  0.40659134650E+02  0.00000000000E+00 0. -1.
         11    1    3    3    0    0  0.67063798358E+01 -0.34128513929E+01  0.87161672104E+01  0.11514975303E+02  0.51100000000E-03 0. -1.
        -11    1    3    3    0    0  0.75572539970E+01  0.13452243971E+01 -0.57237172629E+00  0.76973583980E+01  0.51100000000E-03 0.  1.
        -12    1    3    3    0    0  0.24618322033E+02 -0.22373423909E+01 -0.19226483657E+02  0.31316531649E+02  0.00000000000E+00 0.  1.
</event>
<event>
 7    1  0.6624035E-013  0.5052884E+02  0.7816164E-02  0.1300439E+00
        -11   -1    0    0    0    0  0.00000000000E+00  0.00000000000E+00  0.45593999997E+02  0.45594000000E+02  0.51100000000E-03 0.  1.
         11   -1    0    0    0    0 -0.00000000000E+00 -0.00000000000E+00 -0.45593999997E+02  0.45594000000E+02  0.51100000000E-03 0. -1.
    9900012    2    1    2    0    0  0.25102561986E+02 -0.31612907034E+02  0.48634076167E+01  0.50528840601E+02  0.29999941491E+02 0.  0.
         12    1    1    2    0    0 -0.25102561986E+02  0.31612907034E+02 -0.48634076167E+01  0.40659159399E+02  0.00000000000E+00 0. -1.
         11    1    3    3    0    0  0.23671623360E+01 -0.61054039770E+01 -0.42708376321E+01  0.78178941915E+01  0.51100000000E-03 0. -1.
        -11    1    3    3    0    0  0.20523077372E+02 -0.23469529579E+02 -0.19380568167E+01  0.31237342844E+02  0.51100000000E-03 0.  1.
         12    1    3    3    0    0  0.22123222782E+01 -0.20379734780E+01  0.11072302065E+02  0.11473603566E+02  0.00000000000E+00 0. -1.
</event>
<event>
 7    1  0.6624035E-013  0.5052887E+02  0.7816164E-02  0.1300439E+00
        -11   -1    0    0    0    0  0.00000000000E+00  0.00000000000E+00  0.45593999997E+02  0.45594000000E+02  0.51100000000E-03 0.  1.
         11   -1    0    0    0    0 -0.00000000000E+00 -0.00000000000E+00 -0.45593999997E+02  0.45594000000E+02  0.51100000000E-03 0. -1.
    9900012    2    1    2    0    0  0.25723591481E+02 -0.25891708193E+02 -0.17918734636E+02  0.50528871101E+02  0.30000034199E+02 0.  0.
         12    1    1    2    0    0 -0.25723591481E+02  0.25891708193E+02  0.17918734636E+02  0.40659128899E+02  0.00000000000E+00 0. -1.
         11    1    3    3    0    0  0.31632603038E+01 -0.73005936108E+01 -0.10999478274E+02  0.13575470724E+02  0.51100000000E-03 0. -1.
        -11    1    3    3    0    0  0.17155608660E+02 -0.14255188552E+02 -0.14561508935E+02  0.26637620987E+02  0.51100000000E-03 0.  1.
        -12    1    3    3    0    0  0.54047225178E+01 -0.43359260299E+01  0.76422525729E+01  0.10315779390E+02  0.00000000000E+00 0.  1.
</event>
<event>
 7    1  0.6624035E-013  0.5052886E+02  0.7816164E-02  0.1300439E+00
        -11   -1    0    0    0    0  0.00000000000E+00  0.00000000000E+00  0.45593999997E+02  0.45594000000E+02  0.51100000000E-03 0. -1.
         11   -1    0    0    0    0 -0.00000000000E+00 -0.00000000000E+00 -0.45593999997E+02  0.45594000000E+02  0.51100000000E-03 0.  1.
    9900012    2    1    2    0    0 -0.28265505971E+02 -0.20583675146E+02 -0.20749440519E+02  0.50528858443E+02  0.29999995723E+02 0.  0.
         12    1    1    2    0    0  0.28265505971E+02  0.20583675146E+02  0.20749440519E+02  0.40659141557E+02  0.00000000000E+00 0. -1.
         11    1    3    3    0    0 -0.34802838648E+01 -0.16927704960E+01  0.23462503253E+01  0.45257859629E+01  0.51100000000E-03 0. -1.
        -11    1    3    3    0    0  0.31064256042E+01  0.25344580743E+01 -0.15566330167E+00  0.40121800919E+01  0.51100000000E-03 0.  1.
        -12    1    3    3    0    0 -0.27891647711E+02 -0.21425362725E+02 -0.22940027542E+02  0.41990892388E+02  0.00000000000E+00 0.  1.
</event>
<event>
 7    1  0.6624035E-013  0.5052886E+02  0.7816164E-02  0.1300439E+00
        -11   -1    0    0    0    0  0.00000000000E+00  0.00000000000E+00  0.45593999997E+02  0.45594000000E+02  0.51100000000E-03 0. -1.
         11   -1    0    0    0    0 -0.00000000000E+00 -0.00000000000E+00 -0.45593999997E+02  0.45594000000E+02  0.51100000000E-03 0.  1.
    9900012    2    1    2    0    0 -0.25381271660E+02  0.53346656477E+01 -0.31312910843E+02  0.50528855959E+02  0.29999988174E+02 0.  0.
         12    1    1    2    0    0  0.25381271660E+02 -0.53346656477E+01  0.31312910843E+02  0.40659144041E+02  0.00000000000E+00 0. -1.
         11    1    3    3    0    0 -0.91933803910E+01 -0.54615292379E+01  0.97892044587E-01  0.10693742457E+02  0.51100000000E-03 0. -1.
        -11    1    3    3    0    0 -0.41653667629E+01  0.11121854705E+01  0.54514984980E+00  0.43456214067E+01  0.51100000000E-03 0.  1.
        -12    1    3    3    0    0 -0.12022524506E+02  0.96840094150E+01 -0.31955952737E+02  0.35489492095E+02  0.00000000000E+00 0.  1.
</event>
<event>
 7    1  0.6624035E-013  0.5052886E+02  0.7816164E-02  0.1300439E+00
        -11   -1    0    0    0    0  0.00000000000E+00  0.00000000000E+00  0.45593999997E+02  0.45594000000E+02  0.51100000000E-03 0. -1.
         11   -1    0    0    0    0 -0.00000000000E+00 -0.00000000000E+00 -0.45593999997E+02  0.45594000000E+02  0.51100000000E-03 0.  1.
    9900012    2    1    2    0    0 -0.11376435637E+01  0.34366654800E+02  0.21698028502E+02  0.50528860365E+02  0.30000001566E+02 0.  0.
         12    1    1    2    0    0  0.11376435637E+01 -0.34366654800E+02 -0.21698028502E+02  0.40659139635E+02  0.00000000000E+00 0. -1.
         11    1    3    3    0    0  0.32668473983E+01  0.88127328085E+01  0.57616593657E+01  0.11024212915E+02  0.51100000000E-03 0. -1.
        -11    1    3    3    0    0  0.94972547521E+01  0.11552579934E+02  0.12469626637E+02  0.19471813980E+02  0.51100000000E-03 0.  1.
        -12    1    3    3    0    0 -0.13901745714E+02  0.14001342057E+02  0.34667424994E+01  0.20032833470E+02  0.00000000000E+00 0.  1.
</event>
<event>
 7    1  0.6624035E-013  0.5052886E+02  0.7816164E-02  0.1300439E+00
        -11   -1    0    0    0    0  0.00000000000E+00  0.00000000000E+00  0.45593999997E+02  0.45594000000E+02  0.51100000000E-03 0. -1.
         11   -1    0    0    0    0 -0.00000000000E+00 -0.00000000000E+00 -0.45593999997E+02  0.45594000000E+02  0.51100000000E-03 0.  1.
    9900012    2    1    2    0    0  0.19648779309E+02  0.22099384528E+02 -0.27905340251E+02  0.50528864011E+02  0.30000012648E+02 0.  0.
         12    1    1    2    0    0 -0.19648779309E+02 -0.22099384528E+02  0.27905340251E+02  0.40659135989E+02  0.00000000000E+00 0. -1.
         11    1    3    3    0    0  0.18426272811E+01  0.51069581293E+00 -0.13309384724E+01  0.23296959005E+01  0.51100000000E-03 0. -1.
        -11    1    3    3    0    0  0.15965283955E+02  0.44411414804E+01 -0.62595872173E-01  0.16571600644E+02  0.51100000000E-03 0.  1.
         12    1    3    3    0    0  0.18408680735E+01  0.17147547234E+02 -0.26511805907E+02  0.31627567466E+02  0.00000000000E+00 0. -1.
</event>
<event>
 7    1  0.6624035E-013  0.5052885E+02  0.7816164E-02  0.1300439E+00
        -11   -1    0    0    0    0  0.00000000000E+00  0.00000000000E+00  0.45593999997E+02  0.45594000000E+02  0.51100000000E-03 0. -1.
         11   -1    0    0    0    0 -0.00000000000E+00 -0.00000000000E+00 -0.45593999997E+02  0.45594000000E+02  0.51100000000E-03 0.  1.
    9900012    2    1    2    0    0 -0.22362634399E+02  0.11110439617E+02 -0.32087955998E+02  0.50528853355E+02  0.29999980259E+02 0.  0.
         12    1    1    2    0    0  0.22362634399E+02 -0.11110439617E+02  0.32087955998E+02  0.40659146645E+02  0.00000000000E+00 0. -1.
         11    1    3    3    0    0 -0.14709244163E+02  0.36878621861E+01 -0.18915504893E+02  0.24243731499E+02  0.51100000000E-03 0. -1.
        -11    1    3    3    0    0  0.45643278423E+01  0.33219088616E+01 -0.12101182356E+02  0.13353156249E+02  0.51100000000E-03 0.  1.
         12    1    3    3    0    0 -0.12217718077E+02  0.41006685693E+01 -0.10712687488E+01  0.12931965607E+02  0.00000000000E+00 0. -1.
</event>
<event>
 7    1  0.6624035E-013  0.5052887E+02  0.7816164E-02  0.1300439E+00
        -11   -1    0    0    0    0  0.00000000000E+00  0.00000000000E+00  0.45593999997E+02  0.45594000000E+02  0.51100000000E-03 0.  1.
         11   -1    0    0    0    0 -0.00000000000E+00 -0.00000000000E+00 -0.45593999997E+02  0.45594000000E+02  0.51100000000E-03 0. -1.
    9900012    2    1    2    0    0 -0.18716771965E+02 -0.18388737190E+02  0.31059651848E+02  0.50528865957E+02  0.30000018561E+02 0.  0.
         12    1    1    2    0    0  0.18716771965E+02  0.18388737190E+02 -0.31059651848E+02  0.40659134043E+02  0.00000000000E+00 0. -1.
         11    1    3    3    0    0  0.24920526656E+01 -0.22929209730E+01  0.11242102013E+02  0.11741067712E+02  0.51100000000E-03 0. -1.
        -11    1    3    3    0    0 -0.12237270461E+01  0.35395960023E+01  0.70835515037E+01  0.80126743294E+01  0.51100000000E-03 0.  1.
         12    1    3    3    0    0 -0.19985097585E+02 -0.19635412219E+02  0.12733998331E+02  0.30775123915E+02  0.00000000000E+00 0. -1.
</event>
<event>
 7    1  0.6624035E-013  0.5052886E+02  0.7816164E-02  0.1300439E+00
        -11   -1    0    0    0    0  0.00000000000E+00  0.00000000000E+00  0.45593999997E+02  0.45594000000E+02  0.51100000000E-03 0. -1.
         11   -1    0    0    0    0 -0.00000000000E+00 -0.00000000000E+00 -0.45593999997E+02  0.45594000000E+02  0.51100000000E-03 0.  1.
    9900012    2    1    2    0    0  0.97886091630E+01 -0.39395062375E+02 -0.23190020798E+01  0.50528861058E+02  0.30000003672E+02 0.  0.
         12    1    1    2    0    0 -0.97886091630E+01  0.39395062375E+02  0.23190020798E+01  0.40659138942E+02  0.00000000000E+00 0. -1.
         11    1    3    3    0    0 -0.73189638974E+00  0.32047872720E+01 -0.74016353020E+00  0.33695958358E+01  0.51100000000E-03 0. -1.
        -11    1    3    3    0    0  0.14273223190E+02 -0.22374401841E+02 -0.16167438214E+01  0.26588580609E+02  0.51100000000E-03 0.  1.
         12    1    3    3    0    0 -0.37527176377E+01 -0.20225447806E+02  0.37905271792E-01  0.20570684613E+02  0.00000000000E+00 0. -1.
</event>
<event>
 7    1  0.6624035E-013  0.5052886E+02  0.7816164E-02  0.1300439E+00
        -11   -1    0    0    0    0  0.00000000000E+00  0.00000000000E+00  0.45593999997E+02  0.45594000000E+02  0.51100000000E-03 0. -1.
         11   -1    0    0    0    0 -0.00000000000E+00 -0.00000000000E+00 -0.45593999997E+02  0.45594000000E+02  0.51100000000E-03 0.  1.
    9900012    2    1    2    0    0 -0.17184704769E+01 -0.40611357627E+02 -0.96446253853E+00  0.50528859612E+02  0.29999999277E+02 0.  0.
         12    1    1    2    0    0  0.17184704769E+01  0.40611357627E+02  0.96446253853E+00  0.40659140388E+02  0.00000000000E+00 0. -1.
         11    1    3    3    0    0  0.77247228108E+01 -0.29919701722E+02 -0.12405328075E+01  0.30925698303E+02  0.51100000000E-03 0. -1.
        -11    1    3    3    0    0  0.22448024172E+01 -0.61100271093E+01  0.22660770169E+01  0.68925085764E+01  0.51100000000E-03 0.  1.
         12    1    3    3    0    0 -0.11687995705E+02 -0.45816287958E+01 -0.19900067479E+01  0.12710652732E+02  0.00000000000E+00 0. -1.
</event>
<event>
 7    1  0.1043962E-012  0.5052886E+02  0.7816164E-02  0.1300439E+00
        -11   -1    0    0    0    0  0.00000000000E+00  0.00000000000E+00  0.45593999997E+02  0.45594000000E+02  0.51100000000E-03 0.  1.
         11   -1    0    0    0    0 -0.00000000000E+00 -0.00000000000E+00 -0.45593999997E+02  0.45594000000E+02  0.51100000000E-03 0. -1.
    9900012    2    1    2    0    0  0.43640852570E+01  0.38669538755E+02  0.11780811842E+02  0.50528855944E+02  0.29999988128E+02 0.  0.
         12    1    1    2    0    0 -0.43640852570E+01 -0.38669538755E+02 -0.11780811842E+02  0.40659144056E+02  0.00000000000E+00 0. -1.
         11    1    3    3    0    0  0.51825223962E+01  0.18671911594E+02  0.21802431565E+01  0.19500058498E+02  0.51100000000E-03 0. -1.
        -11    1    3    3    0    0  0.65863464950E+01  0.17400567610E+02  0.12769686489E+02  0.22566005552E+02  0.51100000000E-03 0.  1.
         12    1    3    3    0    0 -0.74047836342E+01  0.25970595518E+01 -0.31691178034E+01  0.84627918938E+01  0.00000000000E+00 0. -1.
</event>
<event>
 7    1  0.6624035E-013  0.5052887E+02  0.7816164E-02  0.1300439E+00
        -11   -1    0    0    0    0  0.00000000000E+00  0.00000000000E+00  0.45593999997E+02  0.45594000000E+02  0.51100000000E-03 0.  1.
         11   -1    0    0    0    0 -0.00000000000E+00 -0.00000000000E+00 -0.45593999997E+02  0.45594000000E+02  0.51100000000E-03 0. -1.
    9900012    2    1    2    0    0  0.21844573043E+02 -0.34291374091E+02 -0.28542081042E+00  0.50528866051E+02  0.30000018847E+02 0.  0.
         12    1    1    2    0    0 -0.21844573043E+02  0.34291374091E+02  0.28542081042E+00  0.40659133949E+02  0.00000000000E+00 0. -1.
         11    1    3    3    0    0 -0.56872011263E-01 -0.10131104684E+01  0.18928419741E+01  0.21476680952E+01  0.51100000000E-03 0. -1.
        -11    1    3    3    0    0  0.88015846856E+01 -0.62396138547E+01  0.11147734737E+02  0.15513628333E+02  0.51100000000E-03 0.  1.
         12    1    3    3    0    0  0.13099860369E+02 -0.27038649768E+02 -0.13325997521E+02  0.32867569622E+02  0.00000000000E+00 0. -1.
</event>
<event>
 7    1  0.6624035E-013  0.5052886E+02  0.7816164E-02  0.1300439E+00
        -11   -1    0    0    0    0  0.00000000000E+00  0.00000000000E+00  0.45593999997E+02  0.45594000000E+02  0.51100000000E-03 0.  1.
         11   -1    0    0    0    0 -0.00000000000E+00 -0.00000000000E+00 -0.45593999997E+02  0.45594000000E+02  0.51100000000E-03 0. -1.
    9900012    2    1    2    0    0  0.37936124977E+02  0.47454432406E+01  0.13838252290E+02  0.50528855441E+02  0.29999986599E+02 0.  0.
         12    1    1    2    0    0 -0.37936124977E+02 -0.47454432406E+01 -0.13838252290E+02  0.40659144559E+02  0.00000000000E+00 0. -1.
         11    1    3    3    0    0  0.38421695825E+01  0.50538588326E+01 -0.14342262282E+01  0.65085145260E+01  0.51100000000E-03 0. -1.
        -11    1    3    3    0    0  0.11410107352E+01 -0.22144057001E+01 -0.47860673453E+01  0.53955480720E+01  0.51100000000E-03 0.  1.
        -12    1    3    3    0    0  0.32952944660E+02  0.19059901081E+01  0.20058545863E+02  0.38624792843E+02  0.00000000000E+00 0.  1.
</event>
<event>
 7    1  0.6624035E-013  0.5052887E+02  0.7816164E-02  0.1300439E+00
        -11   -1    0    0    0    0  0.00000000000E+00  0.00000000000E+00  0.45593999997E+02  0.45594000000E+02  0.51100000000E-03 0.  1.
         11   -1    0    0    0    0 -0.00000000000E+00 -0.00000000000E+00 -0.45593999997E+02  0.45594000000E+02  0.51100000000E-03 0. -1.
    9900012    2    1    2    0    0 -0.25224117672E+02 -0.15690191808E+02  0.27761961860E+02  0.50528871165E+02  0.30000034393E+02 0.  0.
         12    1    1    2    0    0  0.25224117672E+02  0.15690191808E+02 -0.27761961860E+02  0.40659128835E+02  0.00000000000E+00 0. -1.
         11    1    3    3    0    0 -0.14363594542E+02 -0.48048979001E+01 -0.43654381419E+00  0.15152242830E+02  0.51100000000E-03 0. -1.
        -11    1    3    3    0    0 -0.81663650149E+01  0.36018445171E+00  0.53525416477E+01  0.97708214981E+01  0.51100000000E-03 0.  1.
         12    1    3    3    0    0 -0.26941581148E+01 -0.11245478360E+02  0.22845964027E+02  0.25605806837E+02  0.00000000000E+00 0. -1.
</event>
<event>
 7    1  0.8027919E-013  0.5052886E+02  0.7816164E-02  0.1300439E+00
        -11   -1    0    0    0    0  0.00000000000E+00  0.00000000000E+00  0.45593999997E+02  0.45594000000E+02  0.51100000000E-03 0. -1.
         11   -1    0    0    0    0 -0.00000000000E+00 -0.00000000000E+00 -0.45593999997E+02  0.45594000000E+02  0.51100000000E-03 0.  1.
    9900012    2    1    2    0    0  0.92373635351E+01  0.55415544760E+01 -0.39206222213E+02  0.50528861159E+02  0.30000003978E+02 0.  0.
         12    1    1    2    0    0 -0.92373635351E+01 -0.55415544760E+01  0.39206222213E+02  0.40659138841E+02  0.00000000000E+00 0. -1.
         11    1    3    3    0    0  0.32120699663E+01  0.85862119606E+01 -0.51956343986E+01  0.10537316848E+02  0.51100000000E-03 0. -1.
        -11    1    3    3    0    0  0.72192869414E+01 -0.17038319524E+01 -0.36318094216E+02  0.37067844758E+02  0.51100000000E-03 0.  1.
         12    1    3    3    0    0 -0.11939933725E+01 -0.13408255323E+01  0.23075064012E+01  0.29236995525E+01  0.00000000000E+00 0. -1.
</event>
<event>
 7    1  0.6624035E-013  0.5052886E+02  0.7816164E-02  0.1300439E+00
        -11   -1    0    0    0    0  0.00000000000E+00  0.00000000000E+00  0.45593999997E+02  0.45594000000E+02  0.51100000000E-03 0. -1.
         11   -1    0    0    0    0 -0.00000000000E+00 -0.00000000000E+00 -0.45593999997E+02  0.45594000000E+02  0.51100000000E-03 0.  1.
    9900012    2    1    2    0    0 -0.33085861670E+02 -0.23516764058E+02  0.23352839748E+01  0.50528856066E+02  0.29999988497E+02 0.  0.
         12    1    1    2    0    0  0.33085861670E+02  0.23516764058E+02 -0.23352839748E+01  0.40659143934E+02  0.00000000000E+00 0. -1.
         11    1    3    3    0    0 -0.38740820251E+01 -0.87164888153E+01  0.10190709723E+02  0.13958375755E+02  0.51100000000E-03 0. -1.
        -11    1    3    3    0    0 -0.94533402811E+01 -0.60861641948E+01  0.40025073555E+01  0.11934282654E+02  0.51100000000E-03 0.  1.
         12    1    3    3    0    0 -0.19758439364E+02 -0.87141110480E+01 -0.11857933104E+02  0.24636197656E+02  0.00000000000E+00 0. -1.
</event>
<event>
 7    1  0.6624035E-013  0.5052886E+02  0.7816164E-02  0.1300439E+00
        -11   -1    0    0    0    0  0.00000000000E+00  0.00000000000E+00  0.45593999997E+02  0.45594000000E+02  0.51100000000E-03 0. -1.
         11   -1    0    0    0    0 -0.00000000000E+00 -0.00000000000E+00 -0.45593999997E+02  0.45594000000E+02  0.51100000000E-03 0.  1.
    9900012    2    1    2    0    0 -0.37895362006E+02  0.80744439828E+01  0.12325197211E+02  0.50528860886E+02  0.30000003149E+02 0.  0.
         12    1    1    2    0    0  0.37895362006E+02 -0.80744439828E+01 -0.12325197211E+02  0.40659139114E+02  0.00000000000E+00 0. -1.
         11    1    3    3    0    0  0.80790449382E+00  0.19689314322E+00  0.55611556365E+01  0.56229822030E+01  0.51100000000E-03 0. -1.
        -11    1    3    3    0    0 -0.40408279638E+01  0.41138525606E+01  0.81831987986E+01  0.10010834948E+02  0.51100000000E-03 0.  1.
        -12    1    3    3    0    0 -0.34662438536E+02  0.37636982790E+01 -0.14191572237E+01  0.34895043734E+02  0.00000000000E+00 0.  1.
</event>
<event>
 7    1  0.6624035E-013  0.5052886E+02  0.7816164E-02  0.1300439E+00
        -11   -1    0    0    0    0  0.00000000000E+00  0.00000000000E+00  0.45593999997E+02  0.45594000000E+02  0.51100000000E-03 0.  1.
         11   -1    0    0    0    0 -0.00000000000E+00 -0.00000000000E+00 -0.45593999997E+02  0.45594000000E+02  0.51100000000E-03 0. -1.
    9900012    2    1    2    0    0 -0.38865864402E+02 -0.42151739549E+01  0.11173296094E+02  0.50528860156E+02  0.30000000931E+02 0.  0.
         12    1    1    2    0    0  0.38865864402E+02  0.42151739549E+01 -0.11173296094E+02  0.40659139844E+02  0.00000000000E+00 0. -1.
         11    1    3    3    0    0 -0.60450994506E+01  0.45121647832E+01 -0.48698397643E+01  0.89787637228E+01  0.51100000000E-03 0. -1.
        -11    1    3    3    0    0 -0.22704503884E+02  0.19467742903E+01  0.13888993645E+02  0.26686861402E+02  0.51100000000E-03 0.  1.
        -12    1    3    3    0    0 -0.10116261068E+02 -0.10674113028E+02  0.21541422138E+01  0.14863235032E+02  0.00000000000E+00 0.  1.
</event>
<event>
 7    1  0.6624035E-013  0.5052886E+02  0.7816164E-02  0.1300439E+00
        -11   -1    0    0    0    0  0.00000000000E+00  0.00000000000E+00  0.45593999997E+02  0.45594000000E+02  0.51100000000E-03 0.  1.
         11   -1    0    0    0    0 -0.00000000000E+00 -0.00000000000E+00 -0.45593999997E+02  0.45594000000E+02  0.51100000000E-03 0. -1.
    9900012    2    1    2    0    0 -0.28191067659E+02 -0.21768610190E+02  0.19610122819E+02  0.50528860778E+02  0.30000002820E+02 0.  0.
         12    1    1    2    0    0  0.28191067659E+02  0.21768610190E+02 -0.19610122819E+02  0.40659139222E+02  0.00000000000E+00 0. -1.
         11    1    3    3    0    0 -0.13025922365E+02 -0.17177854161E+02  0.73643921719E+01  0.22781299334E+02  0.51100000000E-03 0. -1.
        -11    1    3    3    0    0 -0.16378065270E+01 -0.85280785132E+01 -0.56913926183E+00  0.87025544013E+01  0.51100000000E-03 0.  1.
         12    1    3    3    0    0 -0.13527338767E+02  0.39373224844E+01  0.12814869909E+02  0.19045007042E+02  0.00000000000E+00 0. -1.
</event>
<event>
 7    1  0.6624035E-013  0.5052886E+02  0.7816164E-02  0.1300439E+00
        -11   -1    0    0    0    0  0.00000000000E+00  0.00000000000E+00  0.45593999997E+02  0.45594000000E+02  0.51100000000E-03 0.  1.
         11   -1    0    0    0    0 -0.00000000000E+00 -0.00000000000E+00 -0.45593999997E+02  0.45594000000E+02  0.51100000000E-03 0. -1.
    9900012    2    1    2    0    0 -0.28490923452E+02 -0.12232473103E+02  0.26302077221E+02  0.50528863468E+02  0.30000010998E+02 0.  0.
         12    1    1    2    0    0  0.28490923452E+02  0.12232473103E+02 -0.26302077221E+02  0.40659136532E+02  0.00000000000E+00 0. -1.
         11    1    3    3    0    0 -0.45464609234E+00 -0.16591922239E+01 -0.24628418287E+01  0.30041990679E+01  0.51100000000E-03 0. -1.
        -11    1    3    3    0    0 -0.94367755383E+00 -0.10631491373E+02  0.68975043359E+01  0.12708056597E+02  0.51100000000E-03 0.  1.
        -12    1    3    3    0    0 -0.27092599806E+02  0.58210493285E-01  0.21867414714E+02  0.34816607804E+02  0.00000000000E+00 0.  1.
</event>
<event>
 7    1  0.6624035E-013  0.5052887E+02  0.7816164E-02  0.1300439E+00
        -11   -1    0    0    0    0  0.00000000000E+00  0.00000000000E+00  0.45593999997E+02  0.45594000000E+02  0.51100000000E-03 0.  1.
         11   -1    0    0    0    0 -0.00000000000E+00 -0.00000000000E+00 -0.45593999997E+02  0.45594000000E+02  0.51100000000E-03 0. -1.
    9900012    2    1    2    0    0  0.86198928138E+01 -0.15038143522E+02  0.36779289850E+02  0.50528874646E+02  0.30000044974E+02 0.  0.
         12    1    1    2    0    0 -0.86198928138E+01  0.15038143522E+02 -0.36779289850E+02  0.40659125354E+02  0.00000000000E+00 0. -1.
         11    1    3    3    0    0  0.15577627490E+01 -0.32010303788E+00  0.78029304160E+01  0.79633418911E+01  0.51100000000E-03 0. -1.
        -11    1    3    3    0    0 -0.23527409828E+01 -0.13857766996E+02  0.29927212878E+02  0.33063743998E+02  0.51100000000E-03 0.  1.
         12    1    3    3    0    0  0.94148710476E+01 -0.86027348748E+00 -0.95085344388E+00  0.95017887573E+01  0.00000000000E+00 0. -1.
</event>
<event>
 7    1  0.6624035E-013  0.5052887E+02  0.7816164E-02  0.1300439E+00
        -11   -1    0    0    0    0  0.00000000000E+00  0.00000000000E+00  0.45593999997E+02  0.45594000000E+02  0.51100000000E-03 0.  1.
         11   -1    0    0    0    0 -0.00000000000E+00 -0.00000000000E+00 -0.45593999997E+02  0.45594000000E+02  0.51100000000E-03 0. -1.
    9900012    2    1    2    0    0 -0.39240948984E+02 -0.90229896281E+01 -0.56478512527E+01  0.50528872577E+02  0.30000038687E+02 0.  0.
         12    1    1    2    0    0  0.39240948984E+02  0.90229896281E+01  0.56478512527E+01  0.40659127423E+02  0.00000000000E+00 0. -1.
         11    1    3    3    0    0 -0.53451880752E+01 -0.48012079018E+01  0.17889289331E+01  0.74042487711E+01  0.51100000000E-03 0. -1.
        -11    1    3    3    0    0 -0.24324988994E+02 -0.10694357335E+02  0.39953829386E+01  0.26870754613E+02  0.51100000000E-03 0.  1.
        -12    1    3    3    0    0 -0.95707719144E+01  0.64725756089E+01 -0.11432163124E+02  0.16253869193E+02  0.00000000000E+00 0.  1.
</event>
<event>
 7    1  0.6624035E-013  0.5052886E+02  0.7816164E-02  0.1300439E+00
        -11   -1    0    0    0    0  0.00000000000E+00  0.00000000000E+00  0.45593999997E+02  0.45594000000E+02  0.51100000000E-03 0.  1.
         11   -1    0    0    0    0 -0.00000000000E+00 -0.00000000000E+00 -0.45593999997E+02  0.45594000000E+02  0.51100000000E-03 0. -1.
    9900012    2    1    2    0    0  0.11543204324E+01  0.36713288715E+02  0.17434677815E+02  0.50528855709E+02  0.29999987414E+02 0.  0.
         12    1    1    2    0    0 -0.11543204324E+01 -0.36713288715E+02 -0.17434677815E+02  0.40659144291E+02  0.00000000000E+00 0. -1.
         11    1    3    3    0    0  0.42248750169E+01 -0.20161018584E+01 -0.26194382278E+01  0.53642979505E+01  0.51100000000E-03 0. -1.
        -11    1    3    3    0    0 -0.95185716905E+00  0.79306376144E+00  0.35123078564E+01  0.37244179329E+01  0.51100000000E-03 0.  1.
        -12    1    3    3    0    0 -0.21186974154E+01  0.37936326812E+02  0.16541808187E+02  0.41440139826E+02  0.00000000000E+00 0.  1.
</event>
<event>
 7    1  0.6624035E-013  0.5052886E+02  0.7816164E-02  0.1300439E+00
        -11   -1    0    0    0    0  0.00000000000E+00  0.00000000000E+00  0.45593999997E+02  0.45594000000E+02  0.51100000000E-03 0. -1.
         11   -1    0    0    0    0 -0.00000000000E+00 -0.00000000000E+00 -0.45593999997E+02  0.45594000000E+02  0.51100000000E-03 0.  1.
    9900012    2    1    2    0    0 -0.40010355452E+02  0.36261768809E+01 -0.62600298185E+01  0.50528859877E+02  0.30000000083E+02 0.  0.
         12    1    1    2    0    0  0.40010355452E+02 -0.36261768809E+01  0.62600298185E+01  0.40659140123E+02  0.00000000000E+00 0. -1.
         11    1    3    3    0    0 -0.42468819555E+01  0.28409577747E+01 -0.43669500264E+01  0.67214061189E+01  0.51100000000E-03 0. -1.
        -11    1    3    3    0    0 -0.35276003158E+01 -0.37254364151E+01 -0.91207413383E+01  0.10464739046E+02  0.51100000000E-03 0.  1.
        -12    1    3    3    0    0 -0.32235873181E+02  0.45106555212E+01  0.72276615462E+01  0.33342714713E+02  0.00000000000E+00 0.  1.
</event>
<event>
 7    1  0.6624035E-013  0.5052886E+02  0.7816164E-02  0.1300439E+00
        -11   -1    0    0    0    0  0.00000000000E+00  0.00000000000E+00  0.45593999997E+02  0.45594000000E+02  0.51100000000E-03 0.  1.
         11   -1    0    0    0    0 -0.00000000000E+00 -0.00000000000E+00 -0.45593999997E+02  0.45594000000E+02  0.51100000000E-03 0. -1.
    9900012    2    1    2    0    0  0.63826873662E+01 -0.18066037346E+02  0.35861477827E+02  0.50528855945E+02  0.29999988130E+02 0.  0.
         12    1    1    2    0    0 -0.63826873662E+01  0.18066037346E+02 -0.35861477827E+02  0.40659144055E+02  0.00000000000E+00 0. -1.
         11    1    3    3    0    0 -0.27903089047E-01  0.70935952769E+01  0.11381512978E+02  0.13411141282E+02  0.51100000000E-03 0. -1.
        -11    1    3    3    0    0 -0.22283308350E+00  0.11700795519E+00  0.37579302875E+01  0.37663491276E+01  0.51100000000E-03 0.  1.
        -12    1    3    3    0    0  0.66334235388E+01 -0.25276640578E+02  0.20722034561E+02  0.33351365536E+02  0.00000000000E+00 0.  1.
</event>
<event>
 7    1  0.6624035E-013  0.5052886E+02  0.7816164E-02  0.1300439E+00
        -11   -1    0    0    0    0  0.00000000000E+00  0.00000000000E+00  0.45593999997E+02  0.45594000000E+02  0.51100000000E-03 0.  1.
         11   -1    0    0    0    0 -0.00000000000E+00 -0.00000000000E+00 -0.45593999997E+02  0.45594000000E+02  0.51100000000E-03 0. -1.
    9900012    2    1    2    0    0  0.35564871319E+02 -0.15033317791E+02  0.12739898011E+02  0.50528859366E+02  0.29999998530E+02 0.  0.
         12    1    1    2    0    0 -0.35564871319E+02  0.15033317791E+02 -0.12739898011E+02  0.40659140634E+02  0.00000000000E+00 0. -1.
         11    1    3    3    0    0  0.16391363119E+01 -0.49586140877E+01 -0.42175149918E+01  0.67128276074E+01  0.51100000000E-03 0. -1.
        -11    1    3    3    0    0  0.14782121527E+02 -0.73309393352E+01  0.18038369275E+02  0.24446606201E+02  0.51100000000E-03 0.  1.
         12    1    3    3    0    0  0.19143613481E+02 -0.27437643679E+01 -0.10809562726E+01  0.19369425558E+02  0.00000000000E+00 0. -1.
</event>
<event>
 7    1  0.6624035E-013  0.5052886E+02  0.7816164E-02  0.1300439E+00
        -11   -1    0    0    0    0  0.00000000000E+00  0.00000000000E+00  0.45593999997E+02  0.45594000000E+02  0.51100000000E-03 0. -1.
         11   -1    0    0    0    0 -0.00000000000E+00 -0.00000000000E+00 -0.45593999997E+02  0.45594000000E+02  0.51100000000E-03 0.  1.
    9900012    2    1    2    0    0 -0.20172868905E+02  0.23677081978E+02 -0.26184282300E+02  0.50528862154E+02  0.30000007004E+02 0.  0.
         12    1    1    2    0    0  0.20172868905E+02 -0.23677081978E+02  0.26184282300E+02  0.40659137846E+02  0.00000000000E+00 0. -1.
         11    1    3    3    0    0 -0.48754766526E+01  0.98554432963E+01  0.59543536794E-01  0.10995616438E+02  0.51100000000E-03 0.  1.
        -11    1    3    3    0    0 -0.14750786960E+02  0.17108381426E+02 -0.13401237760E+02  0.26265483142E+02  0.51100000000E-03 0. -1.
        -12    1    3    3    0    0 -0.54660529284E+00 -0.32867427446E+01 -0.12842588076E+02  0.13267762574E+02  0.00000000000E+00 0.  1.
</event>
<event>
 7    1  0.6624035E-013  0.5052886E+02  0.7816164E-02  0.1300439E+00
        -11   -1    0    0    0    0  0.00000000000E+00  0.00000000000E+00  0.45593999997E+02  0.45594000000E+02  0.51100000000E-03 0.  1.
         11   -1    0    0    0    0 -0.00000000000E+00 -0.00000000000E+00 -0.45593999997E+02  0.45594000000E+02  0.51100000000E-03 0. -1.
    9900012    2    1    2    0    0 -0.20477479837E+02  0.80225713855E+01  0.34197614055E+02  0.50528860324E+02  0.30000001440E+02 0.  0.
         12    1    1    2    0    0  0.20477479837E+02 -0.80225713855E+01 -0.34197614055E+02  0.40659139676E+02  0.00000000000E+00 0. -1.
         11    1    3    3    0    0 -0.11855389799E+01 -0.44228466174E+01  0.67447743415E+01  0.81522423941E+01  0.51100000000E-03 0. -1.
        -11    1    3    3    0    0  0.33053263516E+01  0.84055012091E+01  0.10435348327E+02  0.13801236461E+02  0.51100000000E-03 0.  1.
         12    1    3    3    0    0 -0.22597267209E+02  0.40399167938E+01  0.17017491387E+02  0.28575381469E+02  0.00000000000E+00 0. -1.
</event>
<event>
 7    1  0.6624035E-013  0.5052886E+02  0.7816164E-02  0.1300439E+00
        -11   -1    0    0    0    0  0.00000000000E+00  0.00000000000E+00  0.45593999997E+02  0.45594000000E+02  0.51100000000E-03 0. -1.
         11   -1    0    0    0    0 -0.00000000000E+00 -0.00000000000E+00 -0.45593999997E+02  0.45594000000E+02  0.51100000000E-03 0.  1.
    9900012    2    1    2    0    0  0.10578022474E+02  0.16135633573E+02 -0.35789841403E+02  0.50528856159E+02  0.29999988780E+02 0.  0.
         12    1    1    2    0    0 -0.10578022474E+02 -0.16135633573E+02  0.35789841403E+02  0.40659143841E+02  0.00000000000E+00 0. -1.
         11    1    3    3    0    0 -0.31688577408E+01 -0.38405335887E+01 -0.12367996752E+01  0.51304026474E+01  0.51100000000E-03 0. -1.
        -11    1    3    3    0    0  0.63571788358E+01 -0.15740473149E+01 -0.61139981578E+01  0.89594822079E+01  0.51100000000E-03 0.  1.
        -12    1    3    3    0    0  0.73897013786E+01  0.21550214477E+02 -0.28439043570E+02  0.36438971303E+02  0.00000000000E+00 0.  1.
</event>
<event>
 7    1  0.6624035E-013  0.5052886E+02  0.7816164E-02  0.1300439E+00
        -11   -1    0    0    0    0  0.00000000000E+00  0.00000000000E+00  0.45593999997E+02  0.45594000000E+02  0.51100000000E-03 0.  1.
         11   -1    0    0    0    0 -0.00000000000E+00 -0.00000000000E+00 -0.45593999997E+02  0.45594000000E+02  0.51100000000E-03 0. -1.
    9900012    2    1    2    0    0  0.12199838691E+02  0.31625546669E+02  0.22453380853E+02  0.50528861078E+02  0.30000003732E+02 0.  0.
         12    1    1    2    0    0 -0.12199838691E+02 -0.31625546669E+02 -0.22453380853E+02  0.40659138922E+02  0.00000000000E+00 0. -1.
         11    1    3    3    0    0  0.10308875968E+02  0.35846188283E+01  0.25594432187E+01  0.11210404351E+02  0.51100000000E-03 0. -1.
        -11    1    3    3    0    0  0.10136080650E+02  0.12434341706E+02  0.72388359734E+01  0.17599821906E+02  0.51100000000E-03 0.  1.
         12    1    3    3    0    0 -0.82451179278E+01  0.15606586135E+02  0.12655101661E+02  0.21718634820E+02  0.00000000000E+00 0. -1.
</event>
<event>
 7    1  0.6624035E-013  0.5052886E+02  0.7816164E-02  0.1300439E+00
        -11   -1    0    0    0    0  0.00000000000E+00  0.00000000000E+00  0.45593999997E+02  0.45594000000E+02  0.51100000000E-03 0.  1.
         11   -1    0    0    0    0 -0.00000000000E+00 -0.00000000000E+00 -0.45593999997E+02  0.45594000000E+02  0.51100000000E-03 0. -1.
    9900012    2    1    2    0    0  0.31117624531E+01  0.74546643440E+01  0.39848594844E+02  0.50528860842E+02  0.30000003014E+02 0.  0.
         12    1    1    2    0    0 -0.31117624531E+01 -0.74546643440E+01 -0.39848594844E+02  0.40659139158E+02  0.00000000000E+00 0. -1.
         11    1    3    3    0    0  0.24967015103E+01  0.79988848802E+01  0.20736909029E+02  0.22365935574E+02  0.51100000000E-03 0. -1.
        -11    1    3    3    0    0  0.28191385810E+01  0.53692140127E+01  0.20770522171E+02  0.21637712286E+02  0.51100000000E-03 0.  1.
         12    1    3    3    0    0 -0.22040776382E+01 -0.59134345488E+01 -0.16588363560E+01  0.65252129816E+01  0.00000000000E+00 0. -1.
</event>
<event>
 7    1  0.6624035E-013  0.5052886E+02  0.7816164E-02  0.1300439E+00
        -11   -1    0    0    0    0  0.00000000000E+00  0.00000000000E+00  0.45593999997E+02  0.45594000000E+02  0.51100000000E-03 0.  1.
         11   -1    0    0    0    0 -0.00000000000E+00 -0.00000000000E+00 -0.45593999997E+02  0.45594000000E+02  0.51100000000E-03 0. -1.
    9900012    2    1    2    0    0  0.20690537816E+02  0.33783333969E+02  0.91516908828E+01  0.50528862587E+02  0.30000008319E+02 0.  0.
         12    1    1    2    0    0 -0.20690537816E+02 -0.33783333969E+02 -0.91516908828E+01  0.40659137413E+02  0.00000000000E+00 0. -1.
         11    1    3    3    0    0 -0.21563339353E+01  0.89096279249E+01  0.24880022890E+01  0.94984946940E+01  0.51100000000E-03 0. -1.
        -11    1    3    3    0    0  0.42268572083E+01  0.20037473788E+02 -0.54656673229E+00  0.20485736821E+02  0.51100000000E-03 0.  1.
         12    1    3    3    0    0  0.18620014543E+02  0.48362322564E+01  0.72102553261E+01  0.20544631072E+02  0.00000000000E+00 0. -1.
</event>
<event>
 7    1  0.6624035E-013  0.5052888E+02  0.7816164E-02  0.1300439E+00
        -11   -1    0    0    0    0  0.00000000000E+00  0.00000000000E+00  0.45593999997E+02  0.45594000000E+02  0.51100000000E-03 0. -1.
         11   -1    0    0    0    0 -0.00000000000E+00 -0.00000000000E+00 -0.45593999997E+02  0.45594000000E+02  0.51100000000E-03 0.  1.
    9900012    2    1    2    0    0  0.10908584444E+02 -0.16024355772E+02 -0.35740544410E+02  0.50528884082E+02  0.30000073656E+02 0.  0.
         12    1    1    2    0    0 -0.10908584444E+02  0.16024355772E+02  0.35740544410E+02  0.40659115918E+02  0.00000000000E+00 0. -1.
         11    1    3    3    0    0 -0.31880769420E+01  0.30027358195E+01 -0.16111673329E+02  0.16696295239E+02  0.51100000000E-03 0.  1.
        -11    1    3    3    0    0 -0.51701459706E+00  0.16854869524E+01 -0.31141365299E+01  0.35785495593E+01  0.51100000000E-03 0. -1.
         12    1    3    3    0    0  0.14613675983E+02 -0.20712578544E+02 -0.16514734551E+02  0.30254039283E+02  0.00000000000E+00 0. -1.
</event>
<event>
 7    1  0.6624035E-013  0.5052886E+02  0.7816164E-02  0.1300439E+00
        -11   -1    0    0    0    0  0.00000000000E+00  0.00000000000E+00  0.45593999997E+02  0.45594000000E+02  0.51100000000E-03 0. -1.
         11   -1    0    0    0    0 -0.00000000000E+00 -0.00000000000E+00 -0.45593999997E+02  0.45594000000E+02  0.51100000000E-03 0.  1.
    9900012    2    1    2    0    0 -0.30049960048E+02 -0.65777289739E+01 -0.26587578719E+02  0.50528856385E+02  0.29999989469E+02 0.  0.
         12    1    1    2    0    0  0.30049960048E+02  0.65777289739E+01  0.26587578719E+02  0.40659143615E+02  0.00000000000E+00 0. -1.
         11    1    3    3    0    0 -0.10159505602E+02  0.56803282742E+01 -0.17873967641E+02  0.21329800816E+02  0.51100000000E-03 0. -1.
        -11    1    3    3    0    0 -0.92625301927E+01  0.11692226830E+01 -0.76002842687E+01  0.12038516041E+02  0.51100000000E-03 0.  1.
        -12    1    3    3    0    0 -0.10627924253E+02 -0.13427279931E+02 -0.11133268092E+01  0.17160539527E+02  0.00000000000E+00 0.  1.
</event>
<event>
 7    1  0.6624035E-013  0.5052887E+02  0.7816164E-02  0.1300439E+00
        -11   -1    0    0    0    0  0.00000000000E+00  0.00000000000E+00  0.45593999997E+02  0.45594000000E+02  0.51100000000E-03 0.  1.
         11   -1    0    0    0    0 -0.00000000000E+00 -0.00000000000E+00 -0.45593999997E+02  0.45594000000E+02  0.51100000000E-03 0. -1.
    9900012    2    1    2    0    0 -0.18351274360E+02 -0.34629852925E+02  0.10824470590E+02  0.50528866367E+02  0.30000019809E+02 0.  0.
         12    1    1    2    0    0  0.18351274360E+02  0.34629852925E+02 -0.10824470590E+02  0.40659133633E+02  0.00000000000E+00 0. -1.
         11    1    3    3    0    0 -0.15567182707E+02 -0.30437937165E+02  0.18039447790E+00  0.34188269022E+02  0.51100000000E-03 0. -1.
        -11    1    3    3    0    0 -0.18241731149E+01 -0.49207735206E+01 -0.36974931998E+00  0.52610202827E+01  0.51100000000E-03 0.  1.
        -12    1    3    3    0    0 -0.95991853842E+00  0.72885776027E+00  0.11013825432E+02  0.11079577063E+02  0.00000000000E+00 0.  1.
</event>
<event>
 7    1  0.6624035E-013  0.5052886E+02  0.7816164E-02  0.1300439E+00
        -11   -1    0    0    0    0  0.00000000000E+00  0.00000000000E+00  0.45593999997E+02  0.45594000000E+02  0.51100000000E-03 0. -1.
         11   -1    0    0    0    0 -0.00000000000E+00 -0.00000000000E+00 -0.45593999997E+02  0.45594000000E+02  0.51100000000E-03 0.  1.
    9900012    2    1    2    0    0  0.40217276204E+02 -0.51382465104E+01  0.30552808285E+01  0.50528860518E+02  0.30000002029E+02 0.  0.
         12    1    1    2    0    0 -0.40217276204E+02  0.51382465104E+01 -0.30552808285E+01  0.40659139482E+02  0.00000000000E+00 0. -1.
         11    1    3    3    0    0  0.21711148161E+01  0.39025999948E+01 -0.28708835825E+01  0.53090487914E+01  0.51100000000E-03 0. -1.
        -11    1    3    3    0    0  0.15443966463E+01  0.45956629180E+01  0.38636980262E+01  0.61994710545E+01  0.51100000000E-03 0.  1.
        -12    1    3    3    0    0  0.36501764742E+02 -0.13636509423E+02  0.20624663848E+01  0.39020340672E+02  0.00000000000E+00 0.  1.
</event>
<event>
 7    1  0.6624035E-013  0.5052887E+02  0.7816164E-02  0.1300439E+00
        -11   -1    0    0    0    0  0.00000000000E+00  0.00000000000E+00  0.45593999997E+02  0.45594000000E+02  0.51100000000E-03 0.  1.
         11   -1    0    0    0    0 -0.00000000000E+00 -0.00000000000E+00 -0.45593999997E+02  0.45594000000E+02  0.51100000000E-03 0. -1.
    9900012    2    1    2    0    0  0.13744055829E+02 -0.19880444916E+02  0.32696084272E+02  0.50528867110E+02  0.30000022066E+02 0.  0.
         12    1    1    2    0    0 -0.13744055829E+02  0.19880444916E+02 -0.32696084272E+02  0.40659132890E+02  0.00000000000E+00 0. -1.
         11    1    3    3    0    0  0.36037966074E+01 -0.77295515096E+01  0.41527416769E+01  0.94857039920E+01  0.51100000000E-03 0. -1.
        -11    1    3    3    0    0  0.10758466455E+02 -0.16868001808E+02  0.30007459839E+02  0.36065519984E+02  0.51100000000E-03 0.  1.
         12    1    3    3    0    0 -0.61820723355E+00  0.47171084020E+01 -0.14641172439E+01  0.49776431335E+01  0.00000000000E+00 0. -1.
</event>
<event>
 7    1  0.6624035E-013  0.5052880E+02  0.7816164E-02  0.1300439E+00
        -11   -1    0    0    0    0  0.00000000000E+00  0.00000000000E+00  0.45593999997E+02  0.45594000000E+02  0.51100000000E-03 0. -1.
         11   -1    0    0    0    0 -0.00000000000E+00 -0.00000000000E+00 -0.45593999997E+02  0.45594000000E+02  0.51100000000E-03 0.  1.
    9900012    2    1    2    0    0 -0.74718058319E+01 -0.40844522160E+01 -0.39757516072E+02  0.50528797887E+02  0.29999811656E+02 0.  0.
         12    1    1    2    0    0  0.74718058319E+01  0.40844522160E+01  0.39757516072E+02  0.40659202113E+02  0.00000000000E+00 0. -1.
         11    1    3    3    0    0 -0.27597181840E+01 -0.14304001254E+01 -0.10711533562E+02  0.11153431780E+02  0.51100000000E-03 0. -1.
        -11    1    3    3    0    0 -0.54748761178E+01 -0.14009743970E+02 -0.18659690395E+02  0.23967295227E+02  0.51100000000E-03 0.  1.
         12    1    3    3    0    0  0.76278846990E+00  0.11355691880E+02 -0.10386292115E+02  0.15408070879E+02  0.00000000000E+00 0. -1.
</event>
<event>
 7    1  0.6624035E-013  0.5052886E+02  0.7816164E-02  0.1300439E+00
        -11   -1    0    0    0    0  0.00000000000E+00  0.00000000000E+00  0.45593999997E+02  0.45594000000E+02  0.51100000000E-03 0. -1.
         11   -1    0    0    0    0 -0.00000000000E+00 -0.00000000000E+00 -0.45593999997E+02  0.45594000000E+02  0.51100000000E-03 0.  1.
    9900012    2    1    2    0    0 -0.70259188236E+00  0.40529819185E+02  0.31631833758E+01  0.50528860712E+02  0.30000002621E+02 0.  0.
         12    1    1    2    0    0  0.70259188236E+00 -0.40529819185E+02 -0.31631833758E+01  0.40659139288E+02  0.00000000000E+00 0. -1.
         11    1    3    3    0    0 -0.22750551669E+01  0.71975295918E+01  0.10281195400E+02  0.12754735880E+02  0.51100000000E-03 0. -1.
        -11    1    3    3    0    0 -0.69793164341E+01  0.20450264181E+02 -0.34404472121E+01  0.21880604202E+02  0.51100000000E-03 0.  1.
        -12    1    3    3    0    0  0.85517797187E+01  0.12882025412E+02 -0.36775648125E+01  0.15893520630E+02  0.00000000000E+00 0.  1.
</event>
<event>
 7    1  0.6624035E-013  0.5052887E+02  0.7816164E-02  0.1300439E+00
        -11   -1    0    0    0    0  0.00000000000E+00  0.00000000000E+00  0.45593999997E+02  0.45594000000E+02  0.51100000000E-03 0.  1.
         11   -1    0    0    0    0 -0.00000000000E+00 -0.00000000000E+00 -0.45593999997E+02  0.45594000000E+02  0.51100000000E-03 0. -1.
    9900012    2    1    2    0    0 -0.24665227660E+02 -0.22841662642E+02  0.22870288682E+02  0.50528866805E+02  0.30000021140E+02 0.  0.
         12    1    1    2    0    0  0.24665227660E+02  0.22841662642E+02 -0.22870288682E+02  0.40659133195E+02  0.00000000000E+00 0. -1.
         11    1    3    3    0    0 -0.14867092309E+02 -0.49184868462E+01  0.19242980011E+02  0.24809559177E+02  0.51100000000E-03 0. -1.
        -11    1    3    3    0    0 -0.20452240242E+01 -0.41425153178E-01  0.57603680828E+01  0.61128142506E+01  0.51100000000E-03 0.  1.
         12    1    3    3    0    0 -0.77529113271E+01 -0.17881750643E+02 -0.21330594124E+01  0.19606493377E+02  0.00000000000E+00 0. -1.
</event>
<event>
 7    1  0.6624035E-013  0.5052886E+02  0.7816164E-02  0.1300439E+00
        -11   -1    0    0    0    0  0.00000000000E+00  0.00000000000E+00  0.45593999997E+02  0.45594000000E+02  0.51100000000E-03 0. -1.
         11   -1    0    0    0    0 -0.00000000000E+00 -0.00000000000E+00 -0.45593999997E+02  0.45594000000E+02  0.51100000000E-03 0.  1.
    9900012    2    1    2    0    0  0.12931153111E+02  0.37029778169E+02 -0.10711985487E+02  0.50528858038E+02  0.29999994491E+02 0.  0.
         12    1    1    2    0    0 -0.12931153111E+02 -0.37029778169E+02  0.10711985487E+02  0.40659141962E+02  0.00000000000E+00 0. -1.
         11    1    3    3    0    0 -0.41461067157E+01  0.75243159033E+01 -0.61056919597E+01  0.10539687153E+02  0.51100000000E-03 0. -1.
        -11    1    3    3    0    0  0.35490196402E+01  0.99936826028E+01 -0.11122750024E+02  0.15368305071E+02  0.51100000000E-03 0.  1.
         12    1    3    3    0    0  0.13528240187E+02  0.19511779663E+02  0.65164564972E+01  0.24620865814E+02  0.00000000000E+00 0. -1.
</event>
<event>
 7    1  0.6624035E-013  0.5052886E+02  0.7816164E-02  0.1300439E+00
        -11   -1    0    0    0    0  0.00000000000E+00  0.00000000000E+00  0.45593999997E+02  0.45594000000E+02  0.51100000000E-03 0. -1.
         11   -1    0    0    0    0 -0.00000000000E+00 -0.00000000000E+00 -0.45593999997E+02  0.45594000000E+02  0.51100000000E-03 0.  1.
    9900012    2    1    2    0    0  0.17460917310E+02  0.36422579534E+02  0.46559398974E+01  0.50528859459E+02  0.29999998811E+02 0.  0.
         12    1    1    2    0    0 -0.17460917310E+02 -0.36422579534E+02 -0.46559398974E+01  0.40659140541E+02  0.00000000000E+00 0. -1.
         11    1    3    3    0    0  0.90520495281E+01  0.48047291330E+01 -0.47160127815E+00  0.10259017045E+02  0.51100000000E-03 0. -1.
        -11    1    3    3    0    0  0.14237288338E+02  0.10286245004E+02  0.45705717860E+01  0.18149306934E+02  0.51100000000E-03 0.  1.
        -12    1    3    3    0    0 -0.58284205553E+01  0.21331605397E+02  0.55696938948E+00  0.22120535479E+02  0.00000000000E+00 0.  1.
</event>
<event>
 7    1  0.6624035E-013  0.5052885E+02  0.7816164E-02  0.1300439E+00
        -11   -1    0    0    0    0  0.00000000000E+00  0.00000000000E+00  0.45593999997E+02  0.45594000000E+02  0.51100000000E-03 0.  1.
         11   -1    0    0    0    0 -0.00000000000E+00 -0.00000000000E+00 -0.45593999997E+02  0.45594000000E+02  0.51100000000E-03 0. -1.
    9900012    2    1    2    0    0  0.23694462496E+02 -0.23589333429E+02  0.23136170413E+02  0.50528848681E+02  0.29999966051E+02 0.  0.
         12    1    1    2    0    0 -0.23694462496E+02  0.23589333429E+02 -0.23136170413E+02  0.40659151319E+02  0.00000000000E+00 0. -1.
         11    1    3    3    0    0  0.52642296990E+00 -0.23222431240E+01 -0.35478473777E+01  0.42728392840E+01  0.51100000000E-03 0.  1.
        -11    1    3    3    0    0 -0.35525530541E+00 -0.57275542157E+01 -0.19610973760E+01  0.60644032522E+01  0.51100000000E-03 0. -1.
        -12    1    3    3    0    0  0.23523294832E+02 -0.15539536089E+02  0.28645115166E+02  0.40191606145E+02  0.00000000000E+00 0.  1.
</event>
<event>
 7    1  0.6624035E-013  0.5052884E+02  0.7816164E-02  0.1300439E+00
        -11   -1    0    0    0    0  0.00000000000E+00  0.00000000000E+00  0.45593999997E+02  0.45594000000E+02  0.51100000000E-03 0.  1.
         11   -1    0    0    0    0 -0.00000000000E+00 -0.00000000000E+00 -0.45593999997E+02  0.45594000000E+02  0.51100000000E-03 0. -1.
    9900012    2    1    2    0    0 -0.33085550474E+02  0.80977491515E+01  0.22202260843E+02  0.50528836481E+02  0.29999928968E+02 0.  0.
         12    1    1    2    0    0  0.33085550474E+02 -0.80977491515E+01 -0.22202260843E+02  0.40659163519E+02  0.00000000000E+00 0. -1.
         11    1    3    3    0    0 -0.14712566116E+02  0.12609083248E+02  0.35043991838E+01  0.19690845487E+02  0.51100000000E-03 0. -1.
        -11    1    3    3    0    0  0.17845739209E+01  0.79294850862E-01  0.67022018232E+01  0.69361733898E+01  0.51100000000E-03 0.  1.
         12    1    3    3    0    0 -0.20157558279E+02 -0.45906289476E+01  0.11995659836E+02  0.23901817604E+02  0.00000000000E+00 0. -1.
</event>
<event>
 7    1  0.6624035E-013  0.5052887E+02  0.7816164E-02  0.1300439E+00
        -11   -1    0    0    0    0  0.00000000000E+00  0.00000000000E+00  0.45593999997E+02  0.45594000000E+02  0.51100000000E-03 0. -1.
         11   -1    0    0    0    0 -0.00000000000E+00 -0.00000000000E+00 -0.45593999997E+02  0.45594000000E+02  0.51100000000E-03 0.  1.
    9900012    2    1    2    0    0 -0.10561381401E+01  0.21159922556E+02  0.34703132090E+02  0.50528866620E+02  0.30000020579E+02 0.  0.
         12    1    1    2    0    0  0.10561381401E+01 -0.21159922556E+02 -0.34703132090E+02  0.40659133380E+02  0.00000000000E+00 0. -1.
         11    1    3    3    0    0  0.40212406154E+00 -0.36880496181E+01  0.25344171472E+01  0.44929594127E+01  0.51100000000E-03 0. -1.
        -11    1    3    3    0    0  0.21452324332E+01 -0.52257176506E+00 -0.22322812305E+01  0.31397743861E+01  0.51100000000E-03 0.  1.
        -12    1    3    3    0    0 -0.36034946348E+01  0.25370543939E+02  0.34400996173E+02  0.42896132822E+02  0.00000000000E+00 0.  1.
</event>
<event>
 7    1  0.6624035E-013  0.5052888E+02  0.7816164E-02  0.1300439E+00
        -11   -1    0    0    0    0  0.00000000000E+00  0.00000000000E+00  0.45593999997E+02  0.45594000000E+02  0.51100000000E-03 0.  1.
         11   -1    0    0    0    0 -0.00000000000E+00 -0.00000000000E+00 -0.45593999997E+02  0.45594000000E+02  0.51100000000E-03 0. -1.
    9900012    2    1    2    0    0 -0.32905759217E+02  0.67500348229E+01  0.22908771903E+02  0.50528883066E+02  0.30000070567E+02 0.  0.
         12    1    1    2    0    0  0.32905759217E+02 -0.67500348229E+01 -0.22908771903E+02  0.40659116934E+02  0.00000000000E+00 0. -1.
         11    1    3    3    0    0 -0.19372960435E+01  0.92870544734E+00 -0.45255589861E+01  0.50096201618E+01  0.51100000000E-03 0. -1.
        -11    1    3    3    0    0 -0.19972823208E+02  0.58985344601E+01  0.64044533308E+01  0.21788148118E+02  0.51100000000E-03 0.  1.
         12    1    3    3    0    0 -0.10995639965E+02 -0.77205084554E-01  0.21029877559E+02  0.23731114786E+02  0.00000000000E+00 0. -1.
</event>
<event>
 7    1  0.6624035E-013  0.5052885E+02  0.7816164E-02  0.1300439E+00
        -11   -1    0    0    0    0  0.00000000000E+00  0.00000000000E+00  0.45593999997E+02  0.45594000000E+02  0.51100000000E-03 0. -1.
         11   -1    0    0    0    0 -0.00000000000E+00 -0.00000000000E+00 -0.45593999997E+02  0.45594000000E+02  0.51100000000E-03 0.  1.
    9900012    2    1    2    0    0 -0.33543583651E+02  0.18721682722E+02 -0.13322655601E+02  0.50528848996E+02  0.29999967009E+02 0.  0.
         12    1    1    2    0    0  0.33543583651E+02 -0.18721682722E+02  0.13322655601E+02  0.40659151004E+02  0.00000000000E+00 0. -1.
         11    1    3    3    0    0 -0.59028499702E+01  0.15153500064E+01  0.39049197845E+01  0.72379777699E+01  0.51100000000E-03 0. -1.
        -11    1    3    3    0    0 -0.17014972482E+01  0.10402927975E+02  0.14081211084E+01  0.10634792365E+02  0.51100000000E-03 0.  1.
        -12    1    3    3    0    0 -0.25939236432E+02  0.68034047407E+01 -0.18635696494E+02  0.32656078861E+02  0.00000000000E+00 0.  1.
</event>
<event>
 7    1  0.6624035E-013  0.5052886E+02  0.7816164E-02  0.1300439E+00
        -11   -1    0    0    0    0  0.00000000000E+00  0.00000000000E+00  0.45593999997E+02  0.45594000000E+02  0.51100000000E-03 0. -1.
         11   -1    0    0    0    0 -0.00000000000E+00 -0.00000000000E+00 -0.45593999997E+02  0.45594000000E+02  0.51100000000E-03 0.  1.
    9900012    2    1    2    0    0 -0.34241206481E+02 -0.10352700837E+02  0.19326846679E+02  0.50528860333E+02  0.30000001468E+02 0.  0.
         12    1    1    2    0    0  0.34241206481E+02  0.10352700837E+02 -0.19326846679E+02  0.40659139667E+02  0.00000000000E+00 0. -1.
         11    1    3    3    0    0 -0.38108849708E+01  0.34785057995E+01  0.81189328597E+01  0.96197670397E+01  0.51100000000E-03 0. -1.
        -11    1    3    3    0    0 -0.16354738502E+02 -0.18608807069E+01  0.14742102116E+02  0.22096830622E+02  0.51100000000E-03 0.  1.
        -12    1    3    3    0    0 -0.14075583008E+02 -0.11970325930E+02 -0.35341882969E+01  0.18812262671E+02  0.00000000000E+00 0.  1.
</event>
<event>
 7    1  0.6624035E-013  0.5052885E+02  0.7816164E-02  0.1300439E+00
        -11   -1    0    0    0    0  0.00000000000E+00  0.00000000000E+00  0.45593999997E+02  0.45594000000E+02  0.51100000000E-03 0.  1.
         11   -1    0    0    0    0 -0.00000000000E+00 -0.00000000000E+00 -0.45593999997E+02  0.45594000000E+02  0.51100000000E-03 0. -1.
    9900012    2    1    2    0    0 -0.12601387899E+02  0.71959013460E+01  0.37981450623E+02  0.50528848945E+02  0.29999966852E+02 0.  0.
         12    1    1    2    0    0  0.12601387899E+02 -0.71959013460E+01 -0.37981450623E+02  0.40659151055E+02  0.00000000000E+00 0. -1.
         11    1    3    3    0    0 -0.40805748154E+01  0.39320580160E+01  0.10940940713E+02  0.12321377967E+02  0.51100000000E-03 0. -1.
        -11    1    3    3    0    0  0.25301035372E+01  0.53855781118E+01  0.26262180453E+02  0.26927829432E+02  0.51100000000E-03 0.  1.
         12    1    3    3    0    0 -0.11050916621E+02 -0.21217347819E+01  0.77832945623E+00  0.11279641545E+02  0.00000000000E+00 0. -1.
</event>
<event>
 7    1  0.6624035E-013  0.5052886E+02  0.7816164E-02  0.1300439E+00
        -11   -1    0    0    0    0  0.00000000000E+00  0.00000000000E+00  0.45593999997E+02  0.45594000000E+02  0.51100000000E-03 0. -1.
         11   -1    0    0    0    0 -0.00000000000E+00 -0.00000000000E+00 -0.45593999997E+02  0.45594000000E+02  0.51100000000E-03 0.  1.
    9900012    2    1    2    0    0  0.29897077863E+01 -0.28308236742E+02 -0.29032237301E+02  0.50528862985E+02  0.30000009529E+02 0.  0.
         12    1    1    2    0    0 -0.29897077863E+01  0.28308236742E+02  0.29032237301E+02  0.40659137015E+02  0.00000000000E+00 0. -1.
         11    1    3    3    0    0 -0.34002687484E+01  0.29767008504E+01 -0.11085330611E+02  0.11971095627E+02  0.51100000000E-03 0. -1.
        -11    1    3    3    0    0  0.68204554850E+01 -0.10914773524E+02 -0.28051262589E+01  0.13172684909E+02  0.51100000000E-03 0.  1.
        -12    1    3    3    0    0 -0.43047895032E+00 -0.20370164068E+02 -0.15141780432E+02  0.25385082449E+02  0.00000000000E+00 0.  1.
</event>
<event>
 7    1  0.6624035E-013  0.5052886E+02  0.7816164E-02  0.1300439E+00
        -11   -1    0    0    0    0  0.00000000000E+00  0.00000000000E+00  0.45593999997E+02  0.45594000000E+02  0.51100000000E-03 0. -1.
         11   -1    0    0    0    0 -0.00000000000E+00 -0.00000000000E+00 -0.45593999997E+02  0.45594000000E+02  0.51100000000E-03 0.  1.
    9900012    2    1    2    0    0  0.81568237128E+01  0.32948849805E+02 -0.22383148519E+02  0.50528858172E+02  0.29999994899E+02 0.  0.
         12    1    1    2    0    0 -0.81568237128E+01 -0.32948849805E+02  0.22383148519E+02  0.40659141828E+02  0.00000000000E+00 0. -1.
         11    1    3    3    0    0 -0.55668060761E+01  0.20254085655E+02 -0.15859379395E+02  0.26319901798E+02  0.51100000000E-03 0. -1.
        -11    1    3    3    0    0 -0.20541654300E+01  0.56148818529E+01 -0.23097118197E+01  0.64094666539E+01  0.51100000000E-03 0.  1.
        -12    1    3    3    0    0  0.15777795219E+02  0.70798822969E+01 -0.42140573047E+01  0.17799489720E+02  0.00000000000E+00 0.  1.
</event>
<event>
 7    1  0.6624035E-013  0.5052886E+02  0.7816164E-02  0.1300439E+00
        -11   -1    0    0    0    0  0.00000000000E+00  0.00000000000E+00  0.45593999997E+02  0.45594000000E+02  0.51100000000E-03 0.  1.
         11   -1    0    0    0    0 -0.00000000000E+00 -0.00000000000E+00 -0.45593999997E+02  0.45594000000E+02  0.51100000000E-03 0. -1.
    9900012    2    1    2    0    0  0.95811452141E+01  0.21972460195E+02  0.32841716662E+02  0.50528859528E+02  0.29999999021E+02 0.  0.
         12    1    1    2    0    0 -0.95811452141E+01 -0.21972460195E+02 -0.32841716662E+02  0.40659140472E+02  0.00000000000E+00 0. -1.
         11    1    3    3    0    0 -0.30016911974E+01  0.23916930577E+01  0.25053078150E+01  0.45833299288E+01  0.51100000000E-03 0. -1.
        -11    1    3    3    0    0  0.15960897226E+02  0.17828202542E+02  0.11174828192E+02  0.26409692000E+02  0.51100000000E-03 0.  1.
         12    1    3    3    0    0 -0.33780608146E+01  0.17525645955E+01  0.19161580655E+02  0.19535837600E+02  0.00000000000E+00 0. -1.
</event>
<event>
 7    1  0.6624035E-013  0.5052886E+02  0.7816164E-02  0.1300439E+00
        -11   -1    0    0    0    0  0.00000000000E+00  0.00000000000E+00  0.45593999997E+02  0.45594000000E+02  0.51100000000E-03 0.  1.
         11   -1    0    0    0    0 -0.00000000000E+00 -0.00000000000E+00 -0.45593999997E+02  0.45594000000E+02  0.51100000000E-03 0. -1.
    9900012    2    1    2    0    0 -0.25355341646E+01 -0.27489839334E+02  0.29850383159E+02  0.50528861115E+02  0.30000003844E+02 0.  0.
         12    1    1    2    0    0  0.25355341646E+01  0.27489839334E+02 -0.29850383159E+02  0.40659138885E+02  0.00000000000E+00 0. -1.
         11    1    3    3    0    0 -0.41052704229E+01 -0.22419880410E+02  0.26157569686E+02  0.34694707593E+02  0.51100000000E-03 0. -1.
        -11    1    3    3    0    0  0.37174421737E+01 -0.45282276069E+01  0.86254578204E+01  0.10427019922E+02  0.51100000000E-03 0.  1.
         12    1    3    3    0    0 -0.21477059155E+01 -0.54173131766E+00 -0.49326443466E+01  0.54071336002E+01  0.00000000000E+00 0. -1.
</event>
<event>
 7    1  0.6624035E-013  0.5052887E+02  0.7816164E-02  0.1300439E+00
        -11   -1    0    0    0    0  0.00000000000E+00  0.00000000000E+00  0.45593999997E+02  0.45594000000E+02  0.51100000000E-03 0. -1.
         11   -1    0    0    0    0 -0.00000000000E+00 -0.00000000000E+00 -0.45593999997E+02  0.45594000000E+02  0.51100000000E-03 0.  1.
    9900012    2    1    2    0    0  0.14490654065E+02 -0.17091139766E+02 -0.33927555635E+02  0.50528866400E+02  0.30000019910E+02 0.  0.
         12    1    1    2    0    0 -0.14490654065E+02  0.17091139766E+02  0.33927555635E+02  0.40659133600E+02  0.00000000000E+00 0. -1.
         11    1    3    3    0    0  0.80748928390E+01 -0.10577579780E+00  0.49038734307E+00  0.80904612284E+01  0.51100000000E-03 0. -1.
        -11    1    3    3    0    0  0.11000863736E+02 -0.10151889879E+02 -0.14297724946E+02  0.20700357725E+02  0.51100000000E-03 0.  1.
        -12    1    3    3    0    0 -0.45851025097E+01 -0.68334740891E+01 -0.20120218032E+02  0.21738047447E+02  0.00000000000E+00 0.  1.
</event>
<event>
 7    1  0.6624035E-013  0.5052886E+02  0.7816164E-02  0.1300439E+00
        -11   -1    0    0    0    0  0.00000000000E+00  0.00000000000E+00  0.45593999997E+02  0.45594000000E+02  0.51100000000E-03 0.  1.
         11   -1    0    0    0    0 -0.00000000000E+00 -0.00000000000E+00 -0.45593999997E+02  0.45594000000E+02  0.51100000000E-03 0. -1.
    9900012    2    1    2    0    0  0.64519112660E+00 -0.86661713051E+01  0.39719606174E+02  0.50528856978E+02  0.29999991271E+02 0.  0.
         12    1    1    2    0    0 -0.64519112660E+00  0.86661713051E+01 -0.39719606174E+02  0.40659143022E+02  0.00000000000E+00 0. -1.
         11    1    3    3    0    0 -0.11831674719E+02 -0.96874760104E+01  0.19915179711E+02  0.25108765428E+02  0.51100000000E-03 0. -1.
        -11    1    3    3    0    0  0.61627400821E-01 -0.28934846213E+01  0.30790523310E+01  0.42257087818E+01  0.51100000000E-03 0.  1.
        -12    1    3    3    0    0  0.12415238445E+02  0.39147893266E+01  0.16725374131E+02  0.21194382769E+02  0.00000000000E+00 0.  1.
</event>
<event>
 7    1  0.6624035E-013  0.5052885E+02  0.7816164E-02  0.1300439E+00
        -11   -1    0    0    0    0  0.00000000000E+00  0.00000000000E+00  0.45593999997E+02  0.45594000000E+02  0.51100000000E-03 0.  1.
         11   -1    0    0    0    0 -0.00000000000E+00 -0.00000000000E+00 -0.45593999997E+02  0.45594000000E+02  0.51100000000E-03 0. -1.
    9900012    2    1    2    0    0  0.15536869588E+02  0.23269003915E+01  0.37501432902E+02  0.50528852792E+02  0.29999978545E+02 0.  0.
         12    1    1    2    0    0 -0.15536869588E+02 -0.23269003915E+01 -0.37501432902E+02  0.40659147208E+02  0.00000000000E+00 0. -1.
         11    1    3    3    0    0 -0.39311320474E+01 -0.78896583204E+01  0.53660693711E+01  0.10319651561E+02  0.51100000000E-03 0. -1.
        -11    1    3    3    0    0  0.62375011832E+01 -0.66485815701E+00  0.45947045607E+01  0.77755879289E+01  0.51100000000E-03 0.  1.
        -12    1    3    3    0    0  0.13230500452E+02  0.10881416869E+02  0.27540658970E+02  0.32433613302E+02  0.00000000000E+00 0.  1.
</event>
<event>
 7    1  0.6624035E-013  0.5052887E+02  0.7816164E-02  0.1300439E+00
        -11   -1    0    0    0    0  0.00000000000E+00  0.00000000000E+00  0.45593999997E+02  0.45594000000E+02  0.51100000000E-03 0. -1.
         11   -1    0    0    0    0 -0.00000000000E+00 -0.00000000000E+00 -0.45593999997E+02  0.45594000000E+02  0.51100000000E-03 0.  1.
    9900012    2    1    2    0    0  0.35092281875E+01 -0.25427099575E+02 -0.31532726081E+02  0.50528869544E+02  0.30000029467E+02 0.  0.
         12    1    1    2    0    0 -0.35092281875E+01  0.25427099575E+02  0.31532726081E+02  0.40659130456E+02  0.00000000000E+00 0. -1.
         11    1    3    3    0    0  0.14719699235E+02 -0.99428832667E+01 -0.18770996594E+02  0.25843389612E+02  0.51100000000E-03 0. -1.
        -11    1    3    3    0    0  0.40739917209E+00 -0.50726114394E+01 -0.54498914533E+01  0.74564521064E+01  0.51100000000E-03 0.  1.
        -12    1    3    3    0    0 -0.11617870220E+02 -0.10411604869E+02 -0.73118380343E+01  0.17229027826E+02  0.00000000000E+00 0.  1.
</event>
<event>
 7    1  0.6624035E-013  0.5052887E+02  0.7816164E-02  0.1300439E+00
        -11   -1    0    0    0    0  0.00000000000E+00  0.00000000000E+00  0.45593999997E+02  0.45594000000E+02  0.51100000000E-03 0.  1.
         11   -1    0    0    0    0 -0.00000000000E+00 -0.00000000000E+00 -0.45593999997E+02  0.45594000000E+02  0.51100000000E-03 0. -1.
    9900012    2    1    2    0    0  0.27001987411E+02  0.11311992490E+02  0.28215174740E+02  0.50528873302E+02  0.30000040889E+02 0.  0.
         12    1    1    2    0    0 -0.27001987411E+02 -0.11311992490E+02 -0.28215174740E+02  0.40659126698E+02  0.00000000000E+00 0. -1.
         11    1    3    3    0    0  0.18736712057E+00  0.65362832920E+01 -0.15682692985E+01  0.67244014280E+01  0.51100000000E-03 0. -1.
        -11    1    3    3    0    0  0.95487104844E+01  0.51914335791E+01  0.19414363839E+01  0.11040744088E+02  0.51100000000E-03 0.  1.
        -12    1    3    3    0    0  0.17265909806E+02 -0.41572438122E+00  0.27842007655E+02  0.32763727786E+02  0.00000000000E+00 0.  1.
</event>
<event>
 7    1  0.6624035E-013  0.5052884E+02  0.7816164E-02  0.1300439E+00
        -11   -1    0    0    0    0  0.00000000000E+00  0.00000000000E+00  0.45593999997E+02  0.45594000000E+02  0.51100000000E-03 0. -1.
         11   -1    0    0    0    0 -0.00000000000E+00 -0.00000000000E+00 -0.45593999997E+02  0.45594000000E+02  0.51100000000E-03 0.  1.
    9900012    2    1    2    0    0  0.16262070312E+02 -0.95184484040E-01 -0.37265310975E+02  0.50528838757E+02  0.29999935886E+02 0.  0.
         12    1    1    2    0    0 -0.16262070312E+02  0.95184484040E-01  0.37265310975E+02  0.40659161243E+02  0.00000000000E+00 0. -1.
         11    1    3    3    0    0  0.51475074472E+01  0.66884792374E+01 -0.13752613014E+02  0.16135890196E+02  0.51100000000E-03 0. -1.
        -11    1    3    3    0    0  0.68240861128E+01  0.52502897609E+01 -0.18971565052E+02  0.20833962048E+02  0.51100000000E-03 0.  1.
         12    1    3    3    0    0  0.42904767522E+01 -0.12033953482E+02 -0.45411329091E+01  0.13558986514E+02  0.00000000000E+00 0. -1.
</event>
<event>
 7    1  0.6624035E-013  0.5052890E+02  0.7816164E-02  0.1300439E+00
        -11   -1    0    0    0    0  0.00000000000E+00  0.00000000000E+00  0.45593999997E+02  0.45594000000E+02  0.51100000000E-03 0. -1.
         11   -1    0    0    0    0 -0.00000000000E+00 -0.00000000000E+00 -0.45593999997E+02  0.45594000000E+02  0.51100000000E-03 0.  1.
    9900012    2    1    2    0    0 -0.18408774010E+02 -0.23256645176E+02 -0.27810218877E+02  0.50528895492E+02  0.30000108337E+02 0.  0.
         12    1    1    2    0    0  0.18408774010E+02  0.23256645176E+02  0.27810218877E+02  0.40659104508E+02  0.00000000000E+00 0. -1.
         11    1    3    3    0    0 -0.11027332648E+02  0.39423913458E+00 -0.25142368455E+00  0.11037241683E+02  0.51100000000E-03 0. -1.
        -11    1    3    3    0    0 -0.35888204356E+01 -0.28120227340E+01 -0.13034878513E+02  0.13809241908E+02  0.51100000000E-03 0.  1.
         12    1    3    3    0    0 -0.37926209263E+01 -0.20838861577E+02 -0.14523916679E+02  0.25682411900E+02  0.00000000000E+00 0. -1.
</event>
<event>
 7    1  0.6624035E-013  0.5052886E+02  0.7816164E-02  0.1300439E+00
        -11   -1    0    0    0    0  0.00000000000E+00  0.00000000000E+00  0.45593999997E+02  0.45594000000E+02  0.51100000000E-03 0.  1.
         11   -1    0    0    0    0 -0.00000000000E+00 -0.00000000000E+00 -0.45593999997E+02  0.45594000000E+02  0.51100000000E-03 0. -1.
    9900012    2    1    2    0    0  0.39248233677E+02  0.56049096769E+00  0.10603209289E+02  0.50528855345E+02  0.29999986306E+02 0.  0.
         12    1    1    2    0    0 -0.39248233677E+02 -0.56049096769E+00 -0.10603209289E+02  0.40659144655E+02  0.00000000000E+00 0. -1.
         11    1    3    3    0    0  0.34087089616E+02  0.68753011249E+01  0.10286362213E+02  0.36263048574E+02  0.51100000000E-03 0. -1.
        -11    1    3    3    0    0  0.83069233408E+01 -0.14374479579E+01 -0.25209961700E+00  0.84341440881E+01  0.51100000000E-03 0.  1.
         12    1    3    3    0    0 -0.31457792802E+01 -0.48773621993E+01  0.56894669316E+00  0.58316626825E+01  0.00000000000E+00 0. -1.
</event>
<event>
 7    1  0.6624035E-013  0.5052890E+02  0.7816164E-02  0.1300439E+00
        -11   -1    0    0    0    0  0.00000000000E+00  0.00000000000E+00  0.45593999997E+02  0.45594000000E+02  0.51100000000E-03 0.  1.
         11   -1    0    0    0    0 -0.00000000000E+00 -0.00000000000E+00 -0.45593999997E+02  0.45594000000E+02  0.51100000000E-03 0. -1.
    9900012    2    1    2    0    0 -0.40510779861E+02  0.32721694633E+01  0.11540781787E+01  0.50528901702E+02  0.30000127213E+02 0.  0.
         12    1    1    2    0    0  0.40510779861E+02 -0.32721694633E+01 -0.11540781787E+01  0.40659098298E+02  0.00000000000E+00 0. -1.
         11    1    3    3    0    0 -0.20983269104E+02 -0.32199335281E+01 -0.10351130248E+02  0.23618032346E+02  0.51100000000E-03 0. -1.
        -11    1    3    3    0    0 -0.10764383255E+02  0.77813749856E+01  0.12214041900E+01  0.13338424644E+02  0.51100000000E-03 0.  1.
        -12    1    3    3    0    0 -0.87631275023E+01 -0.12892719942E+01  0.10283804236E+02  0.13572444712E+02  0.00000000000E+00 0.  1.
</event>
<event>
 7    1  0.6624035E-013  0.5052886E+02  0.7816164E-02  0.1300439E+00
        -11   -1    0    0    0    0  0.00000000000E+00  0.00000000000E+00  0.45593999997E+02  0.45594000000E+02  0.51100000000E-03 0.  1.
         11   -1    0    0    0    0 -0.00000000000E+00 -0.00000000000E+00 -0.45593999997E+02  0.45594000000E+02  0.51100000000E-03 0. -1.
    9900012    2    1    2    0    0 -0.34346398000E+02  0.16133302944E+02  0.14601602359E+02  0.50528864361E+02  0.30000013712E+02 0.  0.
         12    1    1    2    0    0  0.34346398000E+02 -0.16133302944E+02 -0.14601602359E+02  0.40659135639E+02  0.00000000000E+00 0. -1.
         11    1    3    3    0    0 -0.86562057471E+01  0.22438071563E+01 -0.17048726125E+00  0.89439160695E+01  0.51100000000E-03 0. -1.
        -11    1    3    3    0    0 -0.29215904228E+02  0.85341625817E+01  0.65072879759E+01  0.31124681330E+02  0.51100000000E-03 0.  1.
         12    1    3    3    0    0  0.35257119755E+01  0.53553332065E+01  0.82648016444E+01  0.10460266962E+02  0.00000000000E+00 0. -1.
</event>
<event>
 7    1  0.6624035E-013  0.5052887E+02  0.7816164E-02  0.1300439E+00
        -11   -1    0    0    0    0  0.00000000000E+00  0.00000000000E+00  0.45593999997E+02  0.45594000000E+02  0.51100000000E-03 0. -1.
         11   -1    0    0    0    0 -0.00000000000E+00 -0.00000000000E+00 -0.45593999997E+02  0.45594000000E+02  0.51100000000E-03 0.  1.
    9900012    2    1    2    0    0 -0.15643956194E+02 -0.37163448946E+02 -0.52258820683E+01  0.50528866385E+02  0.30000019864E+02 0.  0.
         12    1    1    2    0    0  0.15643956194E+02  0.37163448946E+02  0.52258820683E+01  0.40659133615E+02  0.00000000000E+00 0. -1.
         11    1    3    3    0    0 -0.16947854085E+01  0.74856591507E+00 -0.44828413014E+01  0.48506200536E+01  0.51100000000E-03 0. -1.
        -11    1    3    3    0    0 -0.13061222723E+02 -0.92826676862E+01 -0.48510463337E+01  0.16742046147E+02  0.51100000000E-03 0.  1.
        -12    1    3    3    0    0 -0.88794806284E+00 -0.28629347174E+02  0.41080055668E+01  0.28936200185E+02  0.00000000000E+00 0.  1.
</event>
<event>
 7    1  0.6624035E-013  0.5052888E+02  0.7816164E-02  0.1300439E+00
        -11   -1    0    0    0    0  0.00000000000E+00  0.00000000000E+00  0.45593999997E+02  0.45594000000E+02  0.51100000000E-03 0.  1.
         11   -1    0    0    0    0 -0.00000000000E+00 -0.00000000000E+00 -0.45593999997E+02  0.45594000000E+02  0.51100000000E-03 0. -1.
    9900012    2    1    2    0    0  0.17961545188E+02 -0.33232475046E+02  0.15038264600E+02  0.50528881645E+02  0.30000066247E+02 0.  0.
         12    1    1    2    0    0 -0.17961545188E+02  0.33232475046E+02 -0.15038264600E+02  0.40659118355E+02  0.00000000000E+00 0. -1.
         11    1    3    3    0    0 -0.56086354632E+01 -0.58391678008E+01  0.63852292831E+01  0.10311344511E+02  0.51100000000E-03 0. -1.
        -11    1    3    3    0    0  0.15075855332E+01 -0.10849867884E+02  0.60628766502E+01  0.12520020798E+02  0.51100000000E-03 0.  1.
        -12    1    3    3    0    0  0.22062595118E+02 -0.16543439362E+02  0.25901586663E+01  0.27697516336E+02  0.00000000000E+00 0.  1.
</event>
<event>
 7    1  0.6624035E-013  0.5052892E+02  0.7816164E-02  0.1300439E+00
        -11   -1    0    0    0    0  0.00000000000E+00  0.00000000000E+00  0.45593999997E+02  0.45594000000E+02  0.51100000000E-03 0. -1.
         11   -1    0    0    0    0 -0.00000000000E+00 -0.00000000000E+00 -0.45593999997E+02  0.45594000000E+02  0.51100000000E-03 0.  1.
    9900012    2    1    2    0    0  0.33618060924E+02 -0.39599655244E+01 -0.22523441324E+02  0.50528920371E+02  0.30000183958E+02 0.  0.
         12    1    1    2    0    0 -0.33618060924E+02  0.39599655244E+01  0.22523441324E+02  0.40659079629E+02  0.00000000000E+00 0. -1.
         11    1    3    3    0    0 -0.12916427907E+01 -0.23828415346E+01  0.11122088390E+01  0.29297241578E+01  0.51100000000E-03 0.  1.
        -11    1    3    3    0    0  0.30286784854E+00 -0.60145279572E+01 -0.12660911640E+01  0.61538006612E+01  0.51100000000E-03 0. -1.
        -12    1    3    3    0    0  0.34606835866E+02  0.44374039674E+01 -0.22369558999E+02  0.41445395552E+02  0.00000000000E+00 0.  1.
</event>
<event>
 7    1  0.6624035E-013  0.5052888E+02  0.7816164E-02  0.1300439E+00
        -11   -1    0    0    0    0  0.00000000000E+00  0.00000000000E+00  0.45593999997E+02  0.45594000000E+02  0.51100000000E-03 0.  1.
         11   -1    0    0    0    0 -0.00000000000E+00 -0.00000000000E+00 -0.45593999997E+02  0.45594000000E+02  0.51100000000E-03 0. -1.
    9900012    2    1    2    0    0  0.19024339288E+02  0.11721078101E+02  0.33968439024E+02  0.50528880397E+02  0.30000062454E+02 0.  0.
         12    1    1    2    0    0 -0.19024339288E+02 -0.11721078101E+02 -0.33968439024E+02  0.40659119603E+02  0.00000000000E+00 0. -1.
         11    1    3    3    0    0  0.91068071604E+00 -0.49715275389E+01  0.21350096534E+02  0.21940192518E+02  0.51100000000E-03 0. -1.
        -11    1    3    3    0    0  0.36409560409E+01  0.18697657156E+01  0.51244286150E+01  0.65583804110E+01  0.51100000000E-03 0.  1.
         12    1    3    3    0    0  0.14472702531E+02  0.14822839924E+02  0.74939138747E+01  0.22030307468E+02  0.00000000000E+00 0. -1.
</event>
<event>
 7    1  0.6624035E-013  0.5052878E+02  0.7816164E-02  0.1300439E+00
        -11   -1    0    0    0    0  0.00000000000E+00  0.00000000000E+00  0.45593999997E+02  0.45594000000E+02  0.51100000000E-03 0.  1.
         11   -1    0    0    0    0 -0.00000000000E+00 -0.00000000000E+00 -0.45593999997E+02  0.45594000000E+02  0.51100000000E-03 0. -1.
    9900012    2    1    2    0    0  0.37892625101E+02 -0.10278336893E+02  0.10567716395E+02  0.50528783626E+02  0.29999768310E+02 0.  0.
         12    1    1    2    0    0 -0.37892625101E+02  0.10278336893E+02 -0.10567716395E+02  0.40659216374E+02  0.00000000000E+00 0. -1.
         11    1    3    3    0    0  0.32025311158E+02  0.15033646822E+01  0.91843442568E+01  0.33350155019E+02  0.51100000000E-03 0. -1.
        -11    1    3    3    0    0  0.68765490065E+01 -0.36813582973E+01  0.37848459078E+01  0.86697395555E+01  0.51100000000E-03 0.  1.
         12    1    3    3    0    0 -0.10092350632E+01 -0.81003432775E+01 -0.24014737699E+01  0.85088890516E+01  0.00000000000E+00 0. -1.
</event>
<event>
 7    1  0.6624035E-013  0.5052887E+02  0.7816164E-02  0.1300439E+00
        -11   -1    0    0    0    0  0.00000000000E+00  0.00000000000E+00  0.45593999997E+02  0.45594000000E+02  0.51100000000E-03 0.  1.
         11   -1    0    0    0    0 -0.00000000000E+00 -0.00000000000E+00 -0.45593999997E+02  0.45594000000E+02  0.51100000000E-03 0. -1.
    9900012    2    1    2    0    0  0.37401888019E+02 -0.10804755641E+02  0.11726930769E+02  0.50528869696E+02  0.30000029927E+02 0.  0.
         12    1    1    2    0    0 -0.37401888019E+02  0.10804755641E+02 -0.11726930769E+02  0.40659130304E+02  0.00000000000E+00 0. -1.
         11    1    3    3    0    0  0.16655659482E+02  0.18294405747E+01  0.12651091981E+02  0.20995427459E+02  0.51100000000E-03 0. -1.
        -11    1    3    3    0    0  0.29471440134E+01  0.40199049969E+01  0.99365704108E+00  0.50825828667E+01  0.51100000000E-03 0.  1.
         12    1    3    3    0    0  0.17799084523E+02 -0.16654101213E+02 -0.19178182533E+01  0.24450859370E+02  0.00000000000E+00 0. -1.
</event>
<event>
 7    1  0.6624035E-013  0.5052873E+02  0.7816164E-02  0.1300439E+00
        -11   -1    0    0    0    0  0.00000000000E+00  0.00000000000E+00  0.45593999997E+02  0.45594000000E+02  0.51100000000E-03 0.  1.
         11   -1    0    0    0    0 -0.00000000000E+00 -0.00000000000E+00 -0.45593999997E+02  0.45594000000E+02  0.51100000000E-03 0. -1.
    9900012    2    1    2    0    0 -0.19370386588E+02 -0.21837914694E+02  0.28303174516E+02  0.50528731900E+02  0.29999611080E+02 0.  0.
         12    1    1    2    0    0  0.19370386588E+02  0.21837914694E+02 -0.28303174516E+02  0.40659268100E+02  0.00000000000E+00 0. -1.
         11    1    3    3    0    0 -0.72016850117E+01 -0.20933900703E+02  0.20905453706E+02  0.30448817064E+02  0.51100000000E-03 0. -1.
        -11    1    3    3    0    0 -0.26812188300E+01 -0.69274248647E+01  0.30590825383E+01  0.80334386104E+01  0.51100000000E-03 0.  1.
         12    1    3    3    0    0 -0.94874827459E+01  0.60234108735E+01  0.43386382717E+01  0.12046476226E+02  0.00000000000E+00 0. -1.
</event>
<event>
 7    1  0.6624035E-013  0.5052887E+02  0.7816164E-02  0.1300439E+00
        -11   -1    0    0    0    0  0.00000000000E+00  0.00000000000E+00  0.45593999997E+02  0.45594000000E+02  0.51100000000E-03 0. -1.
         11   -1    0    0    0    0 -0.00000000000E+00 -0.00000000000E+00 -0.45593999997E+02  0.45594000000E+02  0.51100000000E-03 0.  1.
    9900012    2    1    2    0    0  0.53786334316E+00 -0.37916791128E+02 -0.14669450698E+02  0.50528866583E+02  0.30000020465E+02 0.  0.
         12    1    1    2    0    0 -0.53786334316E+00  0.37916791128E+02  0.14669450698E+02  0.40659133417E+02  0.00000000000E+00 0. -1.
         11    1    3    3    0    0 -0.10953860822E+02 -0.12527109734E+02 -0.11621497994E+02  0.20297161405E+02  0.51100000000E-03 0. -1.
        -11    1    3    3    0    0 -0.13157638690E-01  0.80741714295E-01 -0.22711886481E+01  0.22726615420E+01  0.51100000000E-03 0.  1.
        -12    1    3    3    0    0  0.11504881804E+02 -0.25470423109E+02 -0.77676405597E+00  0.27959043636E+02  0.00000000000E+00 0.  1.
</event>
<event>
 7    1  0.6624035E-013  0.5052887E+02  0.7816164E-02  0.1300439E+00
        -11   -1    0    0    0    0  0.00000000000E+00  0.00000000000E+00  0.45593999997E+02  0.45594000000E+02  0.51100000000E-03 0.  1.
         11   -1    0    0    0    0 -0.00000000000E+00 -0.00000000000E+00 -0.45593999997E+02  0.45594000000E+02  0.51100000000E-03 0. -1.
    9900012    2    1    2    0    0  0.10201439609E+02 -0.31389790284E+02  0.23743986811E+02  0.50528865554E+02  0.30000017339E+02 0.  0.
         12    1    1    2    0    0 -0.10201439609E+02  0.31389790284E+02 -0.23743986811E+02  0.40659134446E+02  0.00000000000E+00 0. -1.
         11    1    3    3    0    0 -0.75639548580E+00  0.10870236334E+01 -0.17875372106E+01  0.22246447022E+01  0.51100000000E-03 0. -1.
        -11    1    3    3    0    0  0.16215298271E+02 -0.26940154408E+02  0.25786052976E+02  0.40664829347E+02  0.51100000000E-03 0.  1.
         12    1    3    3    0    0 -0.52574631764E+01 -0.55366595095E+01 -0.25452895350E+00  0.76393915048E+01  0.00000000000E+00 0. -1.
</event>
<event>
 7    1  0.6624035E-013  0.5052887E+02  0.7816164E-02  0.1300439E+00
        -11   -1    0    0    0    0  0.00000000000E+00  0.00000000000E+00  0.45593999997E+02  0.45594000000E+02  0.51100000000E-03 0. -1.
         11   -1    0    0    0    0 -0.00000000000E+00 -0.00000000000E+00 -0.45593999997E+02  0.45594000000E+02  0.51100000000E-03 0.  1.
    9900012    2    1    2    0    0  0.25864467891E+02 -0.17377145411E+02 -0.26119518299E+02  0.50528866732E+02  0.30000020920E+02 0.  0.
         12    1    1    2    0    0 -0.25864467891E+02  0.17377145411E+02  0.26119518299E+02  0.40659133268E+02  0.00000000000E+00 0. -1.
         11    1    3    3    0    0  0.44585860145E+01  0.22515658208E+01 -0.54869357182E+01  0.74199057764E+01  0.51100000000E-03 0. -1.
        -11    1    3    3    0    0  0.14923067256E+02  0.16524699370E+01 -0.12096128560E+02  0.19280687737E+02  0.51100000000E-03 0.  1.
         12    1    3    3    0    0  0.64828146202E+01 -0.21281181169E+02 -0.85364540210E+01  0.23828273219E+02  0.00000000000E+00 0. -1.
</event>
<event>
 7    1  0.6624035E-013  0.5052887E+02  0.7816164E-02  0.1300439E+00
        -11   -1    0    0    0    0  0.00000000000E+00  0.00000000000E+00  0.45593999997E+02  0.45594000000E+02  0.51100000000E-03 0.  1.
         11   -1    0    0    0    0 -0.00000000000E+00 -0.00000000000E+00 -0.45593999997E+02  0.45594000000E+02  0.51100000000E-03 0. -1.
    9900012    2    1    2    0    0 -0.26943962767E+02 -0.30359916818E+02 -0.23374080332E+01  0.50528866277E+02  0.30000019535E+02 0.  0.
         12    1    1    2    0    0  0.26943962767E+02  0.30359916818E+02  0.23374080332E+01  0.40659133723E+02  0.00000000000E+00 0. -1.
         11    1    3    3    0    0  0.21298008432E+01 -0.12170449515E+01  0.11795731639E+01  0.27218822817E+01  0.51100000000E-03 0. -1.
        -11    1    3    3    0    0 -0.39606578000E+01 -0.19841926884E+02  0.24172507231E+01  0.20377241570E+02  0.51100000000E-03 0.  1.
        -12    1    3    3    0    0 -0.25113105810E+02 -0.93009449826E+01 -0.59342319203E+01  0.27429742425E+02  0.00000000000E+00 0.  1.
</event>
<event>
 7    1  0.6624035E-013  0.5052885E+02  0.7816164E-02  0.1300439E+00
        -11   -1    0    0    0    0  0.00000000000E+00  0.00000000000E+00  0.45593999997E+02  0.45594000000E+02  0.51100000000E-03 0.  1.
         11   -1    0    0    0    0 -0.00000000000E+00 -0.00000000000E+00 -0.45593999997E+02  0.45594000000E+02  0.51100000000E-03 0. -1.
    9900012    2    1    2    0    0  0.26710487170E+02  0.29525142076E+02  0.82451236445E+01  0.50528853386E+02  0.29999980353E+02 0.  0.
         12    1    1    2    0    0 -0.26710487170E+02 -0.29525142076E+02 -0.82451236445E+01  0.40659146614E+02  0.00000000000E+00 0. -1.
         11    1    3    3    0    0  0.76766383186E+01  0.74332892465E+01  0.19445064244E+01  0.10861200228E+02  0.51100000000E-03 0.  1.
        -11    1    3    3    0    0  0.75513605596E+01  0.25233878694E+02  0.31150354666E+00  0.26341387871E+02  0.51100000000E-03 0. -1.
        -12    1    3    3    0    0  0.11482488292E+02 -0.31420258650E+01  0.59891136734E+01  0.13326265287E+02  0.00000000000E+00 0.  1.
</event>
<event>
 7    1  0.6624035E-013  0.5052886E+02  0.7816164E-02  0.1300439E+00
        -11   -1    0    0    0    0  0.00000000000E+00  0.00000000000E+00  0.45593999997E+02  0.45594000000E+02  0.51100000000E-03 0.  1.
         11   -1    0    0    0    0 -0.00000000000E+00 -0.00000000000E+00 -0.45593999997E+02  0.45594000000E+02  0.51100000000E-03 0. -1.
    9900012    2    1    2    0    0 -0.32581509373E+01 -0.11953589683E+02  0.38725466335E+02  0.50528860847E+02  0.30000003030E+02 0.  0.
         12    1    1    2    0    0  0.32581509373E+01  0.11953589683E+02 -0.38725466335E+02  0.40659139153E+02  0.00000000000E+00 0. -1.
         11    1    3    3    0    0 -0.52041453518E+01  0.13481777400E+00  0.16115183464E+02  0.16935183584E+02  0.51100000000E-03 0. -1.
        -11    1    3    3    0    0 -0.22511825062E+01 -0.17656791631E+02  0.17374815195E+02  0.24873968656E+02  0.51100000000E-03 0.  1.
         12    1    3    3    0    0  0.41971769206E+01  0.55683841739E+01  0.52354676756E+01  0.87197086072E+01  0.00000000000E+00 0. -1.
</event>
<event>
 7    1  0.6624035E-013  0.5052886E+02  0.7816164E-02  0.1300439E+00
        -11   -1    0    0    0    0  0.00000000000E+00  0.00000000000E+00  0.45593999997E+02  0.45594000000E+02  0.51100000000E-03 0. -1.
         11   -1    0    0    0    0 -0.00000000000E+00 -0.00000000000E+00 -0.45593999997E+02  0.45594000000E+02  0.51100000000E-03 0.  1.
    9900012    2    1    2    0    0  0.21915408664E+02  0.54128077459E+01 -0.33816889650E+02  0.50528860189E+02  0.30000001030E+02 0.  0.
         12    1    1    2    0    0 -0.21915408664E+02 -0.54128077459E+01  0.33816889650E+02  0.40659139811E+02  0.00000000000E+00 0. -1.
         11    1    3    3    0    0  0.14171948220E+02  0.32041823237E+01 -0.12445966322E+02  0.19131465669E+02  0.51100000000E-03 0. -1.
        -11    1    3    3    0    0  0.13741658407E+02  0.55965550871E+01 -0.19010357683E+02  0.24115312648E+02  0.51100000000E-03 0.  1.
        -12    1    3    3    0    0 -0.59981979628E+01 -0.33879296649E+01 -0.23605656442E+01  0.72820818710E+01  0.00000000000E+00 0.  1.
</event>
<event>
 7    1  0.6624035E-013  0.5052886E+02  0.7816164E-02  0.1300439E+00
        -11   -1    0    0    0    0  0.00000000000E+00  0.00000000000E+00  0.45593999997E+02  0.45594000000E+02  0.51100000000E-03 0.  1.
         11   -1    0    0    0    0 -0.00000000000E+00 -0.00000000000E+00 -0.45593999997E+02  0.45594000000E+02  0.51100000000E-03 0. -1.
    9900012    2    1    2    0    0  0.24388512012E+01  0.38606525556E+02  0.12520133494E+02  0.50528861379E+02  0.30000004648E+02 0.  0.
         12    1    1    2    0    0 -0.24388512012E+01 -0.38606525556E+02 -0.12520133494E+02  0.40659138621E+02  0.00000000000E+00 0. -1.
         11    1    3    3    0    0  0.41063505634E+01  0.24031965396E+02  0.43153256626E+01  0.24759230836E+02  0.51100000000E-03 0. -1.
        -11    1    3    3    0    0 -0.26986025259E+01  0.19271189560E+02  0.77278662621E+01  0.20937552862E+02  0.51100000000E-03 0.  1.
         12    1    3    3    0    0  0.10311031637E+01 -0.46966293998E+01  0.47694156902E+00  0.48320776808E+01  0.00000000000E+00 0. -1.
</event>
<event>
 7    1  0.6624035E-013  0.5052887E+02  0.7816164E-02  0.1300439E+00
        -11   -1    0    0    0    0  0.00000000000E+00  0.00000000000E+00  0.45593999997E+02  0.45594000000E+02  0.51100000000E-03 0.  1.
         11   -1    0    0    0    0 -0.00000000000E+00 -0.00000000000E+00 -0.45593999997E+02  0.45594000000E+02  0.51100000000E-03 0. -1.
    9900012    2    1    2    0    0 -0.31543509493E+02 -0.22496837922E+02 -0.12331439959E+02  0.50528866720E+02  0.30000020883E+02 0.  0.
         12    1    1    2    0    0  0.31543509493E+02  0.22496837922E+02  0.12331439959E+02  0.40659133280E+02  0.00000000000E+00 0. -1.
         11    1    3    3    0    0 -0.13106253070E+02 -0.16400634661E+02 -0.19587418921E+01  0.21085335114E+02  0.51100000000E-03 0. -1.
        -11    1    3    3    0    0 -0.58775081597E+01 -0.12192617969E+02 -0.41399806632E+01  0.14154309424E+02  0.51100000000E-03 0.  1.
         12    1    3    3    0    0 -0.12559748263E+02  0.60964147080E+01 -0.62327174035E+01  0.15289222183E+02  0.00000000000E+00 0. -1.
</event>
<event>
 7    1  0.6624035E-013  0.5052887E+02  0.7816164E-02  0.1300439E+00
        -11   -1    0    0    0    0  0.00000000000E+00  0.00000000000E+00  0.45593999997E+02  0.45594000000E+02  0.51100000000E-03 0.  1.
         11   -1    0    0    0    0 -0.00000000000E+00 -0.00000000000E+00 -0.45593999997E+02  0.45594000000E+02  0.51100000000E-03 0. -1.
    9900012    2    1    2    0    0  0.19284343617E+02 -0.20658543211E+02  0.29231894584E+02  0.50528868464E+02  0.30000026183E+02 0.  0.
         12    1    1    2    0    0 -0.19284343617E+02  0.20658543211E+02 -0.29231894584E+02  0.40659131536E+02  0.00000000000E+00 0. -1.
         11    1    3    3    0    0  0.15300871663E+02 -0.16134201850E+02  0.26404269596E+02  0.34519771090E+02  0.51100000000E-03 0. -1.
        -11    1    3    3    0    0 -0.11394868750E+00 -0.73324195038E+01  0.65256567075E+01  0.98163921992E+01  0.51100000000E-03 0.  1.
         12    1    3    3    0    0  0.40974206419E+01  0.28080781435E+01 -0.36980317197E+01  0.61927051744E+01  0.00000000000E+00 0. -1.
</event>
<event>
 7    1  0.8938228E-013  0.5052885E+02  0.7816164E-02  0.1300439E+00
        -11   -1    0    0    0    0  0.00000000000E+00  0.00000000000E+00  0.45593999997E+02  0.45594000000E+02  0.51100000000E-03 0. -1.
         11   -1    0    0    0    0 -0.00000000000E+00 -0.00000000000E+00 -0.45593999997E+02  0.45594000000E+02  0.51100000000E-03 0.  1.
    9900012    2    1    2    0    0  0.27377776793E+02 -0.81078159546E+01 -0.28946281757E+02  0.50528848887E+02  0.29999966677E+02 0.  0.
         12    1    1    2    0    0 -0.27377776793E+02  0.81078159546E+01  0.28946281757E+02  0.40659151113E+02  0.00000000000E+00 0. -1.
         11    1    3    3    0    0  0.22138575461E+01 -0.30208505833E+01 -0.95171885281E+01  0.10227589218E+02  0.51100000000E-03 0. -1.
        -11    1    3    3    0    0  0.16175084549E+02  0.11832334693E+01 -0.23548390800E+02  0.28593008082E+02  0.51100000000E-03 0.  1.
         12    1    3    3    0    0  0.89888346982E+01 -0.62701988406E+01  0.41192975719E+01  0.11708251587E+02  0.00000000000E+00 0. -1.
</event>
<event>
 7    1  0.6624035E-013  0.5052886E+02  0.7816164E-02  0.1300439E+00
        -11   -1    0    0    0    0  0.00000000000E+00  0.00000000000E+00  0.45593999997E+02  0.45594000000E+02  0.51100000000E-03 0.  1.
         11   -1    0    0    0    0 -0.00000000000E+00 -0.00000000000E+00 -0.45593999997E+02  0.45594000000E+02  0.51100000000E-03 0. -1.
    9900012    2    1    2    0    0 -0.55177999642E+01 -0.35885373987E+02  0.18301906495E+02  0.50528856330E+02  0.29999989301E+02 0.  0.
         12    1    1    2    0    0  0.55177999642E+01  0.35885373987E+02 -0.18301906495E+02  0.40659143670E+02  0.00000000000E+00 0. -1.
         11    1    3    3    0    0 -0.63453950916E+01 -0.42954886340E+01  0.61454260904E+01  0.98225008815E+01  0.51100000000E-03 0. -1.
        -11    1    3    3    0    0 -0.17870042356E+01  0.16092964316E+01 -0.32257040477E+01  0.40234793410E+01  0.51100000000E-03 0.  1.
        -12    1    3    3    0    0  0.26145993630E+01 -0.33199181785E+02  0.15382184452E+02  0.36682876108E+02  0.00000000000E+00 0.  1.
</event>
<event>
 7    1  0.6624035E-013  0.5052887E+02  0.7816164E-02  0.1300439E+00
        -11   -1    0    0    0    0  0.00000000000E+00  0.00000000000E+00  0.45593999997E+02  0.45594000000E+02  0.51100000000E-03 0.  1.
         11   -1    0    0    0    0 -0.00000000000E+00 -0.00000000000E+00 -0.45593999997E+02  0.45594000000E+02  0.51100000000E-03 0. -1.
    9900012    2    1    2    0    0  0.32507750742E+01 -0.35521719137E+02  0.19514221948E+02  0.50528869079E+02  0.30000028052E+02 0.  0.
         12    1    1    2    0    0 -0.32507750742E+01  0.35521719137E+02 -0.19514221948E+02  0.40659130921E+02  0.00000000000E+00 0. -1.
         11    1    3    3    0    0  0.83854888620E+01 -0.11324656637E+02  0.37001357949E+01  0.14568983375E+02  0.51100000000E-03 0. -1.
        -11    1    3    3    0    0  0.39640097443E+01 -0.22333894056E+02  0.88367834743E+01  0.24343478375E+02  0.51100000000E-03 0.  1.
        -12    1    3    3    0    0 -0.90987235320E+01 -0.18631684433E+01  0.69773026793E+01  0.11616407329E+02  0.00000000000E+00 0.  1.
</event>
<event>
 7    1  0.6624035E-013  0.5052886E+02  0.7816164E-02  0.1300439E+00
        -11   -1    0    0    0    0  0.00000000000E+00  0.00000000000E+00  0.45593999997E+02  0.45594000000E+02  0.51100000000E-03 0. -1.
         11   -1    0    0    0    0 -0.00000000000E+00 -0.00000000000E+00 -0.45593999997E+02  0.45594000000E+02  0.51100000000E-03 0.  1.
    9900012    2    1    2    0    0 -0.20449177932E+02  0.27271799033E+02 -0.22164066724E+02  0.50528858908E+02  0.29999997136E+02 0.  0.
         12    1    1    2    0    0  0.20449177932E+02 -0.27271799033E+02  0.22164066724E+02  0.40659141092E+02  0.00000000000E+00 0. -1.
         11    1    3    3    0    0 -0.55415472668E+01 -0.54737790319E+01 -0.27950619308E+01  0.82754682320E+01  0.51100000000E-03 0. -1.
        -11    1    3    3    0    0 -0.78927879605E+00  0.63519578061E+00 -0.36990243340E+01  0.38352595717E+01  0.51100000000E-03 0.  1.
        -12    1    3    3    0    0 -0.14118351869E+02  0.32110382284E+02 -0.15669980459E+02  0.38418131104E+02  0.00000000000E+00 0.  1.
</event>
<event>
 7    1  0.6624035E-013  0.5052886E+02  0.7816164E-02  0.1300439E+00
        -11   -1    0    0    0    0  0.00000000000E+00  0.00000000000E+00  0.45593999997E+02  0.45594000000E+02  0.51100000000E-03 0. -1.
         11   -1    0    0    0    0 -0.00000000000E+00 -0.00000000000E+00 -0.45593999997E+02  0.45594000000E+02  0.51100000000E-03 0.  1.
    9900012    2    1    2    0    0 -0.34944092543E+02  0.61005390824E+01 -0.19871066641E+02  0.50528862402E+02  0.30000007757E+02 0.  0.
         12    1    1    2    0    0  0.34944092543E+02 -0.61005390824E+01  0.19871066641E+02  0.40659137598E+02  0.00000000000E+00 0. -1.
         11    1    3    3    0    0  0.33906422569E+01  0.16476233829E+00 -0.62537016131E+01  0.71156437284E+01  0.51100000000E-03 0. -1.
        -11    1    3    3    0    0 -0.41484157281E+01 -0.86331316962E+00 -0.66230204249E+01  0.78625099359E+01  0.51100000000E-03 0.  1.
         12    1    3    3    0    0 -0.34186319072E+02  0.67990899137E+01 -0.69943446033E+01  0.35550708738E+02  0.00000000000E+00 0. -1.
</event>
<event>
 7    1  0.6624035E-013  0.5052886E+02  0.7816164E-02  0.1300439E+00
        -11   -1    0    0    0    0  0.00000000000E+00  0.00000000000E+00  0.45593999997E+02  0.45594000000E+02  0.51100000000E-03 0.  1.
         11   -1    0    0    0    0 -0.00000000000E+00 -0.00000000000E+00 -0.45593999997E+02  0.45594000000E+02  0.51100000000E-03 0. -1.
    9900012    2    1    2    0    0  0.45149960908E+01 -0.13462317397E+01  0.40385250822E+02  0.50528855721E+02  0.29999987449E+02 0.  0.
         12    1    1    2    0    0 -0.45149960908E+01  0.13462317397E+01 -0.40385250822E+02  0.40659144279E+02  0.00000000000E+00 0. -1.
         11    1    3    3    0    0  0.17548077042E+01  0.21149204046E+01  0.10508408718E+02  0.10861808894E+02  0.51100000000E-03 0. -1.
        -11    1    3    3    0    0  0.73167707839E+01 -0.16535495718E+01  0.33008472687E+02  0.33850090551E+02  0.51100000000E-03 0.  1.
         12    1    3    3    0    0 -0.45565823972E+01 -0.18076025725E+01 -0.31316305839E+01  0.58169562760E+01  0.00000000000E+00 0. -1.
</event>
<event>
 7    1  0.6640996E-013  0.5052886E+02  0.7816164E-02  0.1300439E+00
        -11   -1    0    0    0    0  0.00000000000E+00  0.00000000000E+00  0.45593999997E+02  0.45594000000E+02  0.51100000000E-03 0. -1.
         11   -1    0    0    0    0 -0.00000000000E+00 -0.00000000000E+00 -0.45593999997E+02  0.45594000000E+02  0.51100000000E-03 0.  1.
    9900012    2    1    2    0    0  0.12624719431E+02 -0.71185231883E+01 -0.37988268181E+02  0.50528862866E+02  0.30000009168E+02 0.  0.
         12    1    1    2    0    0 -0.12624719431E+02  0.71185231883E+01  0.37988268181E+02  0.40659137134E+02  0.00000000000E+00 0. -1.
         11    1    3    3    0    0  0.34692896639E+01  0.48918266731E+01 -0.12675749639E+01  0.61296562319E+01  0.51100000000E-03 0. -1.
        -11    1    3    3    0    0  0.14180636238E+02 -0.74559583666E+01 -0.16189084283E+02  0.22776483694E+02  0.51100000000E-03 0.  1.
        -12    1    3    3    0    0 -0.50252064702E+01 -0.45543914948E+01 -0.20531608934E+02  0.21622722940E+02  0.00000000000E+00 0.  1.
</event>
<event>
 7    1  0.6624035E-013  0.5052886E+02  0.7816164E-02  0.1300439E+00
        -11   -1    0    0    0    0  0.00000000000E+00  0.00000000000E+00  0.45593999997E+02  0.45594000000E+02  0.51100000000E-03 0.  1.
         11   -1    0    0    0    0 -0.00000000000E+00 -0.00000000000E+00 -0.45593999997E+02  0.45594000000E+02  0.51100000000E-03 0. -1.
    9900012    2    1    2    0    0 -0.25302388865E+02  0.12133467882E+02  0.29423349733E+02  0.50528862839E+02  0.30000009086E+02 0.  0.
         12    1    1    2    0    0  0.25302388865E+02 -0.12133467882E+02 -0.29423349733E+02  0.40659137161E+02  0.00000000000E+00 0. -1.
         11    1    3    3    0    0  0.19007369822E+01  0.91382036917E+00  0.47592107042E+01  0.52055696644E+01  0.51100000000E-03 0.  1.
        -11    1    3    3    0    0 -0.26307996316E+02  0.54859116856E+01  0.85580982458E+01  0.28203668964E+02  0.51100000000E-03 0. -1.
         12    1    3    3    0    0 -0.89512953193E+00  0.57337358272E+01  0.16106040783E+02  0.17119624211E+02  0.00000000000E+00 0. -1.
</event>
<event>
 7    1  0.6624035E-013  0.5052886E+02  0.7816164E-02  0.1300439E+00
        -11   -1    0    0    0    0  0.00000000000E+00  0.00000000000E+00  0.45593999997E+02  0.45594000000E+02  0.51100000000E-03 0. -1.
         11   -1    0    0    0    0 -0.00000000000E+00 -0.00000000000E+00 -0.45593999997E+02  0.45594000000E+02  0.51100000000E-03 0.  1.
    9900012    2    1    2    0    0  0.26251076420E+02 -0.13830711041E+02  0.27798529503E+02  0.50528858055E+02  0.29999994545E+02 0.  0.
         12    1    1    2    0    0 -0.26251076420E+02  0.13830711041E+02 -0.27798529503E+02  0.40659141945E+02  0.00000000000E+00 0. -1.
         11    1    3    3    0    0  0.53605401069E+01 -0.27371903461E+01  0.96758085679E+01  0.11395124963E+02  0.51100000000E-03 0. -1.
        -11    1    3    3    0    0  0.20051877675E+02 -0.18423812712E+02  0.15295643235E+02  0.31232537127E+02  0.51100000000E-03 0.  1.
         12    1    3    3    0    0  0.83865863785E+00  0.73302920165E+01  0.28270777006E+01  0.79011959654E+01  0.00000000000E+00 0. -1.
</event>
<event>
 7    1  0.6624035E-013  0.5052885E+02  0.7816164E-02  0.1300439E+00
        -11   -1    0    0    0    0  0.00000000000E+00  0.00000000000E+00  0.45593999997E+02  0.45594000000E+02  0.51100000000E-03 0. -1.
         11   -1    0    0    0    0 -0.00000000000E+00 -0.00000000000E+00 -0.45593999997E+02  0.45594000000E+02  0.51100000000E-03 0.  1.
    9900012    2    1    2    0    0 -0.36410501688E+02 -0.16257624423E+02  0.79455512209E+01  0.50528846428E+02  0.29999959201E+02 0.  0.
         12    1    1    2    0    0  0.36410501688E+02  0.16257624423E+02 -0.79455512209E+01  0.40659153572E+02  0.00000000000E+00 0. -1.
         11    1    3    3    0    0 -0.45614545868E+01 -0.52720976652E+01  0.78443306021E+01  0.10494541657E+02  0.51100000000E-03 0. -1.
        -11    1    3    3    0    0  0.26078301567E+01  0.15311216577E+01  0.14412997098E+01  0.33499935480E+01  0.51100000000E-03 0.  1.
        -12    1    3    3    0    0 -0.34456877257E+02 -0.12516648415E+02 -0.13400790910E+01  0.36684311222E+02  0.00000000000E+00 0.  1.
</event>
<event>
 7    1  0.6624035E-013  0.5052884E+02  0.7816164E-02  0.1300439E+00
        -11   -1    0    0    0    0  0.00000000000E+00  0.00000000000E+00  0.45593999997E+02  0.45594000000E+02  0.51100000000E-03 0.  1.
         11   -1    0    0    0    0 -0.00000000000E+00 -0.00000000000E+00 -0.45593999997E+02  0.45594000000E+02  0.51100000000E-03 0. -1.
    9900012    2    1    2    0    0 -0.18849266978E+02  0.14414520694E+02  0.33016572537E+02  0.50528839476E+02  0.29999938071E+02 0.  0.
         12    1    1    2    0    0  0.18849266978E+02 -0.14414520694E+02 -0.33016572537E+02  0.40659160524E+02  0.00000000000E+00 0. -1.
         11    1    3    3    0    0 -0.76707158399E+01  0.50197429993E+01  0.62135988587E+01  0.11074588584E+02  0.51100000000E-03 0. -1.
        -11    1    3    3    0    0 -0.17036540415E+02  0.12641626726E+02  0.15345534656E+02  0.26182816306E+02  0.51100000000E-03 0.  1.
        -12    1    3    3    0    0  0.58579892769E+01 -0.32468490315E+01  0.11457439022E+02  0.13271434585E+02  0.00000000000E+00 0.  1.
</event>
<event>
 7    1  0.6624035E-013  0.5052886E+02  0.7816164E-02  0.1300439E+00
        -11   -1    0    0    0    0  0.00000000000E+00  0.00000000000E+00  0.45593999997E+02  0.45594000000E+02  0.51100000000E-03 0.  1.
         11   -1    0    0    0    0 -0.00000000000E+00 -0.00000000000E+00 -0.45593999997E+02  0.45594000000E+02  0.51100000000E-03 0. -1.
    9900012    2    1    2    0    0 -0.14725126646E+02 -0.37755471261E+02 -0.32955719991E+01  0.50528858842E+02  0.29999996937E+02 0.  0.
         12    1    1    2    0    0  0.14725126646E+02  0.37755471261E+02  0.32955719991E+01  0.40659141158E+02  0.00000000000E+00 0. -1.
         11    1    3    3    0    0 -0.50608602466E+01 -0.12391757802E+02  0.71268152760E+01  0.15164414400E+02  0.51100000000E-03 0. -1.
        -11    1    3    3    0    0  0.41139337153E+01 -0.71076855457E+01  0.31187762002E+01  0.87846690136E+01  0.51100000000E-03 0.  1.
         12    1    3    3    0    0 -0.13778200115E+02 -0.18256027913E+02 -0.13541163475E+02  0.26579775428E+02  0.00000000000E+00 0. -1.
</event>
<event>
 7    1  0.6973432E-013  0.5052887E+02  0.7816164E-02  0.1300439E+00
        -11   -1    0    0    0    0  0.00000000000E+00  0.00000000000E+00  0.45593999997E+02  0.45594000000E+02  0.51100000000E-03 0. -1.
         11   -1    0    0    0    0 -0.00000000000E+00 -0.00000000000E+00 -0.45593999997E+02  0.45594000000E+02  0.51100000000E-03 0.  1.
    9900012    2    1    2    0    0  0.29959942313E+01  0.36451256104E+02 -0.17762170395E+02  0.50528871257E+02  0.30000034673E+02 0.  0.
         12    1    1    2    0    0 -0.29959942313E+01 -0.36451256104E+02  0.17762170395E+02  0.40659128743E+02  0.00000000000E+00 0. -1.
         11    1    3    3    0    0 -0.67431156340E+01  0.53017312614E+01 -0.10443006997E+02  0.13514227992E+02  0.51100000000E-03 0. -1.
        -11    1    3    3    0    0 -0.13125039070E+01  0.72344646739E+01 -0.77272230395E+01  0.10666307786E+02  0.51100000000E-03 0.  1.
         12    1    3    3    0    0  0.11051613772E+02  0.23915060168E+02  0.40805964137E+00  0.26348335479E+02  0.00000000000E+00 0. -1.
</event>
<event>
 7    1  0.6624035E-013  0.5052883E+02  0.7816164E-02  0.1300439E+00
        -11   -1    0    0    0    0  0.00000000000E+00  0.00000000000E+00  0.45593999997E+02  0.45594000000E+02  0.51100000000E-03 0.  1.
         11   -1    0    0    0    0 -0.00000000000E+00 -0.00000000000E+00 -0.45593999997E+02  0.45594000000E+02  0.51100000000E-03 0. -1.
    9900012    2    1    2    0    0  0.10286414560E+02 -0.24109215777E+02  0.31082199748E+02  0.50528834353E+02  0.29999922501E+02 0.  0.
         12    1    1    2    0    0 -0.10286414560E+02  0.24109215777E+02 -0.31082199748E+02  0.40659165647E+02  0.00000000000E+00 0. -1.
         11    1    3    3    0    0  0.22238671931E+01 -0.36378219839E+00  0.17889374592E+01  0.28771896487E+01  0.51100000000E-03 0. -1.
        -11    1    3    3    0    0 -0.39124393785E+01 -0.52866873053E+01  0.24185360514E+02  0.25063677065E+02  0.51100000000E-03 0.  1.
         12    1    3    3    0    0  0.11974986746E+02 -0.18458746273E+02  0.51079017744E+01  0.22587967640E+02  0.00000000000E+00 0. -1.
</event>
<event>
 7    1  0.6624035E-013  0.5052886E+02  0.7816164E-02  0.1300439E+00
        -11   -1    0    0    0    0  0.00000000000E+00  0.00000000000E+00  0.45593999997E+02  0.45594000000E+02  0.51100000000E-03 0.  1.
         11   -1    0    0    0    0 -0.00000000000E+00 -0.00000000000E+00 -0.45593999997E+02  0.45594000000E+02  0.51100000000E-03 0. -1.
    9900012    2    1    2    0    0  0.71968760374E+01 -0.21507070810E+02  0.33746359458E+02  0.50528857163E+02  0.29999991832E+02 0.  0.
         12    1    1    2    0    0 -0.71968760374E+01  0.21507070810E+02 -0.33746359458E+02  0.40659142837E+02  0.00000000000E+00 0. -1.
         11    1    3    3    0    0 -0.41328061953E+01 -0.33163764660E+00 -0.18538862279E+01  0.45416918636E+01  0.51100000000E-03 0. -1.
        -11    1    3    3    0    0  0.74066729542E+00 -0.44842590947E+00  0.14638722169E+02  0.14664305672E+02  0.51100000000E-03 0.  1.
        -12    1    3    3    0    0  0.10589014937E+02 -0.20727007254E+02  0.20961523517E+02  0.31322859627E+02  0.00000000000E+00 0.  1.
</event>
<event>
 7    1  0.6624035E-013  0.5052887E+02  0.7816164E-02  0.1300439E+00
        -11   -1    0    0    0    0  0.00000000000E+00  0.00000000000E+00  0.45593999997E+02  0.45594000000E+02  0.51100000000E-03 0.  1.
         11   -1    0    0    0    0 -0.00000000000E+00 -0.00000000000E+00 -0.45593999997E+02  0.45594000000E+02  0.51100000000E-03 0. -1.
    9900012    2    1    2    0    0  0.35238283089E+02 -0.14854356881E+02 -0.13812176536E+02  0.50528871455E+02  0.30000035274E+02 0.  0.
         12    1    1    2    0    0 -0.35238283089E+02  0.14854356881E+02  0.13812176536E+02  0.40659128545E+02  0.00000000000E+00 0. -1.
         11    1    3    3    0    0  0.58820119924E+01 -0.18367358277E+01  0.82753081746E+01  0.10317576713E+02  0.51100000000E-03 0. -1.
        -11    1    3    3    0    0  0.62768251636E+01 -0.11152369591E+01 -0.41631191378E+00  0.63887090621E+01  0.51100000000E-03 0.  1.
        -12    1    3    3    0    0  0.23079445933E+02 -0.11902384094E+02 -0.21671172797E+02  0.33822585680E+02  0.00000000000E+00 0.  1.
</event>
<event>
 7    1  0.6624035E-013  0.5052886E+02  0.7816164E-02  0.1300439E+00
        -11   -1    0    0    0    0  0.00000000000E+00  0.00000000000E+00  0.45593999997E+02  0.45594000000E+02  0.51100000000E-03 0. -1.
         11   -1    0    0    0    0 -0.00000000000E+00 -0.00000000000E+00 -0.45593999997E+02  0.45594000000E+02  0.51100000000E-03 0.  1.
    9900012    2    1    2    0    0 -0.93900177047E+01  0.36560682783E+02 -0.15109932175E+02  0.50528855784E+02  0.29999987642E+02 0.  0.
         12    1    1    2    0    0  0.93900177047E+01 -0.36560682783E+02  0.15109932175E+02  0.40659144216E+02  0.00000000000E+00 0. -1.
         11    1    3    3    0    0 -0.70850633773E+00  0.21415181946E+02  0.12916002399E+01  0.21465792100E+02  0.51100000000E-03 0. -1.
        -11    1    3    3    0    0  0.39474424660E+01  0.63685085720E+01 -0.97763248244E+01  0.12317334565E+02  0.51100000000E-03 0.  1.
        -12    1    3    3    0    0 -0.12628953833E+02  0.87769922643E+01 -0.66252075908E+01  0.16745729120E+02  0.00000000000E+00 0.  1.
</event>
<event>
 7    1  0.6624035E-013  0.5052888E+02  0.7816164E-02  0.1300439E+00
        -11   -1    0    0    0    0  0.00000000000E+00  0.00000000000E+00  0.45593999997E+02  0.45594000000E+02  0.51100000000E-03 0.  1.
         11   -1    0    0    0    0 -0.00000000000E+00 -0.00000000000E+00 -0.45593999997E+02  0.45594000000E+02  0.51100000000E-03 0. -1.
    9900012    2    1    2    0    0 -0.12640392579E+02 -0.37822741009E+02 -0.79262160687E+01  0.50528878475E+02  0.30000056614E+02 0.  0.
         12    1    1    2    0    0  0.12640392579E+02  0.37822741009E+02  0.79262160687E+01  0.40659121525E+02  0.00000000000E+00 0. -1.
         11    1    3    3    0    0 -0.66118898053E+01 -0.19984353064E+02 -0.12638345694E+02  0.24552377407E+02  0.51100000000E-03 0.  1.
        -11    1    3    3    0    0  0.43755100840E+01 -0.10589446300E+02  0.64962411536E+01  0.13171279771E+02  0.51100000000E-03 0. -1.
         12    1    3    3    0    0 -0.10404012858E+02 -0.72489416453E+01 -0.17841115280E+01  0.12805221297E+02  0.00000000000E+00 0. -1.
</event>
<event>
 7    1  0.6624035E-013  0.5052881E+02  0.7816164E-02  0.1300439E+00
        -11   -1    0    0    0    0  0.00000000000E+00  0.00000000000E+00  0.45593999997E+02  0.45594000000E+02  0.51100000000E-03 0.  1.
         11   -1    0    0    0    0 -0.00000000000E+00 -0.00000000000E+00 -0.45593999997E+02  0.45594000000E+02  0.51100000000E-03 0. -1.
    9900012    2    1    2    0    0 -0.12876552024E+02 -0.20118176832E+02  0.32903238441E+02  0.50528810006E+02  0.29999848494E+02 0.  0.
         12    1    1    2    0    0  0.12876552024E+02  0.20118176832E+02 -0.32903238441E+02  0.40659189994E+02  0.00000000000E+00 0. -1.
         11    1    3    3    0    0 -0.26618932720E+00  0.90369258938E+00 -0.21920043360E+01  0.23858751695E+01  0.51100000000E-03 0. -1.
        -11    1    3    3    0    0 -0.11830904420E+02 -0.20559467533E+02  0.15082100874E+02  0.28109282660E+02  0.51100000000E-03 0.  1.
         12    1    3    3    0    0 -0.77945827648E+00 -0.46240188927E+00  0.20013141903E+02  0.20033652177E+02  0.00000000000E+00 0. -1.
</event>
<event>
 7    1  0.6624035E-013  0.5052886E+02  0.7816164E-02  0.1300439E+00
        -11   -1    0    0    0    0  0.00000000000E+00  0.00000000000E+00  0.45593999997E+02  0.45594000000E+02  0.51100000000E-03 0. -1.
         11   -1    0    0    0    0 -0.00000000000E+00 -0.00000000000E+00 -0.45593999997E+02  0.45594000000E+02  0.51100000000E-03 0.  1.
    9900012    2    1    2    0    0  0.18503673647E+02 -0.78995634684E+01  0.35332370106E+02  0.50528863036E+02  0.30000009683E+02 0.  0.
         12    1    1    2    0    0 -0.18503673647E+02  0.78995634684E+01 -0.35332370106E+02  0.40659136964E+02  0.00000000000E+00 0. -1.
         11    1    3    3    0    0  0.13467590498E+01 -0.20577136668E+01  0.50033666285E+01  0.55750895377E+01  0.51100000000E-03 0. -1.
        -11    1    3    3    0    0  0.23893608313E+02 -0.82261331369E+01  0.27276139837E+02  0.37182813090E+02  0.51100000000E-03 0.  1.
         12    1    3    3    0    0 -0.67366937164E+01  0.23842833353E+01  0.30528636397E+01  0.77709604075E+01  0.00000000000E+00 0. -1.
</event>
<event>
 7    1  0.6624035E-013  0.5052886E+02  0.7816164E-02  0.1300439E+00
        -11   -1    0    0    0    0  0.00000000000E+00  0.00000000000E+00  0.45593999997E+02  0.45594000000E+02  0.51100000000E-03 0.  1.
         11   -1    0    0    0    0 -0.00000000000E+00 -0.00000000000E+00 -0.45593999997E+02  0.45594000000E+02  0.51100000000E-03 0. -1.
    9900012    2    1    2    0    0 -0.11401517850E+02 -0.69399333851E+01  0.38405837589E+02  0.50528860246E+02  0.30000001203E+02 0.  0.
         12    1    1    2    0    0  0.11401517850E+02  0.69399333851E+01 -0.38405837589E+02  0.40659139754E+02  0.00000000000E+00 0. -1.
         11    1    3    3    0    0 -0.16319397587E+01 -0.56227276760E+00 -0.31825327061E+00  0.17551818842E+01  0.51100000000E-03 0. -1.
        -11    1    3    3    0    0 -0.19113777936E+02 -0.30282025852E+01  0.21774584298E+02  0.29131409844E+02  0.51100000000E-03 0.  1.
         12    1    3    3    0    0  0.93441998448E+01 -0.33494580323E+01  0.16949506561E+02  0.19642268518E+02  0.00000000000E+00 0. -1.
</event>
<event>
 7    1  0.6624035E-013  0.5052886E+02  0.7816164E-02  0.1300439E+00
        -11   -1    0    0    0    0  0.00000000000E+00  0.00000000000E+00  0.45593999997E+02  0.45594000000E+02  0.51100000000E-03 0.  1.
         11   -1    0    0    0    0 -0.00000000000E+00 -0.00000000000E+00 -0.45593999997E+02  0.45594000000E+02  0.51100000000E-03 0. -1.
    9900012    2    1    2    0    0  0.33416035017E+02  0.20066829379E+02  0.11569632351E+02  0.50528862892E+02  0.30000009248E+02 0.  0.
         12    1    1    2    0    0 -0.33416035017E+02 -0.20066829379E+02 -0.11569632351E+02  0.40659137108E+02  0.00000000000E+00 0. -1.
         11    1    3    3    0    0  0.46997394507E+01 -0.14245639185E+01 -0.69349281256E+00  0.49596235548E+01  0.51100000000E-03 0. -1.
        -11    1    3    3    0    0  0.83002906040E+01  0.58597520268E+01 -0.79188228234E+01  0.12881741850E+02  0.51100000000E-03 0.  1.
        -12    1    3    3    0    0  0.20416004962E+02  0.15631641271E+02  0.20181947987E+02  0.32687497487E+02  0.00000000000E+00 0.  1.
</event>
<event>
 7    1  0.6624035E-013  0.5052886E+02  0.7816164E-02  0.1300439E+00
        -11   -1    0    0    0    0  0.00000000000E+00  0.00000000000E+00  0.45593999997E+02  0.45594000000E+02  0.51100000000E-03 0. -1.
         11   -1    0    0    0    0 -0.00000000000E+00 -0.00000000000E+00 -0.45593999997E+02  0.45594000000E+02  0.51100000000E-03 0.  1.
    9900012    2    1    2    0    0  0.19478767001E+02  0.55426920691E+01 -0.35256512227E+02  0.50528862605E+02  0.30000008374E+02 0.  0.
         12    1    1    2    0    0 -0.19478767001E+02 -0.55426920691E+01  0.35256512227E+02  0.40659137395E+02  0.00000000000E+00 0. -1.
         11    1    3    3    0    0  0.19338830821E+02  0.40281430416E+01 -0.18770023638E+02  0.27249405526E+02  0.51100000000E-03 0. -1.
        -11    1    3    3    0    0  0.13106754749E+01 -0.63407592590E+01 -0.20309633330E+01  0.67858610730E+01  0.51100000000E-03 0.  1.
         12    1    3    3    0    0 -0.11707392942E+01  0.78553082865E+01 -0.14455525257E+02  0.16493596006E+02  0.00000000000E+00 0. -1.
</event>
<event>
 7    1  0.6624035E-013  0.5052884E+02  0.7816164E-02  0.1300439E+00
        -11   -1    0    0    0    0  0.00000000000E+00  0.00000000000E+00  0.45593999997E+02  0.45594000000E+02  0.51100000000E-03 0. -1.
         11   -1    0    0    0    0 -0.00000000000E+00 -0.00000000000E+00 -0.45593999997E+02  0.45594000000E+02  0.51100000000E-03 0.  1.
    9900012    2    1    2    0    0 -0.46886033695E+01  0.97778595199E+01 -0.39186445622E+02  0.50528842866E+02  0.29999948376E+02 0.  0.
         12    1    1    2    0    0  0.46886033695E+01 -0.97778595199E+01  0.39186445622E+02  0.40659157134E+02  0.00000000000E+00 0. -1.
         11    1    3    3    0    0  0.22789048706E+01 -0.12247690092E+01  0.15039735896E+01  0.29925579952E+01  0.51100000000E-03 0. -1.
        -11    1    3    3    0    0  0.28836181620E+01 -0.49025453929E+01 -0.72117413299E+01  0.91847383362E+01  0.51100000000E-03 0.  1.
         12    1    3    3    0    0 -0.98511264021E+01  0.15905173922E+02 -0.33478677882E+02  0.38351546535E+02  0.00000000000E+00 0. -1.
</event>
<event>
 7    1  0.6624035E-013  0.5052886E+02  0.7816164E-02  0.1300439E+00
        -11   -1    0    0    0    0  0.00000000000E+00  0.00000000000E+00  0.45593999997E+02  0.45594000000E+02  0.51100000000E-03 0.  1.
         11   -1    0    0    0    0 -0.00000000000E+00 -0.00000000000E+00 -0.45593999997E+02  0.45594000000E+02  0.51100000000E-03 0. -1.
    9900012    2    1    2    0    0  0.10745005396E+02  0.31429637607E+01  0.39087493962E+02  0.50528861465E+02  0.30000004910E+02 0.  0.
         12    1    1    2    0    0 -0.10745005396E+02 -0.31429637607E+01 -0.39087493962E+02  0.40659138535E+02  0.00000000000E+00 0. -1.
         11    1    3    3    0    0  0.85116445440E+01  0.85855072583E+00  0.89898789479E+00  0.86019405769E+01  0.51100000000E-03 0. -1.
        -11    1    3    3    0    0  0.53878083413E+01  0.82760205378E+01  0.16748627438E+02  0.19443186878E+02  0.51100000000E-03 0.  1.
         12    1    3    3    0    0 -0.31544474889E+01 -0.59916075028E+01  0.21439878629E+02  0.22483734011E+02  0.00000000000E+00 0. -1.
</event>
<event>
 7    1  0.6624035E-013  0.5052886E+02  0.7816164E-02  0.1300439E+00
        -11   -1    0    0    0    0  0.00000000000E+00  0.00000000000E+00  0.45593999997E+02  0.45594000000E+02  0.51100000000E-03 0.  1.
         11   -1    0    0    0    0 -0.00000000000E+00 -0.00000000000E+00 -0.45593999997E+02  0.45594000000E+02  0.51100000000E-03 0. -1.
    9900012    2    1    2    0    0 -0.32525131477E+02 -0.24171560300E+02 -0.33191740554E+01  0.50528863003E+02  0.30000009583E+02 0.  0.
         12    1    1    2    0    0  0.32525131477E+02  0.24171560300E+02  0.33191740554E+01  0.40659136997E+02  0.00000000000E+00 0. -1.
         11    1    3    3    0    0 -0.31819609150E+02 -0.24154181028E+02 -0.46871348151E+01  0.40222894235E+02  0.51100000000E-03 0.  1.
        -11    1    3    3    0    0 -0.23184287528E+01 -0.34701668902E+00  0.54346549205E+01  0.59186997584E+01  0.51100000000E-03 0. -1.
        -12    1    3    3    0    0  0.16129064254E+01  0.32963741673E+00 -0.40666941608E+01  0.43872690094E+01  0.00000000000E+00 0.  1.
</event>
<event>
 7    1  0.6624035E-013  0.5052892E+02  0.7816164E-02  0.1300439E+00
        -11   -1    0    0    0    0  0.00000000000E+00  0.00000000000E+00  0.45593999997E+02  0.45594000000E+02  0.51100000000E-03 0.  1.
         11   -1    0    0    0    0 -0.00000000000E+00 -0.00000000000E+00 -0.45593999997E+02  0.45594000000E+02  0.51100000000E-03 0. -1.
    9900012    2    1    2    0    0 -0.19412691005E+02  0.27578508760E+02  0.22709772021E+02  0.50528923981E+02  0.30000194932E+02 0.  0.
         12    1    1    2    0    0  0.19412691005E+02 -0.27578508760E+02 -0.22709772021E+02  0.40659076019E+02  0.00000000000E+00 0. -1.
         11    1    3    3    0    0 -0.79429919405E+01  0.79993473803E+00  0.12724844707E+01  0.80839491303E+01  0.51100000000E-03 0. -1.
        -11    1    3    3    0    0 -0.12177624439E+02  0.15333752560E+02  0.23715069050E+02  0.30754235559E+02  0.51100000000E-03 0.  1.
        -12    1    3    3    0    0  0.70792537400E+00  0.11444821461E+02 -0.22777814993E+01  0.11690739291E+02  0.00000000000E+00 0.  1.
</event>
<event>
 7    1  0.6624035E-013  0.5052886E+02  0.7816164E-02  0.1300439E+00
        -11   -1    0    0    0    0  0.00000000000E+00  0.00000000000E+00  0.45593999997E+02  0.45594000000E+02  0.51100000000E-03 0.  1.
         11   -1    0    0    0    0 -0.00000000000E+00 -0.00000000000E+00 -0.45593999997E+02  0.45594000000E+02  0.51100000000E-03 0. -1.
    9900012    2    1    2    0    0  0.19417948555E+02  0.34997569834E+02  0.71609278673E+01  0.50528861933E+02  0.30000006333E+02 0.  0.
         12    1    1    2    0    0 -0.19417948555E+02 -0.34997569834E+02 -0.71609278673E+01  0.40659138067E+02  0.00000000000E+00 0. -1.
         11    1    3    3    0    0  0.97979165606E+01  0.46601283255E+00  0.25333453444E+01  0.10130852668E+02  0.51100000000E-03 0. -1.
        -11    1    3    3    0    0 -0.76540929127E+00 -0.11459263240E+01  0.28869138586E+01  0.31989483290E+01  0.51100000000E-03 0.  1.
        -12    1    3    3    0    0  0.10385441286E+02  0.35677483326E+02  0.17406686643E+01  0.37199060936E+02  0.00000000000E+00 0.  1.
</event>
<event>
 7    1  0.6624035E-013  0.5052885E+02  0.7816164E-02  0.1300439E+00
        -11   -1    0    0    0    0  0.00000000000E+00  0.00000000000E+00  0.45593999997E+02  0.45594000000E+02  0.51100000000E-03 0.  1.
         11   -1    0    0    0    0 -0.00000000000E+00 -0.00000000000E+00 -0.45593999997E+02  0.45594000000E+02  0.51100000000E-03 0. -1.
    9900012    2    1    2    0    0  0.24854063007E+02  0.32167621316E+02 -0.82835147022E+00  0.50528850043E+02  0.29999970190E+02 0.  0.
         12    1    1    2    0    0 -0.24854063007E+02 -0.32167621316E+02  0.82835147022E+00  0.40659149957E+02  0.00000000000E+00 0. -1.
         11    1    3    3    0    0  0.12308098796E+02  0.17230754658E+02 -0.91565495750E+01  0.23070123590E+02  0.51100000000E-03 0. -1.
        -11    1    3    3    0    0  0.11427631575E+01  0.12277538517E+02 -0.11638884897E+01  0.12385414662E+02  0.51100000000E-03 0.  1.
        -12    1    3    3    0    0  0.11403201053E+02  0.26593281406E+01  0.94920865945E+01  0.15073311791E+02  0.00000000000E+00 0.  1.
</event>
<event>
 7    1  0.6624035E-013  0.5052886E+02  0.7816164E-02  0.1300439E+00
        -11   -1    0    0    0    0  0.00000000000E+00  0.00000000000E+00  0.45593999997E+02  0.45594000000E+02  0.51100000000E-03 0. -1.
         11   -1    0    0    0    0 -0.00000000000E+00 -0.00000000000E+00 -0.45593999997E+02  0.45594000000E+02  0.51100000000E-03 0.  1.
    9900012    2    1    2    0    0 -0.22157461884E+02  0.70416264247E+01  0.33356074889E+02  0.50528863858E+02  0.30000012183E+02 0.  0.
         12    1    1    2    0    0  0.22157461884E+02 -0.70416264247E+01 -0.33356074889E+02  0.40659136142E+02  0.00000000000E+00 0. -1.
         11    1    3    3    0    0  0.26940460427E+01 -0.39862025706E+01  0.52264249188E+01  0.71037463853E+01  0.51100000000E-03 0. -1.
        -11    1    3    3    0    0 -0.43084300826E+01 -0.42046043790E+01  0.11319469607E+02  0.12820751156E+02  0.51100000000E-03 0.  1.
         12    1    3    3    0    0 -0.20543077844E+02  0.15232433374E+02  0.16810180363E+02  0.30604366316E+02  0.00000000000E+00 0. -1.
</event>
<event>
 7    1  0.6624035E-013  0.5052885E+02  0.7816164E-02  0.1300439E+00
        -11   -1    0    0    0    0  0.00000000000E+00  0.00000000000E+00  0.45593999997E+02  0.45594000000E+02  0.51100000000E-03 0.  1.
         11   -1    0    0    0    0 -0.00000000000E+00 -0.00000000000E+00 -0.45593999997E+02  0.45594000000E+02  0.51100000000E-03 0. -1.
    9900012    2    1    2    0    0 -0.29291904658E+02  0.24285364071E+02  0.14330814622E+02  0.50528845627E+02  0.29999956769E+02 0.  0.
         12    1    1    2    0    0  0.29291904658E+02 -0.24285364071E+02 -0.14330814622E+02  0.40659154373E+02  0.00000000000E+00 0. -1.
         11    1    3    3    0    0 -0.30272256050E+02  0.18333631277E+02  0.94933043021E+01  0.36642248143E+02  0.51100000000E-03 0.  1.
        -11    1    3    3    0    0 -0.44464291489E+01  0.57483395881E+01  0.42637619647E+01  0.84257822514E+01  0.51100000000E-03 0. -1.
         12    1    3    3    0    0  0.54267805406E+01  0.20339320587E+00  0.57374835529E+00  0.54608152328E+01  0.00000000000E+00 0. -1.
</event>
<event>
 7    1  0.6624035E-013  0.5052887E+02  0.7816164E-02  0.1300439E+00
        -11   -1    0    0    0    0  0.00000000000E+00  0.00000000000E+00  0.45593999997E+02  0.45594000000E+02  0.51100000000E-03 0. -1.
         11   -1    0    0    0    0 -0.00000000000E+00 -0.00000000000E+00 -0.45593999997E+02  0.45594000000E+02  0.51100000000E-03 0.  1.
    9900012    2    1    2    0    0 -0.33948555230E+02 -0.10814545044E+02 -0.19588412989E+02  0.50528871749E+02  0.30000036168E+02 0.  0.
         12    1    1    2    0    0  0.33948555230E+02  0.10814545044E+02  0.19588412989E+02  0.40659128251E+02  0.00000000000E+00 0. -1.
         11    1    3    3    0    0  0.11032737092E+01 -0.19638984245E+01 -0.21667478445E+01  0.31255249770E+01  0.51100000000E-03 0. -1.
        -11    1    3    3    0    0 -0.20204055824E+02 -0.13631479904E+02 -0.20081310486E+02  0.31579742672E+02  0.51100000000E-03 0.  1.
        -12    1    3    3    0    0 -0.14847773115E+02  0.47808332843E+01  0.26596453415E+01  0.15823604100E+02  0.00000000000E+00 0.  1.
</event>
<event>
 7    1  0.6624035E-013  0.5052886E+02  0.7816164E-02  0.1300439E+00
        -11   -1    0    0    0    0  0.00000000000E+00  0.00000000000E+00  0.45593999997E+02  0.45594000000E+02  0.51100000000E-03 0. -1.
         11   -1    0    0    0    0 -0.00000000000E+00 -0.00000000000E+00 -0.45593999997E+02  0.45594000000E+02  0.51100000000E-03 0.  1.
    9900012    2    1    2    0    0 -0.24084168717E+02  0.13838994927E+02 -0.29691762130E+02  0.50528859554E+02  0.29999999101E+02 0.  0.
         12    1    1    2    0    0  0.24084168717E+02 -0.13838994927E+02  0.29691762130E+02  0.40659140446E+02  0.00000000000E+00 0. -1.
         11    1    3    3    0    0 -0.78521302825E+01  0.48018547803E+01  0.45252099410E+00  0.92151253283E+01  0.51100000000E-03 0. -1.
        -11    1    3    3    0    0  0.49799955196E+01  0.15242536164E+01 -0.92006452714E+01  0.10572396991E+02  0.51100000000E-03 0.  1.
         12    1    3    3    0    0 -0.21212033954E+02  0.75128865305E+01 -0.20943637853E+02  0.30741337235E+02  0.00000000000E+00 0. -1.
</event>
<event>
 7    1  0.6624035E-013  0.5052888E+02  0.7816164E-02  0.1300439E+00
        -11   -1    0    0    0    0  0.00000000000E+00  0.00000000000E+00  0.45593999997E+02  0.45594000000E+02  0.51100000000E-03 0.  1.
         11   -1    0    0    0    0 -0.00000000000E+00 -0.00000000000E+00 -0.45593999997E+02  0.45594000000E+02  0.51100000000E-03 0. -1.
    9900012    2    1    2    0    0 -0.29207757252E+02  0.15455348625E+02  0.23689722193E+02  0.50528882666E+02  0.30000069351E+02 0.  0.
         12    1    1    2    0    0  0.29207757252E+02 -0.15455348625E+02 -0.23689722193E+02  0.40659117334E+02  0.00000000000E+00 0. -1.
         11    1    3    3    0    0 -0.13956988208E+01  0.55034507460E+01  0.21102976599E+01  0.60571694533E+01  0.51100000000E-03 0. -1.
        -11    1    3    3    0    0 -0.20921550453E+01  0.85278780475E+01 -0.25839048764E+01  0.91530531190E+01  0.51100000000E-03 0.  1.
         12    1    3    3    0    0 -0.25719903386E+02  0.14240198310E+01  0.24163329410E+02  0.35318660094E+02  0.00000000000E+00 0. -1.
</event>
<event>
 7    1  0.6624035E-013  0.5052886E+02  0.7816164E-02  0.1300439E+00
        -11   -1    0    0    0    0  0.00000000000E+00  0.00000000000E+00  0.45593999997E+02  0.45594000000E+02  0.51100000000E-03 0. -1.
         11   -1    0    0    0    0 -0.00000000000E+00 -0.00000000000E+00 -0.45593999997E+02  0.45594000000E+02  0.51100000000E-03 0.  1.
    9900012    2    1    2    0    0  0.22848946713E+00 -0.36467469835E+02 -0.17978787409E+02  0.50528863754E+02  0.30000011866E+02 0.  0.
         12    1    1    2    0    0 -0.22848946713E+00  0.36467469835E+02  0.17978787409E+02  0.40659136246E+02  0.00000000000E+00 0. -1.
         11    1    3    3    0    0 -0.35504931786E+01 -0.26992769059E+02 -0.15158499932E+02  0.31160803965E+02  0.51100000000E-03 0.  1.
        -11    1    3    3    0    0 -0.65281877511E+00 -0.87711590272E+01 -0.84309957616E+01  0.12183640377E+02  0.51100000000E-03 0. -1.
         12    1    3    3    0    0  0.44318014209E+01 -0.70354174913E+00  0.56107082855E+01  0.71844194123E+01  0.00000000000E+00 0. -1.
</event>
<event>
 7    1  0.6624035E-013  0.5052887E+02  0.7816164E-02  0.1300439E+00
        -11   -1    0    0    0    0  0.00000000000E+00  0.00000000000E+00  0.45593999997E+02  0.45594000000E+02  0.51100000000E-03 0.  1.
         11   -1    0    0    0    0 -0.00000000000E+00 -0.00000000000E+00 -0.45593999997E+02  0.45594000000E+02  0.51100000000E-03 0. -1.
    9900012    2    1    2    0    0 -0.25637301218E+02  0.55526389481E+01  0.31065450574E+02  0.50528865326E+02  0.30000016645E+02 0.  0.
         12    1    1    2    0    0  0.25637301218E+02 -0.55526389481E+01 -0.31065450574E+02  0.40659134674E+02  0.00000000000E+00 0. -1.
         11    1    3    3    0    0 -0.10506333228E+02  0.14010562279E+01  0.26371373477E+02  0.28421740548E+02  0.51100000000E-03 0.  1.
        -11    1    3    3    0    0 -0.80159182537E+00  0.43833163105E+01  0.62671379874E+01  0.76898003971E+01  0.51100000000E-03 0. -1.
        -12    1    3    3    0    0 -0.14329376165E+02 -0.23173359030E+00 -0.15730608903E+01  0.14417324380E+02  0.00000000000E+00 0.  1.
</event>
<event>
 7    1  0.6624035E-013  0.5052883E+02  0.7816164E-02  0.1300439E+00
        -11   -1    0    0    0    0  0.00000000000E+00  0.00000000000E+00  0.45593999997E+02  0.45594000000E+02  0.51100000000E-03 0. -1.
         11   -1    0    0    0    0 -0.00000000000E+00 -0.00000000000E+00 -0.45593999997E+02  0.45594000000E+02  0.51100000000E-03 0.  1.
    9900012    2    1    2    0    0 -0.36579949728E+02  0.35403158225E+01 -0.17393710730E+02  0.50528834598E+02  0.29999923243E+02 0.  0.
         12    1    1    2    0    0  0.36579949728E+02 -0.35403158225E+01  0.17393710730E+02  0.40659165402E+02  0.00000000000E+00 0. -1.
         11    1    3    3    0    0 -0.48318669493E+01 -0.15373403854E+01  0.43204532705E+00  0.50889111903E+01  0.51100000000E-03 0. -1.
        -11    1    3    3    0    0 -0.15753581191E+02 -0.10371978566E+02 -0.40826254704E+01  0.19298214703E+02  0.51100000000E-03 0.  1.
         12    1    3    3    0    0 -0.15994501588E+02  0.15449634774E+02 -0.13743130587E+02  0.26141708705E+02  0.00000000000E+00 0. -1.
</event>
<event>
 7    1  0.6624035E-013  0.5052881E+02  0.7816164E-02  0.1300439E+00
        -11   -1    0    0    0    0  0.00000000000E+00  0.00000000000E+00  0.45593999997E+02  0.45594000000E+02  0.51100000000E-03 0.  1.
         11   -1    0    0    0    0 -0.00000000000E+00 -0.00000000000E+00 -0.45593999997E+02  0.45594000000E+02  0.51100000000E-03 0. -1.
    9900012    2    1    2    0    0  0.29689417772E+02  0.20891786708E+02  0.18309590857E+02  0.50528814115E+02  0.29999860985E+02 0.  0.
         12    1    1    2    0    0 -0.29689417772E+02 -0.20891786708E+02 -0.18309590857E+02  0.40659185885E+02  0.00000000000E+00 0. -1.
         11    1    3    3    0    0  0.13086869151E+01 -0.37484193800E+01  0.41770287145E+01  0.57628880289E+01  0.51100000000E-03 0. -1.
        -11    1    3    3    0    0  0.25224034937E+02  0.96603720833E+01  0.71568929551E+01  0.27942724354E+02  0.51100000000E-03 0.  1.
         12    1    3    3    0    0  0.31566959195E+01  0.14979834004E+02  0.69756691871E+01  0.16823201733E+02  0.00000000000E+00 0. -1.
</event>
<event>
 7    1  0.6624035E-013  0.5052886E+02  0.7816164E-02  0.1300439E+00
        -11   -1    0    0    0    0  0.00000000000E+00  0.00000000000E+00  0.45593999997E+02  0.45594000000E+02  0.51100000000E-03 0.  1.
         11   -1    0    0    0    0 -0.00000000000E+00 -0.00000000000E+00 -0.45593999997E+02  0.45594000000E+02  0.51100000000E-03 0. -1.
    9900012    2    1    2    0    0 -0.39086110721E+02 -0.19895428767E+01  0.11021940263E+02  0.50528862044E+02  0.30000006668E+02 0.  0.
         12    1    1    2    0    0  0.39086110721E+02  0.19895428767E+01 -0.11021940263E+02  0.40659137956E+02  0.00000000000E+00 0. -1.
         11    1    3    3    0    0 -0.19295169614E+02  0.67664144046E+01  0.54346297466E+01  0.21157106018E+02  0.51100000000E-03 0.  1.
        -11    1    3    3    0    0 -0.13091247211E+02 -0.10703240731E+02  0.11313872378E+02  0.20345609456E+02  0.51100000000E-03 0. -1.
         12    1    3    3    0    0 -0.66996938967E+01  0.19472834496E+01 -0.57265618618E+01  0.90261465698E+01  0.00000000000E+00 0. -1.
</event>
<event>
 7    1  0.6624035E-013  0.5052884E+02  0.7816164E-02  0.1300439E+00
        -11   -1    0    0    0    0  0.00000000000E+00  0.00000000000E+00  0.45593999997E+02  0.45594000000E+02  0.51100000000E-03 0. -1.
         11   -1    0    0    0    0 -0.00000000000E+00 -0.00000000000E+00 -0.45593999997E+02  0.45594000000E+02  0.51100000000E-03 0.  1.
    9900012    2    1    2    0    0 -0.29620781695E+02  0.57877330049E+01 -0.27244792798E+02  0.50528839948E+02  0.29999939506E+02 0.  0.
         12    1    1    2    0    0  0.29620781695E+02 -0.57877330049E+01  0.27244792798E+02  0.40659160052E+02  0.00000000000E+00 0. -1.
         11    1    3    3    0    0 -0.29529630720E+01 -0.86965393303E+01 -0.80346819874E+01  0.12202700608E+02  0.51100000000E-03 0. -1.
        -11    1    3    3    0    0 -0.23253925353E+00  0.35724406924E+01  0.46920299058E+00  0.36106174974E+01  0.51100000000E-03 0.  1.
        -12    1    3    3    0    0 -0.26435279369E+02  0.10911831643E+02 -0.19679313801E+02  0.34715521843E+02  0.00000000000E+00 0.  1.
</event>
<event>
 7    1  0.6624035E-013  0.5052886E+02  0.7816164E-02  0.1300439E+00
        -11   -1    0    0    0    0  0.00000000000E+00  0.00000000000E+00  0.45593999997E+02  0.45594000000E+02  0.51100000000E-03 0.  1.
         11   -1    0    0    0    0 -0.00000000000E+00 -0.00000000000E+00 -0.45593999997E+02  0.45594000000E+02  0.51100000000E-03 0. -1.
    9900012    2    1    2    0    0  0.28208060514E+02  0.25983544262E+02  0.13502830624E+02  0.50528859758E+02  0.29999999720E+02 0.  0.
         12    1    1    2    0    0 -0.28208060514E+02 -0.25983544262E+02 -0.13502830624E+02  0.40659140242E+02  0.00000000000E+00 0. -1.
         11    1    3    3    0    0  0.53890072907E-01  0.29472065191E+01  0.13988361074E+01  0.32627707739E+01  0.51100000000E-03 0. -1.
        -11    1    3    3    0    0  0.15108101242E+02  0.36117358213E+01  0.17348322146E+02  0.23286554926E+02  0.51100000000E-03 0.  1.
         12    1    3    3    0    0  0.13046069199E+02  0.19424601922E+02 -0.52443276291E+01  0.23979534058E+02  0.00000000000E+00 0. -1.
</event>
<event>
 7    1  0.6624035E-013  0.5052891E+02  0.7816164E-02  0.1300439E+00
        -11   -1    0    0    0    0  0.00000000000E+00  0.00000000000E+00  0.45593999997E+02  0.45594000000E+02  0.51100000000E-03 0. -1.
         11   -1    0    0    0    0 -0.00000000000E+00 -0.00000000000E+00 -0.45593999997E+02  0.45594000000E+02  0.51100000000E-03 0.  1.
    9900012    2    1    2    0    0  0.23358823633E+01  0.12446940442E+02 -0.38636495594E+02  0.50528911661E+02  0.30000157484E+02 0.  0.
         12    1    1    2    0    0 -0.23358823633E+01 -0.12446940442E+02  0.38636495594E+02  0.40659088339E+02  0.00000000000E+00 0. -1.
         11    1    3    3    0    0  0.29535849272E+01  0.73966937040E+00 -0.82631421983E+00  0.31549279153E+01  0.51100000000E-03 0. -1.
        -11    1    3    3    0    0  0.62878654513E+01  0.18032646109E+02 -0.23661935466E+02  0.30407248607E+02  0.51100000000E-03 0.  1.
        -12    1    3    3    0    0 -0.69055680152E+01 -0.63253750371E+01 -0.14148245909E+02  0.16966735139E+02  0.00000000000E+00 0.  1.
</event>
<event>
 7    1  0.6624035E-013  0.5052886E+02  0.7816164E-02  0.1300439E+00
        -11   -1    0    0    0    0  0.00000000000E+00  0.00000000000E+00  0.45593999997E+02  0.45594000000E+02  0.51100000000E-03 0. -1.
         11   -1    0    0    0    0 -0.00000000000E+00 -0.00000000000E+00 -0.45593999997E+02  0.45594000000E+02  0.51100000000E-03 0.  1.
    9900012    2    1    2    0    0 -0.11627573744E+02 -0.37046070557E+02 -0.12064572951E+02  0.50528859141E+02  0.29999997846E+02 0.  0.
         12    1    1    2    0    0  0.11627573744E+02  0.37046070557E+02  0.12064572951E+02  0.40659140859E+02  0.00000000000E+00 0. -1.
         11    1    3    3    0    0  0.16224576570E+01 -0.42989141465E+00 -0.53297272241E+00  0.17610325553E+01  0.51100000000E-03 0. -1.
        -11    1    3    3    0    0  0.35631905696E+01 -0.97927481742E+01 -0.13494484809E+02  0.17049790742E+02  0.51100000000E-03 0.  1.
        -12    1    3    3    0    0 -0.16813221970E+02 -0.26823430968E+02  0.19628845798E+01  0.31718035844E+02  0.00000000000E+00 0.  1.
</event>
<event>
 7    1  0.6624035E-013  0.5052884E+02  0.7816164E-02  0.1300439E+00
        -11   -1    0    0    0    0  0.00000000000E+00  0.00000000000E+00  0.45593999997E+02  0.45594000000E+02  0.51100000000E-03 0. -1.
         11   -1    0    0    0    0 -0.00000000000E+00 -0.00000000000E+00 -0.45593999997E+02  0.45594000000E+02  0.51100000000E-03 0.  1.
    9900012    2    1    2    0    0 -0.20054243572E+02  0.69029826824E+01 -0.34689239389E+02  0.50528841320E+02  0.29999943678E+02 0.  0.
         12    1    1    2    0    0  0.20054243572E+02 -0.69029826824E+01  0.34689239389E+02  0.40659158680E+02  0.00000000000E+00 0. -1.
         11    1    3    3    0    0 -0.21489349081E+00 -0.10479484926E+01  0.13163167404E+01  0.16961914037E+01  0.51100000000E-03 0. -1.
        -11    1    3    3    0    0  0.40399115168E+00 -0.73267092466E+01 -0.55515732019E+01  0.92012956975E+01  0.51100000000E-03 0.  1.
        -12    1    3    3    0    0 -0.20243341233E+02  0.15277640422E+02 -0.30453982927E+02  0.39631354219E+02  0.00000000000E+00 0.  1.
</event>
<event>
 7    1  0.6624035E-013  0.5052886E+02  0.7816164E-02  0.1300439E+00
        -11   -1    0    0    0    0  0.00000000000E+00  0.00000000000E+00  0.45593999997E+02  0.45594000000E+02  0.51100000000E-03 0.  1.
         11   -1    0    0    0    0 -0.00000000000E+00 -0.00000000000E+00 -0.45593999997E+02  0.45594000000E+02  0.51100000000E-03 0. -1.
    9900012    2    1    2    0    0 -0.11713252899E+02  0.37909208368E+02  0.88801836794E+01  0.50528855460E+02  0.29999986656E+02 0.  0.
         12    1    1    2    0    0  0.11713252899E+02 -0.37909208368E+02 -0.88801836794E+01  0.40659144540E+02  0.00000000000E+00 0. -1.
         11    1    3    3    0    0  0.39109496147E+01  0.38409243720E+01  0.24338060503E+01  0.59976361236E+01  0.51100000000E-03 0. -1.
        -11    1    3    3    0    0  0.51872536096E+01  0.35503099927E+01 -0.20803939033E+01  0.66212038263E+01  0.51100000000E-03 0.  1.
        -12    1    3    3    0    0 -0.20811456123E+02  0.30517974003E+02  0.85267715324E+01  0.37910015510E+02  0.00000000000E+00 0.  1.
</event>
<event>
 7    1  0.6624035E-013  0.5052885E+02  0.7816164E-02  0.1300439E+00
        -11   -1    0    0    0    0  0.00000000000E+00  0.00000000000E+00  0.45593999997E+02  0.45594000000E+02  0.51100000000E-03 0.  1.
         11   -1    0    0    0    0 -0.00000000000E+00 -0.00000000000E+00 -0.45593999997E+02  0.45594000000E+02  0.51100000000E-03 0. -1.
    9900012    2    1    2    0    0  0.67715750905E+01  0.31492539384E+02  0.24809916632E+02  0.50528853067E+02  0.29999979381E+02 0.  0.
         12    1    1    2    0    0 -0.67715750905E+01 -0.31492539384E+02 -0.24809916632E+02  0.40659146933E+02  0.00000000000E+00 0. -1.
         11    1    3    3    0    0  0.12047164414E+01  0.10868378809E+02 -0.35074383474E+01  0.11483689462E+02  0.51100000000E-03 0. -1.
        -11    1    3    3    0    0  0.10408825562E+02  0.87763491587E+01  0.10955008627E+02  0.17475129997E+02  0.51100000000E-03 0.  1.
        -12    1    3    3    0    0 -0.48419669131E+01  0.11847811416E+02  0.17362346353E+02  0.21570033607E+02  0.00000000000E+00 0.  1.
</event>
<event>
 7    1  0.6624035E-013  0.5052886E+02  0.7816164E-02  0.1300439E+00
        -11   -1    0    0    0    0  0.00000000000E+00  0.00000000000E+00  0.45593999997E+02  0.45594000000E+02  0.51100000000E-03 0.  1.
         11   -1    0    0    0    0 -0.00000000000E+00 -0.00000000000E+00 -0.45593999997E+02  0.45594000000E+02  0.51100000000E-03 0. -1.
    9900012    2    1    2    0    0 -0.30003185170E+02  0.19799067365E+02  0.18999258228E+02  0.50528855861E+02  0.29999987876E+02 0.  0.
         12    1    1    2    0    0  0.30003185170E+02 -0.19799067365E+02 -0.18999258228E+02  0.40659144139E+02  0.00000000000E+00 0. -1.
         11    1    3    3    0    0  0.67081328540E-01  0.96326806998E+01  0.60215946930E+00  0.96517166171E+01  0.51100000000E-03 0. -1.
        -11    1    3    3    0    0 -0.13971112928E+02  0.88272972238E+01  0.18387040692E+02  0.24722387393E+02  0.51100000000E-03 0.  1.
        -12    1    3    3    0    0 -0.16099153570E+02  0.13390894415E+01  0.10058066086E-01  0.16154751851E+02  0.00000000000E+00 0.  1.
</event>
<event>
 7    1  0.6624035E-013  0.5052890E+02  0.7816164E-02  0.1300439E+00
        -11   -1    0    0    0    0  0.00000000000E+00  0.00000000000E+00  0.45593999997E+02  0.45594000000E+02  0.51100000000E-03 0.  1.
         11   -1    0    0    0    0 -0.00000000000E+00 -0.00000000000E+00 -0.45593999997E+02  0.45594000000E+02  0.51100000000E-03 0. -1.
    9900012    2    1    2    0    0  0.19051723088E+01 -0.27574103405E+02  0.29819484195E+02  0.50528898955E+02  0.30000118865E+02 0.  0.
         12    1    1    2    0    0 -0.19051723088E+01  0.27574103405E+02 -0.29819484195E+02  0.40659101045E+02  0.00000000000E+00 0. -1.
         11    1    3    3    0    0  0.51222746186E+01 -0.56491808581E+01 -0.77525734567E+00  0.76649830951E+01  0.51100000000E-03 0. -1.
        -11    1    3    3    0    0 -0.13439687294E+01 -0.13957052271E+02  0.33500347181E+01  0.14416251000E+02  0.51100000000E-03 0.  1.
        -12    1    3    3    0    0 -0.18731335803E+01 -0.79678702762E+01  0.27244706822E+02  0.28447664860E+02  0.00000000000E+00 0.  1.
</event>
<event>
 7    1  0.6624035E-013  0.5052886E+02  0.7816164E-02  0.1300439E+00
        -11   -1    0    0    0    0  0.00000000000E+00  0.00000000000E+00  0.45593999997E+02  0.45594000000E+02  0.51100000000E-03 0. -1.
         11   -1    0    0    0    0 -0.00000000000E+00 -0.00000000000E+00 -0.45593999997E+02  0.45594000000E+02  0.51100000000E-03 0.  1.
    9900012    2    1    2    0    0 -0.23999647439E+02 -0.24195863967E+02 -0.22175277976E+02  0.50528857564E+02  0.29999993052E+02 0.  0.
         12    1    1    2    0    0  0.23999647439E+02  0.24195863967E+02  0.22175277976E+02  0.40659142436E+02  0.00000000000E+00 0. -1.
         11    1    3    3    0    0 -0.16559470202E+01 -0.12080113900E+02 -0.29276502181E+01  0.12539635100E+02  0.51100000000E-03 0. -1.
        -11    1    3    3    0    0 -0.69035780377E+00 -0.88191732252E+01 -0.12020760247E+02  0.14924914990E+02  0.51100000000E-03 0.  1.
        -12    1    3    3    0    0 -0.21653342615E+02 -0.32965768419E+01 -0.72268675108E+01  0.23064307475E+02  0.00000000000E+00 0.  1.
</event>
<event>
 7    1  0.6624035E-013  0.5052886E+02  0.7816164E-02  0.1300439E+00
        -11   -1    0    0    0    0  0.00000000000E+00  0.00000000000E+00  0.45593999997E+02  0.45594000000E+02  0.51100000000E-03 0.  1.
         11   -1    0    0    0    0 -0.00000000000E+00 -0.00000000000E+00 -0.45593999997E+02  0.45594000000E+02  0.51100000000E-03 0. -1.
    9900012    2    1    2    0    0 -0.14364234147E+02  0.27075078726E+02  0.26716565655E+02  0.50528855998E+02  0.29999988290E+02 0.  0.
         12    1    1    2    0    0  0.14364234147E+02 -0.27075078726E+02 -0.26716565655E+02  0.40659144002E+02  0.00000000000E+00 0. -1.
         11    1    3    3    0    0 -0.12340166585E+02  0.13760985940E+02  0.60611944224E+01  0.19452057050E+02  0.51100000000E-03 0. -1.
        -11    1    3    3    0    0 -0.23269358529E+01  0.46380843793E+01 -0.29197280970E+01  0.59540968748E+01  0.51100000000E-03 0.  1.
        -12    1    3    3    0    0  0.30286829120E+00  0.86760084068E+01  0.23575099329E+02  0.25122702073E+02  0.00000000000E+00 0.  1.
</event>
<event>
 7    1  0.6624035E-013  0.5052885E+02  0.7816164E-02  0.1300439E+00
        -11   -1    0    0    0    0  0.00000000000E+00  0.00000000000E+00  0.45593999997E+02  0.45594000000E+02  0.51100000000E-03 0.  1.
         11   -1    0    0    0    0 -0.00000000000E+00 -0.00000000000E+00 -0.45593999997E+02  0.45594000000E+02  0.51100000000E-03 0. -1.
    9900012    2    1    2    0    0  0.32266761948E+01  0.37381921080E+02 -0.15663558114E+02  0.50528849545E+02  0.29999968678E+02 0.  0.
         12    1    1    2    0    0 -0.32266761948E+01 -0.37381921080E+02  0.15663558114E+02  0.40659150455E+02  0.00000000000E+00 0. -1.
         11    1    3    3    0    0  0.33718864120E+01  0.21423226468E+02  0.44739509768E+01  0.22143633123E+02  0.51100000000E-03 0. -1.
        -11    1    3    3    0    0  0.14052383113E+01 -0.10499515361E+01  0.26895139673E+00  0.17746628003E+01  0.51100000000E-03 0.  1.
         12    1    3    3    0    0 -0.15504485285E+01  0.17008646148E+02 -0.20406460488E+02  0.26610553622E+02  0.00000000000E+00 0. -1.
</event>
<event>
 7    1  0.7061761E-013  0.5052886E+02  0.7816164E-02  0.1300439E+00
        -11   -1    0    0    0    0  0.00000000000E+00  0.00000000000E+00  0.45593999997E+02  0.45594000000E+02  0.51100000000E-03 0. -1.
         11   -1    0    0    0    0 -0.00000000000E+00 -0.00000000000E+00 -0.45593999997E+02  0.45594000000E+02  0.51100000000E-03 0.  1.
    9900012    2    1    2    0    0  0.30562885334E+02  0.11501364846E+02 -0.24223832663E+02  0.50528862993E+02  0.30000009553E+02 0.  0.
         12    1    1    2    0    0 -0.30562885334E+02 -0.11501364846E+02  0.24223832663E+02  0.40659137007E+02  0.00000000000E+00 0. -1.
         11    1    3    3    0    0 -0.90907893967E+00  0.27589030995E+01 -0.67147863513E+01  0.73161688632E+01  0.51100000000E-03 0. -1.
        -11    1    3    3    0    0  0.90445655909E+01  0.95488828502E+01 -0.16011564737E+02  0.20720896119E+02  0.51100000000E-03 0.  1.
         12    1    3    3    0    0  0.22427398683E+02 -0.80642110391E+00 -0.14974815755E+01  0.22491798010E+02  0.00000000000E+00 0. -1.
</event>
<event>
 7    1  0.6624035E-013  0.5052886E+02  0.7816164E-02  0.1300439E+00
        -11   -1    0    0    0    0  0.00000000000E+00  0.00000000000E+00  0.45593999997E+02  0.45594000000E+02  0.51100000000E-03 0.  1.
         11   -1    0    0    0    0 -0.00000000000E+00 -0.00000000000E+00 -0.45593999997E+02  0.45594000000E+02  0.51100000000E-03 0. -1.
    9900012    2    1    2    0    0  0.57270435814E+01  0.11161729805E+01  0.40238300361E+02  0.50528859746E+02  0.29999999683E+02 0.  0.
         12    1    1    2    0    0 -0.57270435814E+01 -0.11161729805E+01 -0.40238300361E+02  0.40659140254E+02  0.00000000000E+00 0. -1.
         11    1    3    3    0    0  0.40554695661E+01  0.80425326372E+01  0.28424704967E+01  0.94450412073E+01  0.51100000000E-03 0. -1.
        -11    1    3    3    0    0 -0.31764395831E+01  0.34904210542E+01  0.17332063386E+02  0.17963107444E+02  0.51100000000E-03 0.  1.
        -12    1    3    3    0    0  0.48480135984E+01 -0.10416780711E+02  0.20063766478E+02  0.23120711094E+02  0.00000000000E+00 0.  1.
</event>
<event>
 7    1  0.6624035E-013  0.5052886E+02  0.7816164E-02  0.1300439E+00
        -11   -1    0    0    0    0  0.00000000000E+00  0.00000000000E+00  0.45593999997E+02  0.45594000000E+02  0.51100000000E-03 0.  1.
         11   -1    0    0    0    0 -0.00000000000E+00 -0.00000000000E+00 -0.45593999997E+02  0.45594000000E+02  0.51100000000E-03 0. -1.
    9900012    2    1    2    0    0 -0.16997434503E+02  0.25471157480E+02  0.26748322611E+02  0.50528863197E+02  0.30000010173E+02 0.  0.
         12    1    1    2    0    0  0.16997434503E+02 -0.25471157480E+02 -0.26748322611E+02  0.40659136803E+02  0.00000000000E+00 0. -1.
         11    1    3    3    0    0 -0.14448691650E+01  0.81800743537E+01  0.21386060256E+02  0.22942642325E+02  0.51100000000E-03 0. -1.
        -11    1    3    3    0    0  0.62826002827E+00 -0.63142675496E+00  0.32249321965E+01  0.33456835390E+01  0.51100000000E-03 0.  1.
        -12    1    3    3    0    0 -0.16180825366E+02  0.17922509882E+02  0.21373301590E+01  0.24240537333E+02  0.00000000000E+00 0.  1.
</event>
<event>
 7    1  0.6624035E-013  0.5052880E+02  0.7816164E-02  0.1300439E+00
        -11   -1    0    0    0    0  0.00000000000E+00  0.00000000000E+00  0.45593999997E+02  0.45594000000E+02  0.51100000000E-03 0. -1.
         11   -1    0    0    0    0 -0.00000000000E+00 -0.00000000000E+00 -0.45593999997E+02  0.45594000000E+02  0.51100000000E-03 0.  1.
    9900012    2    1    2    0    0  0.27001771785E+02  0.16297982476E+02 -0.25660298881E+02  0.50528796232E+02  0.29999806627E+02 0.  0.
         12    1    1    2    0    0 -0.27001771785E+02 -0.16297982476E+02  0.25660298881E+02  0.40659203768E+02  0.00000000000E+00 0. -1.
         11    1    3    3    0    0  0.14987480013E+02 -0.34661817129E+01 -0.90444734493E+01  0.17844928496E+02  0.51100000000E-03 0. -1.
        -11    1    3    3    0    0  0.14072369974E+02  0.13709677029E+02 -0.64578915339E+01  0.20680696416E+02  0.51100000000E-03 0.  1.
        -12    1    3    3    0    0 -0.20580782019E+01  0.60544871602E+01 -0.10157933898E+02  0.12003171320E+02  0.00000000000E+00 0.  1.
</event>
<event>
 7    1  0.6624035E-013  0.5052885E+02  0.7816164E-02  0.1300439E+00
        -11   -1    0    0    0    0  0.00000000000E+00  0.00000000000E+00  0.45593999997E+02  0.45594000000E+02  0.51100000000E-03 0.  1.
         11   -1    0    0    0    0 -0.00000000000E+00 -0.00000000000E+00 -0.45593999997E+02  0.45594000000E+02  0.51100000000E-03 0. -1.
    9900012    2    1    2    0    0 -0.32973256384E+02  0.48037723618E+01  0.23299239677E+02  0.50528850538E+02  0.29999971694E+02 0.  0.
         12    1    1    2    0    0  0.32973256384E+02 -0.48037723618E+01 -0.23299239677E+02  0.40659149462E+02  0.00000000000E+00 0. -1.
         11    1    3    3    0    0 -0.86161284404E+00  0.65904063369E+01  0.24288638973E+01  0.70763841381E+01  0.51100000000E-03 0. -1.
        -11    1    3    3    0    0 -0.29044869255E+02  0.56606979965E+01  0.19056861303E+02  0.35196759721E+02  0.51100000000E-03 0.  1.
         12    1    3    3    0    0 -0.30667742848E+01 -0.74473319716E+01  0.18135144772E+01  0.82557066789E+01  0.00000000000E+00 0. -1.
</event>
<event>
 7    1  0.6624035E-013  0.5052885E+02  0.7816164E-02  0.1300439E+00
        -11   -1    0    0    0    0  0.00000000000E+00  0.00000000000E+00  0.45593999997E+02  0.45594000000E+02  0.51100000000E-03 0.  1.
         11   -1    0    0    0    0 -0.00000000000E+00 -0.00000000000E+00 -0.45593999997E+02  0.45594000000E+02  0.51100000000E-03 0. -1.
    9900012    2    1    2    0    0  0.23497838753E+02  0.24193361109E+00  0.33180704311E+02  0.50528854700E+02  0.29999984346E+02 0.  0.
         12    1    1    2    0    0 -0.23497838753E+02 -0.24193361109E+00 -0.33180704311E+02  0.40659145300E+02  0.00000000000E+00 0. -1.
         11    1    3    3    0    0  0.13171813849E+01  0.76270964232E+01  0.79666455654E+01  0.11107430327E+02  0.51100000000E-03 0. -1.
        -11    1    3    3    0    0  0.19857867258E+02 -0.29925881973E+00  0.25043595933E+02  0.31962574136E+02  0.51100000000E-03 0.  1.
        -12    1    3    3    0    0  0.23227901099E+01 -0.70859039923E+01  0.17046281270E+00  0.74588502367E+01  0.00000000000E+00 0.  1.
</event>
<event>
 7    1  0.6722480E-013  0.5052886E+02  0.7816164E-02  0.1300439E+00
        -11   -1    0    0    0    0  0.00000000000E+00  0.00000000000E+00  0.45593999997E+02  0.45594000000E+02  0.51100000000E-03 0. -1.
         11   -1    0    0    0    0 -0.00000000000E+00 -0.00000000000E+00 -0.45593999997E+02  0.45594000000E+02  0.51100000000E-03 0.  1.
    9900012    2    1    2    0    0 -0.49307040603E+01 -0.40270564077E+02 -0.26712470218E+01  0.50528859154E+02  0.29999997886E+02 0.  0.
         12    1    1    2    0    0  0.49307040603E+01  0.40270564077E+02  0.26712470218E+01  0.40659140846E+02  0.00000000000E+00 0. -1.
         11    1    3    3    0    0  0.80741808432E+01 -0.10586793877E+02  0.37206365671E+01  0.13824461566E+02  0.51100000000E-03 0. -1.
        -11    1    3    3    0    0 -0.17299567955E+01 -0.13313738602E+02  0.43469116030E+01  0.14111839952E+02  0.51100000000E-03 0.  1.
         12    1    3    3    0    0 -0.11274928108E+02 -0.16370031599E+02 -0.10738795192E+02  0.22592557637E+02  0.00000000000E+00 0. -1.
</event>
<event>
 7    1  0.6624035E-013  0.5052885E+02  0.7816164E-02  0.1300439E+00
        -11   -1    0    0    0    0  0.00000000000E+00  0.00000000000E+00  0.45593999997E+02  0.45594000000E+02  0.51100000000E-03 0. -1.
         11   -1    0    0    0    0 -0.00000000000E+00 -0.00000000000E+00 -0.45593999997E+02  0.45594000000E+02  0.51100000000E-03 0.  1.
    9900012    2    1    2    0    0  0.34712276334E+02 -0.10788654673E+02 -0.18216182446E+02  0.50528849727E+02  0.29999969232E+02 0.  0.
         12    1    1    2    0    0 -0.34712276334E+02  0.10788654673E+02  0.18216182446E+02  0.40659150273E+02  0.00000000000E+00 0. -1.
         11    1    3    3    0    0 -0.33230627566E+01 -0.45226300213E+00  0.31551775929E+00  0.33685070320E+01  0.51100000000E-03 0. -1.
        -11    1    3    3    0    0  0.11249276492E+02  0.15935202589E+01  0.17657911549E+01  0.11497980130E+02  0.51100000000E-03 0.  1.
        -12    1    3    3    0    0  0.26786062599E+02 -0.11929911930E+02 -0.20297491361E+02  0.35662362565E+02  0.00000000000E+00 0.  1.
</event>
<event>
 7    1  0.6624035E-013  0.5052886E+02  0.7816164E-02  0.1300439E+00
        -11   -1    0    0    0    0  0.00000000000E+00  0.00000000000E+00  0.45593999997E+02  0.45594000000E+02  0.51100000000E-03 0.  1.
         11   -1    0    0    0    0 -0.00000000000E+00 -0.00000000000E+00 -0.45593999997E+02  0.45594000000E+02  0.51100000000E-03 0. -1.
    9900012    2    1    2    0    0 -0.11925447999E+02 -0.11406645840E+02  0.37159622683E+02  0.50528862808E+02  0.30000008990E+02 0.  0.
         12    1    1    2    0    0  0.11925447999E+02  0.11406645840E+02 -0.37159622683E+02  0.40659137192E+02  0.00000000000E+00 0. -1.
         11    1    3    3    0    0 -0.59488318613E-01 -0.30943022704E+00  0.94710417634E+01  0.94762818801E+01  0.51100000000E-03 0. -1.
        -11    1    3    3    0    0 -0.16441298121E+02 -0.10388619711E+02  0.30096868424E+02  0.35833799584E+02  0.51100000000E-03 0.  1.
         12    1    3    3    0    0  0.45753384414E+01 -0.70859590230E+00 -0.24082875048E+01  0.52187813436E+01  0.00000000000E+00 0. -1.
</event>
<event>
 7    1  0.1094343E-012  0.5052887E+02  0.7816164E-02  0.1300439E+00
        -11   -1    0    0    0    0  0.00000000000E+00  0.00000000000E+00  0.45593999997E+02  0.45594000000E+02  0.51100000000E-03 0. -1.
         11   -1    0    0    0    0 -0.00000000000E+00 -0.00000000000E+00 -0.45593999997E+02  0.45594000000E+02  0.51100000000E-03 0.  1.
    9900012    2    1    2    0    0  0.17308336298E+02 -0.54740953854E+01 -0.36381601990E+02  0.50528865859E+02  0.30000018266E+02 0.  0.
         12    1    1    2    0    0 -0.17308336298E+02  0.54740953854E+01  0.36381601990E+02  0.40659134141E+02  0.00000000000E+00 0. -1.
         11    1    3    3    0    0  0.69777228377E+01  0.31568613747E+01 -0.10830390266E+02  0.13264680294E+02  0.51100000000E-03 0. -1.
        -11    1    3    3    0    0  0.12485247865E+02 -0.55473334008E+00 -0.26047770634E+02  0.28890751091E+02  0.51100000000E-03 0.  1.
         12    1    3    3    0    0 -0.21546344048E+01 -0.80762234200E+01  0.49655890912E+00  0.83734344744E+01  0.00000000000E+00 0. -1.
</event>
<event>
 7    1  0.6624035E-013  0.5052887E+02  0.7816164E-02  0.1300439E+00
        -11   -1    0    0    0    0  0.00000000000E+00  0.00000000000E+00  0.45593999997E+02  0.45594000000E+02  0.51100000000E-03 0.  1.
         11   -1    0    0    0    0 -0.00000000000E+00 -0.00000000000E+00 -0.45593999997E+02  0.45594000000E+02  0.51100000000E-03 0. -1.
    9900012    2    1    2    0    0 -0.16176072887E+01 -0.29499069667E+02  0.27934800144E+02  0.50528870353E+02  0.30000031925E+02 0.  0.
         12    1    1    2    0    0  0.16176072887E+01  0.29499069667E+02 -0.27934800144E+02  0.40659129647E+02  0.00000000000E+00 0. -1.
         11    1    3    3    0    0  0.38565605944E+01 -0.80307223603E+01  0.23536164899E+00  0.89118436148E+01  0.51100000000E-03 0. -1.
        -11    1    3    3    0    0  0.54497516677E+01 -0.16809624742E+02  0.22610795189E+02  0.28696887227E+02  0.51100000000E-03 0.  1.
         12    1    3    3    0    0 -0.10923919551E+02 -0.46587225644E+01  0.50886433063E+01  0.12920139511E+02  0.00000000000E+00 0. -1.
</event>
<event>
 7    1  0.6624035E-013  0.5052878E+02  0.7816164E-02  0.1300439E+00
        -11   -1    0    0    0    0  0.00000000000E+00  0.00000000000E+00  0.45593999997E+02  0.45594000000E+02  0.51100000000E-03 0.  1.
         11   -1    0    0    0    0 -0.00000000000E+00 -0.00000000000E+00 -0.45593999997E+02  0.45594000000E+02  0.51100000000E-03 0. -1.
    9900012    2    1    2    0    0  0.15160287471E+02 -0.32396688706E+02  0.19333706496E+02  0.50528782568E+02  0.29999765091E+02 0.  0.
         12    1    1    2    0    0 -0.15160287471E+02  0.32396688706E+02 -0.19333706496E+02  0.40659217432E+02  0.00000000000E+00 0. -1.
         11    1    3    3    0    0  0.18065427117E+01 -0.15825805275E+02  0.10802323432E+02  0.19246035981E+02  0.51100000000E-03 0. -1.
        -11    1    3    3    0    0 -0.26267159261E+01 -0.12166419749E+02 -0.40047093818E+00  0.12453183661E+02  0.51100000000E-03 0.  1.
        -12    1    3    3    0    0  0.15980460686E+02 -0.44044636821E+01  0.89318540019E+01  0.18829562926E+02  0.00000000000E+00 0.  1.
</event>
<event>
 7    1  0.6624035E-013  0.5052891E+02  0.7816164E-02  0.1300439E+00
        -11   -1    0    0    0    0  0.00000000000E+00  0.00000000000E+00  0.45593999997E+02  0.45594000000E+02  0.51100000000E-03 0.  1.
         11   -1    0    0    0    0 -0.00000000000E+00 -0.00000000000E+00 -0.45593999997E+02  0.45594000000E+02  0.51100000000E-03 0. -1.
    9900012    2    1    2    0    0  0.19351950919E+02 -0.12938755707E+02  0.33335449665E+02  0.50528909897E+02  0.30000152124E+02 0.  0.
         12    1    1    2    0    0 -0.19351950919E+02  0.12938755707E+02 -0.33335449665E+02  0.40659090103E+02  0.00000000000E+00 0. -1.
         11    1    3    3    0    0 -0.47142670196E+01  0.20202986118E+01  0.50229225687E+01  0.71788349616E+01  0.51100000000E-03 0. -1.
        -11    1    3    3    0    0 -0.21415432742E+01  0.74411310795E+00  0.17196795603E+01  0.28455596925E+01  0.51100000000E-03 0.  1.
        -12    1    3    3    0    0  0.26207761213E+02 -0.15703167427E+02  0.26592847536E+02  0.40504515243E+02  0.00000000000E+00 0.  1.
</event>
<event>
 7    1  0.6624035E-013  0.5052877E+02  0.7816164E-02  0.1300439E+00
        -11   -1    0    0    0    0  0.00000000000E+00  0.00000000000E+00  0.45593999997E+02  0.45594000000E+02  0.51100000000E-03 0. -1.
         11   -1    0    0    0    0 -0.00000000000E+00 -0.00000000000E+00 -0.45593999997E+02  0.45594000000E+02  0.51100000000E-03 0.  1.
    9900012    2    1    2    0    0  0.36616255560E+02 -0.12313516252E+02 -0.12680686722E+02  0.50528773870E+02  0.29999738653E+02 0.  0.
         12    1    1    2    0    0 -0.36616255560E+02  0.12313516252E+02  0.12680686722E+02  0.40659226130E+02  0.00000000000E+00 0. -1.
         11    1    3    3    0    0  0.77992485469E+01 -0.88298359335E+00 -0.12011867320E+02  0.14348968419E+02  0.51100000000E-03 0.  1.
        -11    1    3    3    0    0  0.60778603667E+01 -0.59659591281E+01 -0.79861327539E+01  0.11675246104E+02  0.51100000000E-03 0. -1.
        -12    1    3    3    0    0  0.22739146647E+02 -0.54645735310E+01  0.73173133517E+01  0.24504559347E+02  0.00000000000E+00 0.  1.
</event>
<event>
 7    1  0.6624035E-013  0.5052885E+02  0.7816164E-02  0.1300439E+00
        -11   -1    0    0    0    0  0.00000000000E+00  0.00000000000E+00  0.45593999997E+02  0.45594000000E+02  0.51100000000E-03 0. -1.
         11   -1    0    0    0    0 -0.00000000000E+00 -0.00000000000E+00 -0.45593999997E+02  0.45594000000E+02  0.51100000000E-03 0.  1.
    9900012    2    1    2    0    0 -0.32800794589E+02  0.23854565817E+02 -0.28694425320E+01  0.50528854209E+02  0.29999982855E+02 0.  0.
         12    1    1    2    0    0  0.32800794589E+02 -0.23854565817E+02  0.28694425320E+01  0.40659145791E+02  0.00000000000E+00 0. -1.
         11    1    3    3    0    0 -0.73368199812E+01  0.73303655834E+01  0.62578574455E+00  0.10390129695E+02  0.51100000000E-03 0. -1.
        -11    1    3    3    0    0 -0.21473233031E+02  0.11004151034E+02  0.91259547650E+01  0.25796785215E+02  0.51100000000E-03 0.  1.
        -12    1    3    3    0    0 -0.39907415762E+01  0.55200491991E+01 -0.12621183042E+02  0.14341939299E+02  0.00000000000E+00 0.  1.
</event>
<event>
 7    1  0.6624035E-013  0.5052886E+02  0.7816164E-02  0.1300439E+00
        -11   -1    0    0    0    0  0.00000000000E+00  0.00000000000E+00  0.45593999997E+02  0.45594000000E+02  0.51100000000E-03 0.  1.
         11   -1    0    0    0    0 -0.00000000000E+00 -0.00000000000E+00 -0.45593999997E+02  0.45594000000E+02  0.51100000000E-03 0. -1.
    9900012    2    1    2    0    0  0.24573464864E+01  0.25522545846E+02  0.31555142023E+02  0.50528857285E+02  0.29999992204E+02 0.  0.
         12    1    1    2    0    0 -0.24573464864E+01 -0.25522545846E+02 -0.31555142023E+02  0.40659142715E+02  0.00000000000E+00 0. -1.
         11    1    3    3    0    0  0.50332947783E+01 -0.17946740186E+01  0.64446571841E+01  0.83718885348E+01  0.51100000000E-03 0. -1.
        -11    1    3    3    0    0  0.53006381448E+01  0.99660636057E-01  0.22878636206E+01  0.57741680952E+01  0.51100000000E-03 0.  1.
        -12    1    3    3    0    0 -0.78765864367E+01  0.27217559228E+02  0.22822621219E+02  0.36382800655E+02  0.00000000000E+00 0.  1.
</event>
<event>
 7    1  0.6624035E-013  0.5052886E+02  0.7816164E-02  0.1300439E+00
        -11   -1    0    0    0    0  0.00000000000E+00  0.00000000000E+00  0.45593999997E+02  0.45594000000E+02  0.51100000000E-03 0. -1.
         11   -1    0    0    0    0 -0.00000000000E+00 -0.00000000000E+00 -0.45593999997E+02  0.45594000000E+02  0.51100000000E-03 0.  1.
    9900012    2    1    2    0    0  0.16832748918E+02 -0.36209284738E+02 -0.76623765706E+01  0.50528858935E+02  0.29999997220E+02 0.  0.
         12    1    1    2    0    0 -0.16832748918E+02  0.36209284738E+02  0.76623765706E+01  0.40659141065E+02  0.00000000000E+00 0. -1.
         11    1    3    3    0    0  0.37597580611E+01 -0.14470546931E+02  0.15978005094E+01  0.15036138995E+02  0.51100000000E-03 0. -1.
        -11    1    3    3    0    0  0.46208721871E+01 -0.18727505532E+02 -0.15347708977E+02  0.24650032339E+02  0.51100000000E-03 0.  1.
         12    1    3    3    0    0  0.84521186700E+01 -0.30112322759E+01  0.60875318968E+01  0.10842687602E+02  0.00000000000E+00 0. -1.
</event>
<event>
 7    1  0.6624035E-013  0.5052885E+02  0.7816164E-02  0.1300439E+00
        -11   -1    0    0    0    0  0.00000000000E+00  0.00000000000E+00  0.45593999997E+02  0.45594000000E+02  0.51100000000E-03 0.  1.
         11   -1    0    0    0    0 -0.00000000000E+00 -0.00000000000E+00 -0.45593999997E+02  0.45594000000E+02  0.51100000000E-03 0. -1.
    9900012    2    1    2    0    0  0.35753005562E+02 -0.14131411359E+02  0.13236018828E+02  0.50528851114E+02  0.29999973447E+02 0.  0.
         12    1    1    2    0    0 -0.35753005562E+02  0.14131411359E+02 -0.13236018828E+02  0.40659148886E+02  0.00000000000E+00 0. -1.
         11    1    3    3    0    0  0.24927296677E+01  0.12870870032E+01 -0.44886809444E+00  0.28410872878E+01  0.51100000000E-03 0. -1.
        -11    1    3    3    0    0  0.33921665611E+02 -0.11244983132E+02  0.26076794661E+01  0.35831955513E+02  0.51100000000E-03 0.  1.
         12    1    3    3    0    0 -0.66138971652E+00 -0.41735152302E+01  0.11077207456E+02  0.11855808313E+02  0.00000000000E+00 0. -1.
</event>
<event>
 7    1  0.6624035E-013  0.5052886E+02  0.7816164E-02  0.1300439E+00
        -11   -1    0    0    0    0  0.00000000000E+00  0.00000000000E+00  0.45593999997E+02  0.45594000000E+02  0.51100000000E-03 0. -1.
         11   -1    0    0    0    0 -0.00000000000E+00 -0.00000000000E+00 -0.45593999997E+02  0.45594000000E+02  0.51100000000E-03 0.  1.
    9900012    2    1    2    0    0 -0.35127198711E+02  0.12732623690E+02 -0.16035136461E+02  0.50528863307E+02  0.30000010508E+02 0.  0.
         12    1    1    2    0    0  0.35127198711E+02 -0.12732623690E+02  0.16035136461E+02  0.40659136693E+02  0.00000000000E+00 0. -1.
         11    1    3    3    0    0 -0.13668823333E+02  0.12408134936E+01 -0.59387367868E+01  0.14954763265E+02  0.51100000000E-03 0. -1.
        -11    1    3    3    0    0 -0.20588513726E+02  0.55137247940E+01 -0.16362321483E+02  0.26870311184E+02  0.51100000000E-03 0.  1.
         12    1    3    3    0    0 -0.86986165174E+00  0.59780854026E+01  0.62659218086E+01  0.87037888580E+01  0.00000000000E+00 0. -1.
</event>
<event>
 7    1  0.6624035E-013  0.5052886E+02  0.7816164E-02  0.1300439E+00
        -11   -1    0    0    0    0  0.00000000000E+00  0.00000000000E+00  0.45593999997E+02  0.45594000000E+02  0.51100000000E-03 0.  1.
         11   -1    0    0    0    0 -0.00000000000E+00 -0.00000000000E+00 -0.45593999997E+02  0.45594000000E+02  0.51100000000E-03 0. -1.
    9900012    2    1    2    0    0 -0.12970627606E+02 -0.37291465783E+02  0.97095521518E+01  0.50528855841E+02  0.29999987815E+02 0.  0.
         12    1    1    2    0    0  0.12970627606E+02  0.37291465783E+02 -0.97095521518E+01  0.40659144159E+02  0.00000000000E+00 0. -1.
         11    1    3    3    0    0  0.14123956476E+01 -0.36495739545E+01 -0.41197425124E+01  0.56821237354E+01  0.51100000000E-03 0. -1.
        -11    1    3    3    0    0  0.13923817331E+01 -0.17028289155E+02 -0.16998792236E+01  0.17169477222E+02  0.51100000000E-03 0.  1.
        -12    1    3    3    0    0 -0.15775404987E+02 -0.16613602674E+02  0.15529173888E+02  0.27677254884E+02  0.00000000000E+00 0.  1.
</event>
<event>
 7    1  0.6624035E-013  0.5052885E+02  0.7816164E-02  0.1300439E+00
        -11   -1    0    0    0    0  0.00000000000E+00  0.00000000000E+00  0.45593999997E+02  0.45594000000E+02  0.51100000000E-03 0.  1.
         11   -1    0    0    0    0 -0.00000000000E+00 -0.00000000000E+00 -0.45593999997E+02  0.45594000000E+02  0.51100000000E-03 0. -1.
    9900012    2    1    2    0    0 -0.38768221200E+02 -0.11304814502E+02  0.47320828751E+01  0.50528850793E+02  0.29999972470E+02 0.  0.
         12    1    1    2    0    0  0.38768221200E+02  0.11304814502E+02 -0.47320828751E+01  0.40659149207E+02  0.00000000000E+00 0. -1.
         11    1    3    3    0    0 -0.61396886014E+01  0.39449902893E+01 -0.21434556730E+00  0.73010046424E+01  0.51100000000E-03 0. -1.
        -11    1    3    3    0    0 -0.15967629482E+02  0.26489625122E+01  0.88779316776E+01  0.18460765553E+02  0.51100000000E-03 0.  1.
        -12    1    3    3    0    0 -0.16660903117E+02 -0.17898767304E+02 -0.39315032352E+01  0.24767080598E+02  0.00000000000E+00 0.  1.
</event>
<event>
 7    1  0.6624035E-013  0.5052886E+02  0.7816164E-02  0.1300439E+00
        -11   -1    0    0    0    0  0.00000000000E+00  0.00000000000E+00  0.45593999997E+02  0.45594000000E+02  0.51100000000E-03 0.  1.
         11   -1    0    0    0    0 -0.00000000000E+00 -0.00000000000E+00 -0.45593999997E+02  0.45594000000E+02  0.51100000000E-03 0. -1.
    9900012    2    1    2    0    0  0.61042308008E+01  0.36168711179E+02  0.17542190399E+02  0.50528859010E+02  0.29999997448E+02 0.  0.
         12    1    1    2    0    0 -0.61042308008E+01 -0.36168711179E+02 -0.17542190399E+02  0.40659140990E+02  0.00000000000E+00 0. -1.
         11    1    3    3    0    0 -0.16356458605E+01  0.24249422991E+02  0.19477264631E+01  0.24382442278E+02  0.51100000000E-03 0. -1.
        -11    1    3    3    0    0  0.69916193787E+01  0.13872872560E+00  0.53712473634E+00  0.70135932617E+01  0.51100000000E-03 0.  1.
         12    1    3    3    0    0  0.74825728254E+00  0.11780559462E+02  0.15057339200E+02  0.19132823471E+02  0.00000000000E+00 0. -1.
</event>
<event>
 7    1  0.6624035E-013  0.5052896E+02  0.7816164E-02  0.1300438E+00
        -11   -1    0    0    0    0  0.00000000000E+00  0.00000000000E+00  0.45593999997E+02  0.45594000000E+02  0.51100000000E-03 0.  1.
         11   -1    0    0    0    0 -0.00000000000E+00 -0.00000000000E+00 -0.45593999997E+02  0.45594000000E+02  0.51100000000E-03 0. -1.
    9900012    2    1    2    0    0 -0.34301717658E+02 -0.20752272536E+02 -0.67744034254E+01  0.50528964209E+02  0.30000317209E+02 0.  0.
         12    1    1    2    0    0  0.34301717658E+02  0.20752272536E+02  0.67744034254E+01  0.40659035791E+02  0.00000000000E+00 0. -1.
         11    1    3    3    0    0 -0.48082494111E+01  0.72791994546E+01  0.46131228813E+00  0.87360641245E+01  0.51100000000E-03 0. -1.
        -11    1    3    3    0    0 -0.12454086273E+02 -0.77650440340E+01 -0.29641278544E+01  0.14972849693E+02  0.51100000000E-03 0.  1.
        -12    1    3    3    0    0 -0.17039381974E+02 -0.20266427957E+02 -0.42715878591E+01  0.26820050391E+02  0.00000000000E+00 0.  1.
</event>
<event>
 7    1  0.6624035E-013  0.5052886E+02  0.7816164E-02  0.1300439E+00
        -11   -1    0    0    0    0  0.00000000000E+00  0.00000000000E+00  0.45593999997E+02  0.45594000000E+02  0.51100000000E-03 0.  1.
         11   -1    0    0    0    0 -0.00000000000E+00 -0.00000000000E+00 -0.45593999997E+02  0.45594000000E+02  0.51100000000E-03 0. -1.
    9900012    2    1    2    0    0 -0.19550435351E+02 -0.35646211483E+02 -0.54189138639E+00  0.50528861276E+02  0.30000004335E+02 0.  0.
         12    1    1    2    0    0  0.19550435351E+02  0.35646211483E+02  0.54189138639E+00  0.40659138724E+02  0.00000000000E+00 0. -1.
         11    1    3    3    0    0 -0.10789862029E+02 -0.38419430460E+01 -0.47433771117E+00  0.11463273768E+02  0.51100000000E-03 0. -1.
        -11    1    3    3    0    0 -0.52086192123E+01 -0.32230177950E+01  0.71090363049E+01  0.93838134706E+01  0.51100000000E-03 0.  1.
        -12    1    3    3    0    0 -0.35519541096E+01 -0.28581250642E+02 -0.71765899801E+01  0.29681774037E+02  0.00000000000E+00 0.  1.
</event>
<event>
 7    1  0.6624035E-013  0.5052886E+02  0.7816164E-02  0.1300439E+00
        -11   -1    0    0    0    0  0.00000000000E+00  0.00000000000E+00  0.45593999997E+02  0.45594000000E+02  0.51100000000E-03 0.  1.
         11   -1    0    0    0    0 -0.00000000000E+00 -0.00000000000E+00 -0.45593999997E+02  0.45594000000E+02  0.51100000000E-03 0. -1.
    9900012    2    1    2    0    0 -0.38040298965E+01  0.37581660189E+02  0.15043729584E+02  0.50528860488E+02  0.30000001941E+02 0.  0.
         12    1    1    2    0    0  0.38040298965E+01 -0.37581660189E+02 -0.15043729584E+02  0.40659139512E+02  0.00000000000E+00 0. -1.
         11    1    3    3    0    0 -0.11895098217E-01  0.25820476911E+01 -0.35403504477E+01  0.43819166271E+01  0.51100000000E-03 0. -1.
        -11    1    3    3    0    0  0.13817961623E+01  0.82948159716E+01  0.16920313817E+02  0.18894717583E+02  0.51100000000E-03 0.  1.
         12    1    3    3    0    0 -0.51739309606E+01  0.26704796526E+02  0.16637662152E+01  0.27252226278E+02  0.00000000000E+00 0. -1.
</event>
<event>
 7    1  0.6624035E-013  0.5052887E+02  0.7816164E-02  0.1300439E+00
        -11   -1    0    0    0    0  0.00000000000E+00  0.00000000000E+00  0.45593999997E+02  0.45594000000E+02  0.51100000000E-03 0.  1.
         11   -1    0    0    0    0 -0.00000000000E+00 -0.00000000000E+00 -0.45593999997E+02  0.45594000000E+02  0.51100000000E-03 0. -1.
    9900012    2    1    2    0    0  0.11104726640E+02  0.31327208972E+02 -0.23419139564E+02  0.50528867278E+02  0.30000022580E+02 0.  0.
         12    1    1    2    0    0 -0.11104726640E+02 -0.31327208972E+02  0.23419139564E+02  0.40659132722E+02  0.00000000000E+00 0. -1.
         11    1    3    3    0    0  0.42046027660E+01  0.73889626384E+00 -0.17462218320E+02  0.17976476881E+02  0.51100000000E-03 0. -1.
        -11    1    3    3    0    0  0.57563324770E+00  0.41929842033E+01 -0.31282795042E+01  0.52629462359E+01  0.51100000000E-03 0.  1.
         12    1    3    3    0    0  0.63244906267E+01  0.26395328505E+02 -0.28286417396E+01  0.27289444162E+02  0.00000000000E+00 0. -1.
</event>
<event>
 7    1  0.6624035E-013  0.5052886E+02  0.7816164E-02  0.1300439E+00
        -11   -1    0    0    0    0  0.00000000000E+00  0.00000000000E+00  0.45593999997E+02  0.45594000000E+02  0.51100000000E-03 0. -1.
         11   -1    0    0    0    0 -0.00000000000E+00 -0.00000000000E+00 -0.45593999997E+02  0.45594000000E+02  0.51100000000E-03 0.  1.
    9900012    2    1    2    0    0  0.13211301237E+02 -0.11229965380E+02 -0.36776554319E+02  0.50528861416E+02  0.30000004761E+02 0.  0.
         12    1    1    2    0    0 -0.13211301237E+02  0.11229965380E+02  0.36776554319E+02  0.40659138584E+02  0.00000000000E+00 0. -1.
         11    1    3    3    0    0  0.13529384268E+01 -0.27953471689E+01  0.26883181477E+01  0.41074886373E+01  0.51100000000E-03 0. -1.
        -11    1    3    3    0    0 -0.41654892876E+01 -0.50265039988E+01 -0.48730032457E+01  0.81463614177E+01  0.51100000000E-03 0.  1.
         12    1    3    3    0    0  0.16023852097E+02 -0.34081142125E+01 -0.34591869221E+02  0.38275011361E+02  0.00000000000E+00 0. -1.
</event>
<event>
 7    1  0.6624035E-013  0.5052886E+02  0.7816164E-02  0.1300439E+00
        -11   -1    0    0    0    0  0.00000000000E+00  0.00000000000E+00  0.45593999997E+02  0.45594000000E+02  0.51100000000E-03 0.  1.
         11   -1    0    0    0    0 -0.00000000000E+00 -0.00000000000E+00 -0.45593999997E+02  0.45594000000E+02  0.51100000000E-03 0. -1.
    9900012    2    1    2    0    0  0.29130204509E+02  0.14532506089E+02  0.24359866181E+02  0.50528860458E+02  0.30000001848E+02 0.  0.
         12    1    1    2    0    0 -0.29130204509E+02 -0.14532506089E+02 -0.24359866181E+02  0.40659139542E+02  0.00000000000E+00 0. -1.
         11    1    3    3    0    0  0.89309060805E+01  0.13108013618E+02  0.87034540369E+01  0.18092297169E+02  0.51100000000E-03 0. -1.
        -11    1    3    3    0    0  0.34235751368E+01  0.85593907682E+01  0.93919666735E+01  0.13160284013E+02  0.51100000000E-03 0.  1.
         12    1    3    3    0    0  0.16775723291E+02 -0.71348982973E+01  0.62644454709E+01  0.19276279276E+02  0.00000000000E+00 0. -1.
</event>
<event>
 7    1  0.6624035E-013  0.5052891E+02  0.7816164E-02  0.1300439E+00
        -11   -1    0    0    0    0  0.00000000000E+00  0.00000000000E+00  0.45593999997E+02  0.45594000000E+02  0.51100000000E-03 0.  1.
         11   -1    0    0    0    0 -0.00000000000E+00 -0.00000000000E+00 -0.45593999997E+02  0.45594000000E+02  0.51100000000E-03 0. -1.
    9900012    2    1    2    0    0  0.13132802894E+02 -0.25920837852E+02  0.28439425745E+02  0.50528913887E+02  0.30000164251E+02 0.  0.
         12    1    1    2    0    0 -0.13132802894E+02  0.25920837852E+02 -0.28439425745E+02  0.40659086113E+02  0.00000000000E+00 0. -1.
         11    1    3    3    0    0  0.77428948204E+01  0.28809272281E+01  0.29755880661E+01  0.87810185340E+01  0.51100000000E-03 0. -1.
        -11    1    3    3    0    0 -0.41656209963E+01 -0.51906123023E+01  0.97975110602E+01  0.11844242382E+02  0.51100000000E-03 0.  1.
         12    1    3    3    0    0  0.95555290700E+01 -0.23611152778E+02  0.15666326619E+02  0.29903652972E+02  0.00000000000E+00 0. -1.
</event>
<event>
 7    1  0.6624035E-013  0.5052885E+02  0.7816164E-02  0.1300439E+00
        -11   -1    0    0    0    0  0.00000000000E+00  0.00000000000E+00  0.45593999997E+02  0.45594000000E+02  0.51100000000E-03 0.  1.
         11   -1    0    0    0    0 -0.00000000000E+00 -0.00000000000E+00 -0.45593999997E+02  0.45594000000E+02  0.51100000000E-03 0. -1.
    9900012    2    1    2    0    0  0.57500409465E+01 -0.31501867051E+02  0.25054650362E+02  0.50528854616E+02  0.29999984090E+02 0.  0.
         12    1    1    2    0    0 -0.57500409465E+01  0.31501867051E+02 -0.25054650362E+02  0.40659145384E+02  0.00000000000E+00 0. -1.
         11    1    3    3    0    0  0.79266389773E+01 -0.20015964016E+01  0.74126623952E+01  0.11035649400E+02  0.51100000000E-03 0. -1.
        -11    1    3    3    0    0  0.66204044397E+00  0.14615364475E+01  0.61336368405E+01  0.63400226726E+01  0.51100000000E-03 0.  1.
        -12    1    3    3    0    0 -0.28386384748E+01 -0.30961807097E+02  0.11508351127E+02  0.33153182543E+02  0.00000000000E+00 0.  1.
</event>
<event>
 7    1  0.6624035E-013  0.5052885E+02  0.7816164E-02  0.1300439E+00
        -11   -1    0    0    0    0  0.00000000000E+00  0.00000000000E+00  0.45593999997E+02  0.45594000000E+02  0.51100000000E-03 0.  1.
         11   -1    0    0    0    0 -0.00000000000E+00 -0.00000000000E+00 -0.45593999997E+02  0.45594000000E+02  0.51100000000E-03 0. -1.
    9900012    2    1    2    0    0 -0.13745709763E+02  0.38010141476E+02  0.44102929721E+01  0.50528854952E+02  0.29999985113E+02 0.  0.
         12    1    1    2    0    0  0.13745709763E+02 -0.38010141476E+02 -0.44102929721E+01  0.40659145048E+02  0.00000000000E+00 0. -1.
         11    1    3    3    0    0  0.37708298747E+01  0.12126297865E+02  0.32433262802E+01  0.13106693843E+02  0.51100000000E-03 0. -1.
        -11    1    3    3    0    0 -0.30380632682E+01  0.11019219552E+02  0.96943936613E+01  0.14987804932E+02  0.51100000000E-03 0.  1.
         12    1    3    3    0    0 -0.14478476369E+02  0.14864624058E+02 -0.85274269694E+01  0.22434356177E+02  0.00000000000E+00 0. -1.
</event>
<event>
 7    1  0.6624035E-013  0.5052886E+02  0.7816164E-02  0.1300439E+00
        -11   -1    0    0    0    0  0.00000000000E+00  0.00000000000E+00  0.45593999997E+02  0.45594000000E+02  0.51100000000E-03 0. -1.
         11   -1    0    0    0    0 -0.00000000000E+00 -0.00000000000E+00 -0.45593999997E+02  0.45594000000E+02  0.51100000000E-03 0.  1.
    9900012    2    1    2    0    0 -0.80930610336E+01 -0.30361838430E+02 -0.25803624522E+02  0.50528857016E+02  0.29999991386E+02 0.  0.
         12    1    1    2    0    0  0.80930610336E+01  0.30361838430E+02  0.25803624522E+02  0.40659142984E+02  0.00000000000E+00 0. -1.
         11    1    3    3    0    0 -0.10921198340E+02 -0.56240353965E+01 -0.47529264387E+01  0.13171661145E+02  0.51100000000E-03 0. -1.
        -11    1    3    3    0    0  0.44720987134E+01 -0.38465659590E+00 -0.91724409533E+01  0.10211821625E+02  0.51100000000E-03 0.  1.
        -12    1    3    3    0    0 -0.16439614070E+01 -0.24353146437E+02 -0.11878257130E+02  0.27145374246E+02  0.00000000000E+00 0.  1.
</event>
<event>
 7    1  0.6624035E-013  0.5052886E+02  0.7816164E-02  0.1300439E+00
        -11   -1    0    0    0    0  0.00000000000E+00  0.00000000000E+00  0.45593999997E+02  0.45594000000E+02  0.51100000000E-03 0.  1.
         11   -1    0    0    0    0 -0.00000000000E+00 -0.00000000000E+00 -0.45593999997E+02  0.45594000000E+02  0.51100000000E-03 0. -1.
    9900012    2    1    2    0    0  0.66629977792E+01 -0.46984454847E+01  0.39833336107E+02  0.50528860870E+02  0.30000003102E+02 0.  0.
         12    1    1    2    0    0 -0.66629977792E+01  0.46984454847E+01 -0.39833336107E+02  0.40659139130E+02  0.00000000000E+00 0. -1.
         11    1    3    3    0    0  0.72746881711E+01  0.59305732298E+01  0.48509407913E+01  0.10565245555E+02  0.51100000000E-03 0. -1.
        -11    1    3    3    0    0 -0.71386974576E+01 -0.16594476504E+01  0.83320426670E+01  0.11096742908E+02  0.51100000000E-03 0.  1.
        -12    1    3    3    0    0  0.65270070658E+01 -0.89695710641E+01  0.26650352648E+02  0.28866872407E+02  0.00000000000E+00 0.  1.
</event>
<event>
 7    1  0.6624035E-013  0.5052886E+02  0.7816164E-02  0.1300439E+00
        -11   -1    0    0    0    0  0.00000000000E+00  0.00000000000E+00  0.45593999997E+02  0.45594000000E+02  0.51100000000E-03 0. -1.
         11   -1    0    0    0    0 -0.00000000000E+00 -0.00000000000E+00 -0.45593999997E+02  0.45594000000E+02  0.51100000000E-03 0.  1.
    9900012    2    1    2    0    0  0.16678576384E+02 -0.31340344006E+02 -0.19818509442E+02  0.50528863400E+02  0.30000010790E+02 0.  0.
         12    1    1    2    0    0 -0.16678576384E+02  0.31340344006E+02  0.19818509442E+02  0.40659136600E+02  0.00000000000E+00 0. -1.
         11    1    3    3    0    0 -0.88058132562E-01 -0.11929349644E+00  0.18859341299E+01  0.18917539419E+01  0.51100000000E-03 0. -1.
        -11    1    3    3    0    0  0.32027289364E+01 -0.15898894218E+01  0.52459969179E+01  0.63486774164E+01  0.51100000000E-03 0.  1.
        -12    1    3    3    0    0  0.13563905580E+02 -0.29631161087E+02 -0.26950440490E+02  0.42288432042E+02  0.00000000000E+00 0.  1.
</event>
<event>
 7    1  0.6624035E-013  0.5052886E+02  0.7816164E-02  0.1300439E+00
        -11   -1    0    0    0    0  0.00000000000E+00  0.00000000000E+00  0.45593999997E+02  0.45594000000E+02  0.51100000000E-03 0.  1.
         11   -1    0    0    0    0 -0.00000000000E+00 -0.00000000000E+00 -0.45593999997E+02  0.45594000000E+02  0.51100000000E-03 0. -1.
    9900012    2    1    2    0    0  0.10769041868E+02 -0.34829447652E+02  0.18002871420E+02  0.50528855077E+02  0.29999985493E+02 0.  0.
         12    1    1    2    0    0 -0.10769041868E+02  0.34829447652E+02 -0.18002871420E+02  0.40659144923E+02  0.00000000000E+00 0. -1.
         11    1    3    3    0    0 -0.24044727550E+01 -0.17633148899E+02  0.67689007769E+00  0.17809200143E+02  0.51100000000E-03 0. -1.
        -11    1    3    3    0    0  0.95709614085E+01 -0.20509761570E+02  0.12543746030E+02  0.25876614668E+02  0.51100000000E-03 0.  1.
         12    1    3    3    0    0  0.36025532142E+01  0.33134628167E+01  0.47822353121E+01  0.68430402658E+01  0.00000000000E+00 0. -1.
</event>
<event>
 7    1  0.6624035E-013  0.5052886E+02  0.7816164E-02  0.1300439E+00
        -11   -1    0    0    0    0  0.00000000000E+00  0.00000000000E+00  0.45593999997E+02  0.45594000000E+02  0.51100000000E-03 0.  1.
         11   -1    0    0    0    0 -0.00000000000E+00 -0.00000000000E+00 -0.45593999997E+02  0.45594000000E+02  0.51100000000E-03 0. -1.
    9900012    2    1    2    0    0 -0.69039438231E+01  0.11399480354E+02  0.38412929865E+02  0.50528858673E+02  0.29999996423E+02 0.  0.
         12    1    1    2    0    0  0.69039438231E+01 -0.11399480354E+02 -0.38412929865E+02  0.40659141327E+02  0.00000000000E+00 0. -1.
         11    1    3    3    0    0  0.53371071109E+01  0.56837313594E+01  0.86687745910E+01  0.11659209564E+02  0.51100000000E-03 0. -1.
        -11    1    3    3    0    0  0.55110697731E+01  0.34237891777E+01  0.43894857118E+01  0.78333777805E+01  0.51100000000E-03 0.  1.
        -12    1    3    3    0    0 -0.17752120707E+02  0.22919598167E+01  0.25354669562E+02  0.31036271329E+02  0.00000000000E+00 0.  1.
</event>
<event>
 7    1  0.6624035E-013  0.5052888E+02  0.7816164E-02  0.1300439E+00
        -11   -1    0    0    0    0  0.00000000000E+00  0.00000000000E+00  0.45593999997E+02  0.45594000000E+02  0.51100000000E-03 0. -1.
         11   -1    0    0    0    0 -0.00000000000E+00 -0.00000000000E+00 -0.45593999997E+02  0.45594000000E+02  0.51100000000E-03 0.  1.
    9900012    2    1    2    0    0  0.38061912868E+02 -0.14229875951E+02 -0.14020007025E+01  0.50528878185E+02  0.30000055733E+02 0.  0.
         12    1    1    2    0    0 -0.38061912868E+02  0.14229875951E+02  0.14020007025E+01  0.40659121815E+02  0.00000000000E+00 0. -1.
         11    1    3    3    0    0  0.23080552934E+01 -0.83918618514E+01 -0.20072979615E+01  0.89319488320E+01  0.51100000000E-03 0. -1.
        -11    1    3    3    0    0  0.30038834750E+02 -0.93155284730E+01  0.71341926880E+01  0.32249145251E+02  0.51100000000E-03 0.  1.
         12    1    3    3    0    0  0.57150228246E+01  0.34775143731E+01 -0.65288954289E+01  0.93477841023E+01  0.00000000000E+00 0. -1.
</event>
<event>
 7    1  0.6624035E-013  0.5052886E+02  0.7816164E-02  0.1300439E+00
        -11   -1    0    0    0    0  0.00000000000E+00  0.00000000000E+00  0.45593999997E+02  0.45594000000E+02  0.51100000000E-03 0.  1.
         11   -1    0    0    0    0 -0.00000000000E+00 -0.00000000000E+00 -0.45593999997E+02  0.45594000000E+02  0.51100000000E-03 0. -1.
    9900012    2    1    2    0    0 -0.16317989988E+02 -0.15304531487E+02  0.33950844164E+02  0.50528864487E+02  0.30000014093E+02 0.  0.
         12    1    1    2    0    0  0.16317989988E+02  0.15304531487E+02 -0.33950844164E+02  0.40659135513E+02  0.00000000000E+00 0. -1.
         11    1    3    3    0    0  0.15196149363E+01  0.24955805184E+01 -0.23006066073E+01  0.37188630926E+01  0.51100000000E-03 0. -1.
        -11    1    3    3    0    0 -0.21618075005E+01  0.28496987334E+01  0.31661672714E+01  0.47769038081E+01  0.51100000000E-03 0.  1.
        -12    1    3    3    0    0 -0.15675797424E+02 -0.20649810738E+02  0.33085283500E+02  0.42033097586E+02  0.00000000000E+00 0.  1.
</event>
<event>
 7    1  0.6624035E-013  0.5052886E+02  0.7816164E-02  0.1300439E+00
        -11   -1    0    0    0    0  0.00000000000E+00  0.00000000000E+00  0.45593999997E+02  0.45594000000E+02  0.51100000000E-03 0. -1.
         11   -1    0    0    0    0 -0.00000000000E+00 -0.00000000000E+00 -0.45593999997E+02  0.45594000000E+02  0.51100000000E-03 0.  1.
    9900012    2    1    2    0    0  0.45099215737E+01  0.21707902561E+01 -0.40349894644E+02  0.50528859321E+02  0.29999998393E+02 0.  0.
         12    1    1    2    0    0 -0.45099215737E+01 -0.21707902561E+01  0.40349894644E+02  0.40659140679E+02  0.00000000000E+00 0. -1.
         11    1    3    3    0    0  0.11068272648E+02  0.23659685894E+00 -0.30954319081E+02  0.32874496308E+02  0.51100000000E-03 0. -1.
        -11    1    3    3    0    0  0.52697317724E+00  0.46130967345E+01 -0.89303233262E+01  0.10065239052E+02  0.51100000000E-03 0.  1.
         12    1    3    3    0    0 -0.70853242517E+01 -0.26789033373E+01 -0.46525223675E+00  0.75891239604E+01  0.00000000000E+00 0. -1.
</event>
<event>
 7    1  0.6624035E-013  0.5052887E+02  0.7816164E-02  0.1300439E+00
        -11   -1    0    0    0    0  0.00000000000E+00  0.00000000000E+00  0.45593999997E+02  0.45594000000E+02  0.51100000000E-03 0.  1.
         11   -1    0    0    0    0 -0.00000000000E+00 -0.00000000000E+00 -0.45593999997E+02  0.45594000000E+02  0.51100000000E-03 0. -1.
    9900012    2    1    2    0    0  0.31187227088E+02 -0.23643778646E+02 -0.11022421792E+02  0.50528865919E+02  0.30000018447E+02 0.  0.
         12    1    1    2    0    0 -0.31187227088E+02  0.23643778646E+02  0.11022421792E+02  0.40659134081E+02  0.00000000000E+00 0. -1.
         11    1    3    3    0    0 -0.23794082574E+01 -0.40837874323E+01 -0.67453857489E+01  0.82364514574E+01  0.51100000000E-03 0. -1.
        -11    1    3    3    0    0  0.16376878564E+02 -0.68027258862E+00  0.75289145458E-01  0.16391174180E+02  0.51100000000E-03 0.  1.
        -12    1    3    3    0    0  0.17189756782E+02 -0.18879718625E+02 -0.43523251885E+01  0.25901240281E+02  0.00000000000E+00 0.  1.
</event>
<event>
 7    1  0.6624035E-013  0.5052886E+02  0.7816164E-02  0.1300439E+00
        -11   -1    0    0    0    0  0.00000000000E+00  0.00000000000E+00  0.45593999997E+02  0.45594000000E+02  0.51100000000E-03 0.  1.
         11   -1    0    0    0    0 -0.00000000000E+00 -0.00000000000E+00 -0.45593999997E+02  0.45594000000E+02  0.51100000000E-03 0. -1.
    9900012    2    1    2    0    0 -0.23894256138E+02 -0.22131920139E+02  0.24339432848E+02  0.50528863796E+02  0.30000011995E+02 0.  0.
         12    1    1    2    0    0  0.23894256138E+02  0.22131920139E+02 -0.24339432848E+02  0.40659136204E+02  0.00000000000E+00 0. -1.
         11    1    3    3    0    0 -0.68387448954E+01 -0.21836980383E+01 -0.49741440148E+01  0.87337894300E+01  0.51100000000E-03 0. -1.
        -11    1    3    3    0    0 -0.74538158168E+01 -0.17513854411E+01  0.26203684500E+01  0.80927777845E+01  0.51100000000E-03 0.  1.
         12    1    3    3    0    0 -0.96016954263E+01 -0.18196836660E+02  0.26693208413E+02  0.33702296582E+02  0.00000000000E+00 0. -1.
</event>
<event>
 7    1  0.6624035E-013  0.5052886E+02  0.7816164E-02  0.1300439E+00
        -11   -1    0    0    0    0  0.00000000000E+00  0.00000000000E+00  0.45593999997E+02  0.45594000000E+02  0.51100000000E-03 0.  1.
         11   -1    0    0    0    0 -0.00000000000E+00 -0.00000000000E+00 -0.45593999997E+02  0.45594000000E+02  0.51100000000E-03 0. -1.
    9900012    2    1    2    0    0 -0.36848379816E+02 -0.93575326243E-01  0.17185861899E+02  0.50528859569E+02  0.29999999146E+02 0.  0.
         12    1    1    2    0    0  0.36848379816E+02  0.93575326243E-01 -0.17185861899E+02  0.40659140431E+02  0.00000000000E+00 0. -1.
         11    1    3    3    0    0 -0.23112014243E+02 -0.18655914278E+01  0.11459127306E+02  0.25864207558E+02  0.51100000000E-03 0. -1.
        -11    1    3    3    0    0 -0.17614334040E+02  0.27152676095E+01  0.85587346774E+01  0.19770922624E+02  0.51100000000E-03 0.  1.
         12    1    3    3    0    0  0.38779684669E+01 -0.94325150795E+00 -0.28320000842E+01  0.48937293871E+01  0.00000000000E+00 0. -1.
</event>
<event>
 7    1  0.8658517E-013  0.5052886E+02  0.7816164E-02  0.1300439E+00
        -11   -1    0    0    0    0  0.00000000000E+00  0.00000000000E+00  0.45593999997E+02  0.45594000000E+02  0.51100000000E-03 0. -1.
         11   -1    0    0    0    0 -0.00000000000E+00 -0.00000000000E+00 -0.45593999997E+02  0.45594000000E+02  0.51100000000E-03 0.  1.
    9900012    2    1    2    0    0  0.32695045287E+02  0.64641658766E+01 -0.23289780546E+02  0.50528864437E+02  0.30000013944E+02 0.  0.
         12    1    1    2    0    0 -0.32695045287E+02 -0.64641658766E+01  0.23289780546E+02  0.40659135563E+02  0.00000000000E+00 0. -1.
         11    1    3    3    0    0  0.23518641190E+01 -0.49420186843E+01  0.90358520681E+00  0.55471866741E+01  0.51100000000E-03 0. -1.
        -11    1    3    3    0    0  0.58074445654E+01  0.65661326785E+01 -0.16723024177E+02  0.18881208876E+02  0.51100000000E-03 0.  1.
         12    1    3    3    0    0  0.24535736603E+02  0.48400518824E+01 -0.74703415753E+01  0.26100468887E+02  0.00000000000E+00 0. -1.
</event>
<event>
 7    1  0.6624035E-013  0.5052882E+02  0.7816164E-02  0.1300439E+00
        -11   -1    0    0    0    0  0.00000000000E+00  0.00000000000E+00  0.45593999997E+02  0.45594000000E+02  0.51100000000E-03 0.  1.
         11   -1    0    0    0    0 -0.00000000000E+00 -0.00000000000E+00 -0.45593999997E+02  0.45594000000E+02  0.51100000000E-03 0. -1.
    9900012    2    1    2    0    0 -0.21166808094E+02 -0.29470593659E+01  0.34589732447E+02  0.50528824965E+02  0.29999893964E+02 0.  0.
         12    1    1    2    0    0  0.21166808094E+02  0.29470593659E+01 -0.34589732447E+02  0.40659175035E+02  0.00000000000E+00 0. -1.
         11    1    3    3    0    0 -0.22451073070E+02  0.33836045567E+01  0.15380456759E+02  0.27423674301E+02  0.51100000000E-03 0. -1.
        -11    1    3    3    0    0 -0.30086633352E+01 -0.66220835238E+00  0.54005981318E+00  0.31276572429E+01  0.51100000000E-03 0.  1.
         12    1    3    3    0    0  0.42929283112E+01 -0.56684555702E+01  0.18669215874E+02  0.19977493421E+02  0.00000000000E+00 0. -1.
</event>
<event>
 7    1  0.6624035E-013  0.5052886E+02  0.7816164E-02  0.1300439E+00
        -11   -1    0    0    0    0  0.00000000000E+00  0.00000000000E+00  0.45593999997E+02  0.45594000000E+02  0.51100000000E-03 0.  1.
         11   -1    0    0    0    0 -0.00000000000E+00 -0.00000000000E+00 -0.45593999997E+02  0.45594000000E+02  0.51100000000E-03 0. -1.
    9900012    2    1    2    0    0  0.23600208417E+02 -0.28141571125E+02  0.17442691394E+02  0.50528863933E+02  0.30000012410E+02 0.  0.
         12    1    1    2    0    0 -0.23600208417E+02  0.28141571125E+02 -0.17442691394E+02  0.40659136067E+02  0.00000000000E+00 0. -1.
         11    1    3    3    0    0  0.38100208947E+00 -0.50860206565E+01  0.93181990648E+00  0.51846945243E+01  0.51100000000E-03 0. -1.
        -11    1    3    3    0    0 -0.42170156990E+01 -0.11593384627E+02  0.30679111546E+01  0.12712272323E+02  0.51100000000E-03 0.  1.
        -12    1    3    3    0    0  0.27436222026E+02 -0.11462165841E+02  0.13442960333E+02  0.32631897085E+02  0.00000000000E+00 0.  1.
</event>
<event>
 7    1  0.6624035E-013  0.5052886E+02  0.7816164E-02  0.1300439E+00
        -11   -1    0    0    0    0  0.00000000000E+00  0.00000000000E+00  0.45593999997E+02  0.45594000000E+02  0.51100000000E-03 0.  1.
         11   -1    0    0    0    0 -0.00000000000E+00 -0.00000000000E+00 -0.45593999997E+02  0.45594000000E+02  0.51100000000E-03 0. -1.
    9900012    2    1    2    0    0  0.79782366228E+01  0.15268730409E+02  0.36829054596E+02  0.50528860187E+02  0.30000001025E+02 0.  0.
         12    1    1    2    0    0 -0.79782366228E+01 -0.15268730409E+02 -0.36829054596E+02  0.40659139813E+02  0.00000000000E+00 0. -1.
         11    1    3    3    0    0 -0.25799739866E+01 -0.40699629857E+00 -0.87442902918E+00  0.27543671046E+01  0.51100000000E-03 0. -1.
        -11    1    3    3    0    0  0.45682632668E+01 -0.54718538928E+01  0.67962439716E+01  0.98488144810E+01  0.51100000000E-03 0.  1.
        -12    1    3    3    0    0  0.59899473425E+01  0.21147580600E+02  0.30907239653E+02  0.37925678602E+02  0.00000000000E+00 0.  1.
</event>
<event>
 7    1  0.6624035E-013  0.5052886E+02  0.7816164E-02  0.1300439E+00
        -11   -1    0    0    0    0  0.00000000000E+00  0.00000000000E+00  0.45593999997E+02  0.45594000000E+02  0.51100000000E-03 0.  1.
         11   -1    0    0    0    0 -0.00000000000E+00 -0.00000000000E+00 -0.45593999997E+02  0.45594000000E+02  0.51100000000E-03 0. -1.
    9900012    2    1    2    0    0 -0.23907917411E+02  0.10549798478E+02  0.31149305228E+02  0.50528856145E+02  0.29999988739E+02 0.  0.
         12    1    1    2    0    0  0.23907917411E+02 -0.10549798478E+02 -0.31149305228E+02  0.40659143855E+02  0.00000000000E+00 0. -1.
         11    1    3    3    0    0 -0.31931163206E+01 -0.73869964265E+01  0.33292484354E+01  0.87090529593E+01  0.51100000000E-03 0. -1.
        -11    1    3    3    0    0 -0.12246581801E+01  0.72483682751E+00 -0.18720933723E+01  0.23515760546E+01  0.51100000000E-03 0.  1.
        -12    1    3    3    0    0 -0.19490142910E+02  0.17211958077E+02  0.29692150165E+02  0.39468227131E+02  0.00000000000E+00 0.  1.
</event>
<event>
 7    1  0.6624035E-013  0.5052886E+02  0.7816164E-02  0.1300439E+00
        -11   -1    0    0    0    0  0.00000000000E+00  0.00000000000E+00  0.45593999997E+02  0.45594000000E+02  0.51100000000E-03 0.  1.
         11   -1    0    0    0    0 -0.00000000000E+00 -0.00000000000E+00 -0.45593999997E+02  0.45594000000E+02  0.51100000000E-03 0. -1.
    9900012    2    1    2    0    0 -0.39791801180E+02 -0.53922719312E+01  0.63797567365E+01  0.50528864080E+02  0.30000012858E+02 0.  0.
         12    1    1    2    0    0  0.39791801180E+02  0.53922719312E+01 -0.63797567365E+01  0.40659135920E+02  0.00000000000E+00 0. -1.
         11    1    3    3    0    0  0.23986651882E+01 -0.10886232089E+01 -0.41024742427E+01  0.48753451518E+01  0.51100000000E-03 0. -1.
        -11    1    3    3    0    0 -0.54384237520E+01 -0.41057120957E+01 -0.15372521534E+01  0.69854469551E+01  0.51100000000E-03 0.  1.
        -12    1    3    3    0    0 -0.36752042616E+02 -0.19793662658E+00  0.12019483133E+02  0.38668071973E+02  0.00000000000E+00 0.  1.
</event>
<event>
 7    1  0.6624035E-013  0.5052881E+02  0.7816164E-02  0.1300439E+00
        -11   -1    0    0    0    0  0.00000000000E+00  0.00000000000E+00  0.45593999997E+02  0.45594000000E+02  0.51100000000E-03 0.  1.
         11   -1    0    0    0    0 -0.00000000000E+00 -0.00000000000E+00 -0.45593999997E+02  0.45594000000E+02  0.51100000000E-03 0. -1.
    9900012    2    1    2    0    0  0.40430510272E+02  0.94624640061E+00  0.42009303534E+01  0.50528814581E+02  0.29999862401E+02 0.  0.
         12    1    1    2    0    0 -0.40430510272E+02 -0.94624640061E+00 -0.42009303534E+01  0.40659185419E+02  0.00000000000E+00 0. -1.
         11    1    3    3    0    0  0.39749786292E+01 -0.52517614857E+01 -0.78722314556E+01  0.10264184437E+02  0.51100000000E-03 0. -1.
        -11    1    3    3    0    0  0.38848908233E+01  0.42584992392E+01  0.22733474792E+01  0.61963942339E+01  0.51100000000E-03 0.  1.
        -12    1    3    3    0    0  0.32570640819E+02  0.19395086471E+01  0.97998143299E+01  0.34068235910E+02  0.00000000000E+00 0.  1.
</event>
<event>
 7    1  0.6624035E-013  0.5052886E+02  0.7816164E-02  0.1300439E+00
        -11   -1    0    0    0    0  0.00000000000E+00  0.00000000000E+00  0.45593999997E+02  0.45594000000E+02  0.51100000000E-03 0.  1.
         11   -1    0    0    0    0 -0.00000000000E+00 -0.00000000000E+00 -0.45593999997E+02  0.45594000000E+02  0.51100000000E-03 0. -1.
    9900012    2    1    2    0    0 -0.37892516728E+01  0.32766155340E+02  0.23773647277E+02  0.50528859959E+02  0.30000000332E+02 0.  0.
         12    1    1    2    0    0  0.37892516728E+01 -0.32766155340E+02 -0.23773647277E+02  0.40659140041E+02  0.00000000000E+00 0. -1.
         11    1    3    3    0    0 -0.12003277114E+02  0.52542583211E+01  0.10197920908E+02  0.16603718953E+02  0.51100000000E-03 0. -1.
        -11    1    3    3    0    0 -0.95925786870E+00  0.22949096871E+00  0.31679479323E+01  0.33179415496E+01  0.51100000000E-03 0.  1.
        -12    1    3    3    0    0  0.91732833100E+01  0.27282406050E+02  0.10407778437E+02  0.30607199456E+02  0.00000000000E+00 0.  1.
</event>
<event>
 7    1  0.6624035E-013  0.5052886E+02  0.7816164E-02  0.1300439E+00
        -11   -1    0    0    0    0  0.00000000000E+00  0.00000000000E+00  0.45593999997E+02  0.45594000000E+02  0.51100000000E-03 0.  1.
         11   -1    0    0    0    0 -0.00000000000E+00 -0.00000000000E+00 -0.45593999997E+02  0.45594000000E+02  0.51100000000E-03 0. -1.
    9900012    2    1    2    0    0 -0.25378004621E+02 -0.29415484141E+02  0.11993812469E+02  0.50528863717E+02  0.30000011753E+02 0.  0.
         12    1    1    2    0    0  0.25378004621E+02  0.29415484141E+02 -0.11993812469E+02  0.40659136283E+02  0.00000000000E+00 0. -1.
         11    1    3    3    0    0 -0.86791337521E+01 -0.16366236345E+02  0.10753191885E+02  0.21419901745E+02  0.51100000000E-03 0. -1.
        -11    1    3    3    0    0 -0.82215559251E+01 -0.72553959379E+01  0.10573916073E+02  0.15232939750E+02  0.51100000000E-03 0.  1.
         12    1    3    3    0    0 -0.84773149437E+01 -0.57938518582E+01 -0.93332954895E+01  0.13876022222E+02  0.00000000000E+00 0. -1.
</event>
<event>
 7    1  0.6624035E-013  0.5052887E+02  0.7816164E-02  0.1300439E+00
        -11   -1    0    0    0    0  0.00000000000E+00  0.00000000000E+00  0.45593999997E+02  0.45594000000E+02  0.51100000000E-03 0.  1.
         11   -1    0    0    0    0 -0.00000000000E+00 -0.00000000000E+00 -0.45593999997E+02  0.45594000000E+02  0.51100000000E-03 0. -1.
    9900012    2    1    2    0    0  0.19045208123E+02  0.35837834878E+02  0.24686281441E+01  0.50528874504E+02  0.30000044542E+02 0.  0.
         12    1    1    2    0    0 -0.19045208123E+02 -0.35837834878E+02 -0.24686281441E+01  0.40659125496E+02  0.00000000000E+00 0. -1.
         11    1    3    3    0    0  0.19054908437E+02  0.29201309102E+02 -0.97280700066E+01  0.36200018441E+02  0.51100000000E-03 0. -1.
        -11    1    3    3    0    0  0.14502406854E+01  0.13320506794E+01  0.25278024337E+01  0.32042694117E+01  0.51100000000E-03 0.  1.
         12    1    3    3    0    0 -0.14599409992E+01  0.53044750960E+01  0.96688957170E+01  0.11124586651E+02  0.00000000000E+00 0. -1.
</event>
<event>
 7    1  0.6624035E-013  0.5052886E+02  0.7816164E-02  0.1300439E+00
        -11   -1    0    0    0    0  0.00000000000E+00  0.00000000000E+00  0.45593999997E+02  0.45594000000E+02  0.51100000000E-03 0.  1.
         11   -1    0    0    0    0 -0.00000000000E+00 -0.00000000000E+00 -0.45593999997E+02  0.45594000000E+02  0.51100000000E-03 0. -1.
    9900012    2    1    2    0    0 -0.19566101485E+02  0.31944685869E+02 -0.15807289861E+02  0.50528859634E+02  0.29999999342E+02 0.  0.
         12    1    1    2    0    0  0.19566101485E+02 -0.31944685869E+02  0.15807289861E+02  0.40659140366E+02  0.00000000000E+00 0. -1.
         11    1    3    3    0    0 -0.22298880894E+01  0.47461163840E+01 -0.59021134699E+01  0.78951228802E+01  0.51100000000E-03 0. -1.
        -11    1    3    3    0    0 -0.10586681400E+02  0.10904435486E+02 -0.17718529162E+02  0.23343753174E+02  0.51100000000E-03 0.  1.
        -12    1    3    3    0    0 -0.67495319954E+01  0.16294133999E+02  0.78133527715E+01  0.19289983579E+02  0.00000000000E+00 0.  1.
</event>
<event>
 7    1  0.6624035E-013  0.5052885E+02  0.7816164E-02  0.1300439E+00
        -11   -1    0    0    0    0  0.00000000000E+00  0.00000000000E+00  0.45593999997E+02  0.45594000000E+02  0.51100000000E-03 0.  1.
         11   -1    0    0    0    0 -0.00000000000E+00 -0.00000000000E+00 -0.45593999997E+02  0.45594000000E+02  0.51100000000E-03 0. -1.
    9900012    2    1    2    0    0 -0.32478390834E+02  0.11486643087E+02  0.21595772306E+02  0.50528853156E+02  0.29999979654E+02 0.  0.
         12    1    1    2    0    0  0.32478390834E+02 -0.11486643087E+02 -0.21595772306E+02  0.40659146844E+02  0.00000000000E+00 0. -1.
         11    1    3    3    0    0  0.46491778346E+01  0.24167616004E+01  0.12737508541E+01  0.53924050915E+01  0.51100000000E-03 0. -1.
        -11    1    3    3    0    0 -0.17159621497E+02  0.18697805371E+01  0.25421478204E+01  0.17447383901E+02  0.51100000000E-03 0.  1.
        -12    1    3    3    0    0 -0.19967947172E+02  0.72001009492E+01  0.17779873631E+02  0.27689064164E+02  0.00000000000E+00 0.  1.
</event>
<event>
 7    1  0.6624035E-013  0.5052886E+02  0.7816164E-02  0.1300439E+00
        -11   -1    0    0    0    0  0.00000000000E+00  0.00000000000E+00  0.45593999997E+02  0.45594000000E+02  0.51100000000E-03 0. -1.
         11   -1    0    0    0    0 -0.00000000000E+00 -0.00000000000E+00 -0.45593999997E+02  0.45594000000E+02  0.51100000000E-03 0.  1.
    9900012    2    1    2    0    0  0.26426666514E+02  0.30272196916E+02 -0.61960398301E+01  0.50528861805E+02  0.30000005943E+02 0.  0.
         12    1    1    2    0    0 -0.26426666514E+02 -0.30272196916E+02  0.61960398301E+01  0.40659138195E+02  0.00000000000E+00 0. -1.
         11    1    3    3    0    0  0.11078192260E+02  0.24536137792E+02 -0.29796215703E+01  0.27085541281E+02  0.51100000000E-03 0. -1.
        -11    1    3    3    0    0  0.12273275336E+02  0.30561394359E+01  0.55210814341E+01  0.13800565793E+02  0.51100000000E-03 0.  1.
        -12    1    3    3    0    0  0.30751989174E+01  0.26799196884E+01 -0.87374996938E+01  0.96427547318E+01  0.00000000000E+00 0.  1.
</event>
<event>
 7    1  0.6624035E-013  0.5052886E+02  0.7816164E-02  0.1300439E+00
        -11   -1    0    0    0    0  0.00000000000E+00  0.00000000000E+00  0.45593999997E+02  0.45594000000E+02  0.51100000000E-03 0. -1.
         11   -1    0    0    0    0 -0.00000000000E+00 -0.00000000000E+00 -0.45593999997E+02  0.45594000000E+02  0.51100000000E-03 0.  1.
    9900012    2    1    2    0    0  0.40991380394E+01  0.40262540858E+02 -0.39103621734E+01  0.50528855133E+02  0.29999985663E+02 0.  0.
         12    1    1    2    0    0 -0.40991380394E+01 -0.40262540858E+02  0.39103621734E+01  0.40659144867E+02  0.00000000000E+00 0. -1.
         11    1    3    3    0    0  0.86430996979E+01  0.10887535336E+02 -0.45041225848E+01  0.14612621894E+02  0.51100000000E-03 0. -1.
        -11    1    3    3    0    0  0.63442169834E+01  0.93551313317E+01 -0.51393583661E+01  0.12416947131E+02  0.51100000000E-03 0.  1.
         12    1    3    3    0    0 -0.10888178642E+02  0.20019874190E+02  0.57331187776E+01  0.23499286109E+02  0.00000000000E+00 0. -1.
</event>
<event>
 7    1  0.6624035E-013  0.5052885E+02  0.7816164E-02  0.1300439E+00
        -11   -1    0    0    0    0  0.00000000000E+00  0.00000000000E+00  0.45593999997E+02  0.45594000000E+02  0.51100000000E-03 0.  1.
         11   -1    0    0    0    0 -0.00000000000E+00 -0.00000000000E+00 -0.45593999997E+02  0.45594000000E+02  0.51100000000E-03 0. -1.
    9900012    2    1    2    0    0 -0.23156318892E+02 -0.19987969692E+02  0.26784927239E+02  0.50528851408E+02  0.29999974340E+02 0.  0.
         12    1    1    2    0    0  0.23156318892E+02  0.19987969692E+02 -0.26784927239E+02  0.40659148592E+02  0.00000000000E+00 0. -1.
         11    1    3    3    0    0 -0.96548658891E+01 -0.53567516893E+01  0.36907709429E+01  0.11641864731E+02  0.51100000000E-03 0. -1.
        -11    1    3    3    0    0 -0.18267216723E+02 -0.85443680186E+01  0.75630291049E+01  0.21538264580E+02  0.51100000000E-03 0.  1.
         12    1    3    3    0    0  0.47657637198E+01 -0.60868499840E+01  0.15531127191E+02  0.17348722097E+02  0.00000000000E+00 0. -1.
</event>
<event>
 7    1  0.6624035E-013  0.5052886E+02  0.7816164E-02  0.1300439E+00
        -11   -1    0    0    0    0  0.00000000000E+00  0.00000000000E+00  0.45593999997E+02  0.45594000000E+02  0.51100000000E-03 0.  1.
         11   -1    0    0    0    0 -0.00000000000E+00 -0.00000000000E+00 -0.45593999997E+02  0.45594000000E+02  0.51100000000E-03 0. -1.
    9900012    2    1    2    0    0  0.12548402449E+02  0.37071734594E+02  0.11017693113E+02  0.50528862388E+02  0.30000007714E+02 0.  0.
         12    1    1    2    0    0 -0.12548402449E+02 -0.37071734594E+02 -0.11017693113E+02  0.40659137612E+02  0.00000000000E+00 0. -1.
         11    1    3    3    0    0  0.14806207261E+01  0.62144992179E+01 -0.66736031106E+01  0.92384639958E+01  0.51100000000E-03 0. -1.
        -11    1    3    3    0    0  0.93688255281E+00  0.95486067197E+01 -0.28483118027E+01  0.10008322516E+02  0.51100000000E-03 0.  1.
        -12    1    3    3    0    0  0.10130899170E+02  0.21308628657E+02  0.20539608026E+02  0.31282075876E+02  0.00000000000E+00 0.  1.
</event>
<event>
 7    1  0.6624035E-013  0.5052886E+02  0.7816164E-02  0.1300439E+00
        -11   -1    0    0    0    0  0.00000000000E+00  0.00000000000E+00  0.45593999997E+02  0.45594000000E+02  0.51100000000E-03 0.  1.
         11   -1    0    0    0    0 -0.00000000000E+00 -0.00000000000E+00 -0.45593999997E+02  0.45594000000E+02  0.51100000000E-03 0. -1.
    9900012    2    1    2    0    0  0.95839090091E+01 -0.26024095668E+02  0.29733156706E+02  0.50528862344E+02  0.30000007580E+02 0.  0.
         12    1    1    2    0    0 -0.95839090091E+01  0.26024095668E+02 -0.29733156706E+02  0.40659137656E+02  0.00000000000E+00 0. -1.
         11    1    3    3    0    0  0.32209874940E+00  0.11120467883E+01  0.15342810347E+02  0.15386429907E+02  0.51100000000E-03 0. -1.
        -11    1    3    3    0    0  0.93483023830E+00 -0.55245837801E+00  0.59301715428E+01  0.60287687485E+01  0.51100000000E-03 0.  1.
         12    1    3    3    0    0  0.83269800214E+01 -0.26583684078E+02  0.84601748164E+01  0.29113663688E+02  0.00000000000E+00 0. -1.
</event>
<event>
 7    1  0.6624035E-013  0.5052887E+02  0.7816164E-02  0.1300439E+00
        -11   -1    0    0    0    0  0.00000000000E+00  0.00000000000E+00  0.45593999997E+02  0.45594000000E+02  0.51100000000E-03 0.  1.
         11   -1    0    0    0    0 -0.00000000000E+00 -0.00000000000E+00 -0.45593999997E+02  0.45594000000E+02  0.51100000000E-03 0. -1.
    9900012    2    1    2    0    0  0.22754184259E+02  0.11831421257E+02  0.31550422221E+02  0.50528873441E+02  0.30000041312E+02 0.  0.
         12    1    1    2    0    0 -0.22754184259E+02 -0.11831421257E+02 -0.31550422221E+02  0.40659126559E+02  0.00000000000E+00 0. -1.
         11    1    3    3    0    0  0.34222706746E+01  0.91121700926E+01  0.16452022074E+02  0.19115768647E+02  0.51100000000E-03 0. -1.
        -11    1    3    3    0    0  0.13167355857E+02  0.50363363055E+01  0.19075612661E+02  0.23719674162E+02  0.51100000000E-03 0.  1.
         12    1    3    3    0    0  0.61645577265E+01 -0.23170851414E+01 -0.39772125149E+01  0.76934306330E+01  0.00000000000E+00 0. -1.
</event>
<event>
 7    1  0.6624035E-013  0.5052886E+02  0.7816164E-02  0.1300439E+00
        -11   -1    0    0    0    0  0.00000000000E+00  0.00000000000E+00  0.45593999997E+02  0.45594000000E+02  0.51100000000E-03 0.  1.
         11   -1    0    0    0    0 -0.00000000000E+00 -0.00000000000E+00 -0.45593999997E+02  0.45594000000E+02  0.51100000000E-03 0. -1.
    9900012    2    1    2    0    0  0.27732891447E+02  0.26288354219E+02  0.13891541880E+02  0.50528858698E+02  0.29999996500E+02 0.  0.
         12    1    1    2    0    0 -0.27732891447E+02 -0.26288354219E+02 -0.13891541880E+02  0.40659141302E+02  0.00000000000E+00 0. -1.
         11    1    3    3    0    0  0.28342491526E+01  0.11709467095E+02  0.70120098638E+01  0.13939615149E+02  0.51100000000E-03 0. -1.
        -11    1    3    3    0    0  0.13890243211E+02  0.16528151997E+02  0.11536117575E+02  0.24478575814E+02  0.51100000000E-03 0.  1.
        -12    1    3    3    0    0  0.11008399083E+02 -0.19492648732E+01 -0.46565855593E+01  0.12110667735E+02  0.00000000000E+00 0.  1.
</event>
<event>
 7    1  0.6624035E-013  0.5052885E+02  0.7816164E-02  0.1300439E+00
        -11   -1    0    0    0    0  0.00000000000E+00  0.00000000000E+00  0.45593999997E+02  0.45594000000E+02  0.51100000000E-03 0. -1.
         11   -1    0    0    0    0 -0.00000000000E+00 -0.00000000000E+00 -0.45593999997E+02  0.45594000000E+02  0.51100000000E-03 0.  1.
    9900012    2    1    2    0    0  0.51580756549E+01  0.34423590239E+02 -0.21013734236E+02  0.50528851755E+02  0.29999975396E+02 0.  0.
         12    1    1    2    0    0 -0.51580756549E+01 -0.34423590239E+02  0.21013734236E+02  0.40659148245E+02  0.00000000000E+00 0. -1.
         11    1    3    3    0    0 -0.13402480697E+01  0.25005355896E+02 -0.53382113366E+01  0.25603917452E+02  0.51100000000E-03 0. -1.
        -11    1    3    3    0    0 -0.19340717614E+01  0.84147503901E+01 -0.20570946972E+01  0.88758265283E+01  0.51100000000E-03 0.  1.
         12    1    3    3    0    0  0.84323954860E+01  0.10034839536E+01 -0.13618428202E+02  0.16049107775E+02  0.00000000000E+00 0. -1.
</event>
<event>
 7    1  0.6624035E-013  0.5052886E+02  0.7816164E-02  0.1300439E+00
        -11   -1    0    0    0    0  0.00000000000E+00  0.00000000000E+00  0.45593999997E+02  0.45594000000E+02  0.51100000000E-03 0.  1.
         11   -1    0    0    0    0 -0.00000000000E+00 -0.00000000000E+00 -0.45593999997E+02  0.45594000000E+02  0.51100000000E-03 0. -1.
    9900012    2    1    2    0    0 -0.74103014529E+01  0.30984184378E+02  0.25263282787E+02  0.50528859498E+02  0.29999998930E+02 0.  0.
         12    1    1    2    0    0  0.74103014529E+01 -0.30984184378E+02 -0.25263282787E+02  0.40659140502E+02  0.00000000000E+00 0. -1.
         11    1    3    3    0    0 -0.45497527523E+01  0.12444748238E+02  0.59002096255E+00  0.13263488750E+02  0.51100000000E-03 0. -1.
        -11    1    3    3    0    0 -0.78966407885E+01 -0.58465501237E+00  0.93170589008E+01  0.12227278685E+02  0.51100000000E-03 0.  1.
        -12    1    3    3    0    0  0.50360920879E+01  0.19124091152E+02  0.15356202924E+02  0.25038092063E+02  0.00000000000E+00 0.  1.
</event>
<event>
 7    1  0.6624035E-013  0.5052895E+02  0.7816164E-02  0.1300438E+00
        -11   -1    0    0    0    0  0.00000000000E+00  0.00000000000E+00  0.45593999997E+02  0.45594000000E+02  0.51100000000E-03 0.  1.
         11   -1    0    0    0    0 -0.00000000000E+00 -0.00000000000E+00 -0.45593999997E+02  0.45594000000E+02  0.51100000000E-03 0. -1.
    9900012    2    1    2    0    0 -0.61767182523E+01 -0.20839749870E+02  0.34361481178E+02  0.50528949203E+02  0.30000271595E+02 0.  0.
         12    1    1    2    0    0  0.61767182523E+01  0.20839749870E+02 -0.34361481178E+02  0.40659050797E+02  0.00000000000E+00 0. -1.
         11    1    3    3    0    0  0.30921013110E+00  0.34476237644E+01  0.17682544202E+02  0.18018160013E+02  0.51100000000E-03 0. -1.
        -11    1    3    3    0    0 -0.18204972534E+01  0.10733458739E+01  0.14555809744E+01  0.25661250649E+01  0.51100000000E-03 0.  1.
        -12    1    3    3    0    0 -0.46654311300E+01 -0.25360719508E+02  0.15223356001E+02  0.29944664125E+02  0.00000000000E+00 0.  1.
</event>
<event>
 7    1  0.6624035E-013  0.5052886E+02  0.7816164E-02  0.1300439E+00
        -11   -1    0    0    0    0  0.00000000000E+00  0.00000000000E+00  0.45593999997E+02  0.45594000000E+02  0.51100000000E-03 0.  1.
         11   -1    0    0    0    0 -0.00000000000E+00 -0.00000000000E+00 -0.45593999997E+02  0.45594000000E+02  0.51100000000E-03 0. -1.
    9900012    2    1    2    0    0 -0.22255814179E+02 -0.51250129536E+01  0.33638945355E+02  0.50528859980E+02  0.30000000396E+02 0.  0.
         12    1    1    2    0    0  0.22255814179E+02  0.51250129536E+01 -0.33638945355E+02  0.40659140020E+02  0.00000000000E+00 0. -1.
         11    1    3    3    0    0 -0.81810717266E+01 -0.24452516934E+01 -0.88737752583E+00  0.85846741099E+01  0.51100000000E-03 0. -1.
        -11    1    3    3    0    0 -0.10794473764E+02 -0.28486113357E+01  0.49945668526E+01  0.12230329050E+02  0.51100000000E-03 0.  1.
        -12    1    3    3    0    0 -0.32802686892E+01  0.16885007541E+00  0.29531756028E+02  0.29713856820E+02  0.00000000000E+00 0.  1.
</event>
<event>
 7    1  0.6624035E-013  0.5052886E+02  0.7816164E-02  0.1300439E+00
        -11   -1    0    0    0    0  0.00000000000E+00  0.00000000000E+00  0.45593999997E+02  0.45594000000E+02  0.51100000000E-03 0.  1.
         11   -1    0    0    0    0 -0.00000000000E+00 -0.00000000000E+00 -0.45593999997E+02  0.45594000000E+02  0.51100000000E-03 0. -1.
    9900012    2    1    2    0    0 -0.31577375092E+02 -0.69046595031E+01  0.24664964741E+02  0.50528862943E+02  0.30000009401E+02 0.  0.
         12    1    1    2    0    0  0.31577375092E+02  0.69046595031E+01 -0.24664964741E+02  0.40659137057E+02  0.00000000000E+00 0. -1.
         11    1    3    3    0    0 -0.70772334276E+01  0.62132203664E+01  0.88927465928E+01  0.12952694026E+02  0.51100000000E-03 0. -1.
        -11    1    3    3    0    0 -0.10305039510E+02 -0.17674926098E+01  0.16332508643E+02  0.19392491027E+02  0.51100000000E-03 0.  1.
        -12    1    3    3    0    0 -0.14195102155E+02 -0.11350387260E+02 -0.56029049463E+00  0.18183677889E+02  0.00000000000E+00 0.  1.
</event>
<event>
 7    1  0.6624035E-013  0.5052886E+02  0.7816164E-02  0.1300439E+00
        -11   -1    0    0    0    0  0.00000000000E+00  0.00000000000E+00  0.45593999997E+02  0.45594000000E+02  0.51100000000E-03 0.  1.
         11   -1    0    0    0    0 -0.00000000000E+00 -0.00000000000E+00 -0.45593999997E+02  0.45594000000E+02  0.51100000000E-03 0. -1.
    9900012    2    1    2    0    0  0.36317770343E+02 -0.17635437024E+02 -0.48142422382E+01  0.50528855764E+02  0.29999987579E+02 0.  0.
         12    1    1    2    0    0 -0.36317770343E+02  0.17635437024E+02  0.48142422382E+01  0.40659144236E+02  0.00000000000E+00 0. -1.
         11    1    3    3    0    0  0.98605137883E+01 -0.13140357169E+02  0.80534780206E+01  0.18296371968E+02  0.51100000000E-03 0. -1.
        -11    1    3    3    0    0  0.96871654209E+01 -0.66171359742E+01 -0.14201025990E+01  0.11817121225E+02  0.51100000000E-03 0.  1.
         12    1    3    3    0    0  0.16770091134E+02  0.21220561196E+01 -0.11447617660E+02  0.20415362571E+02  0.00000000000E+00 0. -1.
</event>
<event>
 7    1  0.6624035E-013  0.5052886E+02  0.7816164E-02  0.1300439E+00
        -11   -1    0    0    0    0  0.00000000000E+00  0.00000000000E+00  0.45593999997E+02  0.45594000000E+02  0.51100000000E-03 0. -1.
         11   -1    0    0    0    0 -0.00000000000E+00 -0.00000000000E+00 -0.45593999997E+02  0.45594000000E+02  0.51100000000E-03 0.  1.
    9900012    2    1    2    0    0 -0.34319466162E+02 -0.18400169786E+02 -0.11695017908E+02  0.50528862655E+02  0.30000008525E+02 0.  0.
         12    1    1    2    0    0  0.34319466162E+02  0.18400169786E+02  0.11695017908E+02  0.40659137345E+02  0.00000000000E+00 0. -1.
         11    1    3    3    0    0 -0.13023522276E+02 -0.13995277428E+02  0.19681758737E+01  0.19218575371E+02  0.51100000000E-03 0. -1.
        -11    1    3    3    0    0 -0.13642513245E+02 -0.51437448051E+01  0.11449719063E+01  0.14624884245E+02  0.51100000000E-03 0.  1.
        -12    1    3    3    0    0 -0.76534306406E+01  0.73885244694E+00 -0.14808165688E+02  0.16685403038E+02  0.00000000000E+00 0.  1.
</event>
<event>
 7    1  0.6624035E-013  0.5052886E+02  0.7816164E-02  0.1300439E+00
        -11   -1    0    0    0    0  0.00000000000E+00  0.00000000000E+00  0.45593999997E+02  0.45594000000E+02  0.51100000000E-03 0. -1.
         11   -1    0    0    0    0 -0.00000000000E+00 -0.00000000000E+00 -0.45593999997E+02  0.45594000000E+02  0.51100000000E-03 0.  1.
    9900012    2    1    2    0    0  0.76327520455E+01 -0.35732508448E+02 -0.17835198553E+02  0.50528863620E+02  0.30000011459E+02 0.  0.
         12    1    1    2    0    0 -0.76327520455E+01  0.35732508448E+02  0.17835198553E+02  0.40659136380E+02  0.00000000000E+00 0. -1.
         11    1    3    3    0    0 -0.46918051223E+00 -0.91281088798E+01  0.14509565819E+01  0.92546084379E+01  0.51100000000E-03 0. -1.
        -11    1    3    3    0    0 -0.74382218974E+01 -0.13423496637E+02 -0.41718668818E+01  0.15903517866E+02  0.51100000000E-03 0.  1.
        -12    1    3    3    0    0  0.15540154455E+02 -0.13180902931E+02 -0.15114288253E+02  0.25370737316E+02  0.00000000000E+00 0.  1.
</event>
<event>
 7    1  0.6624035E-013  0.5052886E+02  0.7816164E-02  0.1300439E+00
        -11   -1    0    0    0    0  0.00000000000E+00  0.00000000000E+00  0.45593999997E+02  0.45594000000E+02  0.51100000000E-03 0.  1.
         11   -1    0    0    0    0 -0.00000000000E+00 -0.00000000000E+00 -0.45593999997E+02  0.45594000000E+02  0.51100000000E-03 0. -1.
    9900012    2    1    2    0    0  0.35865933518E+02  0.77754376785E+01  0.17502665596E+02  0.50528856856E+02  0.29999990901E+02 0.  0.
         12    1    1    2    0    0 -0.35865933518E+02 -0.77754376785E+01 -0.17502665596E+02  0.40659143144E+02  0.00000000000E+00 0. -1.
         11    1    3    3    0    0  0.48154736362E+01  0.54792266200E+01 -0.13712499162E+01  0.74223336821E+01  0.51100000000E-03 0. -1.
        -11    1    3    3    0    0  0.50724737963E+01  0.10940845027E+01 -0.54307524258E+01  0.75113303405E+01  0.51100000000E-03 0.  1.
        -12    1    3    3    0    0  0.25977986086E+02  0.12021265558E+01  0.24304667938E+02  0.35595192834E+02  0.00000000000E+00 0.  1.
</event>
<event>
 7    1  0.6624035E-013  0.5052887E+02  0.7816164E-02  0.1300439E+00
        -11   -1    0    0    0    0  0.00000000000E+00  0.00000000000E+00  0.45593999997E+02  0.45594000000E+02  0.51100000000E-03 0. -1.
         11   -1    0    0    0    0 -0.00000000000E+00 -0.00000000000E+00 -0.45593999997E+02  0.45594000000E+02  0.51100000000E-03 0.  1.
    9900012    2    1    2    0    0  0.24132805440E+02  0.36888265147E+01 -0.32514078314E+02  0.50528867839E+02  0.30000024284E+02 0.  0.
         12    1    1    2    0    0 -0.24132805440E+02 -0.36888265147E+01  0.32514078314E+02  0.40659132161E+02  0.00000000000E+00 0. -1.
         11    1    3    3    0    0  0.28249931600E+01 -0.10351971754E+02 -0.70792304891E+01  0.12855326138E+02  0.51100000000E-03 0. -1.
        -11    1    3    3    0    0  0.91969990628E+01  0.24248644748E+01 -0.36796267578E+01  0.10198255381E+02  0.51100000000E-03 0.  1.
         12    1    3    3    0    0  0.12110813218E+02  0.11615933793E+02 -0.21755221067E+02  0.27475286320E+02  0.00000000000E+00 0. -1.
</event>
<event>
 7    1  0.6624035E-013  0.5052886E+02  0.7816164E-02  0.1300439E+00
        -11   -1    0    0    0    0  0.00000000000E+00  0.00000000000E+00  0.45593999997E+02  0.45594000000E+02  0.51100000000E-03 0.  1.
         11   -1    0    0    0    0 -0.00000000000E+00 -0.00000000000E+00 -0.45593999997E+02  0.45594000000E+02  0.51100000000E-03 0. -1.
    9900012    2    1    2    0    0  0.28553450255E+02 -0.28932861369E+02 -0.86934096556E+00  0.50528859058E+02  0.29999997592E+02 0.  0.
         12    1    1    2    0    0 -0.28553450255E+02  0.28932861369E+02  0.86934096556E+00  0.40659140942E+02  0.00000000000E+00 0. -1.
         11    1    3    3    0    0  0.17521072353E+02 -0.14060777368E+02  0.88233097087E+01  0.24135953080E+02  0.51100000000E-03 0. -1.
        -11    1    3    3    0    0  0.22666284663E+01 -0.55201013960E+01  0.43465029772E+01  0.73824936450E+01  0.51100000000E-03 0.  1.
         12    1    3    3    0    0  0.87657494354E+01 -0.93519826050E+01 -0.14039153652E+02  0.19010412333E+02  0.00000000000E+00 0. -1.
</event>
<event>
 7    1  0.6624035E-013  0.5052886E+02  0.7816164E-02  0.1300439E+00
        -11   -1    0    0    0    0  0.00000000000E+00  0.00000000000E+00  0.45593999997E+02  0.45594000000E+02  0.51100000000E-03 0.  1.
         11   -1    0    0    0    0 -0.00000000000E+00 -0.00000000000E+00 -0.45593999997E+02  0.45594000000E+02  0.51100000000E-03 0. -1.
    9900012    2    1    2    0    0  0.17406549853E+02 -0.34576693076E+02 -0.12435028360E+02  0.50528860657E+02  0.30000002452E+02 0.  0.
         12    1    1    2    0    0 -0.17406549853E+02  0.34576693076E+02  0.12435028360E+02  0.40659139343E+02  0.00000000000E+00 0. -1.
         11    1    3    3    0    0  0.11988436996E+02 -0.23573592703E+02 -0.14093102758E+02  0.29967523090E+02  0.51100000000E-03 0. -1.
        -11    1    3    3    0    0  0.83760650544E+01 -0.13795831630E+02  0.26956738847E+01  0.16363071047E+02  0.51100000000E-03 0.  1.
         12    1    3    3    0    0 -0.29579521969E+01  0.27927312570E+01 -0.10375994862E+01  0.41982665193E+01  0.00000000000E+00 0. -1.
</event>
<event>
 7    1  0.6624035E-013  0.5052887E+02  0.7816164E-02  0.1300439E+00
        -11   -1    0    0    0    0  0.00000000000E+00  0.00000000000E+00  0.45593999997E+02  0.45594000000E+02  0.51100000000E-03 0. -1.
         11   -1    0    0    0    0 -0.00000000000E+00 -0.00000000000E+00 -0.45593999997E+02  0.45594000000E+02  0.51100000000E-03 0.  1.
    9900012    2    1    2    0    0  0.96545656579E+01  0.34078871315E+02 -0.19964593583E+02  0.50528866892E+02  0.30000021405E+02 0.  0.
         12    1    1    2    0    0 -0.96545656579E+01 -0.34078871315E+02  0.19964593583E+02  0.40659133108E+02  0.00000000000E+00 0. -1.
         11    1    3    3    0    0  0.99528442669E+01  0.39205076299E+01 -0.26809753747E+01  0.11028015157E+02  0.51100000000E-03 0. -1.
        -11    1    3    3    0    0  0.77430286443E+01  0.11900210587E+02 -0.19337155819E+01  0.14328599402E+02  0.51100000000E-03 0.  1.
        -12    1    3    3    0    0 -0.80413072533E+01  0.18258153098E+02 -0.15349902627E+02  0.25172252333E+02  0.00000000000E+00 0.  1.
</event>
<event>
 7    1  0.6624035E-013  0.5052879E+02  0.7816164E-02  0.1300439E+00
        -11   -1    0    0    0    0  0.00000000000E+00  0.00000000000E+00  0.45593999997E+02  0.45594000000E+02  0.51100000000E-03 0.  1.
         11   -1    0    0    0    0 -0.00000000000E+00 -0.00000000000E+00 -0.45593999997E+02  0.45594000000E+02  0.51100000000E-03 0. -1.
    9900012    2    1    2    0    0  0.23397915826E+02 -0.65513709010E+01  0.32600431784E+02  0.50528793439E+02  0.29999798135E+02 0.  0.
         12    1    1    2    0    0 -0.23397915826E+02  0.65513709010E+01 -0.32600431784E+02  0.40659206561E+02  0.00000000000E+00 0. -1.
         11    1    3    3    0    0 -0.14566622084E+01  0.28944484047E+01  0.70746053081E+00  0.33166544922E+01  0.51100000000E-03 0. -1.
        -11    1    3    3    0    0  0.44614470875E+01  0.60857139474E+01  0.14150592703E+02  0.16036823204E+02  0.51100000000E-03 0.  1.
        -12    1    3    3    0    0  0.20393130947E+02 -0.15531533253E+02  0.17742378550E+02  0.31175315742E+02  0.00000000000E+00 0.  1.
</event>
<event>
 7    1  0.6624035E-013  0.5052886E+02  0.7816164E-02  0.1300439E+00
        -11   -1    0    0    0    0  0.00000000000E+00  0.00000000000E+00  0.45593999997E+02  0.45594000000E+02  0.51100000000E-03 0. -1.
         11   -1    0    0    0    0 -0.00000000000E+00 -0.00000000000E+00 -0.45593999997E+02  0.45594000000E+02  0.51100000000E-03 0.  1.
    9900012    2    1    2    0    0  0.12871069678E+02  0.33416197631E+02 -0.19257697019E+02  0.50528860889E+02  0.30000003160E+02 0.  0.
         12    1    1    2    0    0 -0.12871069678E+02 -0.33416197631E+02  0.19257697019E+02  0.40659139111E+02  0.00000000000E+00 0. -1.
         11    1    3    3    0    0 -0.27932686597E+00 -0.25667065463E+01 -0.12406279819E+01  0.28644657518E+01  0.51100000000E-03 0. -1.
        -11    1    3    3    0    0 -0.41427266685E+01 -0.25414516879E-01 -0.22960899473E+01  0.47365450969E+01  0.51100000000E-03 0.  1.
        -12    1    3    3    0    0  0.17293123212E+02  0.36008318694E+02 -0.15720979090E+02  0.42927850041E+02  0.00000000000E+00 0.  1.
</event>
<event>
 7    1  0.9260969E-013  0.5052886E+02  0.7816164E-02  0.1300439E+00
        -11   -1    0    0    0    0  0.00000000000E+00  0.00000000000E+00  0.45593999997E+02  0.45594000000E+02  0.51100000000E-03 0. -1.
         11   -1    0    0    0    0 -0.00000000000E+00 -0.00000000000E+00 -0.45593999997E+02  0.45594000000E+02  0.51100000000E-03 0.  1.
    9900012    2    1    2    0    0  0.40236509469E+02 -0.45112814099E+01 -0.37198931432E+01  0.50528856389E+02  0.29999989480E+02 0.  0.
         12    1    1    2    0    0 -0.40236509469E+02  0.45112814099E+01  0.37198931432E+01  0.40659143611E+02  0.00000000000E+00 0. -1.
         11    1    3    3    0    0  0.22447581876E+02  0.48994841993E+01  0.47531999111E+01  0.23462561394E+02  0.51100000000E-03 0. -1.
        -11    1    3    3    0    0  0.16965424021E+02 -0.39653690016E+01 -0.56800807452E+00  0.17431936123E+02  0.51100000000E-03 0.  1.
         12    1    3    3    0    0  0.82350357094E+00 -0.54453966075E+01 -0.79050849798E+01  0.96343588724E+01  0.00000000000E+00 0. -1.
</event>
<event>
 7    1  0.6624035E-013  0.5052887E+02  0.7816164E-02  0.1300439E+00
        -11   -1    0    0    0    0  0.00000000000E+00  0.00000000000E+00  0.45593999997E+02  0.45594000000E+02  0.51100000000E-03 0. -1.
         11   -1    0    0    0    0 -0.00000000000E+00 -0.00000000000E+00 -0.45593999997E+02  0.45594000000E+02  0.51100000000E-03 0.  1.
    9900012    2    1    2    0    0 -0.82426651409E+01  0.38810072903E+02 -0.88883028977E+01  0.50528865531E+02  0.30000017269E+02 0.  0.
         12    1    1    2    0    0  0.82426651409E+01 -0.38810072903E+02  0.88883028977E+01  0.40659134469E+02  0.00000000000E+00 0. -1.
         11    1    3    3    0    0 -0.13172482321E+02  0.31036041242E+02 -0.71383631908E+01  0.34463116165E+02  0.51100000000E-03 0. -1.
        -11    1    3    3    0    0  0.54694431127E+00  0.10603116386E+02 -0.18274055352E+00  0.10618786162E+02  0.51100000000E-03 0.  1.
         12    1    3    3    0    0  0.43828728690E+01 -0.28290847256E+01 -0.15671991533E+01  0.54469632050E+01  0.00000000000E+00 0. -1.
</event>
<event>
 7    1  0.6624035E-013  0.5052886E+02  0.7816164E-02  0.1300439E+00
        -11   -1    0    0    0    0  0.00000000000E+00  0.00000000000E+00  0.45593999997E+02  0.45594000000E+02  0.51100000000E-03 0.  1.
         11   -1    0    0    0    0 -0.00000000000E+00 -0.00000000000E+00 -0.45593999997E+02  0.45594000000E+02  0.51100000000E-03 0. -1.
    9900012    2    1    2    0    0 -0.10523876841E+02 -0.18844029372E+02  0.34457456688E+02  0.50528858984E+02  0.29999997368E+02 0.  0.
         12    1    1    2    0    0  0.10523876841E+02  0.18844029372E+02 -0.34457456688E+02  0.40659141016E+02  0.00000000000E+00 0. -1.
         11    1    3    3    0    0  0.66730298377E+01 -0.55467537934E+00  0.31918430212E+01  0.74178739626E+01  0.51100000000E-03 0. -1.
        -11    1    3    3    0    0 -0.23355334186E+01 -0.35860258921E+01  0.17652262429E+02  0.18163608319E+02  0.51100000000E-03 0.  1.
        -12    1    3    3    0    0 -0.14861373260E+02 -0.14703328100E+02  0.13613351238E+02  0.24947376702E+02  0.00000000000E+00 0.  1.
</event>
<event>
 7    1  0.6624035E-013  0.5052885E+02  0.7816164E-02  0.1300439E+00
        -11   -1    0    0    0    0  0.00000000000E+00  0.00000000000E+00  0.45593999997E+02  0.45594000000E+02  0.51100000000E-03 0.  1.
         11   -1    0    0    0    0 -0.00000000000E+00 -0.00000000000E+00 -0.45593999997E+02  0.45594000000E+02  0.51100000000E-03 0. -1.
    9900012    2    1    2    0    0 -0.30394907306E+02 -0.23482321352E+02  0.13337789438E+02  0.50528850559E+02  0.29999971759E+02 0.  0.
         12    1    1    2    0    0  0.30394907306E+02  0.23482321352E+02 -0.13337789438E+02  0.40659149441E+02  0.00000000000E+00 0. -1.
         11    1    3    3    0    0 -0.15957544643E+02 -0.14797619237E+02 -0.24483472149E+01  0.21899935399E+02  0.51100000000E-03 0. -1.
        -11    1    3    3    0    0 -0.72031042685E+01 -0.89556822016E+01  0.25768467577E+00  0.11495884327E+02  0.51100000000E-03 0.  1.
        -12    1    3    3    0    0 -0.72342583943E+01  0.27098008755E+00  0.15528451977E+02  0.17133030833E+02  0.00000000000E+00 0.  1.
</event>
<event>
 7    1  0.6624035E-013  0.5052886E+02  0.7816164E-02  0.1300439E+00
        -11   -1    0    0    0    0  0.00000000000E+00  0.00000000000E+00  0.45593999997E+02  0.45594000000E+02  0.51100000000E-03 0. -1.
         11   -1    0    0    0    0 -0.00000000000E+00 -0.00000000000E+00 -0.45593999997E+02  0.45594000000E+02  0.51100000000E-03 0.  1.
    9900012    2    1    2    0    0 -0.14912498137E+02  0.25498072352E+02 -0.27939783536E+02  0.50528858367E+02  0.29999995491E+02 0.  0.
         12    1    1    2    0    0  0.14912498137E+02 -0.25498072352E+02  0.27939783536E+02  0.40659141633E+02  0.00000000000E+00 0. -1.
         11    1    3    3    0    0  0.16625190208E+01 -0.27708152836E+01  0.93557030750E-01  0.32326676306E+01  0.51100000000E-03 0. -1.
        -11    1    3    3    0    0 -0.53798219186E+01 -0.65046022223E+00 -0.10130360343E+02  0.11488680660E+02  0.51100000000E-03 0.  1.
        -12    1    3    3    0    0 -0.11195195239E+02  0.28919347858E+02 -0.17902980224E+02  0.35807510076E+02  0.00000000000E+00 0.  1.
</event>
<event>
 7    1  0.6624035E-013  0.5052885E+02  0.7816164E-02  0.1300439E+00
        -11   -1    0    0    0    0  0.00000000000E+00  0.00000000000E+00  0.45593999997E+02  0.45594000000E+02  0.51100000000E-03 0.  1.
         11   -1    0    0    0    0 -0.00000000000E+00 -0.00000000000E+00 -0.45593999997E+02  0.45594000000E+02  0.51100000000E-03 0. -1.
    9900012    2    1    2    0    0 -0.19926743862E+02 -0.35273074119E+02 -0.34498469053E+01  0.50528851923E+02  0.29999975904E+02 0.  0.
         12    1    1    2    0    0  0.19926743862E+02  0.35273074119E+02  0.34498469053E+01  0.40659148077E+02  0.00000000000E+00 0. -1.
         11    1    3    3    0    0 -0.48131600955E+01  0.13665314273E+01 -0.69009558112E+01  0.85239139845E+01  0.51100000000E-03 0. -1.
        -11    1    3    3    0    0  0.13073213145E+01 -0.12018032624E+02 -0.75496602274E+00  0.12112479975E+02  0.51100000000E-03 0.  1.
        -12    1    3    3    0    0 -0.16420905081E+02 -0.24621572922E+02  0.42060749286E+01  0.29892457964E+02  0.00000000000E+00 0.  1.
</event>
<event>
 7    1  0.6624035E-013  0.5052886E+02  0.7816164E-02  0.1300439E+00
        -11   -1    0    0    0    0  0.00000000000E+00  0.00000000000E+00  0.45593999997E+02  0.45594000000E+02  0.51100000000E-03 0.  1.
         11   -1    0    0    0    0 -0.00000000000E+00 -0.00000000000E+00 -0.45593999997E+02  0.45594000000E+02  0.51100000000E-03 0. -1.
    9900012    2    1    2    0    0 -0.38603567066E+02  0.25022149415E+00  0.12761946330E+02  0.50528864801E+02  0.30000015048E+02 0.  0.
         12    1    1    2    0    0  0.38603567066E+02 -0.25022149415E+00 -0.12761946330E+02  0.40659135199E+02  0.00000000000E+00 0. -1.
         11    1    3    3    0    0 -0.66781728013E+01  0.46309849424E+01  0.10256068383E+01  0.81912076734E+01  0.51100000000E-03 0. -1.
        -11    1    3    3    0    0 -0.95839464573E+01  0.97441167371E+00  0.16281623649E+02  0.18918054253E+02  0.51100000000E-03 0.  1.
        -12    1    3    3    0    0 -0.22341447808E+02 -0.53551751220E+01 -0.45452841574E+01  0.23419602874E+02  0.00000000000E+00 0.  1.
</event>
<event>
 7    1  0.6624035E-013  0.5052886E+02  0.7816164E-02  0.1300439E+00
        -11   -1    0    0    0    0  0.00000000000E+00  0.00000000000E+00  0.45593999997E+02  0.45594000000E+02  0.51100000000E-03 0.  1.
         11   -1    0    0    0    0 -0.00000000000E+00 -0.00000000000E+00 -0.45593999997E+02  0.45594000000E+02  0.51100000000E-03 0. -1.
    9900012    2    1    2    0    0  0.15001136727E+02 -0.30454415689E+02  0.22375439025E+02  0.50528858228E+02  0.29999995069E+02 0.  0.
         12    1    1    2    0    0 -0.15001136727E+02  0.30454415689E+02 -0.22375439025E+02  0.40659141772E+02  0.00000000000E+00 0. -1.
         11    1    3    3    0    0  0.13987069831E+02 -0.22354883051E+02  0.24207907832E+02  0.35796671920E+02  0.51100000000E-03 0. -1.
        -11    1    3    3    0    0  0.44447407839E+01 -0.32597267743E+01  0.36852492050E+01  0.66304299441E+01  0.51100000000E-03 0.  1.
         12    1    3    3    0    0 -0.34306738883E+01 -0.48398058643E+01 -0.55177180113E+01  0.81017563642E+01  0.00000000000E+00 0. -1.
</event>
<event>
 7    1  0.6624035E-013  0.5052885E+02  0.7816164E-02  0.1300439E+00
        -11   -1    0    0    0    0  0.00000000000E+00  0.00000000000E+00  0.45593999997E+02  0.45594000000E+02  0.51100000000E-03 0.  1.
         11   -1    0    0    0    0 -0.00000000000E+00 -0.00000000000E+00 -0.45593999997E+02  0.45594000000E+02  0.51100000000E-03 0. -1.
    9900012    2    1    2    0    0 -0.84416275515E+01  0.30144923666E+02  0.25945885341E+02  0.50528850172E+02  0.29999970584E+02 0.  0.
         12    1    1    2    0    0  0.84416275515E+01 -0.30144923666E+02 -0.25945885341E+02  0.40659149828E+02  0.00000000000E+00 0. -1.
         11    1    3    3    0    0  0.23785355853E+01  0.14461028461E+02  0.17472193555E+02  0.22804743445E+02  0.51100000000E-03 0. -1.
        -11    1    3    3    0    0 -0.50697076263E+01  0.12467334616E+02  0.13781597105E+02  0.19263145820E+02  0.51100000000E-03 0.  1.
         12    1    3    3    0    0 -0.57504555105E+01  0.32165605894E+01 -0.53079053195E+01  0.84609609078E+01  0.00000000000E+00 0. -1.
</event>
<event>
 7    1  0.6624035E-013  0.5052886E+02  0.7816164E-02  0.1300439E+00
        -11   -1    0    0    0    0  0.00000000000E+00  0.00000000000E+00  0.45593999997E+02  0.45594000000E+02  0.51100000000E-03 0.  1.
         11   -1    0    0    0    0 -0.00000000000E+00 -0.00000000000E+00 -0.45593999997E+02  0.45594000000E+02  0.51100000000E-03 0. -1.
    9900012    2    1    2    0    0  0.38155528185E+02  0.44932334117E+01 -0.13309086594E+02  0.50528864944E+02  0.30000015483E+02 0.  0.
         12    1    1    2    0    0 -0.38155528185E+02 -0.44932334117E+01  0.13309086594E+02  0.40659135056E+02  0.00000000000E+00 0. -1.
         11    1    3    3    0    0  0.16044397789E+02  0.34673774595E+01 -0.14043807526E+01  0.16474759252E+02  0.51100000000E-03 0. -1.
        -11    1    3    3    0    0  0.22508622476E+02  0.87445725282E+01 -0.96345874320E+01  0.25998671307E+02  0.51100000000E-03 0.  1.
         12    1    3    3    0    0 -0.39749208032E+00 -0.77187165759E+01 -0.22701184095E+01  0.80554343847E+01  0.00000000000E+00 0. -1.
</event>
<event>
 7    1  0.6624035E-013  0.5052886E+02  0.7816164E-02  0.1300439E+00
        -11   -1    0    0    0    0  0.00000000000E+00  0.00000000000E+00  0.45593999997E+02  0.45594000000E+02  0.51100000000E-03 0. -1.
         11   -1    0    0    0    0 -0.00000000000E+00 -0.00000000000E+00 -0.45593999997E+02  0.45594000000E+02  0.51100000000E-03 0.  1.
    9900012    2    1    2    0    0 -0.30588141261E+02 -0.16274326935E+02  0.21276222703E+02  0.50528858893E+02  0.29999997092E+02 0.  0.
         12    1    1    2    0    0  0.30588141261E+02  0.16274326935E+02 -0.21276222703E+02  0.40659141107E+02  0.00000000000E+00 0. -1.
         11    1    3    3    0    0 -0.31231386629E+01 -0.41385438213E+01  0.12315962670E+02  0.13362801982E+02  0.51100000000E-03 0. -1.
        -11    1    3    3    0    0  0.14488848376E+01 -0.56813298708E+01  0.40755588175E+01  0.71405151291E+01  0.51100000000E-03 0.  1.
        -12    1    3    3    0    0 -0.28913887436E+02 -0.64544532433E+01  0.48847012160E+01  0.30025541782E+02  0.00000000000E+00 0.  1.
</event>
<event>
 7    1  0.6624035E-013  0.5052881E+02  0.7816164E-02  0.1300439E+00
        -11   -1    0    0    0    0  0.00000000000E+00  0.00000000000E+00  0.45593999997E+02  0.45594000000E+02  0.51100000000E-03 0.  1.
         11   -1    0    0    0    0 -0.00000000000E+00 -0.00000000000E+00 -0.45593999997E+02  0.45594000000E+02  0.51100000000E-03 0. -1.
    9900012    2    1    2    0    0 -0.63730707148E+01 -0.30238860721E+02  0.26422807534E+02  0.50528813019E+02  0.29999857651E+02 0.  0.
         12    1    1    2    0    0  0.63730707148E+01  0.30238860721E+02 -0.26422807534E+02  0.40659186981E+02  0.00000000000E+00 0. -1.
         11    1    3    3    0    0 -0.93115181207E+01 -0.17146626269E+01 -0.41705544054E+00  0.94772555699E+01  0.51100000000E-03 0. -1.
        -11    1    3    3    0    0  0.81551373802E-01  0.82548159263E+00  0.30573338792E+01  0.31678638223E+01  0.51100000000E-03 0.  1.
         12    1    3    3    0    0  0.28568960321E+01 -0.29349679686E+02  0.23782529095E+02  0.37883693626E+02  0.00000000000E+00 0. -1.
</event>
<event>
 7    1  0.6624035E-013  0.5052886E+02  0.7816164E-02  0.1300439E+00
        -11   -1    0    0    0    0  0.00000000000E+00  0.00000000000E+00  0.45593999997E+02  0.45594000000E+02  0.51100000000E-03 0.  1.
         11   -1    0    0    0    0 -0.00000000000E+00 -0.00000000000E+00 -0.45593999997E+02  0.45594000000E+02  0.51100000000E-03 0. -1.
    9900012    2    1    2    0    0 -0.20220794544E+02  0.35227726611E+02 -0.18145295966E+01  0.50528858693E+02  0.29999996483E+02 0.  0.
         12    1    1    2    0    0  0.20220794544E+02 -0.35227726611E+02  0.18145295966E+01  0.40659141307E+02  0.00000000000E+00 0. -1.
         11    1    3    3    0    0 -0.12502278723E+02  0.17298116877E+02 -0.47553436295E+01  0.21866529538E+02  0.51100000000E-03 0.  1.
        -11    1    3    3    0    0 -0.55820216736E+01  0.20952035161E+02  0.73599315986E+01  0.22897933023E+02  0.51100000000E-03 0. -1.
         12    1    3    3    0    0 -0.21364941479E+01 -0.30224254266E+01 -0.44191175657E+01  0.57643961316E+01  0.00000000000E+00 0. -1.
</event>
<event>
 7    1  0.6624035E-013  0.5052887E+02  0.7816164E-02  0.1300439E+00
        -11   -1    0    0    0    0  0.00000000000E+00  0.00000000000E+00  0.45593999997E+02  0.45594000000E+02  0.51100000000E-03 0.  1.
         11   -1    0    0    0    0 -0.00000000000E+00 -0.00000000000E+00 -0.45593999997E+02  0.45594000000E+02  0.51100000000E-03 0. -1.
    9900012    2    1    2    0    0 -0.23732707651E+02  0.64796376189E+01  0.32371866128E+02  0.50528870241E+02  0.30000031585E+02 0.  0.
         12    1    1    2    0    0  0.23732707651E+02 -0.64796376189E+01 -0.32371866128E+02  0.40659129759E+02  0.00000000000E+00 0. -1.
         11    1    3    3    0    0  0.29570455938E+01  0.64410952812E+01  0.99794125641E+01  0.12240118564E+02  0.51100000000E-03 0. -1.
        -11    1    3    3    0    0 -0.17555848880E+02  0.47989049274E+01  0.21167891647E+02  0.27916248950E+02  0.51100000000E-03 0.  1.
         12    1    3    3    0    0 -0.91339043653E+01 -0.47603625897E+01  0.12245619168E+01  0.10372502727E+02  0.00000000000E+00 0. -1.
</event>
<event>
 7    1  0.6799702E-013  0.5052887E+02  0.7816164E-02  0.1300439E+00
        -11   -1    0    0    0    0  0.00000000000E+00  0.00000000000E+00  0.45593999997E+02  0.45594000000E+02  0.51100000000E-03 0. -1.
         11   -1    0    0    0    0 -0.00000000000E+00 -0.00000000000E+00 -0.45593999997E+02  0.45594000000E+02  0.51100000000E-03 0.  1.
    9900012    2    1    2    0    0  0.39532889125E+02 -0.44080920303E+01 -0.84192998620E+01  0.50528865626E+02  0.30000017556E+02 0.  0.
         12    1    1    2    0    0 -0.39532889125E+02  0.44080920303E+01  0.84192998620E+01  0.40659134374E+02  0.00000000000E+00 0. -1.
         11    1    3    3    0    0 -0.18975897006E+01  0.17203105934E+01 -0.52217086229E+01  0.58160602141E+01  0.51100000000E-03 0. -1.
        -11    1    3    3    0    0  0.95516681024E+01  0.12934071105E+01 -0.67820947415E+01  0.11785757287E+02  0.51100000000E-03 0.  1.
         12    1    3    3    0    0  0.31878810723E+02 -0.74218097342E+01  0.35845035025E+01  0.32927048124E+02  0.00000000000E+00 0. -1.
</event>
<event>
 7    1  0.6624035E-013  0.5052885E+02  0.7816164E-02  0.1300439E+00
        -11   -1    0    0    0    0  0.00000000000E+00  0.00000000000E+00  0.45593999997E+02  0.45594000000E+02  0.51100000000E-03 0. -1.
         11   -1    0    0    0    0 -0.00000000000E+00 -0.00000000000E+00 -0.45593999997E+02  0.45594000000E+02  0.51100000000E-03 0.  1.
    9900012    2    1    2    0    0 -0.36242800214E+01  0.20090064043E+02 -0.35162773101E+02  0.50528847388E+02  0.29999962122E+02 0.  0.
         12    1    1    2    0    0  0.36242800214E+01 -0.20090064043E+02  0.35162773101E+02  0.40659152612E+02  0.00000000000E+00 0. -1.
         11    1    3    3    0    0 -0.28416405193E+01  0.15623718663E+02 -0.18625165752E+02  0.24475953613E+02  0.51100000000E-03 0. -1.
        -11    1    3    3    0    0 -0.99011996935E+01  0.47950293500E+01 -0.87383905088E+01  0.14049396100E+02  0.51100000000E-03 0.  1.
         12    1    3    3    0    0  0.91185601914E+01 -0.32868397055E+00 -0.77992168406E+01  0.12003497675E+02  0.00000000000E+00 0. -1.
</event>
<event>
 7    1  0.6624035E-013  0.5052885E+02  0.7816164E-02  0.1300439E+00
        -11   -1    0    0    0    0  0.00000000000E+00  0.00000000000E+00  0.45593999997E+02  0.45594000000E+02  0.51100000000E-03 0.  1.
         11   -1    0    0    0    0 -0.00000000000E+00 -0.00000000000E+00 -0.45593999997E+02  0.45594000000E+02  0.51100000000E-03 0. -1.
    9900012    2    1    2    0    0  0.39223835429E+02  0.34663948325E+01  0.10131216803E+02  0.50528847121E+02  0.29999961310E+02 0.  0.
         12    1    1    2    0    0 -0.39223835429E+02 -0.34663948325E+01 -0.10131216803E+02  0.40659152879E+02  0.00000000000E+00 0. -1.
         11    1    3    3    0    0  0.74011364057E+01  0.51090529328E+01  0.27451769892E+01  0.94029377818E+01  0.51100000000E-03 0. -1.
        -11    1    3    3    0    0  0.28209120197E+02  0.54602282724E+01 -0.20129908376E+01  0.28803136764E+02  0.51100000000E-03 0.  1.
         12    1    3    3    0    0  0.36135788260E+01 -0.71028863726E+01  0.93990306517E+01  0.12322772575E+02  0.00000000000E+00 0. -1.
</event>
<event>
 7    1  0.6624035E-013  0.5052885E+02  0.7816164E-02  0.1300439E+00
        -11   -1    0    0    0    0  0.00000000000E+00  0.00000000000E+00  0.45593999997E+02  0.45594000000E+02  0.51100000000E-03 0.  1.
         11   -1    0    0    0    0 -0.00000000000E+00 -0.00000000000E+00 -0.45593999997E+02  0.45594000000E+02  0.51100000000E-03 0. -1.
    9900012    2    1    2    0    0  0.16176710305E+02 -0.39088543206E+01  0.37097182848E+02  0.50528854981E+02  0.29999985201E+02 0.  0.
         12    1    1    2    0    0 -0.16176710305E+02  0.39088543206E+01 -0.37097182848E+02  0.40659145019E+02  0.00000000000E+00 0. -1.
         11    1    3    3    0    0  0.10691965329E+02 -0.15784652947E+02  0.15297995647E+02  0.24443855308E+02  0.51100000000E-03 0.  1.
        -11    1    3    3    0    0  0.36761795562E+01  0.48161708614E+01  0.53070549512E+01  0.80544789038E+01  0.51100000000E-03 0. -1.
        -12    1    3    3    0    0  0.18085654193E+01  0.70596277650E+01  0.16492132250E+02  0.18030520769E+02  0.00000000000E+00 0.  1.
</event>
<event>
 7    1  0.6624035E-013  0.5052886E+02  0.7816164E-02  0.1300439E+00
        -11   -1    0    0    0    0  0.00000000000E+00  0.00000000000E+00  0.45593999997E+02  0.45594000000E+02  0.51100000000E-03 0. -1.
         11   -1    0    0    0    0 -0.00000000000E+00 -0.00000000000E+00 -0.45593999997E+02  0.45594000000E+02  0.51100000000E-03 0.  1.
    9900012    2    1    2    0    0  0.16210188923E+02 -0.37287888767E+02 -0.95280371086E-01  0.50528856478E+02  0.29999989750E+02 0.  0.
         12    1    1    2    0    0 -0.16210188923E+02  0.37287888767E+02  0.95280371086E-01  0.40659143522E+02  0.00000000000E+00 0. -1.
         11    1    3    3    0    0  0.36355254753E+01 -0.21415955346E+01  0.60584867753E+01  0.73830033986E+01  0.51100000000E-03 0. -1.
        -11    1    3    3    0    0  0.88729280991E+01 -0.12657448198E+02  0.68479707910E+01  0.16906642249E+02  0.51100000000E-03 0.  1.
        -12    1    3    3    0    0  0.37017353483E+01 -0.22488845034E+02 -0.13001737937E+02  0.26239210830E+02  0.00000000000E+00 0.  1.
</event>
<event>
 7    1  0.6624035E-013  0.5052887E+02  0.7816164E-02  0.1300439E+00
        -11   -1    0    0    0    0  0.00000000000E+00  0.00000000000E+00  0.45593999997E+02  0.45594000000E+02  0.51100000000E-03 0.  1.
         11   -1    0    0    0    0 -0.00000000000E+00 -0.00000000000E+00 -0.45593999997E+02  0.45594000000E+02  0.51100000000E-03 0. -1.
    9900012    2    1    2    0    0 -0.33051025472E+02  0.21356330687E+02  0.10232398461E+02  0.50528866667E+02  0.30000020720E+02 0.  0.
         12    1    1    2    0    0  0.33051025472E+02 -0.21356330687E+02 -0.10232398461E+02  0.40659133333E+02  0.00000000000E+00 0. -1.
         11    1    3    3    0    0 -0.20968958705E+02  0.11392074954E+02  0.12458077607E+02  0.26919886680E+02  0.51100000000E-03 0. -1.
        -11    1    3    3    0    0 -0.13326387219E+02  0.30906230674E+01  0.39990053558E+01  0.14252599460E+02  0.51100000000E-03 0.  1.
         12    1    3    3    0    0  0.12443204532E+01  0.68736326665E+01 -0.62246845012E+01  0.93563805269E+01  0.00000000000E+00 0. -1.
</event>
<event>
 7    1  0.6624035E-013  0.5052885E+02  0.7816164E-02  0.1300439E+00
        -11   -1    0    0    0    0  0.00000000000E+00  0.00000000000E+00  0.45593999997E+02  0.45594000000E+02  0.51100000000E-03 0.  1.
         11   -1    0    0    0    0 -0.00000000000E+00 -0.00000000000E+00 -0.45593999997E+02  0.45594000000E+02  0.51100000000E-03 0. -1.
    9900012    2    1    2    0    0 -0.35377457319E+02  0.19953286448E+02  0.18623746918E+01  0.50528848928E+02  0.29999966800E+02 0.  0.
         12    1    1    2    0    0  0.35377457319E+02 -0.19953286448E+02 -0.18623746918E+01  0.40659151072E+02  0.00000000000E+00 0. -1.
         11    1    3    3    0    0 -0.98891260899E+01 -0.34768710847E+00  0.46307036858E+01  0.10925159863E+02  0.51100000000E-03 0. -1.
        -11    1    3    3    0    0 -0.11937761970E+02  0.52986017442E-01  0.64322219624E+01  0.13560473739E+02  0.51100000000E-03 0.  1.
        -12    1    3    3    0    0 -0.13550569259E+02  0.20247987539E+02 -0.92005509564E+01  0.26043215326E+02  0.00000000000E+00 0.  1.
</event>
<event>
 7    1  0.6624035E-013  0.5052886E+02  0.7816164E-02  0.1300439E+00
        -11   -1    0    0    0    0  0.00000000000E+00  0.00000000000E+00  0.45593999997E+02  0.45594000000E+02  0.51100000000E-03 0.  1.
         11   -1    0    0    0    0 -0.00000000000E+00 -0.00000000000E+00 -0.45593999997E+02  0.45594000000E+02  0.51100000000E-03 0. -1.
    9900012    2    1    2    0    0  0.27359921459E+02 -0.22844519683E+02  0.19563447514E+02  0.50528857604E+02  0.29999993172E+02 0.  0.
         12    1    1    2    0    0 -0.27359921459E+02  0.22844519683E+02 -0.19563447514E+02  0.40659142396E+02  0.00000000000E+00 0. -1.
         11    1    3    3    0    0  0.28211091469E+01  0.58227971990E+01  0.31233501678E+00  0.64777447822E+01  0.51100000000E-03 0. -1.
        -11    1    3    3    0    0  0.44595027578E+01 -0.14166958033E+02  0.74274945746E+01  0.16605948954E+02  0.51100000000E-03 0.  1.
        -12    1    3    3    0    0  0.20079309554E+02 -0.14500358849E+02  0.11823617923E+02  0.27445163867E+02  0.00000000000E+00 0.  1.
</event>
<event>
 7    1  0.6624035E-013  0.5052887E+02  0.7816164E-02  0.1300439E+00
        -11   -1    0    0    0    0  0.00000000000E+00  0.00000000000E+00  0.45593999997E+02  0.45594000000E+02  0.51100000000E-03 0. -1.
         11   -1    0    0    0    0 -0.00000000000E+00 -0.00000000000E+00 -0.45593999997E+02  0.45594000000E+02  0.51100000000E-03 0.  1.
    9900012    2    1    2    0    0 -0.39995689029E+02  0.34055665106E+01 -0.64739367666E+01  0.50528869643E+02  0.30000029766E+02 0.  0.
         12    1    1    2    0    0  0.39995689029E+02 -0.34055665106E+01  0.64739367666E+01  0.40659130357E+02  0.00000000000E+00 0. -1.
         11    1    3    3    0    0 -0.51957093648E+01 -0.22387397395E+01  0.45082187210E+01  0.72340436633E+01  0.51100000000E-03 0. -1.
        -11    1    3    3    0    0 -0.47880987756E+00 -0.44713023874E+01  0.23953055345E+01  0.50950262809E+01  0.51100000000E-03 0.  1.
        -12    1    3    3    0    0 -0.34321169786E+02  0.10115608638E+02 -0.13377461022E+02  0.38199799699E+02  0.00000000000E+00 0.  1.
</event>
<event>
 7    1  0.6624035E-013  0.5052887E+02  0.7816164E-02  0.1300439E+00
        -11   -1    0    0    0    0  0.00000000000E+00  0.00000000000E+00  0.45593999997E+02  0.45594000000E+02  0.51100000000E-03 0.  1.
         11   -1    0    0    0    0 -0.00000000000E+00 -0.00000000000E+00 -0.45593999997E+02  0.45594000000E+02  0.51100000000E-03 0. -1.
    9900012    2    1    2    0    0  0.55489554839E+01  0.46661983182E+01  0.40007509082E+02  0.50528866995E+02  0.30000021719E+02 0.  0.
         12    1    1    2    0    0 -0.55489554839E+01 -0.46661983182E+01 -0.40007509082E+02  0.40659133005E+02  0.00000000000E+00 0. -1.
         11    1    3    3    0    0  0.47427099572E+01  0.22308889662E+01  0.19119979876E+02  0.19825332129E+02  0.51100000000E-03 0. -1.
        -11    1    3    3    0    0  0.10796895947E+01 -0.58299156199E+01  0.21603987253E+02  0.22402810342E+02  0.51100000000E-03 0.  1.
         12    1    3    3    0    0 -0.27344406806E+00  0.82652249718E+01 -0.71645804604E+00  0.83007245241E+01  0.00000000000E+00 0. -1.
</event>
<event>
 7    1  0.6624035E-013  0.5052887E+02  0.7816164E-02  0.1300439E+00
        -11   -1    0    0    0    0  0.00000000000E+00  0.00000000000E+00  0.45593999997E+02  0.45594000000E+02  0.51100000000E-03 0.  1.
         11   -1    0    0    0    0 -0.00000000000E+00 -0.00000000000E+00 -0.45593999997E+02  0.45594000000E+02  0.51100000000E-03 0. -1.
    9900012    2    1    2    0    0 -0.24415330166E+02  0.68820579632E+01  0.31775684169E+02  0.50528866053E+02  0.30000018854E+02 0.  0.
         12    1    1    2    0    0  0.24415330166E+02 -0.68820579632E+01 -0.31775684169E+02  0.40659133947E+02  0.00000000000E+00 0. -1.
         11    1    3    3    0    0  0.12934926011E+01  0.43153103828E+01 -0.17691924873E+00  0.45084728557E+01  0.51100000000E-03 0. -1.
        -11    1    3    3    0    0 -0.24796182558E+02  0.63685292386E+01  0.17406383514E+02  0.30957891101E+02  0.51100000000E-03 0.  1.
        -12    1    3    3    0    0 -0.91264020960E+00 -0.38017816582E+01  0.14546219903E+02  0.15062502096E+02  0.00000000000E+00 0.  1.
</event>
<event>
 7    1  0.6624035E-013  0.5052889E+02  0.7816164E-02  0.1300439E+00
        -11   -1    0    0    0    0  0.00000000000E+00  0.00000000000E+00  0.45593999997E+02  0.45594000000E+02  0.51100000000E-03 0.  1.
         11   -1    0    0    0    0 -0.00000000000E+00 -0.00000000000E+00 -0.45593999997E+02  0.45594000000E+02  0.51100000000E-03 0. -1.
    9900012    2    1    2    0    0  0.24479218863E+02 -0.27851070746E+02  0.16680799745E+02  0.50528888131E+02  0.30000085964E+02 0.  0.
         12    1    1    2    0    0 -0.24479218863E+02  0.27851070746E+02 -0.16680799745E+02  0.40659111869E+02  0.00000000000E+00 0. -1.
         11    1    3    3    0    0 -0.49957682984E+01 -0.86203990161E+01  0.52482234387E+01  0.11261120265E+02  0.51100000000E-03 0. -1.
        -11    1    3    3    0    0  0.71487244367E+01 -0.13356942535E+01  0.73944671608E+01  0.10371426376E+02  0.51100000000E-03 0.  1.
        -12    1    3    3    0    0  0.22326262724E+02 -0.17894977476E+02  0.40381091450E+01  0.28896341491E+02  0.00000000000E+00 0.  1.
</event>
<event>
 7    1  0.6624035E-013  0.5052886E+02  0.7816164E-02  0.1300439E+00
        -11   -1    0    0    0    0  0.00000000000E+00  0.00000000000E+00  0.45593999997E+02  0.45594000000E+02  0.51100000000E-03 0.  1.
         11   -1    0    0    0    0 -0.00000000000E+00 -0.00000000000E+00 -0.45593999997E+02  0.45594000000E+02  0.51100000000E-03 0. -1.
    9900012    2    1    2    0    0  0.12490747483E+01  0.37094797636E+02  0.16600644290E+02  0.50528860926E+02  0.30000003272E+02 0.  0.
         12    1    1    2    0    0 -0.12490747483E+01 -0.37094797636E+02 -0.16600644290E+02  0.40659139074E+02  0.00000000000E+00 0. -1.
         11    1    3    3    0    0  0.66620544894E+01  0.73937171606E+00  0.53207626727E+01  0.85580462861E+01  0.51100000000E-03 0. -1.
        -11    1    3    3    0    0  0.57953402297E+01  0.10005847058E+02  0.52949185816E+01  0.12717669077E+02  0.51100000000E-03 0.  1.
         12    1    3    3    0    0 -0.11208319971E+02  0.26349578862E+02  0.59849630354E+01  0.29253145563E+02  0.00000000000E+00 0. -1.
</event>
<event>
 7    1  0.6624035E-013  0.5052886E+02  0.7816164E-02  0.1300439E+00
        -11   -1    0    0    0    0  0.00000000000E+00  0.00000000000E+00  0.45593999997E+02  0.45594000000E+02  0.51100000000E-03 0. -1.
         11   -1    0    0    0    0 -0.00000000000E+00 -0.00000000000E+00 -0.45593999997E+02  0.45594000000E+02  0.51100000000E-03 0.  1.
    9900012    2    1    2    0    0 -0.17053988386E+02 -0.28658176160E+02 -0.23260180899E+02  0.50528860853E+02  0.30000003050E+02 0.  0.
         12    1    1    2    0    0  0.17053988386E+02  0.28658176160E+02  0.23260180899E+02  0.40659139147E+02  0.00000000000E+00 0. -1.
         11    1    3    3    0    0  0.14715710899E+01 -0.63625024276E+01 -0.13770059876E+01  0.66740620588E+01  0.51100000000E-03 0. -1.
        -11    1    3    3    0    0  0.75891969519E+00 -0.86348181581E+01 -0.17900437296E+02  0.19888732975E+02  0.51100000000E-03 0.  1.
        -12    1    3    3    0    0 -0.19284479172E+02 -0.13660855574E+02 -0.39827376163E+01  0.23966065819E+02  0.00000000000E+00 0.  1.
</event>
<event>
 7    1  0.6624035E-013  0.5052881E+02  0.7816164E-02  0.1300439E+00
        -11   -1    0    0    0    0  0.00000000000E+00  0.00000000000E+00  0.45593999997E+02  0.45594000000E+02  0.51100000000E-03 0. -1.
         11   -1    0    0    0    0 -0.00000000000E+00 -0.00000000000E+00 -0.45593999997E+02  0.45594000000E+02  0.51100000000E-03 0.  1.
    9900012    2    1    2    0    0 -0.32661178307E+01  0.40431436067E+02 -0.27930866440E+01  0.50528808159E+02  0.29999842880E+02 0.  0.
         12    1    1    2    0    0  0.32661178307E+01 -0.40431436067E+02  0.27930866440E+01  0.40659191841E+02  0.00000000000E+00 0. -1.
         11    1    3    3    0    0 -0.11551976497E+02  0.31999322278E+01 -0.45235770871E+00  0.11995513953E+02  0.51100000000E-03 0. -1.
        -11    1    3    3    0    0  0.48732348937E+00  0.26509310284E+01 -0.14775338281E+01  0.30737641378E+01  0.51100000000E-03 0.  1.
         12    1    3    3    0    0  0.77985351768E+01  0.34580572811E+02 -0.86319510718E+00  0.35459530068E+02  0.00000000000E+00 0. -1.
</event>
<event>
 7    1  0.6624035E-013  0.5052888E+02  0.7816164E-02  0.1300439E+00
        -11   -1    0    0    0    0  0.00000000000E+00  0.00000000000E+00  0.45593999997E+02  0.45594000000E+02  0.51100000000E-03 0.  1.
         11   -1    0    0    0    0 -0.00000000000E+00 -0.00000000000E+00 -0.45593999997E+02  0.45594000000E+02  0.51100000000E-03 0. -1.
    9900012    2    1    2    0    0  0.17007831897E+02  0.36602971210E+02  0.49112568522E+01  0.50528876901E+02  0.30000051829E+02 0.  0.
         12    1    1    2    0    0 -0.17007831897E+02 -0.36602971210E+02 -0.49112568522E+01  0.40659123099E+02  0.00000000000E+00 0. -1.
         11    1    3    3    0    0  0.43237856547E+01 -0.85489616198E+00  0.23489021544E+01  0.49943279256E+01  0.51100000000E-03 0.  1.
        -11    1    3    3    0    0  0.25293189731E+01 -0.41682418626E+00 -0.49821794282E+01  0.56029732273E+01  0.51100000000E-03 0. -1.
        -12    1    3    3    0    0  0.10154727269E+02  0.37874691559E+02  0.75445341260E+01  0.39931575749E+02  0.00000000000E+00 0.  1.
</event>
<event>
 7    1  0.7160180E-013  0.5052883E+02  0.7816164E-02  0.1300439E+00
        -11   -1    0    0    0    0  0.00000000000E+00  0.00000000000E+00  0.45593999997E+02  0.45594000000E+02  0.51100000000E-03 0. -1.
         11   -1    0    0    0    0 -0.00000000000E+00 -0.00000000000E+00 -0.45593999997E+02  0.45594000000E+02  0.51100000000E-03 0.  1.
    9900012    2    1    2    0    0 -0.39344650279E+01 -0.30974388968E+02 -0.26043711588E+02  0.50528834979E+02  0.29999924401E+02 0.  0.
         12    1    1    2    0    0  0.39344650279E+01  0.30974388968E+02  0.26043711588E+02  0.40659165021E+02  0.00000000000E+00 0. -1.
         11    1    3    3    0    0 -0.49698278102E+01 -0.20403781757E+02 -0.38520759494E+01  0.21350690570E+02  0.51100000000E-03 0. -1.
        -11    1    3    3    0    0 -0.68092119109E+00 -0.11939416536E+02 -0.70583385629E+01  0.13886448949E+02  0.51100000000E-03 0.  1.
         12    1    3    3    0    0  0.17162839733E+01  0.13688093251E+01 -0.15133297075E+02  0.15291695459E+02  0.00000000000E+00 0. -1.
</event>
<event>
 7    1  0.6624035E-013  0.5052885E+02  0.7816164E-02  0.1300439E+00
        -11   -1    0    0    0    0  0.00000000000E+00  0.00000000000E+00  0.45593999997E+02  0.45594000000E+02  0.51100000000E-03 0.  1.
         11   -1    0    0    0    0 -0.00000000000E+00 -0.00000000000E+00 -0.45593999997E+02  0.45594000000E+02  0.51100000000E-03 0. -1.
    9900012    2    1    2    0    0 -0.42270076041E+01  0.12398100714E+01  0.40419820485E+02  0.50528848382E+02  0.29999965141E+02 0.  0.
         12    1    1    2    0    0  0.42270076041E+01 -0.12398100714E+01 -0.40419820485E+02  0.40659151618E+02  0.00000000000E+00 0. -1.
         11    1    3    3    0    0 -0.41712962677E+01 -0.67681337430E+01  0.20731640470E+02  0.22203789400E+02  0.51100000000E-03 0. -1.
        -11    1    3    3    0    0  0.26070984937E+01 -0.35408496105E+01  0.14912492614E+02  0.15547251035E+02  0.51100000000E-03 0.  1.
         12    1    3    3    0    0 -0.26628098302E+01  0.11548793425E+02  0.47756874009E+01  0.12777807946E+02  0.00000000000E+00 0. -1.
</event>
<event>
 7    1  0.6624035E-013  0.5052880E+02  0.7816164E-02  0.1300439E+00
        -11   -1    0    0    0    0  0.00000000000E+00  0.00000000000E+00  0.45593999997E+02  0.45594000000E+02  0.51100000000E-03 0.  1.
         11   -1    0    0    0    0 -0.00000000000E+00 -0.00000000000E+00 -0.45593999997E+02  0.45594000000E+02  0.51100000000E-03 0. -1.
    9900012    2    1    2    0    0 -0.41606508687E+01 -0.34421084782E+02  0.21237897540E+02  0.50528801961E+02  0.29999824041E+02 0.  0.
         12    1    1    2    0    0  0.41606508687E+01  0.34421084782E+02 -0.21237897540E+02  0.40659198039E+02  0.00000000000E+00 0. -1.
         11    1    3    3    0    0  0.39240569663E+01 -0.22127755675E+01  0.76436248803E+01  0.88724066836E+01  0.51100000000E-03 0. -1.
        -11    1    3    3    0    0 -0.14282329144E+01 -0.13718521416E+02  0.16809206306E+02  0.21743667952E+02  0.51100000000E-03 0.  1.
        -12    1    3    3    0    0 -0.66564749207E+01 -0.18489787799E+02 -0.32149336461E+01  0.19912727326E+02  0.00000000000E+00 0.  1.
</event>
<event>
 7    1  0.6624035E-013  0.5052886E+02  0.7816164E-02  0.1300439E+00
        -11   -1    0    0    0    0  0.00000000000E+00  0.00000000000E+00  0.45593999997E+02  0.45594000000E+02  0.51100000000E-03 0.  1.
         11   -1    0    0    0    0 -0.00000000000E+00 -0.00000000000E+00 -0.45593999997E+02  0.45594000000E+02  0.51100000000E-03 0. -1.
    9900012    2    1    2    0    0  0.39794532277E+02 -0.66231263909E+01  0.50690416510E+01  0.50528858524E+02  0.29999995968E+02 0.  0.
         12    1    1    2    0    0 -0.39794532277E+02  0.66231263909E+01 -0.50690416510E+01  0.40659141476E+02  0.00000000000E+00 0. -1.
         11    1    3    3    0    0  0.85508661466E+01 -0.12877934618E+02  0.49666869376E+01  0.16236578804E+02  0.51100000000E-03 0. -1.
        -11    1    3    3    0    0  0.19652198074E+02 -0.25607990053E-02 -0.48121603246E+01  0.20232789796E+02  0.51100000000E-03 0.  1.
        -12    1    3    3    0    0  0.11591468057E+02  0.62573690258E+01  0.49145150379E+01  0.14059489923E+02  0.00000000000E+00 0.  1.
</event>
